Membrane in water
40155
    1TCq1    O1    1   3.990   2.473  10.878  0.0474 -0.2727  0.4036
    1TCq1    C1    2   4.003   2.357  10.940  0.5156  0.7309  0.0243
    1TCq1    O2    3   3.913   2.277  10.969 -0.5826  0.1785  0.0167
    1TCq1    C2    4   4.144   2.324  10.968 -0.2311 -0.1735  0.5375
    1TCq1    C3    5   4.234   2.360  10.870  0.4056  0.2300  0.4560
    1TCq1    C4    6   4.362   2.305  10.894  0.6774  0.2198  0.6810
    1TCq1    C5    7   4.386   2.217  10.994 -0.6022  0.0218 -0.8944
    1TCq1    C6    8   4.290   2.179  11.083 -0.3136  0.7721  0.3662
    1TCq1    C7    9   4.162   2.232  11.061 -0.2490  0.6337  0.4081
    1TCq1    C8   10   4.329   2.146  11.219 -0.3197  0.3845 -0.2746
    1TCq1    O4   11   4.235   2.133  11.295  0.3850  0.0341  0.2367
    1TCq1    C9   12   4.459   2.341  10.799  0.5962  0.0073  0.0247
    1TCq1    O5   13   4.402   2.398  10.700  0.3353 -0.3835 -0.4399
    1TCq1    O6   14   4.584   2.334  10.815  0.3733 -0.1304 -0.0876
    1TCq1    H1   15   4.067   2.534  10.870  0.4100 -1.1233 -2.8937
    1TCq1    H2   16   4.213   2.442  10.802  1.0733 -0.2307 -0.3093
    1TCq1    H3   17   4.487   2.178  10.999  0.0067  1.7064 -0.1562
    1TCq1    H4   18   4.087   2.220  11.139 -0.8650 -0.2657 -0.3216
    2MPD2     C   19   4.684   2.111  11.589 -0.1275  0.0695  0.4339
    2MPD2    C1   20   4.545   2.118  11.590 -0.5732  1.5448 -0.5074
    2MPD2    C2   21   4.476   2.122  11.474 -0.7448  0.6635 -0.5801
    2MPD2    C3   22   4.539   2.150  11.358 -1.2086  0.2754 -0.2698
    2MPD2    C4   23   4.670   2.168  11.356 -0.0355  0.4890 -0.0392
    2MPD2    C5   24   0.015   2.143  11.468  0.4322  0.0793 -0.1890
    2MPD2     H   25   4.369   2.120  11.486 -0.5670 -2.2099  0.5843
    2MPD2    H1   26   0.001   2.208  11.271  0.2995 -1.3275 -0.6654
    2MPD2    H2   27   0.031   2.093  11.669 -0.9307  0.6894  1.2949
    2MPD2    H3   28   0.121   2.165  11.469  0.1057  1.5596  1.7531
    2MPD2     N   29   4.465   2.171  11.235  0.3654  0.8061  0.0851
    2MPD2    H5   30   4.516   2.187  11.150 -0.5267  1.0034 -0.4169
    2MPD2    N1   31   4.474   2.106  11.715  0.2771  0.0185 -0.8888
    2MPD2    H7   32   4.373   2.109  11.710  0.1156 -2.2357  0.7882
    3TCq1    O1   33   4.194   3.080  10.295  0.3555  0.3309  0.5219
    3TCq1    C1   34   4.064   3.060  10.326  0.2554 -0.2618  0.3931
    3TCq1    O2   35   3.989   2.984  10.268 -0.2460  0.0128  0.4304
    3TCq1    C2   36   4.014   3.175  10.405  0.4090  0.2500  0.0429
    3TCq1    C3   37   4.058   3.304  10.389 -0.1549  0.0730  0.1899
    3TCq1    C4   38   3.979   3.409  10.425  0.4771  0.3507  0.1336
    3TCq1    C5   39   3.867   3.392  10.496  0.0308  1.1535 -0.4965
    3TCq1    C6   40   3.819   3.260  10.507 -0.2957 -0.5613 -0.3816
    3TCq1    C7   41   3.887   3.151  10.462  0.0472  0.5134  0.2016
    3TCq1    C8   42   3.708   3.224  10.594  0.2551 -0.2861 -0.6661
    3TCq1    O4   43   3.674   3.109  10.615  0.1553  0.4832  0.7643
    3TCq1    C9   44   4.038   3.541  10.410  0.1427  0.2571 -0.0352
    3TCq1    O5   45   4.149   3.559  10.349  0.3687  0.1767  0.5156
    3TCq1    O6   46   3.995   3.625  10.498  0.0455  0.1490 -0.2432
    3TCq1    H1   47   4.242   3.143  10.354 -0.6935  2.7084 -1.1453
    3TCq1    H2   48   4.152   3.330  10.341  0.2909 -1.3831  0.2639
    3TCq1    H3   49   3.807   3.481  10.512 -0.1933  0.5099  2.3393
    3TCq1    H4   50   3.845   3.051  10.469 -0.9235  1.0989  2.5406
    4MPD2     C   51   3.301   3.393  10.863 -0.8589  0.0893  0.3695
    4MPD2    C1   52   3.375   3.503  10.826 -0.4495  0.2094 -0.6049
    4MPD2    C2   53   3.489   3.477  10.751 -0.0333  0.1621 -0.0567
    4MPD2    C3   54   3.531   3.349  10.713 -0.3199 -0.1931 -0.3231
    4MPD2    C4   55   3.454   3.243  10.748  0.6739 -0.1827 -0.0962
    4MPD2    C5   56   3.345   3.265  10.826  0.2310  0.0904  0.1963
    4MPD2     H   57   3.555   3.559  10.727 -0.3223  0.6525  0.8419
    4MPD2    H1   58   3.491   3.143  10.726 -0.2422 -0.1830 -1.6803
    4MPD2    H2   59   3.222   3.396  10.937 -2.9188 -0.3755 -1.8046
    4MPD2    H3   60   3.282   3.188  10.871 -0.8677  0.6181 -0.4345
    4MPD2     N   61   3.652   3.336  10.648  0.2033  0.2408 -0.4143
    4MPD2    H5   62   3.691   3.425  10.617  2.4335 -1.1562 -1.5759
    4MPD2    N1   63   3.342   3.634  10.851 -0.2973  0.1057 -0.2360
    4MPD2    H7   64   3.425   3.691  10.842 -0.3377 -0.2625 -2.9704
    5TCq1    O1   65   4.364   4.657  12.134 -0.0563  0.7700 -0.4454
    5TCq1    C1   66   4.422   4.717  12.033  0.1676  0.2976 -0.1657
    5TCq1    O2   67   4.530   4.699  11.978 -0.5316 -0.1837 -0.0316
    5TCq1    C2   68   4.323   0.054  11.956 -0.2808  0.5269  0.2095
    5TCq1    C3   69   4.213   0.128  12.009  0.3455  0.0776 -0.5639
    5TCq1    C4   70   4.155   0.214  11.921 -0.4214 -0.1060  0.0723
    5TCq1    C5   71   4.197   0.230  11.793  0.4299  0.4959 -0.0510
    5TCq1    C6   72   4.294   0.146  11.739  0.3089  0.6490 -0.2353
    5TCq1    C7   73   4.367   0.064  11.821  0.0499  0.1303 -0.0830
    5TCq1    C8   74   4.301   0.122  11.598 -0.8235  0.2754  0.5084
    5TCq1    O4   75   4.389   0.047  11.559 -0.2394  0.1074  1.0412
    5TCq1    C9   76   4.056   0.304  11.977  0.5890 -0.0297 -0.3687
    5TCq1    O5   77   4.034   0.294  12.104 -0.2663 -0.0352  0.7310
    5TCq1    O6   78   4.017   0.392  11.900 -0.2471  0.6155 -0.6460
    5TCq1    H1   79   4.266   4.662  12.127 -0.2142 -0.0726  1.0537
    5TCq1    H2   80   4.184   0.124  12.113 -0.1653  1.4785 -0.6595
    5TCq1    H3   81   4.150   0.310  11.736  0.5819  0.0313 -0.8318
    5TCq1    H4   82   4.433   4.720  11.769  0.2641  0.5297 -0.3352
    6MPD2     C   83   4.080   0.224  11.316 -0.2341 -0.5376 -0.0122
    6MPD2    C1   84   4.181   0.157  11.384  0.4248 -0.0340  0.4949
    6MPD2    C2   85   4.262   0.074  11.305 -1.4043 -0.2854  0.0826
    6MPD2    C3   86   4.231   0.054  11.170  0.3529  0.2510  0.0165
    6MPD2    C4   87   4.134   0.132  11.111  0.2762 -0.0424  0.3292
    6MPD2    C5   88   4.056   0.212  11.186 -0.4395  0.3469  0.6745
    6MPD2     H   89   4.337   0.009  11.349  0.2110  1.9409  0.6425
    6MPD2    H1   90   4.105   0.133  11.006  0.7588 -0.7399  0.1886
    6MPD2    H2   91   4.010   0.279  11.378 -0.5374  0.7247 -1.4778
    6MPD2    H3   92   3.963   0.254  11.149 -0.7433 -0.4236  0.5687
    6MPD2     N   93   4.308   4.690  11.090  0.2724 -0.3719  0.5503
    6MPD2    H5   94   4.370   4.630  11.142 -1.2658 -2.5843 -0.1807
    6MPD2    N1   95   4.199   0.182  11.523 -0.0305  0.1912 -0.0094
    6MPD2    H7   96   4.146   0.255  11.569 -0.2910  0.4105 -0.6695
    7TCq1    O1   97   1.223   0.128  12.937 -0.0096  0.1396  0.2396
    7TCq1    C1   98   1.272   0.007  12.944  0.1459  0.7263 -0.6756
    7TCq1    O2   99   1.298   4.666  12.844 -0.2484 -0.2046 -0.2548
    7TCq1    C2  100   1.349   0.005  13.062  0.3796  0.0191  0.6226
    7TCq1    C3  101   1.366   0.114  13.146 -0.0824  0.4935  0.0965
    7TCq1    C4  102   1.447   0.097  13.254 -0.2225  0.1688  0.4317
    7TCq1    C5  103   1.520   4.703  13.272 -0.1146  0.5874 -0.6543
    7TCq1    C6  104   1.511   4.604  13.176  0.2352  0.0795  0.0307
    7TCq1    C7  105   1.416   4.618  13.079  0.6104 -0.4674  0.7220
    7TCq1    C8  106   1.564   4.478  13.195  0.0660 -0.0480 -0.0925
    7TCq1    O4  107   1.496   4.377  13.160  0.1983 -0.5085  0.2438
    7TCq1    C9  108   1.447   0.201  13.352 -0.4495 -0.0119  0.4040
    7TCq1    O5  109   1.395   0.314  13.327 -0.2810  0.4263  0.1166
    7TCq1    O6  110   1.480   0.171  13.469  0.2819  0.4591  0.2226
    7TCq1    H1  111   1.194   0.165  13.023 -1.8297 -1.3196  0.2608
    7TCq1    H2  112   1.320   0.212  13.134 -1.2938 -0.4019 -2.5144
    7TCq1    H3  113   1.588   4.689  13.355 -0.1930 -2.3981 -1.0878
    7TCq1    H4  114   1.396   4.539  13.007  2.6227  0.2914 -0.6955
    8MPD2     C  115   1.902   4.154  13.398  0.4225 -0.8858 -1.3861
    8MPD2    C1  116   1.765   4.132  13.365  0.2749  0.1970  0.3406
    8MPD2    C2  117   1.704   4.233  13.296  0.1358 -0.7386  0.3082
    8MPD2    C3  118   1.751   4.362  13.307 -0.4966 -0.2208 -0.2265
    8MPD2    C4  119   1.878   4.387  13.354  0.3368  0.1210  0.7244
    8MPD2    C5  120   1.950   4.276  13.392 -0.2508  0.1138  0.5078
    8MPD2     H  121   1.603   4.210  13.265 -0.1153 -0.0988  0.6429
    8MPD2    H1  122   1.929   4.482  13.345 -0.4969  0.4241 -0.7964
    8MPD2    H2  123   1.964   4.069  13.423  0.6663 -0.5174 -0.7445
    8MPD2    H3  124   2.056   4.288  13.413  0.3895  1.0220 -3.3499
    8MPD2     N  125   1.683   4.478  13.256  0.2002 -0.0883  0.3805
    8MPD2    H5  126   1.732   4.566  13.269 -1.1644  1.0672 -2.3411
    8MPD2    N1  127   1.715   3.995  13.374 -0.4172  0.9380 -0.0334
    8MPD2    H7  128   1.772   3.931  13.427  0.1610  1.8326  0.4182
    9TCq1    O1  129   0.247   2.962  10.865 -0.0870 -0.4303 -0.3412
    9TCq1    C1  130   0.220   2.957  10.732 -0.8522 -0.2624 -0.3100
    9TCq1    O2  131   0.272   2.876  10.654 -0.2304 -0.4076 -0.6065
    9TCq1    C2  132   0.078   2.975  10.732  0.3614 -0.9139 -0.5230
    9TCq1    C3  133   4.720   2.874  10.690 -0.4972  1.0002 -0.6384
    9TCq1    C4  134   4.585   2.890  10.715 -0.2234  0.6364  0.7806
    9TCq1    C5  135   4.532   3.009  10.766 -0.0139 -0.2870  0.3261
    9TCq1    C6  136   4.622   3.108  10.781 -0.4239  0.0376  0.7168
    9TCq1    C7  137   0.041   3.094  10.782 -0.4594 -0.6901  0.1739
    9TCq1    C8  138   4.580   3.236  10.837  0.1087  0.1294 -0.0815
    9TCq1    O4  139   4.653   3.333  10.823  0.3295 -0.1031  0.5883
    9TCq1    C9  140   4.495   2.781  10.687 -0.6169  0.4238 -0.2671
    9TCq1    O5  141   4.541   2.683  10.620 -0.1334  0.3138 -0.0624
    9TCq1    O6  142   4.378   2.783  10.730 -0.6508 -0.1216  0.2923
    9TCq1    H1  143   0.172   3.002  10.914  0.1389  0.8309 -1.0096
    9TCq1    H2  144   0.034   2.793  10.628  2.6718  2.4318 -0.5745
    9TCq1    H3  145   4.424   3.014  10.762  0.0091  1.3133  1.7909
    9TCq1    H4  146   0.120   3.166  10.799 -0.9579 -0.1185  0.0759
   10MPD2     C  147   4.459   3.456  10.986 -0.7037 -0.5633  0.0157
   10MPD2    C1  148   4.408   3.327  10.978  0.0893  0.1867 -0.1208
   10MPD2    C2  149   4.295   3.298  11.049  0.0987 -0.9145 -0.6873
   10MPD2    C3  150   4.246   3.396  11.140  0.0420  0.5130 -0.2222
   10MPD2    C4  151   4.301   3.520  11.147 -0.6183 -0.2187 -0.2464
   10MPD2    C5  152   4.411   3.547  11.073 -0.9654 -0.3356 -0.1552
   10MPD2     H  153   4.248   3.202  11.036 -0.6875 -0.9577  2.5613
   10MPD2    H1  154   4.257   3.592  11.216  0.4517  0.9915 -0.8228
   10MPD2    H2  155   4.544   3.497  10.932 -1.4124  2.4823  1.2173
   10MPD2    H3  156   4.457   3.645  11.069 -0.8879 -0.3818 -0.3763
   10MPD2     N  157   4.140   3.369  11.233  0.1119 -0.0650 -0.5668
   10MPD2    H5  158   4.111   3.449  11.288 -2.7141 -0.9566 -0.7313
   10MPD2    N1  159   4.464   3.221  10.904  0.2011 -0.3815  0.1945
   10MPD2    H7  160   4.417   3.132  10.913 -1.7162  0.3129 -2.9666
   11TCq1    O1  161   0.521   3.285  14.426 -0.7612 -0.0785 -0.4294
   11TCq1    C1  162   0.583   3.301  14.302  0.4939 -0.0393 -1.0030
   11TCq1    O2  163   0.705   3.320  14.283  0.0824  0.2751 -1.1630
   11TCq1    C2  164   0.498   3.245  14.191 -0.0281  0.6852  0.1681
   11TCq1    C3  165   0.551   3.140  14.122  0.2737  0.6403  0.1876
   11TCq1    C4  166   0.465   3.070  14.042 -0.0991 -0.7355  0.0258
   11TCq1    C5  167   0.331   3.095  14.050  0.4599  0.6439  0.3389
   11TCq1    C6  168   0.285   3.202  14.126 -0.1277  0.1264 -0.5942
   11TCq1    C7  169   0.368   3.279  14.201 -0.5722  0.3087  0.6536
   11TCq1    C8  170   0.144   3.225  14.147  0.1823  0.4105 -0.2860
   11TCq1    O4  171   0.106   3.336  14.192  0.9454 -0.2456  0.3262
   11TCq1    C9  172   0.518   2.951  13.975  1.2496  0.2887  0.4468
   11TCq1    O5  173   0.642   2.924  13.972  0.0546 -0.4572  0.2306
   11TCq1    O6  174   0.427   2.880  13.922  0.4618  0.5843  0.1430
   11TCq1    H1  175   0.426   3.265  14.420 -0.7459  0.0582 -1.2205
   11TCq1    H2  176   0.659   3.128  14.121 -0.0367 -2.0335  1.7327
   11TCq1    H3  177   0.266   3.042  13.981  1.3285  1.2693 -0.9722
   11TCq1    H4  178   0.342   3.372  14.251  0.9125  0.7140  0.6527
   12MPD2     C  179   4.577   3.206  14.161  0.0845  0.2908  0.8744
   12MPD2    C1  180   4.653   3.102  14.108 -0.1348  0.2115 -0.1412
   12MPD2    C2  181   4.597   2.991  14.059  0.0513 -0.7047  0.3661
   12MPD2    C3  182   4.460   2.980  14.046 -0.0685  0.6115  0.5442
   12MPD2    C4  183   4.378   3.084  14.096 -0.4224 -0.4884  0.4349
   12MPD2    C5  184   4.443   3.198  14.148 -0.5630 -0.4740  0.2013
   12MPD2     H  185   4.667   2.919  14.019  2.4419  2.5410 -1.2301
   12MPD2    H1  186   4.273   3.093  14.074 -1.2167 -3.7383  2.9477
   12MPD2    H2  187   4.613   3.304  14.192  2.6995 -0.7016  0.9564
   12MPD2    H3  188   4.385   3.284  14.180 -0.5012  0.1592 -1.3955
   12MPD2     N  189   4.397   2.871  13.974  0.5110 -0.4532  0.4092
   12MPD2    H5  190   4.297   2.865  13.957  0.4556  1.5777  0.0314
   12MPD2    N1  191   0.067   3.107  14.125 -0.1092  0.7836  0.4781
   12MPD2    H7  192   0.120   3.023  14.105  0.5386  1.8064 -2.0720
   13TCq1    O1  193   4.665   3.455  11.437 -0.5404 -0.0709 -0.6160
   13TCq1    C1  194   4.545   3.443  11.380  0.2796  0.3511  0.0610
   13TCq1    O2  195   4.448   3.498  11.433 -0.4464 -0.3477 -0.6328
   13TCq1    C2  196   4.550   3.324  11.293  0.6542  0.3347 -0.1286
   13TCq1    C3  197   4.665   3.302  11.222  0.6053 -0.6785 -0.3416
   13TCq1    C4  198   4.708   3.174  11.196 -0.4520 -0.5878 -0.6737
   13TCq1    C5  199   4.625   3.073  11.228  0.3019 -0.4634  0.8795
   13TCq1    C6  200   4.506   3.098  11.305  0.8484  0.0993  0.8998
   13TCq1    C7  201   4.474   3.220  11.336  0.3871  1.0633 -0.0008
   13TCq1    C8  202   4.403   2.999  11.322  0.1921 -0.6600  0.2238
   13TCq1    O4  203   4.303   3.034  11.378  0.5140 -0.7448  0.0985
   13TCq1    C9  204   0.101   3.151  11.119 -0.4661  0.1008 -0.0934
   13TCq1    O5  205   0.168   3.254  11.097  0.1478 -0.0346  0.5961
   13TCq1    O6  206   0.119   3.037  11.072 -0.1285  0.1942  0.8462
   13TCq1    H1  207   0.012   3.399  11.399 -1.4648 -2.2745  0.9057
   13TCq1    H2  208   0.015   3.373  11.185 -1.7625  1.9656  0.0175
   13TCq1    H3  209   4.658   2.970  11.214  1.3928 -0.1258  0.9185
   13TCq1    H4  210   4.385   3.243  11.393 -0.7469 -1.4015 -0.8036
   14MPD2     C  211   4.438   2.628  11.324 -0.4527  0.1607 -0.2588
   14MPD2    C1  212   4.375   2.750  11.306  0.3360 -0.5314 -0.4853
   14MPD2    C2  213   4.234   2.754  11.293  0.3577 -0.3092 -0.3326
   14MPD2    C3  214   4.151   2.644  11.290  0.4763  0.7267  0.8172
   14MPD2    C4  215   4.218   2.519  11.316  0.1004  0.0572  0.5440
   14MPD2    C5  216   4.355   2.520  11.334 -0.7070  0.5909 -0.1515
   14MPD2     H  217   4.173   2.843  11.281 -1.3259 -1.2368  1.1792
   14MPD2    H1  218   4.160   2.428  11.323  1.1345 -0.8278 -2.5685
   14MPD2    H2  219   4.544   2.618  11.341 -0.4829  1.6788  0.8254
   14MPD2    H3  220   4.407   2.426  11.351 -0.2931  0.3298 -2.9607
   14MPD2     N  221   4.012   2.655  11.262 -0.4626  0.4186 -0.3050
   14MPD2    H5  222   3.973   2.748  11.248  1.6496  1.3114 -0.1308
   14MPD2    N1  223   4.453   2.872  11.296 -0.1538 -0.2768 -0.1589
   14MPD2    H7  224   4.554   2.864  11.295 -0.1525 -0.4575  0.7646
   15TCq1    O1  225   1.002   1.476   1.754 -0.3486 -0.1287 -0.1308
   15TCq1    C1  226   1.091   1.465   1.657 -0.0997 -0.2711 -0.2120
   15TCq1    O2  227   1.070   1.497   1.541 -0.4717  0.2173  0.1881
   15TCq1    C2  228   1.184   1.365   1.691  0.4349 -0.5248  0.0234
   15TCq1    C3  229   1.216   1.326   1.819 -0.3089  0.2622  0.3047
   15TCq1    C4  230   1.306   1.229   1.838 -0.3049 -0.0542 -0.6438
   15TCq1    C5  231   1.358   1.158   1.734  1.1331  0.6808  0.2007
   15TCq1    C6  232   1.315   1.187   1.610  0.0895 -0.0717  0.8927
   15TCq1    C7  233   1.238   1.297   1.583 -0.0591  0.0314 -0.6191
   15TCq1    C8  234   1.376   1.116   1.497 -0.0211  0.5224  0.8070
   15TCq1    O4  235   1.478   1.054   1.538  0.0612  0.0130 -0.5317
   15TCq1    C9  236   1.343   1.198   1.978  0.5580 -0.1722  0.0078
   15TCq1    O5  237   1.436   1.117   1.990 -0.0044 -0.0605 -0.2748
   15TCq1    O6  238   1.308   1.277   2.066  0.5549  0.0517  0.4084
   15TCq1    H1  239   1.020   1.440   1.843  0.2883  0.7554  0.0998
   15TCq1    H2  240   1.178   1.382   1.904  2.2986 -1.3834  2.5463
   15TCq1    H3  241   1.417   1.069   1.755  0.5510  0.2801  0.1247
   15TCq1    H4  242   1.212   1.314   1.479 -0.0574 -0.9338 -0.7855
   16MPD2     C  243   1.300   1.061   1.132 -0.2219 -0.1723 -0.2419
   16MPD2    C1  244   1.373   1.058   1.250 -0.1576  0.9677  0.2456
   16MPD2    C2  245   1.499   0.997   1.254  0.3599 -1.1217  0.5283
   16MPD2    C3  246   1.548   0.947   1.134 -0.6421  0.0909 -0.0256
   16MPD2    C4  247   1.483   0.965   1.012  0.2321 -0.4650 -0.1922
   16MPD2    C5  248   1.354   1.013   1.013  0.0181  0.9790  0.0123
   16MPD2     H  249   1.559   0.990   1.343  0.6514 -0.2184  0.4069
   16MPD2    H1  250   1.522   0.916   0.924 -0.3919 -0.0470 -0.6962
   16MPD2    H2  251   1.200   1.103   1.135  0.2029  0.8223 -0.0665
   16MPD2    H3  252   1.306   1.022   0.916 -1.8327  1.7182  0.9978
   16MPD2     N  253   1.675   0.892   1.152  0.2341 -0.0963  0.1003
   16MPD2    H5  254   1.719   0.909   1.241  1.0481 -1.6645  0.0094
   16MPD2    N1  255   1.316   1.121   1.368  0.1827 -0.2693  0.1052
   16MPD2    H7  256   1.227   1.168   1.360 -0.0275 -0.8649 -1.0462
   17TCq1    O1  257   3.785   1.721  10.773  0.1479  0.0369  0.2248
   17TCq1    C1  258   3.853   1.715  10.890  0.1511 -0.4682 -0.5702
   17TCq1    O2  259   3.825   1.649  10.988 -0.0106 -0.1339 -0.4911
   17TCq1    C2  260   3.985   1.782  10.878  0.2882 -0.8950  0.2098
   17TCq1    C3  261   4.007   1.885  10.793 -0.4496 -0.1806 -1.0735
   17TCq1    C4  262   4.132   1.940  10.788 -0.2397 -0.5646  0.0557
   17TCq1    C5  263   4.235   1.878  10.849  0.8379 -0.4406  0.3214
   17TCq1    C6  264   4.215   1.781  10.940 -0.6916  0.3288  0.3832
   17TCq1    C7  265   4.087   1.726  10.950  0.5748 -0.4032  0.2498
   17TCq1    C8  266   4.315   1.753  11.042  0.7224 -0.2741 -0.2787
   17TCq1    O4  267   4.277   1.692  11.143  0.1813  0.4887  0.0514
   17TCq1    C9  268   4.166   2.056  10.698 -0.2950  0.1609  0.5565
   17TCq1    O5  269   4.291   2.083  10.680  0.0285  0.0434  0.2878
   17TCq1    O6  270   4.073   2.097  10.629  0.4343 -0.0477 -0.3608
   17TCq1    H1  271   3.836   1.762  10.700 -0.7853  2.4239  0.9271
   17TCq1    H2  272   3.929   1.923  10.728 -1.1250 -0.9839 -0.7310
   17TCq1    H3  273   4.332   1.925  10.844 -0.2430  2.0041  2.3416
   17TCq1    H4  274   4.062   1.641  11.012 -0.7714  1.1014  1.7463
   18MPD2     C  275   4.514   1.828  11.233 -0.1358 -0.3166  0.4124
   18MPD2    C1  276   4.544   1.812  11.103 -0.4487 -0.4667 -0.5518
   18MPD2    C2  277   4.675   1.831  11.059 -0.5106  0.3614 -0.2266
   18MPD2    C3  278   0.057   1.856  11.142  0.5759  0.1082  0.3069
   18MPD2    C4  279   0.027   1.864  11.273 -0.1210 -0.0045  0.1225
   18MPD2    C5  280   4.618   1.857  11.318 -0.2767  0.5700  0.1469
   18MPD2     H  281   4.680   1.837  10.951  0.8794 -0.7652 -0.2162
   18MPD2    H1  282   0.100   1.893  11.347 -0.7673 -0.9689  1.1407
   18MPD2    H2  283   4.414   1.822  11.274 -0.2163  2.2905  0.5829
   18MPD2    H3  284   4.605   1.874  11.424 -2.3838  2.4153 -0.3908
   18MPD2     N  285   0.196   1.866  11.107  0.2369 -0.3668 -0.0698
   18MPD2    H5  286   0.270   1.879  11.176 -0.2123  3.2128 -0.2786
   18MPD2    N1  287   4.442   1.786  11.007  0.1477  0.1127  0.2044
   18MPD2    H7  288   4.461   1.800  10.909 -1.0076 -0.4371 -0.1053
   19TMC2    C1  289   0.800   2.871  13.613 -0.3303 -0.4350 -0.4960
   19TMC2    C2  290   0.697   2.958  13.598  0.6119  0.0336  0.4004
   19TMC2    C3  291   0.574   2.911  13.638 -0.2781 -0.0071 -0.4652
   19TMC2    C4  292   0.791   2.747  13.673 -0.0269 -0.3499 -0.4702
   19TMC2    C5  293   0.671   2.717  13.727  0.6495  0.3630 -0.5804
   19TMC2    C6  294   0.560   2.793  13.705 -0.8428  0.2052  0.1959
   19TMC2     C  295   0.934   2.929  13.605 -0.1949  0.2413 -0.1089
   19TMC2     O  296   0.944   3.032  13.540 -0.2067 -0.2844 -0.1017
   19TMC2     H  297   0.699   3.056  13.552 -1.8099  0.0737  0.3705
   19TMC2    H1  298   0.874   2.682  13.698  1.4234  1.3700 -0.8128
   19TMC2    H2  299   0.463   2.753  13.730 -0.8112  0.2835  0.4465
   19TMC2    C7  300   0.666   2.597  13.805 -0.0168  0.9845 -0.4756
   19TMC2    C8  301   0.450   2.966  13.584 -0.1935 -0.2161  0.4586
   19TMC2    O1  302   0.745   2.510  13.767  0.2580  0.7346  0.2818
   19TMC2    O2  303   0.449   3.021  13.476 -0.2485 -0.6812 -0.1644
   19TMC2    O5  304   0.359   2.970  13.686  0.0724  0.6083 -0.3082
   19TMC2    H5  305   0.376   2.920  13.768 -0.5951  1.4186  0.3315
   20MPD2     C  306   1.220   2.976  13.643 -0.3252 -0.4159 -0.4143
   20MPD2    C1  307   1.148   2.898  13.730  0.5030 -0.5365 -1.7717
   20MPD2    C2  308   1.208   2.828  13.833  0.3785 -0.3557  0.0219
   20MPD2    C3  309   1.344   2.836  13.853 -0.3332  0.0655  0.1860
   20MPD2    C4  310   1.419   2.920  13.772 -0.0693 -0.4447  0.3115
   20MPD2    C5  311   1.361   2.993  13.672 -0.4854  0.6440  0.0971
   20MPD2     H  312   1.144   2.766  13.894 -0.1231 -0.7361 -0.8933
   20MPD2    H1  313   1.527   2.916  13.778 -0.2195 -0.9784  2.5625
   20MPD2    H2  314   1.168   3.030  13.565 -0.0425 -2.4554 -2.0101
   20MPD2    H3  315   1.421   3.053  13.606 -0.5747 -0.1291 -0.6838
   20MPD2     N  316   1.413   2.759  13.952  0.4662  0.4329  0.4134
   20MPD2    H5  317   1.511   2.787  13.952  1.4351 -2.9919  1.3106
   20MPD2    N1  318   1.011   2.874  13.707  0.3871  0.3346  0.3418
   20MPD2    H7  319   0.955   2.817  13.769 -0.4142  1.4994  0.6634
   21MPD2     C  320   3.338   3.400  14.407 -0.0660 -0.5752  0.6128
   21MPD2    C1  321   3.393   3.277  14.435 -0.6832 -0.1902 -0.0141
   21MPD2    C2  322   3.343   3.202  14.544 -0.2690  0.3235  0.9582
   21MPD2    C3  323   3.232   3.255  14.615 -0.2128 -0.3956 -0.8098
   21MPD2    C4  324   3.187   3.377  14.594 -0.0791 -0.3026 -0.1640
   21MPD2    C5  325   3.242   3.451  14.491  0.2605  0.1227  0.7578
   21MPD2     H  326   3.378   3.101  14.564  2.7992  1.2030 -0.1061
   21MPD2    H1  327   3.111   3.427  14.653 -0.4732  0.2372 -1.1089
   21MPD2    H2  328   3.369   3.462  14.324  0.1787 -0.6609  0.6400
   21MPD2    H3  329   3.193   3.544  14.463  2.2659  0.2366 -2.3992
   21MPD2     N  330   3.164   3.184  14.710 -0.3276  0.3772  0.4491
   21MPD2    H5  331   3.078   3.228  14.741 -0.0725  0.8404  0.4884
   21MPD2    N1  332   3.487   3.224  14.351 -0.2088  0.0071 -0.6307
   21MPD2    H7  333   3.518   3.131  14.378 -1.5534 -0.7660 -1.7727
   22TCq2    C1  334   3.200   3.063  14.755  0.5114  0.0404 -0.0215
   22TCq2    O2  335   3.302   2.993  14.762  0.0317 -0.0717  0.4064
   22TCq2    C2  336   3.092   3.010  14.837  0.3922  0.0242 -0.1554
   22TCq2    C3  337   3.119   2.920  14.939 -0.2682 -0.2270 -0.4218
   22TCq2    C4  338   3.028   2.824  14.984 -0.2253  0.6756 -0.4736
   22TCq2    C5  339   2.901   2.826  14.931  0.1687 -0.5310  0.8072
   22TCq2    C6  340   2.871   2.915  14.830 -0.0467 -0.0107  1.2264
   22TCq2    C7  341   2.964   3.009  14.779 -0.5984  0.2758  0.2648
   22TCq2    C8  342   2.780   2.871  14.732 -0.4572 -0.1833  0.9973
   22TCq2    O4  343   2.754   2.751  14.728  0.1299 -0.0385 -0.6780
   22TCq2    C9  344   3.056   2.736  15.092 -0.4632 -0.2325 -0.2360
   22TCq2    O5  345   2.976   2.641  15.118 -0.4096 -0.2903 -0.4800
   22TCq2    O6  346   3.173   2.740  15.145 -0.1084  0.5192  0.2354
   22TCq2    H2  347   3.218   2.919  14.981 -0.9866  1.8895  1.2759
   22TCq2    H3  348   2.827   2.751  14.958  0.6512 -0.6143  1.8640
   22TCq2    H4  349   2.936   3.060  14.688 -2.2299  0.2843  0.7653
   23MPD2     C  350   0.253   4.035  14.331 -0.3702  0.1081 -0.2268
   23MPD2    C1  351   0.168   4.073  14.438 -0.2611 -0.6752  0.8317
   23MPD2    C2  352   0.066   4.160  14.411 -0.5739 -0.0682  0.2224
   23MPD2    C3  353   0.046   4.202  14.280  0.2720  0.2449 -0.0753
   23MPD2    C4  354   0.130   4.163  14.181 -0.1385 -0.1913  0.7908
   23MPD2    C5  355   0.231   4.080  14.206  0.2125  0.2889 -0.2409
   23MPD2     H  356   4.723   4.192  14.490  0.7771  1.7232  0.6485
   23MPD2    H1  357   0.118   4.195  14.079  1.7525  0.2087  0.6788
   23MPD2    H2  358   0.343   3.978  14.349  0.3383  1.4333  0.3861
   23MPD2    H3  359   0.300   4.062  14.123 -1.8596  1.2775 -2.1761
   23MPD2     N  360   4.678   4.302  14.241  0.1008  0.2758 -0.1435
   23MPD2    H5  361   4.665   4.315  14.141 -0.3888  1.8521  0.1292
   23MPD2    N1  362   0.197   4.037  14.571 -0.2531  0.6840 -0.7882
   23MPD2    H7  363   0.128   4.059  14.643 -1.0335 -3.0162 -0.3894
   24TCq2    C1  364   4.625   4.394  14.334  0.5710  0.7771 -0.2058
   24TCq2    O2  365   4.660   4.411  14.446  0.1697  0.0715 -0.1447
   24TCq2    C2  366   4.537   4.488  14.280  0.4633  1.2844  0.6252
   24TCq2    C3  367   4.542   4.613  14.332  0.2880 -0.0189  0.7645
   24TCq2    C4  368   4.476   4.704  14.256 -0.5310 -0.1859  0.0013
   24TCq2    C5  369   4.392   4.674  14.150  0.1226  0.0891  0.1050
   24TCq2    C6  370   4.389   4.541  14.115 -1.2086  0.0363 -0.4195
   24TCq2    C7  371   4.468   4.448  14.174  0.2954 -0.8595 -0.5210
   24TCq2    C8  372   4.317   4.510  13.992 -0.3181  0.7784 -0.3145
   24TCq2    O4  373   4.355   4.410  13.935  0.2544 -0.1208  0.0440
   24TCq2    C9  374   4.487   0.115  14.294 -0.0268 -0.8201  0.3070
   24TCq2    O5  375   4.383   0.185  14.268  0.4220  0.0590 -0.1547
   24TCq2    O6  376   4.583   0.151  14.365 -0.5047  0.4851  0.4777
   24TCq2    H2  377   4.604   4.635  14.418  1.6709  0.9892 -0.5021
   24TCq2    H3  378   4.339   0.030  14.100 -0.0411  1.2331  2.0708
   24TCq2    H4  379   4.446   4.349  14.135  0.8817 -2.0767  2.2427
   25TMC2    C1  380   3.300   1.239  11.303  0.3790  0.2619 -0.7155
   25TMC2    C2  381   3.190   1.214  11.228  0.1986 -0.1296  0.5328
   25TMC2    C3  382   3.080   1.301  11.250 -0.0881  0.2351  0.3963
   25TMC2    C4  383   3.312   1.341  11.389 -0.3161  0.3429  0.5715
   25TMC2    C5  384   3.196   1.412  11.417 -0.7123  0.2418 -0.6384
   25TMC2    C6  385   3.079   1.389  11.350  0.0724 -0.2395  0.6956
   25TMC2     C  386   3.404   1.131  11.308 -0.4792 -0.2976 -0.6636
   25TMC2     O  387   3.513   1.172  11.343  0.1434  0.2460 -0.2211
   25TMC2     H  388   3.180   1.126  11.165 -0.9008 -0.4502  1.1687
   25TMC2    H1  389   3.401   1.352  11.450  0.6092 -1.1970 -0.5035
   25TMC2    H2  390   2.985   1.441  11.363 -1.3304 -2.2808 -1.2552
   25TMC2    C7  391   3.196   1.449  11.557  0.5157 -0.6473 -0.3496
   25TMC2    C8  392   2.961   1.289  11.167 -0.0150  0.0934  0.0877
   25TMC2    O1  393   3.290   1.405  11.622 -0.0882 -0.0205  0.3112
   25TMC2    O2  394   2.845   1.303  11.210  0.2067 -0.3282  0.0430
   25TMC2    O5  395   2.998   1.236  11.047  0.8464 -0.0051 -0.0835
   25TMC2    H5  396   3.093   1.236  11.023  1.0774 -2.5820  0.8336
   26MPD2     C  397   3.578   0.686  11.125  0.4732  0.5007 -0.3296
   26MPD2    C1  398   3.446   0.683  11.135 -1.2545  0.0334  0.4038
   26MPD2    C2  399   3.378   0.784  11.193  1.0741 -0.0470 -0.4575
   26MPD2    C3  400   3.441   0.901  11.221 -0.6096 -0.1521  0.4746
   26MPD2    C4  401   3.578   0.909  11.202 -0.2790 -0.2839 -0.1243
   26MPD2    C5  402   3.645   0.799  11.160  0.6941  0.2036 -0.4491
   26MPD2     H  403   3.272   0.791  11.216  0.9016  1.9187 -1.8454
   26MPD2    H1  404   3.639   0.996  11.227 -0.1630 -0.2589 -0.4923
   26MPD2    H2  405   3.637   0.601  11.095  0.9574  1.3394 -1.7206
   26MPD2    H3  406   3.751   0.812  11.143  1.1610 -3.3823 -0.2769
   26MPD2     N  407   3.360   1.011  11.264 -0.6954 -0.3377 -0.0711
   26MPD2    H5  408   3.262   0.995  11.247 -0.8353  0.1604  0.2617
   26MPD2    N1  409   3.388   0.557  11.100  0.2438 -0.0919  0.3560
   26MPD2    H7  410   3.457   0.490  11.067  0.7240  0.5364  0.0876
   27TMC2    C1  411   2.521   3.363  11.745  0.2075  0.2359 -0.1734
   27TMC2    C2  412   2.465   3.407  11.627 -0.5745 -0.6016 -0.2433
   27TMC2    C3  413   2.476   3.542  11.599  0.2705 -0.2378 -0.0569
   27TMC2    C4  414   2.577   3.445  11.838 -0.0003  0.6211  0.2400
   27TMC2    C5  415   2.591   3.579  11.801 -0.2074 -0.0628 -0.7184
   27TMC2    C6  416   2.531   3.630  11.689 -0.0261  0.1369 -0.6053
   27TMC2     C  417   2.469   3.237  11.802  0.5288  0.5268 -0.2192
   27TMC2     O  418   2.495   3.135  11.737  0.3185  0.3699 -0.6644
   27TMC2     H  419   2.419   3.336  11.560  1.9646 -2.5535  0.0902
   27TMC2    H1  420   2.621   3.409  11.931  2.3877 -1.0314 -1.5236
   27TMC2    H2  421   2.544   3.734  11.661  3.1801 -0.0403  0.2034
   27TMC2    C7  422   2.608   3.663  11.917  0.1600  0.9578 -0.2858
   27TMC2    C8  423   2.398   3.598  11.489 -0.6921 -0.0338  1.0694
   27TMC2    O1  424   2.666   3.606  12.011 -0.2461 -0.2618  0.2591
   27TMC2    O2  425   2.356   3.712  11.484 -0.4809 -0.0171  0.8305
   27TMC2    O5  426   2.485   3.567  11.394  0.5032 -1.0158  0.3991
   27TMC2    H5  427   2.550   3.495  11.407  1.2523 -0.2840  0.6517
   28MPD2     C  428   2.262   3.006  12.223  0.2989 -0.1957 -0.1395
   28MPD2    C1  429   2.239   3.141  12.234 -0.7302  0.4027  0.1315
   28MPD2    C2  430   2.298   3.221  12.138 -0.1301 -0.0496  0.1722
   28MPD2    C3  431   2.362   3.166  12.025 -0.5288  0.4955 -0.3578
   28MPD2    C4  432   2.365   3.030  12.002  0.1844  0.3856 -0.3261
   28MPD2    C5  433   2.315   2.958  12.106 -0.0689 -0.6752 -0.4363
   28MPD2     H  434   2.292   3.329  12.136  0.1230 -0.0483 -0.5444
   28MPD2    H1  435   2.411   2.976  11.920  1.3356 -1.0314  1.2594
   28MPD2    H2  436   2.217   2.937  12.294  0.8711  0.3065  0.7044
   28MPD2    H3  437   2.327   2.850  12.107  0.0800 -0.6580  0.1466
   28MPD2     N  438   2.414   3.257  11.929 -0.0946 -0.3042  0.0583
   28MPD2    H5  439   2.400   3.354  11.954 -0.0614 -0.4413  0.5951
   28MPD2    N1  440   2.150   3.182  12.333  0.6649 -0.1842 -0.3443
   28MPD2    H7  441   2.102   3.109  12.384  0.8589  0.6229  0.9984
   29MPD2     C  442   1.996   0.860  14.127  0.0657  0.2092 -0.3474
   29MPD2    C1  443   2.048   0.855  14.254  0.7491 -0.1805 -0.4263
   29MPD2    C2  444   2.092   0.973  14.313  0.1864 -0.2489 -0.0524
   29MPD2    C3  445   2.083   1.097  14.251 -0.0555  0.1118  0.3415
   29MPD2    C4  446   2.028   1.101  14.129  0.4470 -0.4691 -0.0413
   29MPD2    C5  447   1.990   0.984  14.069 -0.1117  0.1356  0.0701
   29MPD2     H  448   2.125   0.961  14.416 -2.1221 -0.1609  0.7106
   29MPD2    H1  449   2.011   1.192  14.073 -2.4617 -1.2530 -0.4354
   29MPD2    H2  450   1.954   0.774  14.076  0.3466 -0.2648  0.2256
   29MPD2    H3  451   1.934   0.988  13.976 -0.3746  1.5913  0.2828
   29MPD2     N  452   2.135   1.217  14.304 -0.2224  0.1966  0.8816
   29MPD2    H5  453   2.133   1.304  14.253  0.5016  0.4486  1.2818
   29MPD2    N1  454   2.067   0.733  14.325 -0.3632 -0.1084  0.1698
   29MPD2    H7  455   2.121   0.747  14.410  0.0419  0.0710 -0.1205
   30TCq2    C1  456   2.184   1.234  14.431  0.0460 -0.5155 -0.9878
   30TCq2    O2  457   2.206   1.151  14.521 -0.1095  0.0124  0.5674
   30TCq2    C2  458   2.221   1.377  14.453  0.4155 -0.2783 -0.3801
   30TCq2    C3  459   2.223   1.415  14.581 -0.0423  0.2159  0.1485
   30TCq2    C4  460   2.270   1.535  14.620 -0.2749  0.5244  0.1524
   30TCq2    C5  461   2.311   1.628  14.529  0.2711  0.3708 -0.0681
   30TCq2    C6  462   2.297   1.582  14.395  0.2862  0.2218  0.5045
   30TCq2    C7  463   2.259   1.460  14.357  0.2590  0.1953 -0.5180
   30TCq2    C8  464   2.324   1.673  14.290  0.6889 -0.3117  0.1054
   30TCq2    O4  465   2.265   1.648  14.187  0.2475 -0.7164 -0.0669
   30TCq2    C9  466   2.276   1.567  14.756 -0.2887 -0.1404 -0.3439
   30TCq2    O5  467   2.246   1.474  14.837 -0.0073  0.1519 -0.4751
   30TCq2    O6  468   2.320   1.677  14.791  0.6468 -0.4445  0.3391
   30TCq2    H2  469   2.193   1.344  14.658  0.4832 -0.5430 -0.3569
   30TCq2    H3  470   2.323   1.733  14.555  1.3271  0.5399 -1.2238
   30TCq2    H4  471   2.271   1.425  14.255 -3.1206  0.4195 -0.9814
   31MPD2     C  472   4.505   0.060  14.928 -0.5890 -0.5897 -0.0976
   31MPD2    C1  473   4.423   0.164  14.972 -0.1422  0.7294  0.1950
   31MPD2    C2  474   4.350   0.160  15.085  0.3931  0.2262  0.0249
   31MPD2    C3  475   4.371   0.056  15.179  0.2115  0.8870  0.8043
   31MPD2    C4  476   4.455   4.672  15.136 -0.7035 -0.0978 -0.0822
   31MPD2    C5  477   4.521   4.679  15.018  0.2110  0.3447 -0.0591
   31MPD2     H  478   4.288   0.242  15.120 -0.6956 -0.6701  0.1791
   31MPD2    H1  479   4.479   4.584  15.194  1.1821  0.5492  0.1193
   31MPD2    H2  480   4.561   0.069  14.836 -0.0586 -1.0264  0.1827
   31MPD2    H3  481   4.583   4.597  14.984 -1.5189 -0.9434 -0.0966
   31MPD2     N  482   4.304   0.052  15.309 -0.2553 -0.3811 -0.2997
   31MPD2    H5  483   4.225   0.113  15.327 -0.5530 -0.3955 -1.5774
   31MPD2    N1  484   4.403   0.267  14.878 -0.5094 -0.2858 -0.1416
   31MPD2    H7  485   4.477   0.267  14.808  0.4931  0.9887  0.9177
   32TCq2    C1  486   4.344   4.692  15.407  0.8030  0.6073 -0.5088
   32TCq2    O2  487   4.457   4.644  15.420  0.0038  0.7770 -0.0421
   32TCq2    C2  488   4.279   4.716  15.539 -0.6840 -0.4669 -0.3870
   32TCq2    C3  489   4.152   0.035  15.543 -0.7001 -0.2934 -0.3682
   32TCq2    C4  490   4.094   0.056  15.668 -0.4495  0.4596 -0.3211
   32TCq2    C5  491   4.161   0.026  15.790  0.1609 -0.6622 -0.5900
   32TCq2    C6  492   4.295   4.695  15.774 -0.8631 -0.3567 -0.1623
   32TCq2    C7  493   4.358   4.682  15.649  0.6025  0.3983 -0.0033
   32TCq2    C8  494   4.386   4.667  15.881 -0.2436 -0.1399  0.4376
   32TCq2    O4  495   4.459   4.572  15.872  0.5008  0.1998 -0.1281
   32TCq2    C9  496   3.963   0.106  15.683 -0.2184  0.1697  0.7339
   32TCq2    O5  497   3.927   0.121  15.803  0.2124 -0.5705 -0.0147
   32TCq2    O6  498   3.902   0.144  15.579 -0.3887  0.0395 -0.3166
   32TCq2    H2  499   4.088   0.047  15.457 -1.9740 -2.7890  0.2313
   32TCq2    H3  500   4.124   0.037  15.891  3.7218 -1.1825  0.7655
   32TCq2    H4  501   4.455   4.633  15.642 -0.5947 -2.0682  0.7217
   33MPD2     C  502   0.471   2.440  11.019  0.5005  0.0595  0.5854
   33MPD2    C1  503   0.530   2.361  10.920  0.2855  0.2895  0.1901
   33MPD2    C2  504   0.538   2.415  10.792  0.6394  0.1887 -0.1689
   33MPD2    C3  505   0.479   2.537  10.757  0.3441  0.4181  0.2581
   33MPD2    C4  506   0.415   2.615  10.850  0.0076  0.5862  0.4571
   33MPD2    C5  507   0.423   2.569  10.983 -0.3598 -0.3660  0.0715
   33MPD2     H  508   0.579   2.351  10.714  1.7199 -0.0478  0.5878
   33MPD2    H1  509   0.362   2.705  10.821  0.1827  0.2662 -0.8751
   33MPD2    H2  510   0.465   2.421  11.125 -1.2420  0.6885  0.5948
   33MPD2    H3  511   0.386   2.630  11.064 -1.3195  1.6156 -1.8433
   33MPD2     N  512   0.449   2.571  10.623  0.4302  0.0239 -0.0082
   33MPD2    H5  513   0.398   2.655  10.598  0.2065  0.4115  1.7658
   33MPD2    N1  514   0.561   2.227  10.954 -0.3243  0.3603 -0.6594
   33MPD2    H7  515   0.517   2.189  11.037 -0.4947  0.5741 -0.6527
   34TCq2    C1  516   0.511   2.506  10.518  0.0141 -0.8725  0.4076
   34TCq2    O2  517   0.621   2.457  10.500  0.0295  0.1327  0.4071
   34TCq2    C2  518   0.418   2.493  10.406  0.1044 -0.2996 -0.2300
   34TCq2    C3  519   0.285   2.513  10.419  0.5559  0.1385 -0.3816
   34TCq2    C4  520   0.199   2.473  10.320 -0.0483  0.3840 -0.9311
   34TCq2    C5  521   0.241   2.396  10.218  0.3929 -0.0246  0.6653
   34TCq2    C6  522   0.375   2.376  10.207  0.1838 -0.4074  0.0731
   34TCq2    C7  523   0.467   2.420  10.298  0.0779  0.1138 -0.4744
   34TCq2    C8  524   0.429   2.378  10.068  0.3188 -0.4377  0.1783
   34TCq2    O4  525   0.546   2.347  10.063 -0.0659  0.3820 -0.3251
   34TCq2    C9  526   0.056   2.490  10.328  0.3937  0.6147  0.3008
   34TCq2    O5  527   0.007   2.529  10.437  1.0703 -0.5140 -0.1663
   34TCq2    O6  528   4.714   2.477  10.223  0.0728 -0.1578 -0.3897
   34TCq2    H2  529   0.242   2.576  10.495 -0.1199 -1.8197  0.8551
   34TCq2    H3  530   0.161   2.345  10.165  1.0878  1.1837 -1.5618
   34TCq2    H4  531   0.574   2.422  10.282 -0.0432 -0.7016 -1.4467
   35MPD2     C  532   2.209   3.894  11.756  0.9967  0.1750 -0.3753
   35MPD2    C1  533   2.157   3.780  11.811 -0.1465  0.1676 -0.5801
   35MPD2    C2  534   2.038   3.734  11.778 -0.2033 -0.0557  0.7904
   35MPD2    C3  535   1.945   3.809  11.705  0.3691  0.6782 -0.7852
   35MPD2    C4  536   1.987   3.931  11.658  0.2739 -0.3206  0.0519
   35MPD2    C5  537   2.117   3.977  11.681 -0.3151 -0.3699 -0.6080
   35MPD2     H  538   2.010   3.631  11.798  1.2559 -0.4540  0.7714
   35MPD2    H1  539   1.914   3.998  11.614  2.0558  0.9624 -0.9320
   35MPD2    H2  540   2.313   3.921  11.770  1.2108 -0.3520 -0.9639
   35MPD2    H3  541   2.153   4.074  11.651  0.8167 -1.2114 -1.9620
   35MPD2     N  542   1.814   3.749  11.694 -0.4966  0.4549 -0.0980
   35MPD2    H5  543   1.797   3.660  11.738 -1.9421  1.2343  0.9498
   35MPD2    N1  544   2.250   3.706  11.886 -0.5093 -0.5660 -0.0162
   35MPD2    H7  545   2.343   3.745  11.896 -0.0091 -1.3726 -1.5041
   36TCq2    C1  546   1.705   3.827  11.653  0.8123  0.4939  0.1981
   36TCq2    O2  547   1.704   3.948  11.624 -0.0473  0.3600 -0.5659
   36TCq2    C2  548   1.571   3.776  11.678  0.4017 -0.0628  0.3715
   36TCq2    C3  549   1.501   3.872  11.748 -0.7289 -0.2961  0.1099
   36TCq2    C4  550   1.409   3.836  11.843 -0.6462  0.1215 -0.0654
   36TCq2    C5  551   1.385   3.707  11.866 -0.4966 -0.2304 -0.5149
   36TCq2    C6  552   1.471   3.612  11.806 -0.1162  0.6662  0.3289
   36TCq2    C7  553   1.565   3.646  11.713  0.0177  0.4366 -0.2950
   36TCq2    C8  554   1.437   3.476  11.827  0.2919 -0.0573 -0.2173
   36TCq2    O4  555   1.317   3.461  11.840 -0.0753  0.3995  0.2836
   36TCq2    C9  556   1.325   3.934  11.910 -0.3925 -0.4330 -0.2228
   36TCq2    O5  557   1.241   3.889  12.001  0.1689  0.0519  0.0756
   36TCq2    O6  558   1.324   4.047  11.866  1.0797 -0.3536  0.0047
   36TCq2    H2  559   1.490   3.976  11.719  1.0474 -0.5118 -1.3734
   36TCq2    H3  560   1.307   3.687  11.938  0.9693 -1.5945  0.6830
   36TCq2    H4  561   1.623   3.573  11.658  1.6345  2.5523 -1.3999
   37TMC2    C1  562   3.266   4.008  11.567 -0.3753 -0.0628 -0.1292
   37TMC2    C2  563   3.234   4.014  11.433  0.1003  0.0700 -0.6279
   37TMC2    C3  564   3.341   4.022  11.347 -0.6976 -0.1980 -0.0838
   37TMC2    C4  565   3.390   3.978  11.621  0.3661  0.2382  0.2465
   37TMC2    C5  566   3.492   3.967  11.529  0.1838 -0.2126 -0.3149
   37TMC2    C6  567   3.469   3.984  11.393  0.4418 -0.3279  0.2768
   37TMC2     C  568   3.152   3.996  11.657  0.3674  0.2604  0.0511
   37TMC2     O  569   3.044   4.027  11.606  0.3612 -0.7210  0.2476
   37TMC2     H  570   3.134   4.028  11.393 -1.8980 -3.4728  3.1365
   37TMC2    H1  571   3.421   3.977  11.725 -2.8428 -1.9654  1.1637
   37TMC2    H2  572   3.549   3.976  11.321 -1.6808  3.0526 -2.4394
   37TMC2    C7  573   3.621   3.954  11.579 -0.2711  0.4832  0.4517
   37TMC2    C8  574   3.314   4.016  11.208 -0.1651  0.5236  0.3298
   37TMC2    O1  575   3.638   3.912  11.692  0.1836 -0.0019  0.1603
   37TMC2    O2  576   3.203   3.984  11.174 -0.2743  0.9698 -0.0229
   37TMC2    O5  577   3.393   4.110  11.153 -0.3641  0.0319  0.0845
   37TMC2    H5  578   3.473   4.137  11.203  0.0150  0.8639 -0.9559
   38MPD2     C  579   2.939   3.864  12.108 -0.3545  0.2930  0.6388
   38MPD2    C1  580   3.071   3.842  12.110 -0.2813 -1.3196  0.0628
   38MPD2    C2  581   3.159   3.863  12.005 -0.0704  0.4670 -0.1393
   38MPD2    C3  582   3.098   3.904  11.886 -0.9422  0.8692 -0.0967
   38MPD2    C4  583   2.968   3.934  11.877  0.5548  1.2532 -0.0037
   38MPD2    C5  584   2.885   3.912  11.987 -0.1645  0.0687  0.0860
   38MPD2     H  585   3.265   3.837  12.009  0.1546  1.6005  1.0565
   38MPD2    H1  586   2.924   3.990  11.795  3.8665  0.4405 -2.3774
   38MPD2    H2  587   2.875   3.854  12.196 -0.7375 -0.8284  0.2330
   38MPD2    H3  588   2.782   3.946  11.981 -0.8704 -2.1614 -0.1722
   38MPD2     N  589   3.184   3.942  11.781  0.5265 -0.3658 -0.3843
   38MPD2    H5  590   3.277   3.908  11.802 -0.6939 -1.9466  2.4540
   38MPD2    N1  591   3.130   3.801  12.235 -0.2754 -0.1633 -0.3497
   38MPD2    H7  592   3.229   3.781  12.230 -0.2673 -0.2068 -0.0571
   39MPD2     C  593   2.212   0.470   1.399 -0.4231  0.0001  0.2101
   39MPD2    C1  594   2.151   0.573   1.467  0.5315 -0.3265 -0.6322
   39MPD2    C2  595   2.016   0.589   1.450  0.7705 -0.9250  0.3493
   39MPD2    C3  596   1.944   0.502   1.374  0.1653  0.8379  0.1592
   39MPD2    C4  597   2.012   0.413   1.299 -0.4433  0.6027 -0.0948
   39MPD2    C5  598   2.144   0.392   1.313 -0.7449 -0.5276  0.1066
   39MPD2     H  599   1.970   0.671   1.504  0.6181  0.2417 -1.5789
   39MPD2    H1  600   1.963   0.334   1.243 -2.2216  2.2026 -0.7490
   39MPD2    H2  601   2.315   0.440   1.415 -0.1035 -1.1184 -4.1399
   39MPD2    H3  602   2.190   0.301   1.276 -1.1654  0.0411 -1.7763
   39MPD2     N  603   1.803   0.514   1.347  0.1833 -0.3173 -0.3542
   39MPD2    H5  604   1.768   0.445   1.281 -1.2737  2.0442 -2.0646
   39MPD2    N1  605   2.245   0.654   1.538 -0.9839 -0.1327 -0.6975
   39MPD2    H7  606   2.343   0.630   1.532 -1.7601 -3.6270  0.7991
   40TCq2    C1  607   2.213   0.770   1.602 -0.0337 -0.2224 -0.4183
   40TCq2    O2  608   2.105   0.825   1.619 -0.1832 -0.0270  0.2108
   40TCq2    C2  609   2.332   0.842   1.653  0.1149 -0.2944 -0.8253
   40TCq2    C3  610   2.308   0.926   1.761 -0.5100 -0.4694 -0.2681
   40TCq2    C4  611   2.416   0.966   1.842  0.3480  0.8083  0.5083
   40TCq2    C5  612   2.544   0.940   1.797  0.4593  0.0266 -0.4625
   40TCq2    C6  613   2.564   0.852   1.691  0.0275  0.3151  1.2487
   40TCq2    C7  614   2.462   0.797   1.619  0.0472 -0.3360  0.0770
   40TCq2    C8  615   2.688   0.833   1.621 -0.0056 -0.5654 -0.0887
   40TCq2    O4  616   2.693   0.761   1.523  0.3863 -0.0288 -0.0439
   40TCq2    C9  617   2.395   1.066   1.945 -0.0534 -0.6044  0.3498
   40TCq2    O5  618   2.279   1.106   1.968  0.4075  0.2672  0.1135
   40TCq2    O6  619   2.489   1.100   2.020 -0.1741 -0.1556  0.1809
   40TCq2    H2  620   2.203   0.942   1.782 -0.7203  0.1506 -1.8201
   40TCq2    H3  621   2.629   0.988   1.845  0.5252  0.5806 -1.1428
   40TCq2    H4  622   2.480   0.729   1.537  2.2184 -0.2776  0.5177
   41TMC2    C1  623   0.617   4.242  14.005  0.6626 -0.2453  0.2543
   41TMC2    C2  624   0.640   4.378  14.026  0.6061 -0.3764 -0.7838
   41TMC2    C3  625   0.686   4.445  13.919  0.0986  0.3918 -0.0064
   41TMC2    C4  626   0.667   4.176  13.899  0.4951  0.3634 -0.3279
   41TMC2    C5  627   0.726   4.252  13.798 -0.3847 -0.6943  0.4823
   41TMC2    C6  628   0.719   4.388  13.800 -0.3566 -0.2930 -0.2503
   41TMC2     C  629   0.608   4.165  14.128  0.4444 -0.1882  0.5105
   41TMC2     O  630   0.548   4.061  14.113  0.0325 -0.4636  1.0613
   41TMC2     H  631   0.611   4.427  14.118 -0.5524 -2.1213 -0.2094
   41TMC2    H1  632   0.664   4.068  13.902  0.8662  0.3417 -0.6457
   41TMC2    H2  633   0.764   4.439  13.716 -0.7900  1.4108  0.5522
   41TMC2    C7  634   0.777   4.186  13.679  0.3481 -0.6464  0.1147
   41TMC2    C8  635   0.694   4.588  13.932  0.3666 -0.5560  0.3232
   41TMC2    O1  636   0.791   4.253  13.578 -0.5963  0.2422 -0.4643
   41TMC2    O2  637   0.736   4.645  14.032  0.5906 -0.6755 -0.2496
   41TMC2    O5  638   0.669   4.652  13.817  0.5973  0.3158 -0.0218
   41TMC2    H5  639   0.618   4.602  13.749  0.2950  1.0984 -0.3823
   42MPD2     C  640   0.670   4.006  14.373  0.0744 -0.6299  0.0116
   42MPD2    C1  641   0.723   4.129  14.344 -0.0201  0.4244 -0.0187
   42MPD2    C2  642   0.817   4.184  14.432 -0.1585 -0.4477 -0.5375
   42MPD2    C3  643   0.868   4.104  14.535 -0.1002 -0.3850 -0.3184
   42MPD2    C4  644   0.814   3.979  14.557  0.2327  0.2696  0.1871
   42MPD2    C5  645   0.719   3.939  14.474 -0.3084  0.1152  0.0232
   42MPD2     H  646   0.858   4.283  14.413  0.1779 -0.6884 -1.0732
   42MPD2    H1  647   0.838   3.913  14.639  2.2957  0.5721 -0.1863
   42MPD2    H2  648   0.593   3.954  14.317 -0.4091  0.9380 -0.7743
   42MPD2    H3  649   0.690   3.836  14.491  0.3771  0.2192  1.8830
   42MPD2     N  650   0.967   4.143  14.625  0.6665  0.1337 -0.0934
   42MPD2    H5  651   0.999   4.075  14.694 -0.0542  2.6207  2.7073
   42MPD2    N1  652   0.687   4.202  14.231 -0.7576  0.0734  0.1417
   42MPD2    H7  653   0.727   4.295  14.227  0.2424 -0.4134 -0.9890
   43MPD2     C  654   2.547   2.183   0.794 -0.2275 -0.4700  0.4875
   43MPD2    C1  655   2.633   2.140   0.888  0.0949 -0.1847  0.4766
   43MPD2    C2  656   2.584   2.107   1.017  0.5416 -0.6112 -0.0641
   43MPD2    C3  657   2.448   2.117   1.045  0.7460 -0.1000  0.5690
   43MPD2    C4  658   2.368   2.151   0.944  0.1050  0.2358 -0.4354
   43MPD2    C5  659   2.416   2.196   0.830  0.0813 -0.2292 -0.2019
   43MPD2     H  660   2.653   2.061   1.087  1.2522  1.5093  0.6247
   43MPD2    H1  661   2.260   2.151   0.954  0.1456 -2.0612 -0.0672
   43MPD2    H2  662   2.572   2.214   0.694 -0.4727  0.7156  0.7888
   43MPD2    H3  663   2.344   2.228   0.755  1.8719 -0.3934 -1.9636
   43MPD2     N  664   2.384   2.067   1.167  0.1422 -0.1341 -0.7779
   43MPD2    H5  665   2.282   2.066   1.169  0.0913 -1.4022 -3.3862
   43MPD2    N1  666   2.767   2.130   0.864  0.7363 -0.1010 -0.2698
   43MPD2    H7  667   2.830   2.092   0.933  3.3039 -0.1419 -2.6287
   44TCq2    C1  668   2.432   1.859   1.725  0.1916 -0.1630 -0.0270
   44TCq2    O2  669   2.555   1.853   1.715  0.0456  0.2929  0.1474
   44TCq2    C2  670   2.370   1.940   1.628 -0.1631  0.6611  0.3415
   44TCq2    C3  671   2.245   1.990   1.640 -0.0436  0.4439 -0.1806
   44TCq2    C4  672   2.181   2.043   1.527  0.7556 -0.5843  0.4026
   44TCq2    C5  673   2.242   2.045   1.410  0.1526  0.3235 -0.0144
   44TCq2    C6  674   2.369   1.995   1.401 -0.2767  0.1098 -0.6101
   44TCq2    C7  675   2.441   1.952   1.512  0.2635  0.3153 -0.2538
   44TCq2    C8  676   2.452   2.021   1.279  0.1165 -0.1261 -0.0469
   44TCq2    O4  677   2.575   2.012   1.299 -0.2562  0.2263 -0.7692
   44TCq2    C9  678   2.045   2.088   1.550 -0.2114  0.3995  0.0639
   44TCq2    O5  679   1.985   2.039   1.651 -0.0722 -0.1368 -0.0143
   44TCq2    O6  680   1.978   2.131   1.449 -0.2024  0.1893 -0.6649
   44TCq2    H2  681   2.192   1.993   1.734 -0.4992  1.2094 -0.4561
   44TCq2    H3  682   2.190   2.074   1.319  0.0555 -1.6488 -0.5712
   44TCq2    H4  683   2.540   1.910   1.497  1.2497  1.5838  2.6362
   45TMC2    C1  684   2.839   3.830   9.143 -0.5124 -0.1780 -0.2200
   45TMC2    C2  685   2.786   3.759   9.243 -0.7694  0.3224 -0.0063
   45TMC2    C3  686   2.852   3.762   9.361  0.4638 -0.1320  0.3667
   45TMC2    C4  687   2.953   3.909   9.155  0.9127 -0.0090 -0.5579
   45TMC2    C5  688   3.019   3.910   9.279  0.4444  0.1654 -0.1636
   45TMC2    C6  689   2.956   3.848   9.387  0.3305 -0.4099 -0.0125
   45TMC2     C  690   2.787   3.819   9.011 -0.5180 -0.2542 -0.2927
   45TMC2     O  691   2.842   3.894   8.929 -0.0892 -0.7831 -0.4811
   45TMC2     H  692   2.698   3.695   9.234 -1.4773  1.6144 -2.4281
   45TMC2    H1  693   2.996   3.965   9.073  2.6293  0.5659  0.7340
   45TMC2    H2  694   2.973   3.879   9.489 -3.6926  1.5894  0.0441
   45TMC2    C7  695   3.123   4.008   9.298 -0.1875  0.6412 -0.4286
   45TMC2    C8  696   2.768   3.741   9.481 -0.7406  0.7268  1.0184
   45TMC2    O1  697   3.156   4.071   9.200  0.0577 -0.0358  0.0429
   45TMC2    O2  698   2.773   3.822   9.568  0.4406 -0.2806  0.3948
   45TMC2    O5  699   2.730   3.615   9.492 -0.3827 -0.5171 -0.3059
   45TMC2    H5  700   2.768   3.565   9.416 -1.5831 -0.6685 -0.8172
   46MPD2     C  701   2.629   3.792   8.766 -0.8736  0.4260 -0.0647
   46MPD2    C1  702   2.605   3.713   8.879 -0.3990 -0.3687 -0.1120
   46MPD2    C2  703   2.494   3.635   8.893 -0.7155  0.4954 -0.5145
   46MPD2    C3  704   2.399   3.624   8.793 -0.1095  0.1048 -0.1491
   46MPD2    C4  705   2.424   3.695   8.679 -0.0247  0.8903  0.6024
   46MPD2    C5  706   2.533   3.783   8.668  0.5037 -0.0297  0.0338
   46MPD2     H  707   2.472   3.582   8.984 -1.8763  0.1494 -0.9971
   46MPD2    H1  708   2.349   3.691   8.601  1.0918 -2.3605 -0.3139
   46MPD2    H2  709   2.715   3.853   8.739  0.2136 -1.2134 -0.3414
   46MPD2    H3  710   2.557   3.838   8.578 -1.1807 -1.8981 -1.5769
   46MPD2     N  711   2.286   3.547   8.833 -0.1005 -0.2925  0.0648
   46MPD2    H5  712   2.279   3.490   8.917 -0.9738  0.0035  0.1901
   46MPD2    N1  713   2.682   3.732   8.996  0.0454  0.7225  0.1530
   46MPD2    H7  714   2.652   3.677   9.076 -0.2828  1.9749  0.8975
   47TMC2    C1  715   0.730   4.392   9.501 -0.2686  0.0639  0.3477
   47TMC2    C2  716   0.621   4.484   9.494 -0.2713  0.0489  0.1763
   47TMC2    C3  717   0.537   4.474   9.384 -0.2975  0.6167  0.6224
   47TMC2    C4  718   0.744   4.296   9.399 -0.6339 -0.0744  0.3835
   47TMC2    C5  719   0.654   4.287   9.297 -0.5233 -0.3348 -0.1367
   47TMC2    C6  720   0.549   4.371   9.289  0.1892 -0.5606  0.3506
   47TMC2     C  721   0.804   4.382   9.619  0.0414 -0.5386 -0.2258
   47TMC2     O  722   0.823   4.490   9.674 -0.1094  0.3267 -0.0068
   47TMC2     H  723   0.590   4.536   9.584 -4.7087  0.2489 -1.4796
   47TMC2    H1  724   0.820   4.218   9.395  1.3978  1.8051  2.2248
   47TMC2    H2  725   0.467   4.370   9.218  2.5459  2.4957 -2.3956
   47TMC2    C7  726   0.671   4.175   9.202 -0.5878 -0.5261  0.4374
   47TMC2    C8  727   0.412   4.541   9.392  0.3843  0.1972 -0.0254
   47TMC2    O1  728   0.775   4.105   9.213 -0.0909 -0.0569 -0.3618
   47TMC2    O2  729   0.317   4.476   9.431  0.3936  0.2901 -0.6632
   47TMC2    O5  730   0.447   4.665   9.419  0.1679 -0.2454 -0.0129
   47TMC2    H5  731   0.527   4.694   9.371 -0.4291  0.6115 -0.5018
   48MPD2     C  732   0.885   4.317   9.903 -0.5151 -0.0194 -0.0945
   48MPD2    C1  733   0.891   4.228   9.794  0.1639  0.0129  0.2945
   48MPD2    C2  734   0.947   4.103   9.818  0.1253  0.5012  0.3031
   48MPD2    C3  735   0.980   4.061   9.948 -0.3665 -0.4229 -0.6334
   48MPD2    C4  736   0.962   4.144  10.052  0.0831  0.4802  0.6938
   48MPD2    C5  737   0.918   4.270  10.026  0.2297 -0.6027  0.2841
   48MPD2     H  738   0.947   4.030   9.739 -0.3759  1.5825 -0.6965
   48MPD2    H1  739   0.978   4.112  10.155 -2.1014 -1.9054  0.2980
   48MPD2    H2  740   0.831   4.411   9.897  2.3215  1.6191  0.3070
   48MPD2    H3  741   0.899   4.335  10.111 -1.3578 -0.2816 -0.3126
   48MPD2     N  742   1.025   3.923   9.957 -0.2135  0.0392 -0.5707
   48MPD2    H5  743   1.037   3.873   9.870  2.0508  0.6940 -0.6491
   48MPD2    N1  744   0.850   4.255   9.660 -0.2336  0.1748 -0.6165
   48MPD2    H7  745   0.828   4.175   9.602  0.4034  0.3495 -1.0970
   49MPD2     C  746   2.269   1.340  10.636  0.1750  0.6183  0.2178
   49MPD2    C1  747   2.360   1.276  10.552 -0.7010 -0.5244  0.6419
   49MPD2    C2  748   2.483   1.328  10.541  0.1963 -0.5264 -0.2154
   49MPD2    C3  749   2.536   1.425  10.624  0.6195 -0.3324  0.1927
   49MPD2    C4  750   2.453   1.472  10.717 -0.4274  0.5277  0.4193
   49MPD2    C5  751   2.321   1.430  10.724  0.3645  0.5130 -0.4459
   49MPD2     H  752   2.536   1.278  10.462 -1.9981 -1.1612 -1.2774
   49MPD2    H1  753   2.477   1.552  10.786 -1.2686 -1.3422  2.8769
   49MPD2    H2  754   2.161   1.335  10.630  0.2190  1.5792 -1.3611
   49MPD2    H3  755   2.257   1.484  10.794  1.1375 -0.3248  0.9046
   49MPD2     N  756   2.670   1.476  10.616 -0.1806 -0.0730 -0.6479
   49MPD2    H5  757   2.706   1.550  10.674  0.8931 -1.2899  0.2485
   49MPD2    N1  758   2.315   1.180  10.458 -0.1619 -0.4654  0.1092
   49MPD2    H7  759   2.382   1.151  10.388  0.8069  2.1572 -0.0502
   50TCq2    C1  760   2.194   1.117  10.461  0.7786 -0.0197 -0.1425
   50TCq2    O2  761   2.107   1.117  10.549 -0.3511 -0.0991 -0.2550
   50TCq2    C2  762   2.156   1.046  10.336  0.3167 -0.0368  0.2030
   50TCq2    C3  763   2.251   1.008  10.243 -0.1821  0.3210 -0.1206
   50TCq2    C4  764   2.211   0.945  10.132  0.4114 -0.5762 -0.3642
   50TCq2    C5  765   2.085   0.914  10.104 -0.0484 -0.2321 -0.2070
   50TCq2    C6  766   1.993   0.938  10.199 -0.1014 -0.1025 -0.4833
   50TCq2    C7  767   2.027   1.010  10.311 -0.7060 -0.1559  0.6002
   50TCq2    C8  768   1.868   0.859  10.183 -0.0453 -0.3014  0.4333
   50TCq2    O4  769   1.874   0.746  10.135 -0.8181 -0.1138  0.6849
   50TCq2    C9  770   2.318   0.915  10.032  0.1874  0.7093 -0.1791
   50TCq2    O5  771   2.291   0.850   9.926 -0.1287 -0.1855 -0.1207
   50TCq2    O6  772   2.441   0.928  10.060  0.1290 -0.5698 -0.6320
   50TCq2    H2  773   2.353   1.043  10.251  0.2259 -1.2052  1.3235
   50TCq2    H3  774   2.059   0.849  10.021 -0.1916 -0.5815  0.1108
   50TCq2    H4  775   1.951   1.031  10.385 -1.3108 -1.8049  0.4278
   51MPD2     C  776   3.992   0.376   1.145  0.5492 -0.4546  0.1120
   51MPD2    C1  777   3.902   0.275   1.173  0.3893  0.4537 -0.1810
   51MPD2    C2  778   3.927   0.204   1.292 -0.7974  1.2163 -0.1827
   51MPD2    C3  779   4.034   0.234   1.374  0.6301  0.0218  0.4082
   51MPD2    C4  780   4.119   0.348   1.343  0.0083 -0.0427 -0.2647
   51MPD2    C5  781   4.094   0.421   1.227 -0.7361  0.1659 -0.0703
   51MPD2     H  782   3.857   0.127   1.323  0.6241  0.1030  0.2525
   51MPD2    H1  783   4.209   0.376   1.396  1.1897 -1.2693 -1.6340
   51MPD2    H2  784   3.970   0.436   1.057  0.8614  0.5583  0.7204
   51MPD2    H3  785   4.158   0.506   1.206 -0.5335 -0.6076 -2.4915
   51MPD2     N  786   4.077   0.163   1.487  0.1323  0.3470  0.2973
   51MPD2    H5  787   4.158   0.196   1.538 -0.7948  1.1652  1.2196
   51MPD2    N1  788   3.794   0.233   1.092 -0.0491  0.2249  0.2256
   51MPD2    H7  789   3.742   0.150   1.116  0.6469 -0.2720  0.0075
   52TCq2    C1  790   4.029   0.038   1.521 -0.5899  0.6356 -0.4277
   52TCq2    O2  791   3.944   4.697   1.463 -0.2838  0.0471  0.4709
   52TCq2    C2  792   4.107   4.707   1.631 -0.2075 -0.4336  0.1813
   52TCq2    C3  793   4.057   4.592   1.691 -0.8852  0.1430 -0.3110
   52TCq2    C4  794   4.108   4.553   1.813 -0.9245  0.1193  0.5708
   52TCq2    C5  795   4.210   4.626   1.864  0.7318  0.0793 -0.1110
   52TCq2    C6  796   4.268   0.009   1.800  0.7882  0.3114  0.0326
   52TCq2    C7  797   4.223   0.041   1.672 -0.0571  0.0572 -0.7480
   52TCq2    C8  798   4.408   0.044   1.825 -0.0398 -0.0185 -0.0649
   52TCq2    O4  799   4.458   0.131   1.755 -0.0897 -0.0213  0.5407
   52TCq2    C9  800   4.062   4.434   1.873 -0.2696  0.2448  0.2054
   52TCq2    O5  801   4.124   4.380   1.962  0.1392  0.0758 -0.0910
   52TCq2    O6  802   3.954   4.390   1.839 -0.5523 -0.2703  0.3656
   52TCq2    H2  803   3.982   4.533   1.640 -0.4450 -0.3762 -0.3583
   52TCq2    H3  804   4.236   4.597   1.966  1.0823  1.7753  0.2831
   52TCq2    H4  805   4.273   0.126   1.628  2.0339  0.2703  2.0352
   53TMC2    C1  806   4.235   4.000  11.975  0.2644  0.6283 -0.1135
   53TMC2    C2  807   4.336   3.928  12.024 -0.2873 -0.3284 -0.1227
   53TMC2    C3  808   4.310   3.868  12.139 -0.7006  0.3964 -0.4097
   53TMC2    C4  809   4.131   4.041  12.059  0.7653  0.3666  0.0210
   53TMC2    C5  810   4.108   3.993  12.180  0.2589  0.0603 -0.6301
   53TMC2    C6  811   4.203   3.906  12.222  0.2308 -0.2265 -0.4962
   53TMC2     C  812   4.217   4.017  11.834  0.7015  0.0121 -0.3555
   53TMC2     O  813   4.315   4.000  11.763  0.4032 -0.3967  0.8504
   53TMC2     H  814   4.411   3.896  11.952  0.5901  2.7162 -0.5844
   53TMC2    H1  815   4.066   4.121  12.025 -0.1918  1.0906  3.5597
   53TMC2    H2  816   4.207   3.861  12.321 -0.9164  0.1889 -0.2676
   53TMC2    C7  817   3.972   3.994  12.239  0.1933 -0.1824  0.2859
   53TMC2    C8  818   4.397   3.754  12.180  0.0477 -1.2644 -0.0130
   53TMC2    O1  819   3.887   4.021  12.156 -0.0057 -0.4934 -0.4056
   53TMC2    O2  820   4.497   3.723  12.123 -0.1246  0.2481 -0.0774
   53TMC2    O5  821   4.337   3.682  12.280  0.1618 -0.4077 -0.0114
   53TMC2    H5  822   4.390   3.603  12.304  1.6043  0.9889  1.4016
   54MPD2     C  823   4.109   4.092  11.576 -0.5006  0.9934 -0.2304
   54MPD2    C1  824   4.033   4.032  11.676  0.1165  0.6477  0.2876
   54MPD2    C2  825   3.907   3.986  11.647  0.5076 -0.6484 -0.3372
   54MPD2    C3  826   3.846   4.024  11.532 -0.1210 -0.2571  0.5100
   54MPD2    C4  827   3.925   4.082  11.431  0.3497  0.2514 -0.2933
   54MPD2    C5  828   4.059   4.104  11.447 -0.4619 -0.0437 -0.6593
   54MPD2     H  829   3.847   3.929  11.717 -1.6427  0.0297 -1.6172
   54MPD2    H1  830   3.880   4.107  11.336 -0.3280  2.1524  0.5265
   54MPD2    H2  831   4.208   4.134  11.592 -0.4443  0.5290  0.6583
   54MPD2    H3  832   4.122   4.150  11.371 -0.3382 -0.5613 -0.8690
   54MPD2     N  833   3.712   4.014  11.500  0.0634 -0.4317 -0.3104
   54MPD2    H5  834   3.677   4.048  11.412  1.5050 -0.9984 -1.1132
   54MPD2    N1  835   4.083   4.009  11.803 -0.0723  0.2351 -0.4274
   54MPD2    H7  836   4.024   3.994  11.885  0.8727 -0.4341  0.1361
   55MPD2     C  837   0.473   1.579   0.038 -0.6404 -0.3736  0.3556
   55MPD2    C1  838   0.411   1.499   0.132  0.2723 -0.5183  0.1548
   55MPD2    C2  839   0.281   1.522   0.166 -0.0890 -0.1250 -0.0442
   55MPD2    C3  840   0.220   1.640   0.122 -0.3709  0.3349 -0.1586
   55MPD2    C4  841   0.292   1.724   0.038  0.7837 -0.0433  0.5010
   55MPD2    C5  842   0.419   1.696  17.695  0.0335  1.1279  0.0641
   55MPD2     H  843   0.222   1.449   0.222  0.9863 -1.6097 -0.8485
   55MPD2    H1  844   0.251   1.818   0.003 -0.0347 -0.2825  0.8002
   55MPD2    H2  845   0.569   1.556  17.691 -0.3417  1.2431  0.1677
   55MPD2    H3  846   0.476   1.762  17.630  1.4220 -1.4061 -1.2706
   55MPD2     N  847   0.090   1.671   0.158  0.1980  0.5516  0.2292
   55MPD2    H5  848   0.031   1.605   0.209 -0.4702  0.8084 -0.1993
   55MPD2    N1  849   0.468   1.375   0.160 -0.7377  0.5101  0.6706
   55MPD2    H7  850   0.540   1.344   0.096 -1.4844  0.5978 -0.2120
   56TCq2    C1  851   0.426   1.303   0.269 -0.6976  1.0099 -0.1297
   56TCq2    O2  852   0.383   1.354   0.373 -0.4426  0.2674  0.9753
   56TCq2    C2  853   0.454   1.162   0.274  0.4650  0.1616 -0.1128
   56TCq2    C3  854   0.504   1.086   0.172 -0.6513  0.1144  0.0151
   56TCq2    C4  855   0.539   0.956   0.195 -0.5447 -0.0460 -0.0360
   56TCq2    C5  856   0.526   0.898   0.315 -0.1742  0.3718 -0.3912
   56TCq2    C6  857   0.478   0.975   0.415 -0.0587 -0.1145 -0.0194
   56TCq2    C7  858   0.426   1.100   0.394  0.0252 -0.0013 -0.3528
   56TCq2    C8  859   0.421   0.896   0.529 -0.4832  0.3609 -0.2518
   56TCq2    O4  860   0.440   0.778   0.519 -0.4381  0.1809 -0.0376
   56TCq2    C9  861   0.585   0.873   0.085 -0.2624  0.8968 -0.9740
   56TCq2    O5  862   0.604   0.749   0.097 -0.0631  0.0298 -0.0473
   56TCq2    O6  863   0.603   0.938  17.674 -0.0770  0.2323  0.2284
   56TCq2    H2  864   0.518   1.131   0.074 -1.2565  0.1747 -0.0468
   56TCq2    H3  865   0.520   0.790   0.319 -1.1181  0.3395 -3.1379
   56TCq2    H4  866   0.388   1.152   0.481 -0.6937  1.6638 -1.6666
   57TMC2    C1  867   4.410   3.105  13.647 -0.0599 -0.4528 -0.5714
   57TMC2    C2  868   4.527   3.089  13.722 -0.3081 -0.2091 -0.5287
   57TMC2    C3  869   4.613   2.992  13.680 -0.4885 -0.2225  0.3668
   57TMC2    C4  870   4.381   3.025  13.541 -0.6656  0.3265  0.0041
   57TMC2    C5  871   4.473   2.926  13.512  0.3959 -0.3722  0.7275
   57TMC2    C6  872   4.590   2.905  13.578 -0.5293 -0.0221  0.3855
   57TMC2     C  873   4.293   3.171  13.700  0.4406 -0.0835 -0.1011
   57TMC2     O  874   4.186   3.117  13.676  0.0351  0.1928  0.1230
   57TMC2     H  875   4.553   3.150  13.807  1.2771  2.1198 -2.6849
   57TMC2    H1  876   4.283   3.015  13.494 -1.5642  0.4351  1.8509
   57TMC2    H2  877   4.669   2.837  13.547 -0.2340  0.3640  0.2817
   57TMC2    C7  878   4.464   2.874  13.379  0.2857  0.2038 -0.4848
   57TMC2    C8  879   0.025   2.993  13.747 -0.0170 -0.0300 -0.0298
   57TMC2    O1  880   4.373   2.923  13.311  1.0793 -0.1193  0.3968
   57TMC2    O2  881   0.086   3.094  13.783  0.1069 -0.6112 -0.3756
   57TMC2    O5  882   0.054   2.863  13.776  0.1566  0.5818 -0.4899
   57TMC2    H5  883   4.706   2.798  13.762 -0.2202  0.8574  0.1396
   58MPD2     C  884   4.038   3.488  14.031  1.1079 -0.2454  0.2013
   58MPD2    C1  885   3.999   3.406  13.920  0.1837  0.6649  0.7685
   58MPD2    C2  886   4.087   3.324  13.855  0.8646  0.2565  0.0770
   58MPD2    C3  887   4.220   3.327  13.879  0.2501 -0.0423  0.1163
   58MPD2    C4  888   4.260   3.410  13.981  0.5771  0.4994 -0.0830
   58MPD2    C5  889   4.173   3.485  14.057  0.2885  0.1142 -0.0266
   58MPD2     H  890   4.044   3.270  13.772  0.4336  1.1525 -0.2792
   58MPD2    H1  891   4.365   3.413  14.008 -0.3579 -1.3257  3.7470
   58MPD2    H2  892   3.972   3.551  14.090  0.1329  1.1002 -2.3229
   58MPD2    H3  893   4.210   3.541  14.142  1.0271  0.5410 -0.6263
   58MPD2     N  894   4.323   3.261  13.805 -0.8307 -0.2999 -0.5169
   58MPD2    H5  895   4.421   3.283  13.820 -0.8707  0.7908 -1.8417
   58MPD2    N1  896   3.867   3.408  13.854 -0.3779  0.7131 -0.2427
   58MPD2    H7  897   3.848   3.352  13.772 -3.7678  0.1616  0.8917
   59MPD2     C  898   1.885   2.686  13.173  0.9370 -1.2164 -0.7262
   59MPD2    C1  899   1.931   2.757  13.063  0.9319  0.0924 -0.7718
   59MPD2    C2  900   2.027   2.859  13.086 -0.2319 -0.0297 -0.1274
   59MPD2    C3  901   2.088   2.872  13.209  0.3866  0.1330  0.1893
   59MPD2    C4  902   2.045   2.794  13.312  0.3848 -0.1798 -0.1201
   59MPD2    C5  903   1.939   2.701  13.296 -0.1745  1.0594 -0.2745
   59MPD2     H  904   2.063   2.914  13.000  1.1102 -1.0202 -0.2019
   59MPD2    H1  905   2.092   2.817  13.406 -2.2830  1.5754  0.8000
   59MPD2    H2  906   1.809   2.610  13.154 -0.9398  1.0017 -2.1927
   59MPD2    H3  907   1.906   2.645  13.382  1.2164  1.7407  0.6804
   59MPD2     N  908   2.184   2.972  13.241  0.5698  0.2369 -0.2067
   59MPD2    H5  909   2.221   2.967  13.335  0.1700 -0.5117 -0.0858
   59MPD2    N1  910   1.865   2.748  12.946  0.0357  0.0753  0.1401
   59MPD2    H7  911   1.801   2.669  12.942  0.7112 -0.4658  0.1571
   60TCq2    C1  912   1.886   2.811  12.825 -0.0562 -0.7080 -0.7166
   60TCq2    O2  913   1.968   2.894  12.789  0.3162 -0.0934  0.1320
   60TCq2    C2  914   1.785   2.766  12.734  0.2019  0.0424 -0.4976
   60TCq2    C3  915   1.684   2.679  12.767  0.5031  0.4018  0.0333
   60TCq2    C4  916   1.619   2.610  12.664  0.6045 -0.4517  1.0422
   60TCq2    C5  917   1.649   2.627  12.533  0.1904 -0.2255  0.0333
   60TCq2    C6  918   1.737   2.725  12.505 -0.2757  0.0271 -0.1341
   60TCq2    C7  919   1.818   2.780  12.599 -0.1666  0.7956 -0.0281
   60TCq2    C8  920   1.794   2.722  12.375 -0.0296 -0.5989 -0.5625
   60TCq2    O4  921   1.839   2.619  12.333 -0.5472  0.2405  0.5726
   60TCq2    C9  922   1.511   2.533  12.700  0.1131  0.7294 -0.4115
   60TCq2    O5  923   1.461   2.459  12.614  0.0395 -0.1843 -0.0616
   60TCq2    O6  924   1.506   2.503  12.823 -0.3449 -0.5755  0.6007
   60TCq2    H2  925   1.636   2.681  12.864 -1.1545  0.9246 -0.8079
   60TCq2    H3  926   1.590   2.579  12.456  1.6245 -0.4580 -0.9196
   60TCq2    H4  927   1.897   2.850  12.576 -0.4269  1.8432  2.2236
   61MPD2     C  928   1.090   4.682  14.570  0.3445 -0.2658  0.8191
   61MPD2    C1  929   1.141   0.079  14.613 -0.3506 -0.6649 -0.5751
   61MPD2    C2  930   1.079   0.196  14.578 -0.9258  0.0835  0.0924
   61MPD2    C3  931   0.966   0.178  14.498  0.2832  0.1653  0.6326
   61MPD2    C4  932   0.924   0.054  14.451  0.2699 -0.0340 -0.2570
   61MPD2    C5  933   0.978   4.662  14.495  0.9333  0.3629 -0.6680
   61MPD2     H  934   1.098   0.296  14.615 -1.9261  0.6363 -0.9018
   61MPD2    H1  935   0.849   0.048  14.374 -1.5794 -0.5164  1.5832
   61MPD2    H2  936   1.148   4.594  14.596 -1.0805 -1.9269 -1.5913
   61MPD2    H3  937   0.945   4.566  14.457  0.3184 -0.0610  0.9347
   61MPD2     N  938   0.879   0.283  14.477  0.6530 -0.3944 -0.4573
   61MPD2    H5  939   0.782   0.255  14.464 -0.6550  2.9649  2.0139
   61MPD2    N1  940   1.255   0.087  14.697  0.2330 -0.5148 -0.3738
   61MPD2    H7  941   1.297   0.179  14.685 -1.7007  0.3697 -0.3401
   62TCq2    C1  942   1.306   4.705  14.772 -0.1236 -0.6702  0.0102
   62TCq2    O2  943   1.278   4.586  14.775 -0.6775  0.3507  0.5999
   62TCq2    C2  944   1.392   0.031  14.882  0.1130  0.6057  0.0665
   62TCq2    C3  945   1.445   4.660  14.966 -0.5416  0.0766 -0.0736
   62TCq2    C4  946   1.454   4.687  15.096  0.7081  0.1679  0.8140
   62TCq2    C5  947   1.418   0.083  15.146 -0.0480  0.3206 -0.1524
   62TCq2    C6  948   1.396   0.189  15.056 -0.3661 -0.4663 -0.3235
   62TCq2    C7  949   1.378   0.160  14.927 -0.5723 -0.8403  1.0331
   62TCq2    C8  950   1.371   0.326  15.100  0.5376 -0.1758  0.7513
   62TCq2    O4  951   1.396   0.413  15.014 -0.0548 -0.0174  0.3329
   62TCq2    C9  952   1.493   4.578  15.190  0.2470 -0.2979 -0.3561
   62TCq2    O5  953   1.510   4.462  15.139 -0.4052 -0.1855  0.2430
   62TCq2    O6  954   1.460   4.585  15.311  0.4414 -0.3387 -0.3402
   62TCq2    H2  955   1.458   4.560  14.925  0.4031 -0.6112  1.8974
   62TCq2    H3  956   1.439   0.100  15.251  0.4722 -0.7732 -0.0794
   62TCq2    H4  957   1.322   0.239  14.879  0.9057 -1.4263 -1.6565
   63TMC2    C1  958   1.015   4.138  11.021 -1.0121 -0.8192  0.5589
   63TMC2    C2  959   1.121   4.176  11.094  0.9651 -0.2531 -0.1501
   63TMC2    C3  960   1.229   4.239  11.028  0.2206 -0.1648 -0.4102
   63TMC2    C4  961   0.999   4.168  10.889 -0.3234 -0.7041 -0.1975
   63TMC2    C5  962   1.096   4.247  10.830 -0.0554 -0.4169 -0.1871
   63TMC2    C6  963   1.211   4.283  10.896 -0.2605 -0.6713 -0.4968
   63TMC2     C  964   0.919   4.071  11.106  0.2892  0.0513 -0.1553
   63TMC2     O  965   0.910   4.089  11.227 -0.2033  0.3105 -0.1792
   63TMC2     H  966   1.119   4.151  11.199 -4.1459 -1.1486 -0.4905
   63TMC2    H1  967   0.904   4.150  10.840 -1.4363 -0.1420  1.7831
   63TMC2    H2  968   1.298   4.321  10.844  1.0760 -1.3396  1.2476
   63TMC2    C7  969   1.039   4.333  10.725 -0.0397  0.0442 -0.1136
   63TMC2    C8  970   1.319   4.314  11.107  0.6143 -1.1652 -0.1159
   63TMC2    O1  971   0.934   4.302  10.665 -0.3868  0.2551  0.0969
   63TMC2    O2  972   1.331   4.277  11.221  0.1821  0.0046  0.0025
   63TMC2    O5  973   1.322   4.441  11.059  0.1198 -0.1308 -0.0900
   63TMC2    H5  974   1.372   4.505  11.114 -0.5932  1.1302 -0.9094
   64MPD2     C  975   0.664   3.628  11.176  0.0733 -0.5352 -0.7545
   64MPD2    C1  976   0.678   3.646  11.044 -0.6038  0.2899  0.0114
   64MPD2    C2  977   0.750   3.754  10.991 -0.3274 -0.2449  0.0806
   64MPD2    C3  978   0.783   3.864  11.070 -0.6234  0.0181  0.1752
   64MPD2    C4  979   0.756   3.848  11.205  0.5934  0.3471 -0.2636
   64MPD2    C5  980   0.707   3.730  11.253  0.1423 -0.3185 -0.0437
   64MPD2     H  981   0.782   3.753  10.888 -2.4144 -1.4768 -0.5491
   64MPD2    H1  982   0.784   3.917  11.284 -0.5914  1.0160 -0.4210
   64MPD2    H2  983   0.633   3.534  11.221 -1.0850  0.2820  0.1616
   64MPD2    H3  984   0.699   3.725  11.361  0.0831 -0.1464 -0.0396
   64MPD2     N  985   0.851   3.984  11.022 -0.2994 -0.2107 -0.2235
   64MPD2    H5  986   0.862   3.999  10.922 -2.0477  0.5295 -0.3087
   64MPD2    N1  987   0.620   3.558  10.952  0.3287 -0.1094 -0.1504
   64MPD2    H7  988   0.626   3.578  10.853  4.8951  1.4663  0.4750
   65MPD2     C  989   1.670   4.098  15.774  0.7807 -0.1933  0.9731
   65MPD2    C1  990   1.705   4.048  15.646 -0.0785 -0.0928  0.1450
   65MPD2    C2  991   1.702   3.909  15.632 -0.1481 -1.0745  1.1975
   65MPD2    C3  992   1.661   3.826  15.732 -0.0327  0.4058  0.2896
   65MPD2    C4  993   1.628   3.877  15.853 -0.3890 -0.0823 -0.3202
   65MPD2    C5  994   1.638   4.011  15.877 -0.5310 -0.2634  0.0203
   65MPD2     H  995   1.727   3.871  15.534 -1.7045  2.4795 -0.5715
   65MPD2    H1  996   1.596   3.808  15.930  2.3410  0.2228  1.0812
   65MPD2    H2  997   1.680   4.204  15.793 -1.7928  0.3655 -0.7521
   65MPD2    H3  998   1.605   4.057  15.969 -0.9196 -0.8110  0.1483
   65MPD2     N  999   1.626   3.690  15.712 -0.3303  0.0809  0.5206
   65MPD2    H5 1000   1.580   3.635  15.785 -1.2517 -0.4082 -0.4317
   65MPD2    N1 1001   1.759   4.129  15.552 -0.0628 -0.0185  0.5007
   65MPD2    H7 1002   1.803   4.083  15.473 -0.3640  3.2519 -1.5395
   66TCq2    C1 1003   1.762   4.268  15.558  0.0438 -0.4139 -0.1217
   66TCq2    O2 1004   1.734   4.344  15.649 -0.0003 -0.5276 -0.0571
   66TCq2    C2 1005   1.808   4.313  15.426 -0.3215 -0.3152 -0.4178
   66TCq2    C3 1006   1.830   4.228  15.315 -0.3229  0.6675 -0.4308
   66TCq2    C4 1007   1.849   4.284  15.191  0.5219  0.9103 -0.1166
   66TCq2    C5 1008   1.867   4.421  15.169  0.5787  1.0549  0.4151
   66TCq2    C6 1009   1.835   4.502  15.280 -0.2061  0.1303  0.0224
   66TCq2    C7 1010   1.808   4.448  15.408  0.4777 -0.3328  0.3107
   66TCq2    C8 1011   1.812   4.646  15.258  0.4904  0.0181 -0.0661
   66TCq2    O4 1012   1.818   4.685  15.141  0.5199  0.0597  0.0047
   66TCq2    C9 1013   1.841   4.198  15.079 -0.0945  0.7645  0.8095
   66TCq2    O5 1014   1.825   4.079  15.105  0.6201  0.3674 -0.2526
   66TCq2    O6 1015   1.800   4.249  14.969  0.0463 -0.2086  0.1259
   66TCq2    H2 1016   1.817   4.120  15.316  1.2744  0.4846  1.3448
   66TCq2    H3 1017   1.902   4.456  15.072  0.2693 -1.9660 -0.8010
   66TCq2    H4 1018   1.779   4.512  15.490  0.3350 -1.2794  0.9966
   67MPD2     C 1019   1.691   3.316  14.283  0.5509 -0.4274  0.0660
   67MPD2    C1 1020   1.679   3.444  14.314 -0.4458 -0.3328 -0.3804
   67MPD2    C2 1021   1.602   3.528  14.237 -0.5575  0.3808 -0.4178
   67MPD2    C3 1022   1.543   3.473  14.124 -0.1828 -0.3911 -0.4831
   67MPD2    C4 1023   1.563   3.340  14.087  0.4434  0.3062 -0.5252
   67MPD2    C5 1024   1.626   3.260  14.174 -0.3531 -0.0142 -0.1826
   67MPD2     H 1025   1.593   3.632  14.265  2.6305  0.7952 -0.8979
   67MPD2    H1 1026   1.526   3.292  13.997  0.9160  2.4247 -1.8565
   67MPD2    H2 1027   1.757   3.246  14.333 -1.5567 -1.5313  1.3146
   67MPD2    H3 1028   1.629   3.153  14.155  0.5182  0.6002 -3.5900
   67MPD2     N 1029   1.466   3.553  14.034 -0.5075  0.5187  0.2681
   67MPD2    H5 1030   1.431   3.508  13.950 -1.0758  0.4130  0.5610
   67MPD2    N1 1031   1.740   3.498  14.426 -0.4291  0.0503 -0.6177
   67MPD2    H7 1032   1.721   3.593  14.457 -0.5339 -0.4217  0.7572
   68TCq2    C1 1033   1.828   3.433  14.510 -0.1254  0.1401 -0.0815
   68TCq2    O2 1034   1.888   3.327  14.502 -0.8541 -0.0575  0.1946
   68TCq2    C2 1035   1.862   3.525  14.620 -0.0184  0.1069  0.1393
   68TCq2    C3 1036   1.773   3.620  14.656  0.5890  0.0327 -0.8807
   68TCq2    C4 1037   1.796   3.691  14.771  0.4824  0.2910  0.4047
   68TCq2    C5 1038   1.916   3.670  14.835 -0.0995  0.7464 -0.4724
   68TCq2    C6 1039   1.996   3.560  14.801 -0.0640  0.0687  0.3818
   68TCq2    C7 1040   1.971   3.486  14.690  0.5525 -0.1815  0.1724
   68TCq2    C8 1041   2.121   3.544  14.869  0.4738 -0.5872  0.1532
   68TCq2    O4 1042   2.212   3.485  14.810  0.0397 -0.2037 -0.1318
   68TCq2    C9 1043   1.706   3.804  14.805 -0.5604  0.7234 -0.8926
   68TCq2    O5 1044   1.741   3.873  14.903 -0.1285  0.1215  0.7470
   68TCq2    O6 1045   1.613   3.842  14.730 -0.1719 -0.8764 -0.1800
   68TCq2    H2 1046   1.684   3.652  14.603 -1.8164  0.1497  3.2048
   68TCq2    H3 1047   1.951   3.741  14.909  1.7977 -0.4599 -0.2214
   68TCq2    H4 1048   2.026   3.399  14.656 -0.0906 -1.0614  1.4328
   69TMC2    C1 1049   3.512   0.095  11.944  0.1900  0.1012 -0.5296
   69TMC2    C2 1050   3.503   0.230  11.973  0.2365 -0.3265  0.2085
   69TMC2    C3 1051   3.571   0.322  11.900 -0.0487 -0.3012 -0.1773
   69TMC2    C4 1052   3.591   0.055  11.831 -0.4653 -0.0439 -0.2247
   69TMC2    C5 1053   3.662   0.147  11.759 -0.3112  0.7876 -0.4158
   69TMC2    C6 1054   3.638   0.283  11.783  0.0998 -0.9257 -0.1143
   69TMC2     C 1055   3.549   0.014  12.060  0.2104  0.4671  0.4089
   69TMC2     O 1056   3.512   0.042  12.174 -0.6507  0.1848 -0.4659
   69TMC2     H 1057   3.461   0.260  12.068 -0.7916  1.0113 -0.6750
   69TMC2    H1 1058   3.577   4.684  11.781  2.2761  0.6780 -2.3369
   69TMC2    H2 1059   3.699   0.352  11.725 -2.0407  0.3024 -0.9201
   69TMC2    C7 1060   3.802   0.110  11.743 -0.3073 -0.2509  0.2592
   69TMC2    C8 1061   3.541   0.464  11.913 -0.0766  0.4774 -0.1703
   69TMC2    O1 1062   3.851   0.065  11.849  0.5444 -0.1577 -0.2228
   69TMC2    O2 1063   3.511   0.527  11.814  0.4520 -0.6601  0.0079
   69TMC2    O5 1064   3.503   0.483  12.043 -0.3010 -0.2612 -0.6050
   69TMC2    H5 1065   3.546   0.430  12.113  1.1154  0.9341 -0.5887
   70MPD2     C 1066   3.827   4.491  12.050 -0.0486 -0.0645 -0.0486
   70MPD2    C1 1067   3.719   4.556  12.106 -0.3211 -0.2984 -0.5033
   70MPD2    C2 1068   3.682   4.524  12.232  0.3070  0.0933 -0.4397
   70MPD2    C3 1069   3.756   4.431  12.302  0.1564 -0.1713 -0.0396
   70MPD2    C4 1070   3.850   4.348  12.241 -0.4914  0.5597 -0.3816
   70MPD2    C5 1071   3.883   4.379  12.114  0.2142 -0.1525  0.6114
   70MPD2     H 1072   3.609   4.584  12.285  2.0200  0.8745  0.9978
   70MPD2    H1 1073   3.898   4.262  12.288 -0.3751  0.5768 -0.4679
   70MPD2    H2 1074   3.851   4.505  11.945 -0.5055  3.5849  0.3356
   70MPD2    H3 1075   3.950   4.305  12.072 -0.6915  0.3774 -1.7621
   70MPD2     N 1076   3.741   4.409  12.441 -0.2608 -0.0498 -0.0124
   70MPD2    H5 1077   3.811   4.362  12.498  0.3080 -0.0155 -0.6819
   70MPD2    N1 1078   3.649   4.648  12.021 -0.2510 -0.4060  0.2054
   70MPD2    H7 1079   3.691   4.664  11.930 -1.9897  0.9221 -0.3501
   71TMC2    C1 1080   2.105   0.257   1.715 -0.8364  0.5328  0.3885
   71TMC2    C2 1081   2.209   0.344   1.745 -0.4883  0.1099 -0.1434
   71TMC2    C3 1082   2.174   0.465   1.789 -1.0240  0.2904 -0.4079
   71TMC2    C4 1083   1.970   0.292   1.709 -0.0905 -0.0221 -0.4309
   71TMC2    C5 1084   1.941   0.410   1.768 -0.4535 -0.0255  0.8605
   71TMC2    C6 1085   2.042   0.496   1.809  0.6286  0.3096 -0.6920
   71TMC2     C 1086   2.147   0.144   1.628  0.7751  0.4022  0.5786
   71TMC2     O 1087   2.252   0.155   1.562  0.7000 -0.1578 -0.0281
   71TMC2     H 1088   2.315   0.322   1.739 -1.0399 -2.5743  0.3190
   71TMC2    H1 1089   1.893   0.227   1.670 -1.0894  1.6925 -1.3365
   71TMC2    H2 1090   2.016   0.596   1.842 -2.1294 -0.3981 -0.6876
   71TMC2    C7 1091   1.805   0.470   1.771 -0.4434  0.5090  0.2445
   71TMC2    C8 1092   2.258   0.551   1.862 -0.1666  0.2820 -0.8606
   71TMC2    O1 1093   1.792   0.570   1.837  0.4641  0.4044 -0.2125
   71TMC2    O2 1094   2.229   0.667   1.888 -0.6961  0.2210  0.2295
   71TMC2    O5 1095   2.373   0.495   1.902  0.0445 -0.0275  0.0872
   71TMC2    H5 1096   2.390   0.399   1.899  1.5114  0.2974 -1.6402
   72MPD2     C 1097   2.032   4.417   1.408  0.1498  0.4358  0.3852
   72MPD2    C1 1098   2.109   4.521   1.359  0.8399 -0.0013 -0.6319
   72MPD2    C2 1099   2.124   4.634   1.437 -0.7764  0.2299 -0.1293
   72MPD2    C3 1100   2.062   4.646   1.558 -0.0340  0.7892  0.7959
   72MPD2    C4 1101   1.982   4.543   1.604  0.0540  0.2860 -0.0440
   72MPD2    C5 1102   1.982   4.427   1.530 -0.2157  0.1075 -0.2726
   72MPD2     H 1103   2.189   4.712   1.400  0.5516 -0.0913  1.5223
   72MPD2    H1 1104   1.934   4.539   1.701 -1.1821  0.2408 -0.6559
   72MPD2    H2 1105   2.037   4.320   1.361  1.3688  1.1207 -0.9213
   72MPD2    H3 1106   1.928   4.342   1.569 -0.3082 -0.0423 -0.7292
   72MPD2     N 1107   2.064   0.037   1.642  0.1870 -0.1829 -0.3466
   72MPD2    H5 1108   2.015   0.030   1.730 -2.8038  2.6137 -1.8120
   72MPD2    N1 1109   2.166   4.527   1.229 -0.0200 -0.2955  0.5235
   72MPD2    H7 1110   2.224   4.609   1.212  0.7995 -1.0428 -0.2765
   73TMC2    C1 1111   0.925   2.224  13.844  0.4071 -0.0838 -0.3479
   73TMC2    C2 1112   0.869   2.291  13.954 -0.0256 -0.2347  0.2654
   73TMC2    C3 1113   0.846   2.229  14.074 -0.1471  0.1653  0.6603
   73TMC2    C4 1114   0.973   2.099  13.863 -0.2017  0.2122  0.2910
   73TMC2    C5 1115   0.955   2.038  13.984  1.0125  0.5883 -0.3824
   73TMC2    C6 1116   0.878   2.099  14.084  0.5892  0.1338  0.4373
   73TMC2     C 1117   1.030   2.293  13.788  0.9527  0.5743  0.1781
   73TMC2     O 1118   1.140   2.235  13.803  0.4039  0.2224  0.3658
   73TMC2     H 1119   0.821   2.386  13.935  1.0803  0.6757  2.0115
   73TMC2    H1 1120   1.009   2.049  13.774  1.5515  0.5309  0.8375
   73TMC2    H2 1121   0.865   2.051  14.180  1.2024  0.3413  0.6263
   73TMC2    C7 1122   1.080   1.976  14.038 -0.0524  0.3131  0.8635
   73TMC2    C8 1123   0.739   2.274  14.161  0.5980  0.0843 -0.0646
   73TMC2    O1 1124   1.065   1.883  14.117  0.1302  0.1026  0.8910
   73TMC2    O2 1125   0.672   2.192  14.223  0.1798 -0.4103  0.4186
   73TMC2    O5 1126   0.779   2.391  14.215  0.3147 -0.3189 -0.2125
   73TMC2    H5 1127   0.839   2.442  14.158  2.4312  0.3988  2.6398
   74MPD2     C 1128   1.288   2.642  13.513 -0.9542 -0.5815 -0.0683
   74MPD2    C1 1129   1.326   2.554  13.619  0.1294  0.6861  0.0981
   74MPD2    C2 1130   1.230   2.487  13.688  0.4613 -0.1480  0.2703
   74MPD2    C3 1131   1.097   2.490  13.656 -0.0314 -0.7296 -0.1655
   74MPD2    C4 1132   1.060   2.570  13.549  0.6735 -0.0546 -0.0463
   74MPD2    C5 1133   1.151   2.650  13.482  0.3255 -0.4500  0.2132
   74MPD2     H 1134   1.256   2.437  13.781 -0.6074 -0.6659  0.2919
   74MPD2    H1 1135   0.956   2.579  13.518  0.5817 -1.8549 -0.2798
   74MPD2    H2 1136   1.370   2.678  13.452 -0.2309  0.8151  1.7116
   74MPD2    H3 1137   1.134   2.718  13.399 -1.1384 -0.9943  0.0684
   74MPD2     N 1138   0.998   2.407  13.715  0.2616  0.3954 -0.0899
   74MPD2    H5 1139   0.900   2.422  13.690  0.5604 -0.4336 -1.7426
   74MPD2    N1 1140   1.462   2.547  13.641  0.4747  0.0394  0.2851
   74MPD2    H7 1141   1.525   2.588  13.572 -2.0313  2.6113 -0.4223
   75TCq2    C1 1142   1.436   3.686  14.054  0.0480  0.1678  0.3719
   75TCq2    O2 1143   1.475   3.769  14.137 -0.3162 -0.1239 -0.9020
   75TCq2    C2 1144   1.349   3.742  13.962 -0.2211 -0.0411  0.4557
   75TCq2    C3 1145   1.322   3.878  13.983 -0.1257  0.0277 -0.0432
   75TCq2    C4 1146   1.238   3.942  13.903 -0.2185  0.1027  0.1578
   75TCq2    C5 1147   1.181   3.867  13.800  0.0611  0.5528 -0.3524
   75TCq2    C6 1148   1.206   3.734  13.783 -0.2564  0.1679  0.3581
   75TCq2    C7 1149   1.291   3.666  13.861  0.1798  0.5744  0.0472
   75TCq2    C8 1150   1.176   3.667  13.657  0.0295 -0.5925 -0.0098
   75TCq2    O4 1151   1.156   3.544  13.648  0.2634 -0.2654  0.4701
   75TCq2    C9 1152   1.215   4.082  13.911 -0.2394 -0.0078  0.3641
   75TCq2    O5 1153   1.097   4.126  13.905 -0.3072  0.9990  0.0633
   75TCq2    O6 1154   1.320   4.143  13.944  0.2279 -0.2893 -0.2095
   75TCq2    H2 1155   1.365   3.938  14.062  0.2703 -0.0531 -0.1983
   75TCq2    H3 1156   1.107   3.924  13.745 -1.3132 -1.1030 -0.2568
   75TCq2    H4 1157   1.313   3.561  13.843 -0.6042 -0.0655  2.9318
   76MPD2     C 1158   4.649   4.048  12.294  0.1296 -0.3617 -0.3362
   76MPD2    C1 1159   4.681   4.038  12.161  0.8761 -0.7989  1.0942
   76MPD2    C2 1160   0.070   3.968  12.112  0.3906  0.4306  0.2731
   76MPD2    C3 1161   0.146   3.886  12.200  0.7155 -0.1265 -0.3086
   76MPD2    C4 1162   0.116   3.899  12.336 -0.3572  0.3993 -0.2387
   76MPD2    C5 1163   0.008   3.981  12.382  0.3805 -0.2732 -0.1495
   76MPD2     H 1164   0.084   3.953  12.006 -0.6234  0.0750  0.1923
   76MPD2    H1 1165   0.174   3.839  12.406 -1.8137 -0.4944  0.1871
   76MPD2    H2 1166   4.572   4.113  12.333 -0.5436 -1.2066 -0.2566
   76MPD2    H3 1167   4.722   3.992  12.489  0.3242  0.9746 -0.2757
   76MPD2     N 1168   0.253   3.806  12.157 -0.2926 -0.7060 -0.5990
   76MPD2    H5 1169   0.302   3.754  12.229 -1.0440 -1.0369 -0.3198
   76MPD2    N1 1170   4.611   4.101  12.059  0.2447  0.3426  0.4811
   76MPD2    H7 1171   4.644   4.067  11.969  2.0072  0.9647  0.8756
   77TCq2    C1 1172   0.307   3.806  12.029 -0.1752  0.1061 -0.0309
   77TCq2    O2 1173   0.264   3.858  11.929 -0.6190  0.0147 -0.1631
   77TCq2    C2 1174   0.413   3.711  12.008 -0.4484 -0.8063  0.1621
   77TCq2    C3 1175   0.426   3.670  11.878  0.2391 -0.3054  0.2273
   77TCq2    C4 1176   0.486   3.550  11.863 -0.0060  0.2959  0.3036
   77TCq2    C5 1177   0.551   3.490  11.968  0.3879  0.4757 -0.3666
   77TCq2    C6 1178   0.546   3.549  12.093 -0.6076  0.3012  0.1072
   77TCq2    C7 1179   0.466   3.657  12.115 -0.7667 -0.0969 -0.0900
   77TCq2    C8 1180   0.627   3.481  12.197 -1.1204  0.1385  0.0395
   77TCq2    O4 1181   0.655   3.367  12.171  0.4135  0.5128  0.0179
   77TCq2    C9 1182   0.487   3.477  11.738 -0.7236 -0.1138 -0.0652
   77TCq2    O5 1183   0.433   3.539  11.639 -0.6248 -0.5820 -0.0591
   77TCq2    O6 1184   0.565   3.377  11.730 -0.0315  0.2548  0.8950
   77TCq2    H2 1185   0.365   3.708  11.796  0.4407  0.8344  0.6089
   77TCq2    H3 1186   0.608   3.401  11.943  1.2298  0.5706  1.2360
   77TCq2    H4 1187   0.448   3.688  12.217  0.0539  1.2647 -0.3690
   78MPD1     C 1188   0.988   3.585   0.442 -0.0557 -0.4234  0.5292
   78MPD1    C1 1189   1.116   3.630   0.477  0.9094 -0.3397 -0.5090
   78MPD1    C2 1190   1.157   3.588   0.605  0.6977  0.5437  0.1937
   78MPD1    C3 1191   1.063   3.533   0.694 -1.0541 -0.4947 -0.5449
   78MPD1    C4 1192   0.937   3.501   0.657 -0.0818 -0.5370  0.7472
   78MPD1    C5 1193   0.903   3.525   0.527 -0.1266 -0.2827  0.7198
   78MPD1     H 1194   1.261   3.600   0.631  1.3650 -3.5107 -0.5883
   78MPD1    H1 1195   0.860   3.474   0.728 -0.4009  0.3372  0.7322
   78MPD1    H2 1196   0.953   3.602   0.341 -1.5713  0.1717  1.1589
   78MPD1    H3 1197   0.801   3.497   0.504 -0.4016  0.2278  1.3065
   78MPD1     N 1198   1.102   3.502   0.833  0.0127 -0.7741 -0.5671
   78MPD1    H5 1199   1.039   3.443   0.887  1.4724 -1.0231  0.8690
   78MPD1    N1 1200   1.201   3.685   0.379  0.4611 -0.0924  0.4166
   78MPD1    H6 1201   1.148   3.759   0.333  0.7777  0.4358  0.9024
   78MPD1    H7 1202   1.273   3.724   0.439 -1.2529  0.8628  1.8677
   79TCq2    C1 1203   1.227   3.539   0.893 -0.1975 -0.2465  0.4528
   79TCq2    O2 1204   1.329   3.591   0.844  0.4069 -0.3813  0.1475
   79TCq2    C2 1205   1.236   3.507   1.033 -0.2518 -0.5997 -0.1801
   79TCq2    C3 1206   1.125   3.463   1.110 -0.4046 -0.4165 -0.2884
   79TCq2    C4 1207   1.151   3.421   1.235 -0.4331 -0.5003  0.4004
   79TCq2    C5 1208   1.275   3.423   1.291  0.4956 -0.3512  0.4618
   79TCq2    C6 1209   1.383   3.474   1.214  0.2812  0.7207 -0.6509
   79TCq2    C7 1210   1.367   3.509   1.082 -0.1612 -0.6326  0.0868
   79TCq2    C8 1211   1.524   3.443   1.258 -0.7299 -0.4228  0.5457
   79TCq2    O4 1212   1.599   3.510   1.186  0.3636  0.9607  0.1641
   79TCq2    C9 1213   1.041   3.359   1.307 -0.3574 -0.5690  0.6069
   79TCq2    O5 1214   0.927   3.368   1.258  0.6245 -0.8401 -0.0627
   79TCq2    O6 1215   1.064   3.294   1.411 -0.1177  0.7739  0.1952
   79TCq2    H2 1216   1.022   3.452   1.077 -0.6350  0.3834  0.1670
   79TCq2    H3 1217   1.280   3.414   1.399  1.7749  1.4954  0.5560
   79TCq2    H4 1218   1.453   3.520   1.017  0.3524 -2.8944  0.3883
   80MPD2     C 1219   3.987   3.653  12.243 -0.4870 -0.7062  0.4331
   80MPD2    C1 1220   3.878   3.672  12.163  0.2291  0.0529 -0.2218
   80MPD2    C2 1221   3.757   3.682  12.233  0.5012  0.1629  0.4539
   80MPD2    C3 1222   3.738   3.673  12.374 -0.1117  0.1643  0.2398
   80MPD2    C4 1223   3.858   3.653  12.450  0.5681  0.3791 -0.6246
   80MPD2    C5 1224   3.978   3.639  12.376 -0.6086  0.4006  0.0613
   80MPD2     H 1225   3.669   3.691  12.171  0.4293  0.0025  0.5316
   80MPD2    H1 1226   3.862   3.662  12.558  1.3534  1.6995 -0.7683
   80MPD2    H2 1227   4.085   3.637  12.198 -0.0924 -0.5015  1.2294
   80MPD2    H3 1228   4.069   3.635  12.434 -0.4785 -0.4609 -0.2079
   80MPD2     N 1229   3.617   3.702  12.446 -0.5669 -0.2196  0.4320
   80MPD2    H5 1230   3.625   3.681  12.545 -0.4354 -0.5803  0.3450
   80MPD2    N1 1231   3.876   3.680  12.025  0.1237  0.1127  0.1936
   80MPD2    H7 1232   3.784   3.699  11.987  0.6205  1.0900 -0.5445
   81TCq2    C1 1233   3.984   3.692  11.945  0.1432  0.3280 -0.2118
   81TCq2    O2 1234   4.100   3.700  11.980 -0.0946  0.1090  0.4523
   81TCq2    C2 1235   3.944   3.676  11.805  0.7266  1.2117 -0.2078
   81TCq2    C3 1236   4.036   3.709  11.712  0.0457 -0.5766  0.1398
   81TCq2    C4 1237   4.014   3.667  11.582 -0.0624 -0.1245 -0.1496
   81TCq2    C5 1238   3.901   3.603  11.540 -0.1746  0.0100 -0.3355
   81TCq2    C6 1239   3.813   3.565  11.641  0.4182  0.6333  0.5260
   81TCq2    C7 1240   3.836   3.604  11.775  0.0758  0.4219  0.0446
   81TCq2    C8 1241   3.769   3.430  11.628 -0.0539  0.1431  0.1966
   81TCq2    O4 1242   3.753   3.397  11.510 -0.0661  0.1689 -0.3646
   81TCq2    C9 1243   4.110   3.681  11.479  0.6133 -0.1655 -0.1458
   81TCq2    O5 1244   4.075   3.649  11.365  0.5885 -0.4395  0.5018
   81TCq2    O6 1245   4.229   3.699  11.515 -0.6849  0.0753 -0.1234
   81TCq2    H2 1246   4.125   3.767  11.730 -1.4485  2.6593 -2.8548
   81TCq2    H3 1247   3.892   3.563  11.440 -1.6271 -0.8631  0.1380
   81TCq2    H4 1248   3.756   3.580  11.843 -0.0081 -1.1171 -0.5772
   82MPD2     C 1249   2.565   3.401  10.942  0.0496 -0.0634  0.7874
   82MPD2    C1 1250   2.545   3.322  10.831  0.0368 -0.2654 -0.0456
   82MPD2    C2 1251   2.629   3.211  10.805  0.1925 -0.6429  0.6118
   82MPD2    C3 1252   2.710   3.164  10.912 -0.0111  0.0620 -0.8111
   82MPD2    C4 1253   2.727   3.240  11.028  0.4614  0.1692  1.0673
   82MPD2    C5 1254   2.653   3.358  11.045  0.2024  1.1158 -0.3332
   82MPD2     H 1255   2.629   3.153  10.714  1.5819  1.5690 -0.7734
   82MPD2    H1 1256   2.779   3.200  11.114 -1.5438 -1.7420  1.3723
   82MPD2    H2 1257   2.509   3.492  10.959 -0.0218  0.4900 -2.3484
   82MPD2    H3 1258   2.655   3.414  11.138  2.4770 -1.3489  1.0963
   82MPD2     N 1259   2.774   3.041  10.913  0.0958 -0.0550 -0.1675
   82MPD2    H5 1260   2.839   3.017  10.986  0.1452 -0.9886 -0.5130
   82MPD2    N1 1261   2.432   3.345  10.746  0.4672  0.3328 -0.0828
   82MPD2    H7 1262   2.358   3.404  10.784  0.0776  0.5425 -1.1706
   83TCq2    C1 1263   2.735   2.935  10.834 -0.4469  0.7174 -0.6325
   83TCq2    O2 1264   2.661   2.939  10.738  0.1024 -0.2725  0.4566
   83TCq2    C2 1265   2.749   2.813  10.910 -0.6377 -0.0066 -0.6185
   83TCq2    C3 1266   2.863   2.801  10.986 -0.5316  0.6081  0.2826
   83TCq2    C4 1267   2.852   2.733  11.101 -0.7849 -0.4288 -0.5367
   83TCq2    C5 1268   2.728   2.686  11.143 -0.4788  0.5857 -0.5741
   83TCq2    C6 1269   2.620   2.692  11.061 -0.3446 -0.7199  0.3101
   83TCq2    C7 1270   2.628   2.753  10.940  0.6631  0.1131 -0.5199
   83TCq2    C8 1271   2.486   2.666  11.111  0.4659 -0.0781 -0.2409
   83TCq2    O4 1272   2.466   2.659  11.234  0.1688 -0.4116  0.4210
   83TCq2    C9 1273   2.963   2.712  11.182  0.1081  0.2236 -0.0091
   83TCq2    O5 1274   3.073   2.706  11.131  0.7981  0.0572 -0.1062
   83TCq2    O6 1275   2.933   2.674  11.302  0.0787  0.1689  0.6978
   83TCq2    H2 1276   2.954   2.843  10.945 -1.0114  0.8414 -0.5417
   83TCq2    H3 1277   2.729   2.660  11.248  1.4760  1.5792 -0.3485
   83TCq2    H4 1278   2.542   2.767  10.875  1.1617 -1.4896 -1.5226
   84TCq2    C1 1279   2.755   1.447  10.515  0.2483 -0.5537 -0.4873
   84TCq2    O2 1280   2.727   1.386  10.412  0.3331 -0.6459  0.1382
   84TCq2    C2 1281   2.879   1.524  10.520 -0.8876 -0.0842 -0.0054
   84TCq2    C3 1282   2.965   1.526  10.413  0.3427 -0.3701  0.1153
   84TCq2    C4 1283   3.060   1.620  10.410 -0.4274  0.1904  0.5333
   84TCq2    C5 1284   3.088   1.707  10.508 -0.1182 -0.0094 -0.0764
   84TCq2    C6 1285   3.014   1.695  10.618  0.8532 -0.3111  0.4032
   84TCq2    C7 1286   2.907   1.603  10.626 -0.0501  0.1347 -0.0017
   84TCq2    C8 1287   3.031   1.795  10.727 -0.4399  0.2767 -0.1778
   84TCq2    O4 1288   3.144   1.801  10.772 -0.2661  0.1394 -0.1497
   84TCq2    C9 1289   3.153   1.614  10.295 -0.7836  0.1919  0.7026
   84TCq2    O5 1290   3.239   1.703  10.297  0.8047  0.1216 -0.2911
   84TCq2    O6 1291   3.142   1.525  10.207 -0.2885 -0.9182 -0.1954
   84TCq2    H2 1292   2.950   1.459  10.330  0.4130  1.0163 -1.0115
   84TCq2    H3 1293   3.174   1.773  10.503 -0.6503  0.7392  0.7799
   84TCq2    H4 1294   2.865   1.584  10.724 -1.0576 -1.1981 -0.7000
   85MPD2     C 1295   4.095   0.350  16.230 -0.1173  1.2895  0.2986
   85MPD2    C1 1296   4.070   0.292  16.108  0.6957  0.4920  0.4588
   85MPD2    C2 1297   4.112   0.357  15.993 -0.2602  0.8464  0.1743
   85MPD2    C3 1298   4.185   0.473  16.000  0.3611 -0.2673  0.2070
   85MPD2    C4 1299   4.216   0.524  16.120  0.2135 -0.7513  0.0428
   85MPD2    C5 1300   4.175   0.461  16.237 -0.3880  0.6462 -0.3397
   85MPD2     H 1301   4.092   0.319  15.893 -0.0114  1.8600 -0.2578
   85MPD2    H1 1302   4.249   0.626  16.130 -0.3607 -0.3861 -1.8835
   85MPD2    H2 1303   4.057   0.320  16.327 -1.6140 -1.5555 -1.1621
   85MPD2    H3 1304   4.179   0.518  16.329  3.3895  1.3540 -0.9246
   85MPD2     N 1305   4.238   0.533  15.883 -0.0228  0.0980  0.5250
   85MPD2    H5 1306   4.231   0.468  15.806 -0.8785 -0.8334  1.3847
   85MPD2    N1 1307   4.002   0.171  16.092  0.4286  0.0474  0.0296
   85MPD2    H7 1308   3.971   0.139  16.000 -0.5442  0.8588  0.0703
   86TCq2    C1 1309   4.271   0.661  15.864  0.0083  0.1150  0.0154
   86TCq2    O2 1310   4.226   0.763  15.919 -0.5294  0.2063 -0.4786
   86TCq2    C2 1311   4.319   0.683  15.730 -0.1059 -0.7623 -0.0639
   86TCq2    C3 1312   4.277   0.800  15.666  0.3083  0.0665  0.1423
   86TCq2    C4 1313   4.335   0.839  15.548 -0.5403  0.0505 -0.0293
   86TCq2    C5 1314   4.448   0.772  15.514 -0.0908  1.1059 -0.2180
   86TCq2    C6 1315   4.489   0.665  15.583  0.4430  0.0625  0.0201
   86TCq2    C7 1316   4.429   0.619  15.691 -0.3782  0.4336 -0.2814
   86TCq2    C8 1317   4.582   0.575  15.519 -0.9794 -0.2990 -0.1197
   86TCq2    O4 1318   4.648   0.507  15.597 -0.0315  0.3952  0.4141
   86TCq2    C9 1319   4.286   0.949  15.472 -0.1961  0.3869 -0.1427
   86TCq2    O5 1320   4.174   0.990  15.491  0.3253 -0.9380 -0.3292
   86TCq2    O6 1321   4.366   0.993  15.384  0.3769 -0.6462 -0.3609
   86TCq2    H2 1322   4.203   0.866  15.709 -0.7861 -0.7639 -0.4349
   86TCq2    H3 1323   4.493   0.802  15.420  0.2793  1.3111  0.0207
   86TCq2    H4 1324   4.462   0.528  15.740  0.1026  0.9934  0.4286
   87MPD2     C 1325   1.958   2.953   1.133  0.4915 -0.5512  0.0374
   87MPD2    C1 1326   1.911   2.984   1.013 -0.4410 -0.0136 -0.0398
   87MPD2    C2 1327   1.876   3.117   0.988  0.1559  0.7112 -0.3812
   87MPD2    C3 1328   1.905   3.216   1.082  0.3825  0.4714  0.0234
   87MPD2    C4 1329   1.979   3.184   1.193 -0.5987  0.0843 -0.1433
   87MPD2    C5 1330   1.995   3.052   1.221 -0.9839  0.1352  0.2944
   87MPD2     H 1331   1.836   3.143   0.891  0.5275  1.5315 -0.3110
   87MPD2    H1 1332   2.022   3.259   1.259 -0.9124 -1.1251  1.4500
   87MPD2    H2 1333   1.973   2.848   1.158  0.7872 -0.6022 -0.3595
   87MPD2    H3 1334   2.033   3.024   1.319  1.4175  0.7626 -0.4583
   87MPD2     N 1335   1.875   3.354   1.055  0.7781 -0.1056 -0.1986
   87MPD2    H5 1336   1.904   3.424   1.122 -1.3168  0.7082 -0.1338
   87MPD2    N1 1337   1.885   2.872   0.924 -0.0683 -0.7948 -0.4354
   87MPD2    H7 1338   1.910   2.780   0.960  2.4024 -0.3745 -1.0914
   88TCq2    C1 1339   1.840   2.879   0.796 -0.8711 -0.3290 -0.2378
   88TCq2    O2 1340   1.790   2.980   0.746  0.4924 -0.3580 -0.4529
   88TCq2    C2 1341   1.811   2.750   0.732 -0.0318  0.3721  0.6062
   88TCq2    C3 1342   1.823   2.631   0.786 -0.1761  0.3377  0.1695
   88TCq2    C4 1343   1.800   2.523   0.705 -0.2741 -0.3737  0.6851
   88TCq2    C5 1344   1.765   2.531   0.576 -0.5143 -0.4973 -0.8214
   88TCq2    C6 1345   1.770   2.654   0.524  0.1163  0.7338 -0.4014
   88TCq2    C7 1346   1.790   2.763   0.603  0.4310  0.5787  0.7148
   88TCq2    C8 1347   1.835   2.662   0.392 -0.2495 -0.5341 -0.2958
   88TCq2    O4 1348   1.837   2.770   0.332 -1.0358  0.0347 -0.4230
   88TCq2    C9 1349   1.787   2.392   0.771  0.4207 -0.0274 -0.1869
   88TCq2    O5 1350   1.827   2.367   0.887  0.0436  0.4397  1.2459
   88TCq2    O6 1351   1.722   2.310   0.706 -0.4086  0.9623  0.2073
   88TCq2    H2 1352   1.839   2.615   0.892  0.5940  2.5832  0.3809
   88TCq2    H3 1353   1.745   2.438   0.524  0.3774 -1.1147 -0.0561
   88TCq2    H4 1354   1.799   2.856   0.550  0.1818 -0.7776 -1.7129
   89MPD2     C 1355   2.970   0.834   1.556 -0.3175 -0.3064  0.1355
   89MPD2    C1 1356   2.911   0.933   1.633  0.1090 -0.1601  0.0840
   89MPD2    C2 1357   2.983   1.049   1.657  0.0570 -0.0933 -0.2569
   89MPD2    C3 1358   3.114   1.060   1.600 -0.3678 -0.3438  0.1922
   89MPD2    C4 1359   3.169   0.960   1.527  0.6098 -0.0963 -0.2453
   89MPD2    C5 1360   3.099   0.848   1.508  0.1060 -0.2185 -0.3940
   89MPD2     H 1361   2.938   1.135   1.706  0.2329  0.3460 -0.8717
   89MPD2    H1 1362   3.267   0.963   1.480  1.9710 -1.0871  2.5266
   89MPD2    H2 1363   2.921   0.740   1.531  0.3610 -0.3553 -0.9776
   89MPD2    H3 1364   3.137   0.763   1.453  0.6862  1.2095 -2.2001
   89MPD2     N 1365   3.177   1.186   1.604  0.1722  0.1573 -0.1203
   89MPD2    H5 1366   3.120   1.265   1.633 -0.3317 -0.1903 -0.1590
   89MPD2    N1 1367   2.774   0.922   1.668 -0.8032  0.0823 -0.2666
   89MPD2    H7 1368   2.749   0.996   1.732 -0.4450 -0.6987  0.7834
   90TCq2    C1 1369   3.312   1.210   1.588 -0.5631  0.4595  0.4494
   90TCq2    O2 1370   3.400   1.133   1.553 -0.1637 -0.3052 -0.2178
   90TCq2    C2 1371   3.341   1.352   1.576  0.1456  1.1471  0.3660
   90TCq2    C3 1372   3.468   1.391   1.556  0.0132  0.0401  0.2153
   90TCq2    C4 1373   3.490   1.521   1.506  0.4485  0.3896  0.3919
   90TCq2    C5 1374   3.392   1.604   1.463 -0.2898 -0.4766  0.2405
   90TCq2    C6 1375   3.267   1.549   1.475  0.1190  0.1628  0.1438
   90TCq2    C7 1376   3.241   1.436   1.538 -0.5734 -0.0502  0.2107
   90TCq2    C8 1377   3.160   1.616   1.411  0.1139 -0.2528  0.0461
   90TCq2    O4 1378   3.055   1.559   1.396 -0.0377 -0.2046  0.3390
   90TCq2    C9 1379   3.621   1.571   1.503 -0.1400  0.4187  0.8991
   90TCq2    O5 1380   3.636   1.695   1.490 -0.0194  0.3234 -0.2218
   90TCq2    O6 1381   3.694   1.505   1.581  0.0317 -0.3470  0.4296
   90TCq2    H2 1382   3.548   1.327   1.590 -1.5926 -3.1812 -2.0475
   90TCq2    H3 1383   3.417   1.700   1.419 -0.4005 -0.2807  0.6037
   90TCq2    H4 1384   3.134   1.417   1.534 -0.3153 -1.4133  0.0708
   91TMC2    C1 1385   4.198   1.313  16.352  0.4356 -0.4041 -0.7169
   91TMC2    C2 1386   4.263   1.423  16.387  0.0955  0.2745  0.3747
   91TMC2    C3 1387   4.206   1.498  16.485  0.3164  0.6743  0.3557
   91TMC2    C4 1388   4.062   1.299  16.387 -0.0208  0.5852 -0.2190
   91TMC2    C5 1389   4.005   1.376  16.488  0.5328 -0.0305  0.7991
   91TMC2    C6 1390   4.083   1.475  16.535  0.0880  0.0846 -0.0005
   91TMC2     C 1391   4.253   1.229  16.246 -0.4933 -0.4855  0.4522
   91TMC2     O 1392   4.184   1.129  16.221 -0.2125  0.1570  0.1782
   91TMC2     H 1393   4.358   1.449  16.341 -1.2483  0.0767 -2.4518
   91TMC2    H1 1394   4.013   1.215  16.340  0.9547 -0.2152  0.1752
   91TMC2    H2 1395   4.046   1.551  16.603  0.3374 -1.0925  1.4706
   91TMC2    C7 1396   3.864   1.400  16.486  0.5067 -0.5994 -0.0298
   91TMC2    C8 1397   4.275   1.614  16.523 -0.1681 -0.1588  0.0332
   91TMC2    O1 1398   3.819   1.481  16.570 -0.0310  0.0671 -0.1994
   91TMC2    O2 1399   4.339   1.687  16.454  0.3700  0.5079 -0.1051
   91TMC2    O5 1400   4.256   1.629  16.650  0.5447  0.1187  0.2709
   91TMC2    H5 1401   4.215   1.549  16.689  1.3247  0.5728  2.0101
   92MPD2     C 1402   4.443   1.042  16.121  0.0839 -0.4275  0.7571
   92MPD2    C1 1403   4.477   1.177  16.147  0.6412  0.8612  0.0108
   92MPD2    C2 1404   4.604   1.224  16.119 -0.3509  0.8065  0.0092
   92MPD2    C3 1405   4.703   1.137  16.057 -0.1913 -0.5333  0.3849
   92MPD2    C4 1406   4.661   1.013  16.016 -0.3399 -0.7009  0.1765
   92MPD2    C5 1407   4.534   0.964  16.056 -0.1318 -0.5817  0.2853
   92MPD2     H 1408   4.627   1.323  16.155 -1.9728  1.0518  0.3302
   92MPD2    H1 1409   0.007   0.943  15.970 -1.0001 -0.6745 -0.8708
   92MPD2    H2 1410   4.347   0.996  16.140  0.4826 -1.8023 -0.5283
   92MPD2    H3 1411   4.506   0.860  16.039  0.6651 -1.0537  1.8641
   92MPD2     N 1412   0.107   1.188  16.039 -0.0563 -0.1467  0.0849
   92MPD2    H5 1413   0.132   1.277  16.083  1.3660  0.0196 -1.0714
   92MPD2    N1 1414   4.381   1.260  16.210  0.7285  0.0009  0.3115
   92MPD2    H7 1415   4.411   1.353  16.240  0.7293  0.7114 -1.9057
   93MPD2     C 1416   1.462   0.876  13.846 -0.3618  0.3485  0.3275
   93MPD2    C1 1417   1.447   1.013  13.863 -0.1880 -0.3180 -0.9293
   93MPD2    C2 1418   1.323   1.078  13.853 -0.3931 -0.4130  0.4003
   93MPD2    C3 1419   1.212   0.992  13.837  0.2322 -0.6615  0.0799
   93MPD2    C4 1420   1.229   0.855  13.836  0.1103  0.0240  0.1679
   93MPD2    C5 1421   1.354   0.794  13.835 -0.4218  0.4041 -0.1251
   93MPD2     H 1422   1.327   1.186  13.858  1.1676 -0.4407 -0.3568
   93MPD2    H1 1423   1.143   0.792  13.819  0.2976 -0.0731 -0.4172
   93MPD2    H2 1424   1.560   0.830  13.837 -0.9869 -1.0971  1.0747
   93MPD2    H3 1425   1.376   0.690  13.814 -2.0876 -0.0730  0.4619
   93MPD2     N 1426   1.086   1.040  13.803 -0.1190 -0.3604  0.5438
   93MPD2    H5 1427   1.008   0.978  13.782 -1.0725  1.0864 -0.1949
   93MPD2    N1 1428   1.552   1.102  13.861 -0.4578 -0.4231 -0.1419
   93MPD2    H7 1429   1.528   1.201  13.863 -0.2536 -0.3904  0.8670
   94TCq2    C1 1430   1.684   1.076  13.849 -0.2572  0.4527 -0.4166
   94TCq2    O2 1431   1.736   0.966  13.830  0.0080 -0.0896 -0.6174
   94TCq2    C2 1432   1.768   1.200  13.830 -0.4162  0.4730 -0.0905
   94TCq2    C3 1433   1.727   1.327  13.863  0.8817  0.7106  0.5244
   94TCq2    C4 1434   1.771   1.431  13.785  0.1232 -0.2551 -0.5767
   94TCq2    C5 1435   1.880   1.414  13.704 -0.0834  0.6132  0.3119
   94TCq2    C6 1436   1.929   1.290  13.679  0.6783 -0.0665 -0.3550
   94TCq2    C7 1437   1.866   1.182  13.743  0.6036 -0.5309  0.6432
   94TCq2    C8 1438   2.076   1.277  13.693 -0.2436 -0.1663  1.5173
   94TCq2    O4 1439   2.124   1.167  13.699 -0.0868  0.1609  0.5872
   94TCq2    C9 1440   1.721   1.561  13.818  0.5246 -0.4239  0.3723
   94TCq2    O5 1441   1.654   1.570  13.924  0.2991  0.2768 -0.8250
   94TCq2    O6 1442   1.748   1.656  13.736  0.0443  0.1758  0.9088
   94TCq2    H2 1443   1.665   1.344  13.950 -1.3798 -0.3420 -0.8553
   94TCq2    H3 1444   1.908   1.507  13.655  1.3967 -0.8101 -1.5170
   94TCq2    H4 1445   1.909   1.084  13.726 -0.5008 -0.7502 -0.9177
   95TMC2    C1 1446   0.599   3.681  15.490 -0.0029  0.1303 -0.3107
   95TMC2    C2 1447   0.483   3.630  15.537 -0.1912 -0.1284  0.1469
   95TMC2    C3 1448   0.377   3.707  15.515 -0.3755  0.6272 -0.3047
   95TMC2    C4 1449   0.621   3.789  15.412  0.4989 -0.0320  0.0999
   95TMC2    C5 1450   0.506   3.864  15.395 -0.5913 -0.3574  0.5836
   95TMC2    C6 1451   0.389   3.826  15.447  0.8603  0.6976  0.0106
   95TMC2     C 1452   0.713   3.598  15.531  0.8924  0.4337  0.2868
   95TMC2     O 1453   0.822   3.649  15.517 -0.8892  0.4126 -0.1122
   95TMC2     H 1454   0.465   3.540  15.596 -0.6903  0.1298  0.3893
   95TMC2    H1 1455   0.723   3.809  15.380  0.3016  1.4261  0.3672
   95TMC2    H2 1456   0.301   3.888  15.440 -0.9223 -1.4983  2.5035
   95TMC2    C7 1457   0.498   3.997  15.331 -0.2596  0.2414 -0.2908
   95TMC2    C8 1458   0.280   3.701  15.617 -0.8857 -0.4817 -0.1673
   95TMC2    O1 1459   0.387   4.043  15.316  0.2731  0.0083  0.4104
   95TMC2    O2 1460   0.215   3.799  15.645 -0.4122  0.7021 -0.1496
   95TMC2    O5 1461   0.217   3.581  15.614  0.0400 -0.4305 -0.7500
   95TMC2    H5 1462   0.288   3.522  15.580 -3.3003 -3.8207 -1.7825
   96MPD2     C 1463   0.961   3.173  15.666  0.0660  0.4809  0.3544
   96MPD2    C1 1464   1.006   3.296  15.634  0.3433 -0.5131 -0.6783
   96MPD2    C2 1465   0.921   3.401  15.599  0.9446  0.0932  0.0199
   96MPD2    C3 1466   0.784   3.373  15.588  0.2565  0.3735  1.0000
   96MPD2    C4 1467   0.738   3.244  15.620  0.1557 -0.3419  0.4345
   96MPD2    C5 1468   0.827   3.148  15.654 -0.4768 -0.2926 -0.0097
   96MPD2     H 1469   0.958   3.502  15.581 -0.3158  0.7926  1.3175
   96MPD2    H1 1470   0.633   3.219  15.615 -0.2957  1.3117  1.7934
   96MPD2    H2 1471   1.036   3.095  15.677  0.7210  0.6606 -2.7286
   96MPD2    H3 1472   0.791   3.048  15.675  0.4784 -0.8789 -1.1698
   96MPD2     N 1473   0.682   3.463  15.544  0.4170  0.8070  0.2027
   96MPD2    H5 1474   0.590   3.428  15.523  1.0255 -1.0698  0.6957
   96MPD2    N1 1475   1.148   3.308  15.633  0.5253  0.1231 -0.0516
   96MPD2    H7 1476   1.206   3.224  15.633  1.2682  0.6268  1.0243
   97MPD2     C 1477   2.807   4.485   0.450  0.6194  0.3932  0.1099
   97MPD2    C1 1478   2.863   4.607   0.476 -0.3794 -0.2087 -0.5071
   97MPD2    C2 1479   2.868   4.701   0.370 -1.0841 -0.6904  0.1436
   97MPD2    C3 1480   2.811   4.683   0.246 -0.4599 -0.6220  0.8443
   97MPD2    C4 1481   2.770   4.559   0.217  0.0547 -0.4284 -0.0315
   97MPD2    C5 1482   2.778   4.460   0.316  0.0114  0.1112 -0.0910
   97MPD2     H 1483   2.889   0.081   0.390 -0.6759 -0.6180 -0.6247
   97MPD2    H1 1484   2.724   4.537   0.121 -0.0629  0.2496 -0.1333
   97MPD2    H2 1485   2.794   4.414   0.532 -4.4995 -0.4462 -1.4753
   97MPD2    H3 1486   2.737   4.366   0.281 -0.6591 -0.0494  1.1102
   97MPD2     N 1487   2.785   0.069   0.155  0.6641  0.6182  0.2086
   97MPD2    H5 1488   2.717   0.066   0.080  1.4077 -0.8654 -0.4013
   97MPD2    N1 1489   2.874   4.653   0.608  0.1344  0.1047 -0.1653
   97MPD2    H7 1490   2.821   4.605   0.680 -0.2674  0.9934  0.1262
   98TCq2    C1 1491   2.850   0.193   0.158  0.0847  0.3582 -0.2673
   98TCq2    O2 1492   2.937   0.227   0.241  0.4279 -0.6436  0.0283
   98TCq2    C2 1493   2.792   0.291   0.070  0.0741 -0.0553 -0.2447
   98TCq2    C3 1494   2.731   0.243  17.655 -0.0888 -0.7730 -0.3827
   98TCq2    C4 1495   2.723   0.337  17.553 -0.4090  0.2852 -0.3030
   98TCq2    C5 1496   2.765   0.467  17.560 -0.1904  0.4500 -0.2444
   98TCq2    C6 1497   2.831   0.511  17.672  0.4245 -0.0054 -0.0802
   98TCq2    C7 1498   2.844   0.419   0.073 -0.3415  0.5153 -0.1432
   98TCq2    C8 1499   2.923   0.623  17.668 -0.0256  0.4201  0.5329
   98TCq2    O4 1500   2.985   0.635   0.072  0.1516  0.1273 -0.0391
   98TCq2    C9 1501   2.662   0.295  17.424  1.2681 -0.6026  0.0441
   98TCq2    O5 1502   2.687   0.367  17.321 -0.1576 -0.2656  0.3204
   98TCq2    O6 1503   2.613   0.177  17.412  0.4720 -0.4780  0.6146
   98TCq2    H2 1504   2.701   0.141  17.635 -0.9906 -0.4732 -0.5386
   98TCq2    H3 1505   2.759   0.530  17.472  1.4662  1.9959  0.7326
   98TCq2    H4 1506   2.884   0.452   0.168  2.1699 -0.1093 -0.9912
   99MPD2     C 1507   2.491   1.659   2.193  0.0880 -0.3007 -0.4583
   99MPD2    C1 1508   2.360   1.692   2.184 -0.1606 -0.6460 -1.1529
   99MPD2    C2 1509   2.305   1.744   2.059 -0.0129  0.4713 -0.1810
   99MPD2    C3 1510   2.393   1.762   1.953  0.2860 -0.7761 -0.0312
   99MPD2    C4 1511   2.526   1.706   1.960 -0.4719 -0.3928 -0.2174
   99MPD2    C5 1512   2.567   1.669   2.085 -0.3525 -0.4954  0.3461
   99MPD2     H 1513   2.202   1.778   2.058  0.1354  0.9435  0.6988
   99MPD2    H1 1514   2.604   1.704   1.885 -0.0273 -0.4323  0.2515
   99MPD2    H2 1515   2.535   1.619   2.284  1.1492  2.5516  0.2944
   99MPD2    H3 1516   2.672   1.646   2.099 -0.0269  0.3760 -0.6910
   99MPD2     N 1517   2.350   1.822   1.832 -0.1484  0.2349 -0.1049
   99MPD2    H5 1518   2.251   1.841   1.820 -0.5408 -0.0294  2.6380
   99MPD2    N1 1519   2.270   1.680   2.294 -0.2225 -0.1887  0.2017
   99MPD2    H7 1520   2.170   1.697   2.286 -0.6462 -3.0001 -0.3552
  100TCq2    C1 1521   2.309   1.630   2.421 -0.0531 -0.6021  0.0981
  100TCq2    O2 1522   2.418   1.598   2.467 -0.8628  0.0919  0.3970
  100TCq2    C2 1523   2.196   1.622   2.510 -0.8110 -0.1083  0.5706
  100TCq2    C3 1524   2.231   1.573   2.639 -0.2543  0.1972 -0.3711
  100TCq2    C4 1525   2.124   1.535   2.717 -0.0344  0.1569  0.0530
  100TCq2    C5 1526   1.992   1.563   2.678  0.2294 -0.0442  0.2439
  100TCq2    C6 1527   1.965   1.618   2.557 -0.1610 -0.2770  0.3810
  100TCq2    C7 1528   2.065   1.646   2.470  0.2487 -0.1474  0.6669
  100TCq2    C8 1529   1.840   1.688   2.542  0.0743  0.3557 -0.2487
  100TCq2    O4 1530   1.783   1.726   2.642 -0.4944 -0.7313  0.1859
  100TCq2    C9 1531   2.144   1.505   2.855  0.2693  0.5997  0.4548
  100TCq2    O5 1532   2.265   1.492   2.888 -0.1016 -0.1176  0.1984
  100TCq2    O6 1533   2.048   1.474   2.929  0.5022 -0.0414 -0.0051
  100TCq2    H2 1534   2.333   1.553   2.669  0.0329  4.0904  1.1413
  100TCq2    H3 1535   1.908   1.548   2.744  0.2708  1.1117  0.5549
  100TCq2    H4 1536   2.045   1.705   2.381 -1.7363  0.6795  1.6407
  101MPD2     C 1537   2.689   3.847  12.835 -0.1384  0.3885 -0.3050
  101MPD2    C1 1538   2.562   3.865  12.887  0.8792 -0.3801  0.4662
  101MPD2    C2 1539   2.503   3.766  12.960 -0.2033 -0.1935  0.6212
  101MPD2    C3 1540   2.565   3.651  12.970  0.4903 -0.1896 -0.0063
  101MPD2    C4 1541   2.688   3.629  12.919 -0.2519 -0.4711  0.0280
  101MPD2    C5 1542   2.750   3.724  12.841 -0.7060  0.5001  0.2531
  101MPD2     H 1543   2.406   3.776  13.006 -0.6316  0.1834 -0.3499
  101MPD2    H1 1544   2.742   3.537  12.939  2.1183  0.5891 -1.5689
  101MPD2    H2 1545   2.744   3.923  12.781  2.4522 -0.3845  1.2568
  101MPD2    H3 1546   2.853   3.711  12.808 -1.4741 -0.8784 -1.5598
  101MPD2     N 1547   2.489   3.561  13.049 -0.1024 -0.3955 -0.2407
  101MPD2    H5 1548   2.408   3.602  13.095  1.8437  2.9435  0.2406
  101MPD2    N1 1549   2.507   3.985  12.852 -0.1661 -0.0722 -0.3220
  101MPD2    H7 1550   2.573   4.053  12.815  0.8454  0.6048  2.7077
  102TCq2    C1 1551   2.507   4.293  12.538  0.1228 -0.5061  0.0977
  102TCq2    O2 1552   2.617   4.252  12.566 -0.2662  0.3228 -0.0707
  102TCq2    C2 1553   2.397   4.291  12.641 -0.1242 -0.3885  0.0721
  102TCq2    C3 1554   2.266   4.293  12.590  0.1073  0.4846 -0.3997
  102TCq2    C4 1555   2.165   4.219  12.652 -0.1497 -0.0518  0.4652
  102TCq2    C5 1556   2.201   4.135  12.755  0.3626 -1.1342 -0.4996
  102TCq2    C6 1557   2.327   4.139  12.806 -0.2095 -0.4683 -0.2715
  102TCq2    C7 1558   2.431   4.213  12.750  0.1265  0.3000 -0.0615
  102TCq2    C8 1559   2.370   4.013  12.868 -0.0122  0.1432  0.2584
  102TCq2    O4 1560   2.284   3.932  12.892 -0.1330 -0.2963  0.3308
  102TCq2    C9 1561   2.027   4.215  12.611 -0.1737  0.0633 -0.5004
  102TCq2    O5 1562   1.994   4.294  12.515  0.5325 -0.1107  0.5122
  102TCq2    O6 1563   1.951   4.126  12.659 -0.3067 -0.1539  0.0592
  102TCq2    H2 1564   2.240   4.341  12.497  1.6813  0.7255 -0.7236
  102TCq2    H3 1565   2.125   4.079  12.807 -0.7444 -0.5000 -1.4405
  102TCq2    H4 1566   2.530   4.201  12.793 -0.1814  1.1081  0.8865
  103TMC2    C1 1567   0.874   3.816  12.877  0.1503 -1.2423  0.8631
  103TMC2    C2 1568   0.978   3.875  12.807 -0.1950 -0.1745 -0.1649
  103TMC2    C3 1569   1.028   3.991  12.862 -0.3421  0.3193 -0.7323
  103TMC2    C4 1570   0.829   3.863  13.003  0.0762  0.3316  0.1054
  103TMC2    C5 1571   0.880   3.983  13.049  0.0779 -0.0040 -0.7182
  103TMC2    C6 1572   0.980   4.048  12.980  0.4631 -0.1475 -0.0799
  103TMC2     C 1573   0.790   3.726  12.802  0.0491 -0.4880 -0.0336
  103TMC2     O 1574   0.682   3.773  12.770  0.5331  0.3173 -0.1430
  103TMC2     H 1575   0.993   3.856  12.701 -0.9195 -2.0597  0.0760
  103TMC2    H1 1576   0.732   3.834  13.042 -0.1176 -0.4433 -0.9461
  103TMC2    H2 1577   1.017   4.143  13.015  0.5053  0.0257 -0.5966
  103TMC2    C7 1578   0.881   4.002  13.192  0.0979  0.1744 -0.2298
  103TMC2    C8 1579   1.134   4.064  12.794  0.0938  0.2198  0.1734
  103TMC2    O1 1580   0.927   4.098  13.249  0.1955 -0.1220  0.2275
  103TMC2    O2 1581   1.168   4.177  12.824 -0.4269 -0.1476 -0.5693
  103TMC2    O5 1582   1.218   3.966  12.758 -1.3834 -0.3273  0.2506
  103TMC2    H5 1583   1.185   3.873  12.760 -1.6823 -0.2263 -0.1362
  104MPD2     C 1584   0.922   3.438  12.600  0.4550  0.0320 -0.0364
  104MPD2    C1 1585   0.840   3.544  12.629  0.4470 -0.1724  0.4063
  104MPD2    C2 1586   0.760   3.585  12.519  0.7139 -0.0409 -0.1439
  104MPD2    C3 1587   0.749   3.517  12.400  1.0063  0.1208  0.0749
  104MPD2    C4 1588   0.835   3.412  12.381  0.2757 -0.1397  0.4171
  104MPD2    C5 1589   0.923   3.376  12.480 -0.8349  0.6051  0.4293
  104MPD2     H 1590   0.689   3.666  12.530 -0.7181 -1.1812 -1.0685
  104MPD2    H1 1591   0.838   3.346  12.295 -1.2959  0.2793  0.0431
  104MPD2    H2 1592   0.984   3.399  12.680 -2.8749 -0.4872  2.2767
  104MPD2    H3 1593   0.990   3.294  12.458 -2.1814 -1.0717  2.6633
  104MPD2     N 1594   0.651   3.558  12.309  0.2852  0.3081 -0.1958
  104MPD2    H5 1595   0.617   3.653  12.314 -1.5502 -0.3512 -0.1711
  104MPD2    N1 1596   0.867   3.624  12.747  0.0901 -0.3338 -0.0820
  104MPD2    H7 1597   0.955   3.605  12.793 -0.0432 -0.2800  0.1970
  105MPD2     C 1598   2.854   2.960  16.971 -0.0805  0.8969 -0.1935
  105MPD2    C1 1599   2.731   3.024  16.939  0.8527 -0.6906  0.8827
  105MPD2    C2 1600   2.626   2.990  17.018 -0.2414 -0.1985  0.6736
  105MPD2    C3 1601   2.640   2.904  17.125 -0.3197 -0.4733 -0.4479
  105MPD2    C4 1602   2.767   2.848  17.149 -0.1579  0.8416 -0.7833
  105MPD2    C5 1603   2.872   2.863  17.063  0.1015 -0.2543  0.5426
  105MPD2     H 1604   2.533   3.039  16.993  1.1147  2.1426  0.1469
  105MPD2    H1 1605   2.778   2.784  17.236 -2.8644  1.6789  0.1890
  105MPD2    H2 1606   2.934   2.957  16.899 -0.5357 -2.8250 -0.5621
  105MPD2    H3 1607   2.964   2.807  17.072 -0.9944 -2.4436 -1.9207
  105MPD2     N 1608   2.526   2.882  17.211  0.2703  0.6528 -0.3733
  105MPD2    H5 1609   2.442   2.940  17.213 -0.1068  0.0480  1.6375
  105MPD2    N1 1610   2.696   3.083  16.818  0.2427  0.2508 -0.3040
  105MPD2    H7 1611   2.600   3.112  16.805 -0.5124 -0.5243  3.6243
  106TCq2    C1 1612   2.502   2.776  17.288 -0.4125 -0.4205  0.1643
  106TCq2    O2 1613   2.559   2.669  17.293 -0.5733  0.1219  0.1085
  106TCq2    C2 1614   2.374   2.793  17.355 -0.0893 -0.4304 -0.5565
  106TCq2    C3 1615   2.334   2.918  17.397 -0.3271 -0.1654 -0.2536
  106TCq2    C4 1616   2.221   2.922  17.470 -0.9256 -0.2445  0.6952
  106TCq2    C5 1617   2.149   2.811  17.511  0.0030 -1.2142  0.3739
  106TCq2    C6 1618   2.198   2.689  17.472  0.1956 -0.7185  0.1443
  106TCq2    C7 1619   2.319   2.686  17.409  0.4434  0.5286 -0.3783
  106TCq2    C8 1620   2.156   2.569  17.541  0.2950  0.3528 -0.1191
  106TCq2    O4 1621   2.206   2.464  17.505 -0.8785  0.2903  0.0779
  106TCq2    C9 1622   2.187   3.048  17.518 -0.0762  0.2079 -0.1553
  106TCq2    O5 1623   2.264   3.143  17.481 -0.0325  0.1737  0.1956
  106TCq2    O6 1624   2.113   3.060  17.620 -0.6561  0.4965 -0.1877
  106TCq2    H2 1625   2.394   3.005  17.374  0.0611 -0.2643  0.3851
  106TCq2    H3 1626   2.054   2.820  17.563 -0.4234  2.8721 -1.1023
  106TCq2    H4 1627   2.369   2.592  17.389  0.5513  1.0592 -2.6551
  107TMC2    C1 1628   3.133   2.393  11.446  0.4316  1.2707 -0.6909
  107TMC2    C2 1629   3.191   2.461  11.335  0.2808 -0.6691  0.0356
  107TMC2    C3 1630   3.224   2.376  11.230  0.0685 -0.6148 -0.6364
  107TMC2    C4 1631   3.095   2.261  11.451 -0.3068  0.4537  0.4507
  107TMC2    C5 1632   3.130   2.190  11.336 -0.2578  0.3592 -0.1510
  107TMC2    C6 1633   3.192   2.241  11.229 -0.1991  0.2471 -0.0978
  107TMC2     C 1634   3.096   2.468  11.562  0.4478  0.7203 -0.2520
  107TMC2     O 1635   3.067   2.406  11.664  0.4807 -0.5700  0.1913
  107TMC2     H 1636   3.230   2.562  11.342 -1.6171  0.3389 -3.8748
  107TMC2    H1 1637   3.042   2.214  11.532 -0.1573  0.8142  0.7581
  107TMC2    H2 1638   3.234   2.173  11.155 -1.5382 -1.3591  0.6139
  107TMC2    C7 1639   3.041   2.083  11.324 -0.0398  0.1920  0.5922
  107TMC2    C8 1640   3.278   2.426  11.107  0.6602 -0.3120 -0.4763
  107TMC2    O1 1641   2.958   2.062  11.412  0.4187  0.1086 -0.4854
  107TMC2    O2 1642   3.348   2.354  11.032 -0.1655 -0.3992 -0.3867
  107TMC2    O5 1643   3.291   2.557  11.120 -0.1804 -0.1366  0.0909
  107TMC2    H5 1644   3.218   2.608  11.163 -0.8045 -0.9057 -0.0467
  108MPD2     C 1645   3.053   2.841  11.565  0.7866 -0.3458 -0.3541
  108MPD2    C1 1646   3.052   2.717  11.618 -0.7966  0.2750  0.5739
  108MPD2    C2 1647   3.019   2.697  11.754  0.0581 -0.2478 -0.4752
  108MPD2    C3 1648   2.982   2.810  11.830  0.0025 -0.3701 -0.1577
  108MPD2    C4 1649   2.990   2.939  11.772 -0.2930 -0.2839  0.2175
  108MPD2    C5 1650   3.016   2.950  11.641  0.2292 -0.2572  0.0062
  108MPD2     H 1651   3.017   2.598  11.798  3.1819  0.4432  1.2733
  108MPD2    H1 1652   2.957   3.029  11.823 -0.7272 -1.2638  1.6852
  108MPD2    H2 1653   3.085   2.860  11.463 -2.2886  0.4087 -1.1698
  108MPD2    H3 1654   3.018   3.052  11.604 -1.0774 -0.0077  0.6145
  108MPD2     N 1655   2.956   2.800  11.971  0.3892  0.0783 -0.8088
  108MPD2    H5 1656   2.919   2.881  12.020 -1.3340 -2.6920  2.4521
  108MPD2    N1 1657   3.086   2.604  11.535  0.1212  0.2350  0.1502
  108MPD2    H7 1658   3.098   2.627  11.437  0.2255  2.2499  0.6274
  109MPD2     C 1659   1.974   4.036   1.805 -0.7128 -0.2739 -0.2182
  109MPD2    C1 1660   2.106   4.036   1.756 -0.0332  0.0561 -0.0715
  109MPD2    C2 1661   2.182   4.143   1.783 -0.1071 -0.1713 -0.4204
  109MPD2    C3 1662   2.138   4.251   1.848  0.2040 -0.2076 -0.0928
  109MPD2    C4 1663   2.000   4.259   1.886  0.1367  0.8118  0.1009
  109MPD2    C5 1664   1.928   4.142   1.869  0.2786 -0.1085 -0.5769
  109MPD2     H 1665   2.283   4.150   1.744  0.3878  0.0771  0.8936
  109MPD2    H1 1666   1.953   4.350   1.921 -0.9552 -0.1600  1.1399
  109MPD2    H2 1667   1.901   3.960   1.779 -1.3728 -0.5366  2.3931
  109MPD2    H3 1668   1.820   4.140   1.879  0.2139  3.0020 -0.5636
  109MPD2     N 1669   2.230   4.354   1.853  0.3239 -0.9998 -0.2539
  109MPD2    H5 1670   2.320   4.329   1.814 -0.4625 -2.2419 -1.2565
  109MPD2    N1 1671   2.156   3.925   1.690 -0.7295 -0.1709  0.4561
  109MPD2    H7 1672   2.096   3.854   1.650 -1.1483  2.8612 -4.3016
  110TCq2    C1 1673   2.205   4.475   1.908  0.6202  0.2444 -0.4372
  110TCq2    O2 1674   2.104   4.517   1.963 -0.7769 -0.2641  0.2349
  110TCq2    C2 1675   2.308   4.566   1.860 -0.0395 -0.1743 -0.0431
  110TCq2    C3 1676   2.335   4.678   1.931  0.5229  0.1201 -0.4762
  110TCq2    C4 1677   2.413   0.052   1.887 -0.7957 -0.0370 -0.2560
  110TCq2    C5 1678   2.472   0.037   1.756  0.0352  0.5795 -0.2471
  110TCq2    C6 1679   2.438   4.658   1.681  0.6699  0.5007 -0.8495
  110TCq2    C7 1680   2.358   4.555   1.724 -0.3078 -0.2185 -0.0494
  110TCq2    C8 1681   2.516   4.646   1.563 -0.1486  0.0188  0.4777
  110TCq2    O4 1682   2.580   0.016   1.515  0.8222  0.0974 -0.2420
  110TCq2    C9 1683   2.426   0.166   1.965 -0.2306 -0.0164  0.9115
  110TCq2    O5 1684   2.485   0.265   1.920  0.5017  0.5203 -0.1156
  110TCq2    O6 1685   2.353   0.176   2.070  0.1340 -0.3175  0.4091
  110TCq2    H2 1686   2.284   4.682   2.026  1.8303 -0.4625  0.2488
  110TCq2    H3 1687   2.535   0.119   1.724 -0.6394  0.4994 -1.8170
  110TCq2    H4 1688   2.318   4.475   1.664 -0.0734 -1.1106  0.9892
  111TMC2    C1 1689   3.169   4.456  11.118 -0.1207  0.6233 -0.8000
  111TMC2    C2 1690   3.272   4.481  11.035  0.4872 -0.3166  0.2205
  111TMC2    C3 1691   3.398   4.476  11.084 -0.2272 -1.2502  0.4590
  111TMC2    C4 1692   3.187   4.436  11.248 -1.0347  0.3828 -0.3999
  111TMC2    C5 1693   3.320   4.432  11.290 -0.3155  0.2490  0.2991
  111TMC2    C6 1694   3.424   4.455  11.213  0.6078 -0.5614  0.5840
  111TMC2     C 1695   3.041   4.501  11.068 -0.4682 -0.2851 -0.0406
  111TMC2     O 1696   3.004   4.487  10.951 -0.3904 -0.1071 -0.0387
  111TMC2     H 1697   3.246   4.498  10.931  1.8713 -0.4137 -0.1393
  111TMC2    H1 1698   3.103   4.413  11.312 -0.6381  1.2077  0.4070
  111TMC2    H2 1699   3.527   4.459  11.247  0.4688  0.4331  0.9040
  111TMC2    C7 1700   3.336   4.405  11.428  0.3191 -0.6311 -0.1759
  111TMC2    C8 1701   3.513   4.512  11.005 -0.4732  0.0765 -0.1266
  111TMC2    O1 1702   3.234   4.394  11.496  0.0012  0.3011  0.5108
  111TMC2    O2 1703   3.608   4.572  11.055 -0.4363 -0.4543 -0.3133
  111TMC2    O5 1704   3.500   4.461  10.877 -0.4475  0.0451 -0.1163
  111TMC2    H5 1705   3.429   4.394  10.864 -0.4454  0.3355 -1.6628
  112MPD2     C 1706   2.595   0.012  11.130 -0.5087 -0.3955  0.0493
  112MPD2    C1 1707   2.673   0.004  11.021 -0.9981  0.3947 -0.2099
  112MPD2    C2 1708   2.803   4.672  11.032 -0.2514 -0.1565 -0.1095
  112MPD2    C3 1709   2.853   4.640  11.149 -0.1874  0.5874 -0.1851
  112MPD2    C4 1710   2.783   4.663  11.262 -0.3183 -0.5921 -0.2264
  112MPD2    C5 1711   2.657   4.722  11.255 -0.7594  0.3030  0.3433
  112MPD2     H 1712   2.849   4.647  10.937 -0.7646  1.2834 -0.7356
  112MPD2    H1 1713   2.831   4.640  11.356  1.0624  0.4635 -0.6731
  112MPD2    H2 1714   2.491   0.042  11.128 -0.7805 -1.4753 -1.3182
  112MPD2    H3 1715   2.602   0.029  11.343 -0.2304 -0.5470  0.9658
  112MPD2     N 1716   2.978   4.577  11.164 -0.3925  0.4714  0.3544
  112MPD2    H5 1717   3.031   4.582  11.251  1.8842 -3.9041 -0.7715
  112MPD2    N1 1718   2.615   0.008  10.887 -0.2090  0.1075 -0.8288
  112MPD2    H7 1719   2.670   4.685  10.817 -0.4972  0.1847 -1.1055
  113MPD2     C 1720   1.463   1.969   1.384  0.4361 -0.6202 -0.1278
  113MPD2    C1 1721   1.453   2.102   1.345  0.1108 -0.1882 -0.1725
  113MPD2    C2 1722   1.375   2.143   1.240 -0.0299  0.7382 -0.2164
  113MPD2    C3 1723   1.315   2.053   1.157 -0.4427 -0.1516  0.5032
  113MPD2    C4 1724   1.329   1.914   1.196 -0.1818  0.8409 -0.5393
  113MPD2    C5 1725   1.408   1.873   1.303  0.5117 -0.4488  1.1545
  113MPD2     H 1726   1.363   2.250   1.234 -0.8728  0.6306 -0.4868
  113MPD2    H1 1727   1.287   1.838   1.130  2.5975 -2.0549  1.0138
  113MPD2    H2 1728   1.524   1.932   1.465 -0.4540 -0.5274  0.5777
  113MPD2    H3 1729   1.424   1.766   1.311  1.8566 -0.2783  0.8204
  113MPD2     N 1730   1.236   2.090   1.047  0.0692  1.0334  0.1639
  113MPD2    H5 1731   1.182   2.012   1.011 -0.1454  1.0319  0.4821
  113MPD2    N1 1732   1.518   2.204   1.427  0.1727 -0.4290  0.5273
  113MPD2    H7 1733   1.503   2.303   1.408 -0.8532 -0.7872 -0.5162
  114TCq2    C1 1734   1.228   2.216   0.995 -0.0703  0.3373 -0.0399
  114TCq2    O2 1735   1.303   2.310   1.029 -0.3009 -0.3142 -0.8427
  114TCq2    C2 1736   1.128   2.247   0.891 -0.2912 -0.0860 -0.2697
  114TCq2    C3 1737   1.101   2.377   0.850  0.0353  0.1407  0.7664
  114TCq2    C4 1738   1.004   2.398   0.757  0.5378  0.2250 -0.3744
  114TCq2    C5 1739   0.938   2.291   0.706  0.0690 -0.1514  0.3014
  114TCq2    C6 1740   0.954   2.163   0.757  0.0907 -0.2748  0.6322
  114TCq2    C7 1741   1.050   2.143   0.845  0.6335 -0.8655 -1.2152
  114TCq2    C8 1742   0.862   2.060   0.713  0.1468  0.2035 -0.6694
  114TCq2    O4 1743   0.808   2.072   0.603  0.4909 -0.0868 -0.2935
  114TCq2    C9 1744   0.974   2.530   0.706 -0.3804 -0.2960  0.3202
  114TCq2    O5 1745   1.014   2.626   0.780  0.0567 -0.1408 -0.6730
  114TCq2    O6 1746   0.886   2.524   0.616 -1.2690 -0.7447  0.6517
  114TCq2    H2 1747   1.162   2.459   0.885  0.6661 -1.7613  4.0792
  114TCq2    H3 1748   0.859   2.304   0.633 -0.4946 -1.0851  0.7501
  114TCq2    H4 1749   1.078   2.040   0.860  0.9287 -0.4564  0.9731
  115TMC2    C1 1750   2.228   0.718   0.388 -0.2294  0.2289 -0.3280
  115TMC2    C2 1751   2.198   0.724   0.520 -0.3426  0.5864  0.4054
  115TMC2    C3 1752   2.203   0.844   0.580 -0.3899  0.9294  0.3800
  115TMC2    C4 1753   2.284   0.832   0.321 -0.7730  0.9705 -0.3496
  115TMC2    C5 1754   2.288   0.950   0.391  0.2202  0.0203 -0.0203
  115TMC2    C6 1755   2.256   0.956   0.524  0.9653  0.5385  0.1211
  115TMC2     C 1756   2.200   0.597   0.316  0.0850 -0.2358  0.1758
  115TMC2     O 1757   2.170   0.618   0.195  0.3462 -0.0194  0.2303
  115TMC2     H 1758   2.159   0.644   0.581 -0.1635  0.0401 -0.1920
  115TMC2    H1 1759   2.309   0.831   0.216  1.7494 -0.8492  0.2522
  115TMC2    H2 1760   2.279   1.039   0.589 -0.6178  0.4131  0.8489
  115TMC2    C7 1761   2.357   1.064   0.341 -0.7291 -0.2793 -0.0947
  115TMC2    C8 1762   2.180   0.859   0.719  0.2642  0.1049 -0.2985
  115TMC2    O1 1763   2.360   1.169   0.411  0.5045  0.2212 -0.0910
  115TMC2    O2 1764   2.283   0.859   0.781  0.6926 -0.0105  0.6982
  115TMC2    O5 1765   2.101   0.969   0.724 -0.0746  0.0026 -0.3034
  115TMC2    H5 1766   2.020   0.953   0.670 -0.1243  2.9888 -1.0909
  116MPD2     C 1767   2.156   0.092   0.281  0.4244  0.2635 -0.3986
  116MPD2    C1 1768   2.130   0.188   0.185  0.3835  0.4805  0.5357
  116MPD2    C2 1769   2.136   0.320   0.226 -0.0342  0.0941  0.2575
  116MPD2    C3 1770   2.172   0.353   0.355 -0.0960  0.5198 -0.0913
  116MPD2    C4 1771   2.201   0.253   0.446 -0.1147 -0.9837 -0.0335
  116MPD2    C5 1772   2.194   0.124   0.409 -0.3654 -0.0994  0.4871
  116MPD2     H 1773   2.110   0.397   0.155  0.3021 -0.2328 -0.2164
  116MPD2    H1 1774   2.232   0.283   0.545 -0.3271 -0.2089 -0.2022
  116MPD2    H2 1775   2.139   4.711   0.259  0.0932 -0.0953  1.5873
  116MPD2    H3 1776   2.213   0.051   0.487  0.4934 -1.2199 -0.7874
  116MPD2     N 1777   2.211   0.482   0.394  0.1744 -0.0742 -0.4019
  116MPD2    H5 1778   2.266   0.500   0.478  1.5515  1.2303 -1.5761
  116MPD2    N1 1779   2.096   0.143   0.058  0.0365 -0.0605 -0.0367
  116MPD2    H7 1780   2.093   0.043   0.043 -0.5039 -0.3531  2.0532
  117TMC2    C1 1781   0.247   1.835  13.659 -0.6524  0.0453  0.3529
  117TMC2    C2 1782   0.320   1.723  13.642 -0.6473  0.0102  0.1607
  117TMC2    C3 1783   0.460   1.735  13.667  0.6174 -0.2882 -0.4310
  117TMC2    C4 1784   0.288   1.948  13.720  0.3434 -0.6370  0.3054
  117TMC2    C5 1785   0.423   1.957  13.753  0.4190  0.0680 -0.1494
  117TMC2    C6 1786   0.519   1.853  13.717  0.1461 -0.6741 -0.7945
  117TMC2     C 1787   0.105   1.818  13.654 -0.0319 -0.3041  0.5500
  117TMC2     O 1788   0.065   1.706  13.670  0.2703 -0.2463 -0.0140
  117TMC2     H 1789   0.278   1.640  13.587 -0.8066 -0.1708  0.5491
  117TMC2    H1 1790   0.223   2.028  13.753  1.4842  0.6420 -0.5139
  117TMC2    H2 1791   0.624   1.871  13.736 -0.2460 -1.1126  1.8513
  117TMC2    C7 1792   0.470   2.090  13.779 -0.6531  0.1839 -0.1750
  117TMC2    C8 1793   0.536   1.649  13.576  0.1393 -0.6661  0.4935
  117TMC2    O1 1794   0.581   2.118  13.738 -0.1400  0.1779 -0.1925
  117TMC2    O2 1795   0.492   1.539  13.554  0.4629 -0.7123  0.5040
  117TMC2    O5 1796   0.661   1.702  13.561 -0.0158  0.2750 -0.0585
  117TMC2    H5 1797   0.666   1.800  13.558 -1.2060  0.4027  2.4948
  118MPD2     C 1798   0.343   2.288  14.070  0.3898  0.1292 -0.7425
  118MPD2    C1 1799   0.430   2.259  13.959 -0.5575  0.5212  0.3731
  118MPD2    C2 1800   0.512   2.358  13.906  0.2179 -0.3189  0.2508
  118MPD2    C3 1801   0.507   2.485  13.962  0.4032  1.4094  0.7647
  118MPD2    C4 1802   0.420   2.509  14.068 -0.6795 -0.9872 -0.2718
  118MPD2    C5 1803   0.346   2.406  14.133 -0.0311  0.8685  0.4517
  118MPD2     H 1804   0.568   2.343  13.815  0.9305 -2.0845  0.9795
  118MPD2    H1 1805   0.418   2.608  14.113  1.0108 -0.8876 -0.4038
  118MPD2    H2 1806   0.269   2.218  14.107 -0.0117  0.8854 -0.1141
  118MPD2    H3 1807   0.281   2.430  14.217  0.5865 -0.2635  1.2629
  118MPD2     N 1808   0.575   2.600  13.907 -0.3500  0.2831 -0.3171
  118MPD2    H5 1809   0.550   2.692  13.939 -1.7400 -0.6320  1.2134
  118MPD2    N1 1810   0.396   2.139  13.887  0.0347 -0.4260  0.7470
  118MPD2    H7 1811   0.315   2.091  13.925 -1.6080  1.3674 -0.4800
  119MPD2     C 1812   3.821   3.525  13.213  0.3229  0.3616  0.0408
  119MPD2    C1 1813   3.707   3.474  13.274  1.0539  0.7443 -0.0878
  119MPD2    C2 1814   3.622   3.392  13.204  0.0749  0.0488  0.0957
  119MPD2    C3 1815   3.654   3.354  13.071  0.3921 -0.5046  0.3141
  119MPD2    C4 1816   3.765   3.401  13.009  1.0883 -0.6804 -0.3947
  119MPD2    C5 1817   3.847   3.487  13.080 -0.1174 -0.5608 -0.2259
  119MPD2     H 1818   3.543   3.354  13.267  0.3145 -0.0452  0.3401
  119MPD2    H1 1819   3.777   3.386  12.902 -2.4450 -0.7734 -0.7676
  119MPD2    H2 1820   3.890   3.596  13.260 -0.1506  0.7447  0.1562
  119MPD2    H3 1821   3.939   3.527  13.038 -0.7183 -0.2450 -1.2318
  119MPD2     N 1822   3.565   3.262  13.013 -0.2316  0.5266 -0.5258
  119MPD2    H5 1823   3.482   3.237  13.066  1.7854  1.1104  2.9097
  119MPD2    N1 1824   3.680   3.513  13.406  0.0598 -0.6388  0.6986
  119MPD2    H7 1825   3.762   3.546  13.456 -0.5953 -1.5137  2.3387
  120TCq2    C1 1826   3.581   3.194  12.892 -0.6783  0.5759  0.1633
  120TCq2    O2 1827   3.673   3.198  12.812 -0.4039 -0.1703 -0.0826
  120TCq2    C2 1828   3.457   3.126  12.859  0.3746 -0.0011  0.4161
  120TCq2    C3 1829   3.454   2.992  12.867  0.5221 -0.5680 -0.3705
  120TCq2    C4 1830   3.337   2.935  12.907 -0.3440 -0.4654  0.0806
  120TCq2    C5 1831   3.226   3.009  12.934  0.0722  0.2528  0.9160
  120TCq2    C6 1832   3.238   3.144  12.925 -0.0116 -0.0575 -0.3885
  120TCq2    C7 1833   3.348   3.207  12.878  0.3554 -0.0754 -0.3567
  120TCq2    C8 1834   3.178   3.226  13.027  0.4054  0.6803 -0.7540
  120TCq2    O4 1835   3.184   3.348  13.018  0.6113  0.6084 -0.2560
  120TCq2    C9 1836   3.339   2.798  12.934  0.0446  0.1470  0.2837
  120TCq2    O5 1837   3.449   2.736  12.932 -0.0324  0.0593  0.5295
  120TCq2    O6 1838   3.236   2.760  12.992 -0.0754 -0.1515  0.3530
  120TCq2    H2 1839   3.544   2.931  12.864  0.4409 -0.6391 -1.2292
  120TCq2    H3 1840   3.131   2.961  12.957 -0.7447  0.8701 -1.1767
  120TCq2    H4 1841   3.353   3.314  12.863  1.4387  0.3087  2.7843
  121TMC2    C1 1842   0.314   0.193  14.210  0.1368  0.2376  0.6282
  121TMC2    C2 1843   0.302   0.156  14.341 -0.4314 -0.4567  0.7670
  121TMC2    C3 1844   0.215   0.060  14.378  0.4357 -0.8822 -0.2693
  121TMC2    C4 1845   0.215   0.151  14.126 -0.4391 -0.4956 -0.8179
  121TMC2    C5 1846   0.139   0.050  14.162  0.0823 -0.0738 -0.3006
  121TMC2    C6 1847   0.138   0.000  14.287 -0.6444 -0.9299  0.8938
  121TMC2     C 1848   0.367   0.324  14.193  0.1146  0.5003 -0.6445
  121TMC2     O 1849   0.370   0.403  14.286  0.2607  0.2685 -0.5438
  121TMC2     H 1850   0.363   0.205  14.415 -0.1277  1.0628 -0.4961
  121TMC2    H1 1851   0.207   0.194  14.027  1.9132 -1.3846 -1.3998
  121TMC2    H2 1852   0.066   4.648  14.313 -0.7776 -1.0158  0.2903
  121TMC2    C7 1853   0.042   0.002  14.074  0.2605  0.0725  0.9478
  121TMC2    C8 1854   0.187   0.043  14.515  0.7630 -0.1776  0.1413
  121TMC2    O1 1855   0.032   4.605  14.067  0.3556  0.2244  0.4375
  121TMC2    O2 1856   0.270   0.073  14.598 -0.3445  0.2272 -0.0407
  121TMC2    O5 1857   0.053   0.054  14.543 -0.1822 -0.7652 -0.4581
  121TMC2    H5 1858   0.001   0.069  14.462 -0.1799  0.3887 -0.2510
  122MPD2     C 1859   0.383   0.592  14.061  0.2128  0.0878  1.3324
  122MPD2    C1 1860   0.428   0.473  14.000 -0.1950 -0.4149 -0.4514
  122MPD2    C2 1861   0.494   0.473  13.879  0.3128  0.0660 -0.2399
  122MPD2    C3 1862   0.512   0.593  13.814  0.2730  0.1183 -0.3110
  122MPD2    C4 1863   0.470   0.706  13.876  0.3313  0.3377  0.6898
  122MPD2    C5 1864   0.400   0.705  13.988  0.2350  0.1840 -0.4960
  122MPD2     H 1865   0.520   0.379  13.832  1.8343 -0.0452  0.8150
  122MPD2    H1 1866   0.500   0.798  13.827 -1.3554  1.3522  1.5430
  122MPD2    H2 1867   0.318   0.592  14.148 -1.4505 -2.0988  0.0908
  122MPD2    H3 1868   0.370   0.800  14.030 -0.9698  0.1468 -1.2901
  122MPD2     N 1869   0.603   0.614  13.702  0.2262  0.3521  0.2894
  122MPD2    H5 1870   0.634   0.710  13.690  1.8253 -0.2122  0.0149
  122MPD2    N1 1871   0.408   0.349  14.061  0.2907  0.4984 -0.4215
  122MPD2    H7 1872   0.409   0.268  13.999 -1.9437 -0.2659  0.5326
  123MPD2     C 1873   3.870   2.530  10.181  0.1538 -0.0011 -0.2758
  123MPD2    C1 1874   3.786   2.434  10.121 -0.2670 -0.8149  0.0324
  123MPD2    C2 1875   3.836   2.336  10.040  0.6566 -1.4711  0.3034
  123MPD2    C3 1876   3.970   2.330  10.006 -0.1005  0.4505  0.4893
  123MPD2    C4 1877   4.052   2.431  10.057 -0.4167  0.0007 -0.1816
  123MPD2    C5 1878   4.004   2.531  10.141 -0.0269 -0.2673  0.6526
  123MPD2     H 1879   3.773   2.263   9.992 -0.1226 -0.2184 -0.5548
  123MPD2    H1 1880   4.160   2.431  10.046 -0.3489 -1.5658  0.4927
  123MPD2    H2 1881   3.830   2.609  10.243 -0.3844 -0.6059  0.1473
  123MPD2    H3 1882   4.073   2.607  10.178  0.6901 -0.1061 -1.0325
  123MPD2     N 1883   4.013   2.236   9.909 -0.0070 -0.3123 -0.3553
  123MPD2    H5 1884   3.954   2.164   9.869  1.3304 -0.9696 -1.1437
  123MPD2    N1 1885   3.649   2.444  10.164 -0.6941 -0.3569 -0.3450
  123MPD2    H7 1886   3.623   2.510  10.236 -1.7193 -0.7717 -0.3354
  124TCq2    C1 1887   4.135   2.234   9.840 -0.0988 -0.1960 -0.3280
  124TCq2    O2 1888   4.233   2.297   9.877  0.2912 -0.2712 -0.5326
  124TCq2    C2 1889   4.126   2.157   9.718 -0.4782 -0.0441  0.0288
  124TCq2    C3 1890   4.240   2.121   9.651 -0.6119 -0.0243 -0.3182
  124TCq2    C4 1891   4.218   2.036   9.546 -0.4220  0.1969  0.5535
  124TCq2    C5 1892   4.098   2.008   9.490 -0.5667 -0.0476 -0.1943
  124TCq2    C6 1893   3.992   2.047   9.559  0.4409 -0.0423 -0.1240
  124TCq2    C7 1894   3.998   2.122   9.670 -0.5249  0.3826 -0.3947
  124TCq2    C8 1895   3.864   1.984   9.521  0.1889  0.1817 -0.4676
  124TCq2    O4 1896   3.770   2.014   9.591  0.3282 -0.4509 -0.2033
  124TCq2    C9 1897   4.327   1.987   9.462  0.0143 -0.0696 -0.5162
  124TCq2    O5 1898   4.309   1.967   9.342 -0.2216  0.6062 -0.7883
  124TCq2    O6 1899   4.439   2.006   9.513 -0.6621 -0.0730 -0.2951
  124TCq2    H2 1900   4.341   2.128   9.691  0.2876 -0.8393 -2.4852
  124TCq2    H3 1901   4.092   1.960   9.393 -0.4199 -0.7974  0.1642
  124TCq2    H4 1902   3.905   2.147   9.720  0.1091  2.1942 -0.1051
  125TMC2    C1 1903   1.072   3.508   8.950  0.4059 -0.3392 -0.2097
  125TMC2    C2 1904   1.101   3.410   8.856 -0.0105  0.1363  0.2335
  125TMC2    C3 1905   1.016   3.396   8.749  0.2461  0.4005  0.7394
  125TMC2    C4 1906   0.971   3.592   8.936 -0.4476 -0.0312 -0.5568
  125TMC2    C5 1907   0.882   3.560   8.842  0.4739 -0.4333  0.3428
  125TMC2    C6 1908   0.896   3.460   8.752 -0.1089  0.5466  0.3598
  125TMC2     C 1909   1.162   3.509   9.068 -0.5347  0.2908  0.0527
  125TMC2     O 1910   1.273   3.456   9.056  0.1758  0.6352  0.3629
  125TMC2     H 1911   1.197   3.361   8.859  1.2951  2.7165  1.1533
  125TMC2    H1 1912   0.943   3.669   9.007 -2.8528 -0.3933 -1.0917
  125TMC2    H2 1913   0.827   3.440   8.671  0.1100  1.0780  0.0388
  125TMC2    C7 1914   0.763   3.642   8.826 -0.8173 -0.1923  0.1421
  125TMC2    C8 1915   1.041   3.268   8.684 -0.3407 -1.2992  0.5488
  125TMC2    O1 1916   0.681   3.604   8.742  0.1802  0.5000 -0.3120
  125TMC2    O2 1917   1.073   3.173   8.754 -0.2957  0.0972  0.7286
  125TMC2    O5 1918   0.953   3.261   8.581 -0.1566  0.3113  0.2372
  125TMC2    H5 1919   0.949   3.344   8.529 -0.4452  0.5090  0.5767
  126MPD1     C 1920   1.307   3.697   9.526 -1.1640  0.0841 -0.2649
  126MPD1    C1 1921   1.175   3.738   9.512 -0.2044  0.3256 -0.0140
  126MPD1    C2 1922   1.105   3.682   9.396  0.3543 -0.1698  0.2326
  126MPD1    C3 1923   1.170   3.607   9.303 -0.9034  0.0714  0.1539
  126MPD1    C4 1924   1.307   3.578   9.320 -0.3045  0.2026  0.3737
  126MPD1    C5 1925   1.372   3.618   9.435 -0.4420 -0.3828 -0.1645
  126MPD1     H 1926   0.998   3.697   9.392  0.6917  2.1109 -0.5126
  126MPD1    H1 1927   1.370   3.538   9.242 -0.1040  0.8236  0.2200
  126MPD1    H2 1928   1.360   3.726   9.616 -0.4028  2.2378 -1.4242
  126MPD1    H3 1929   1.477   3.598   9.453 -0.6897 -1.7110 -0.1441
  126MPD1     N 1930   1.105   3.565   9.183  0.1650 -0.0190  0.7471
  126MPD1    H5 1931   1.009   3.597   9.179  0.8213  1.8790  0.0044
  126MPD1    N1 1932   1.124   3.838   9.594  0.1724 -0.6923 -0.4111
  126MPD1    H6 1933   1.044   3.890   9.559 -0.1973 -2.5378 -2.2851
  126MPD1    H7 1934   1.193   3.896   9.642  0.6968  0.1681 -2.2351
  127MPD2     C 1935   0.974   3.107   9.407 -0.5648  0.1943 -0.0441
  127MPD2    C1 1936   1.004   3.047   9.527  1.3390  0.1905 -0.7843
  127MPD2    C2 1937   1.039   3.124   9.638  0.3785 -0.8279  0.5112
  127MPD2    C3 1938   1.041   3.266   9.627  0.1044  0.1723  0.0160
  127MPD2    C4 1939   1.018   3.315   9.502  0.0107  0.6233  0.9219
  127MPD2    C5 1940   0.984   3.241   9.397 -0.5240 -0.7934  0.4333
  127MPD2     H 1941   1.062   3.078   9.734 -0.2391 -0.2145  0.9562
  127MPD2    H1 1942   1.035   3.420   9.479  1.1065  0.4163  0.7789
  127MPD2    H2 1943   0.953   3.047   9.319 -0.5396 -1.1179  0.8611
  127MPD2    H3 1944   0.965   3.281   9.299 -2.0594 -0.6911  0.7828
  127MPD2     N 1945   1.080   3.348   9.738  0.0958 -0.4015  0.1927
  127MPD2    H5 1946   1.114   3.292   9.815  0.5099  0.5895  0.7349
  127MPD2    N1 1947   0.993   2.908   9.530 -0.0365 -0.3735  0.4057
  127MPD2    H7 1948   0.986   2.866   9.438  1.9092 -1.4357  0.7425
  128TCq2    C1 1949   0.996   2.828   9.643  0.4552  0.4619  0.3841
  128TCq2    O2 1950   0.994   2.855   9.765  0.1143  0.7654 -0.1165
  128TCq2    C2 1951   0.989   2.690   9.597  0.7733  0.2176 -0.0946
  128TCq2    C3 1952   1.079   2.601   9.659  0.6094 -0.1796 -0.1369
  128TCq2    C4 1953   1.050   2.470   9.645  0.4002 -0.0787 -0.4784
  128TCq2    C5 1954   0.940   2.426   9.581  0.2421 -0.5020 -0.8360
  128TCq2    C6 1955   0.858   2.517   9.516 -0.0894 -0.1566 -0.1693
  128TCq2    C7 1956   0.876   2.651   9.531 -0.4694  0.0610 -0.4519
  128TCq2    C8 1957   0.721   2.469   9.503  0.1432  0.2138 -0.3063
  128TCq2    O4 1958   0.671   2.490   9.393  0.4829 -0.1080 -0.2125
  128TCq2    C9 1959   1.128   2.370   9.708 -0.2413  0.4323 -0.1563
  128TCq2    O5 1960   1.215   2.410   9.792  0.2468  0.4250  0.0437
  128TCq2    O6 1961   1.112   2.250   9.671 -0.1354 -0.6166  0.3164
  128TCq2    H2 1962   1.154   2.645   9.723  1.1520  0.5134 -1.2521
  128TCq2    H3 1963   0.910   2.323   9.569  2.3817 -1.3467  1.1500
  128TCq2    H4 1964   0.802   2.725   9.502  0.3027  1.0444  0.1055
  129MPD2     C 1965   3.054   4.501   1.264 -0.4376  0.6425 -0.0346
  129MPD2    C1 1966   3.183   4.508   1.310 -1.1973  0.5324 -0.7221
  129MPD2    C2 1967   3.284   4.569   1.241 -0.5214 -0.6033 -0.0723
  129MPD2    C3 1968   3.254   4.624   1.113  0.0770  0.1902  0.8759
  129MPD2    C4 1969   3.127   4.615   1.067 -0.0305  0.0742  0.4671
  129MPD2    C5 1970   3.029   4.556   1.144  0.3351 -0.7590  0.2608
  129MPD2     H 1971   3.386   4.563   1.278 -0.5646 -0.2888  0.1033
  129MPD2    H1 1972   3.095   4.661   0.974  1.2445 -3.4661 -1.7481
  129MPD2    H2 1973   2.973   4.445   1.308 -0.6940  1.2054  0.2052
  129MPD2    H3 1974   2.925   4.552   1.115  0.8281  2.1277 -1.8417
  129MPD2     N 1975   3.363   4.677   1.039 -0.0769  0.2697  0.3518
  129MPD2    H5 1976   3.440   4.683   1.105  0.0101  0.2846  0.2492
  129MPD2    N1 1977   3.229   4.435   1.426  0.2562  0.4863  0.6237
  129MPD2    H7 1978   3.328   4.439   1.447  0.8625  2.0346 -2.6548
  130TCq2    C1 1979   3.152   4.354   1.509 -0.1585  0.7747  0.6246
  130TCq2    O2 1980   3.035   4.325   1.503  0.3707 -0.1592  0.0960
  130TCq2    C2 1981   3.228   4.293   1.615  0.2057  0.3156  0.0375
  130TCq2    C3 1982   3.339   4.357   1.654  0.4838 -0.5623 -0.8426
  130TCq2    C4 1983   3.435   4.280   1.725  0.0961  0.1109 -0.2631
  130TCq2    C5 1984   3.412   4.152   1.757 -0.4834 -0.4442  0.6122
  130TCq2    C6 1985   3.293   4.097   1.714  0.3339 -0.1253  0.2196
  130TCq2    C7 1986   3.196   4.164   1.646 -0.7577 -0.4329 -0.4495
  130TCq2    C8 1987   3.278   3.955   1.728 -0.5938  0.2006  0.0112
  130TCq2    O4 1988   3.166   3.905   1.742  0.3605  0.8175  0.3390
  130TCq2    C9 1989   3.558   4.346   1.763  0.2852 -0.4803  0.6379
  130TCq2    O5 1990   3.603   4.442   1.689 -0.1329  0.1959  0.0374
  130TCq2    O6 1991   3.628   4.293   1.856 -0.9736  0.3379  0.0538
  130TCq2    H2 1992   3.357   4.462   1.634 -2.0744 -0.1096 -0.7432
  130TCq2    H3 1993   3.483   4.106   1.825  2.3556  0.8891 -1.4456
  130TCq2    H4 1994   3.106   4.114   1.611 -0.2172 -0.1265 -2.2688
  131MPD2     C 1995   2.835   2.151   9.642  0.3413 -0.3341  0.2295
  131MPD2    C1 1996   2.969   2.154   9.611 -0.4177  0.2078 -0.3385
  131MPD2    C2 1997   3.061   2.179   9.708  0.1671 -0.1254  0.5064
  131MPD2    C3 1998   3.016   2.191   9.840  0.1682 -0.4111  0.2998
  131MPD2    C4 1999   2.885   2.165   9.873 -0.0157  0.4320  0.1280
  131MPD2    C5 2000   2.798   2.151   9.774  0.1382  0.2912  0.4069
  131MPD2     H 2001   3.169   2.180   9.697  0.3660  0.0998  2.3767
  131MPD2    H1 2002   2.845   2.201   9.967 -1.3429 -3.4313  1.0158
  131MPD2    H2 2003   2.758   2.150   9.566 -0.4618  2.4544  0.9809
  131MPD2    H3 2004   2.691   2.161   9.786 -0.0079 -1.7968  0.7737
  131MPD2     N 2005   3.112   2.236   9.935  0.1958  0.3191  0.1014
  131MPD2    H5 2006   3.207   2.249   9.901 -0.0557  0.7643 -0.4179
  131MPD2    N1 2007   2.994   2.122   9.477 -0.0800  0.0424 -0.2382
  131MPD2    H7 2008   2.919   2.092   9.416  0.2346 -1.1011 -0.0581
  132TCq2    C1 2009   3.424   2.013   9.055  0.1275  0.1447 -0.4931
  132TCq2    O2 2010   3.437   1.987   8.936 -0.3752  0.1151 -0.0382
  132TCq2    C2 2011   3.289   2.029   9.111  0.0345  0.3205  0.1338
  132TCq2    C3 2012   3.185   1.996   9.031  0.0392 -0.1362 -0.2987
  132TCq2    C4 2013   3.058   2.005   9.077 -1.0470  0.0498  0.8880
  132TCq2    C5 2014   3.027   2.047   9.201 -0.3758 -0.0838  0.2796
  132TCq2    C6 2015   3.136   2.083   9.281 -0.3542  0.2818 -0.0296
  132TCq2    C7 2016   3.262   2.067   9.238  0.4536 -0.2042  0.8473
  132TCq2    C8 2017   3.120   2.129   9.424  0.4526 -0.2096  0.0412
  132TCq2    O4 2018   3.224   2.167   9.479 -0.3794  0.1099 -0.1874
  132TCq2    C9 2019   2.963   1.948   8.987  0.2764  0.8277 -0.0896
  132TCq2    O5 2020   2.842   1.958   9.019 -0.2257  0.1874 -0.2266
  132TCq2    O6 2021   2.995   1.928   8.873 -0.8925  0.5035  0.2702
  132TCq2    H2 2022   3.209   1.957   8.933 -2.4021 -0.9680 -0.5640
  132TCq2    H3 2023   2.920   2.055   9.219 -0.3409  0.2318  0.3452
  132TCq2    H4 2024   3.341   2.083   9.310 -0.5763  1.0318  1.7156
  133MPD2     C 2025   1.339   3.861   9.040  0.0410  0.2580  0.1334
  133MPD2    C1 2026   1.349   3.792   8.920  0.3714 -0.7007 -0.3964
  133MPD2    C2 2027   1.463   3.713   8.895  0.0533 -0.6013 -0.1737
  133MPD2    C3 2028   1.555   3.695   9.000  0.1961 -0.4565 -0.0405
  133MPD2    C4 2029   1.543   3.761   9.118 -0.4461  0.3509 -0.1843
  133MPD2    C5 2030   1.437   3.851   9.137 -0.1658 -0.1667 -0.5150
  133MPD2     H 2031   1.483   3.659   8.803 -0.5047 -2.7253  0.9469
  133MPD2    H1 2032   1.610   3.742   9.201 -0.2911  2.0433  0.0876
  133MPD2    H2 2033   1.260   3.933   9.057  0.2829  0.4061  0.6462
  133MPD2    H3 2034   1.429   3.904   9.231 -1.7330 -0.3490 -0.5493
  133MPD2     N 2035   1.667   3.602   8.990  0.5801 -0.5633 -0.3928
  133MPD2    H5 2036   1.708   3.576   9.079 -2.4497 -0.5935  1.0203
  133MPD2    N1 2037   1.244   3.816   8.826  0.0190  0.1888  0.0858
  133MPD2    H7 2038   1.156   3.846   8.868  0.5901  1.3105  0.4605
  134TCq2    C1 2039   1.242   3.763   8.701  0.4321  0.1024  0.1851
  134TCq2    O2 2040   1.324   3.690   8.650  0.6441  0.0550  0.2316
  134TCq2    C2 2041   1.110   3.786   8.628  0.0665 -0.4049 -0.3495
  134TCq2    C3 2042   1.071   3.677   8.556 -0.2648 -0.8285  0.4688
  134TCq2    C4 2043   0.940   3.691   8.514 -0.3559  0.5946  0.2072
  134TCq2    C5 2044   0.862   3.800   8.542  0.4860  0.3837  0.6755
  134TCq2    C6 2045   0.909   3.902   8.614  0.0292 -0.2240 -0.4290
  134TCq2    C7 2046   1.036   3.893   8.667  0.1001  0.5195 -0.1364
  134TCq2    C8 2047   0.823   4.018   8.654  0.1324  0.7140 -0.7793
  134TCq2    O4 2048   0.853   4.081   8.756  0.0253 -0.0434  0.8296
  134TCq2    C9 2049   0.879   3.584   8.446 -0.0380  0.4511  0.5726
  134TCq2    O5 2050   0.800   3.619   8.359 -0.5515  0.2707 -0.0784
  134TCq2    O6 2051   0.953   3.478   8.457 -0.4380 -0.4360 -0.0910
  134TCq2    H2 2052   1.141   3.596   8.537 -1.1375 -1.1570 -1.2671
  134TCq2    H3 2053   0.766   3.802   8.490 -0.0510  1.2277  1.7060
  134TCq2    H4 2054   1.072   3.987   8.706  0.1306  1.7123 -3.0808
  135MPD2     C 2055   4.535   4.539   8.910  0.0478  0.2367 -0.8662
  135MPD2    C1 2056   4.621   4.477   9.000  1.0252  0.5165 -0.1201
  135MPD2    C2 2057   0.035   4.488   8.983  0.1482 -1.1985 -0.5009
  135MPD2    C3 2058   0.088   4.565   8.882  0.2321  0.4361  0.2266
  135MPD2    C4 2059   0.002   4.624   8.789 -0.6102 -0.4380  0.0902
  135MPD2    C5 2060   4.587   4.613   8.804  0.4980  0.3833  0.2175
  135MPD2     H 2061   0.087   4.436   9.063  0.3260 -0.2460  0.0027
  135MPD2    H1 2062   0.045   4.686   8.710 -1.7390 -0.7219 -0.7400
  135MPD2    H2 2063   4.428   4.537   8.925  0.2671  1.5763  0.8110
  135MPD2    H3 2064   4.526   4.681   8.746  1.0768  1.4866  0.9144
  135MPD2     N 2065   0.225   4.597   8.864  0.3379 -0.5410 -0.1983
  135MPD2    H5 2066   0.257   4.658   8.789 -0.0390 -1.1094 -0.8258
  135MPD2    N1 2067   4.574   4.398   9.102  0.5203 -0.3354 -1.2004
  135MPD2    H7 2068   4.652   4.365   9.159  0.5182 -0.7158 -1.4137
  136TCq2    C1 2069   4.445   4.356   9.133 -0.6745  0.2058 -0.2486
  136TCq2    O2 2070   4.342   4.359   9.064 -0.3879  0.0753 -0.2514
  136TCq2    C2 2071   4.427   4.300   9.260 -0.1765 -0.1849 -0.6168
  136TCq2    C3 2072   4.524   4.324   9.356  0.5099  0.9607 -0.4539
  136TCq2    C4 2073   4.500   4.261   9.476 -1.3449 -0.4262  0.0844
  136TCq2    C5 2074   4.390   4.185   9.506  0.8105 -0.6956 -0.5118
  136TCq2    C6 2075   4.293   4.171   9.406  0.0031  1.2466  0.5105
  136TCq2    C7 2076   4.308   4.239   9.288  0.3375  0.3940  0.0576
  136TCq2    C8 2077   4.180   4.085   9.412 -0.4436  0.4066 -0.4426
  136TCq2    O4 2078   4.089   4.107   9.332  0.1691 -0.0130 -0.1214
  136TCq2    C9 2079   4.596   4.263   9.571 -1.1729 -0.1893  0.0384
  136TCq2    O5 2080   4.567   4.222   9.687 -0.0606 -0.5404  0.6073
  136TCq2    O6 2081   4.708   4.283   9.524 -0.5472 -0.1179 -0.3523
  136TCq2    H2 2082   4.614   4.379   9.330  1.1705  0.7522  1.4205
  136TCq2    H3 2083   4.386   4.141   9.605 -1.5461  1.5856  0.3894
  136TCq2    H4 2084   4.235   4.215   9.212 -0.5885  1.0428  0.7479
  137MPD2     C 2085   0.333   2.910   9.658 -0.6064 -1.3014  0.3650
  137MPD2    C1 2086   0.301   3.033   9.591  0.1517 -0.1958  0.3368
  137MPD2    C2 2087   0.293   3.156   9.658 -0.4993  0.2993 -0.1169
  137MPD2    C3 2088   0.321   3.167   9.795  0.0498  0.6712  0.2094
  137MPD2    C4 2089   0.349   3.047   9.859 -0.9437 -0.6892  0.3489
  137MPD2    C5 2090   0.357   2.926   9.793  0.1241 -0.5757  0.1277
  137MPD2     H 2091   0.264   3.248   9.608 -0.1282  0.8905  0.7547
  137MPD2    H1 2092   0.377   3.042   9.964  0.2966  3.9916  0.2546
  137MPD2    H2 2093   0.343   2.818   9.601  1.4861 -0.3136 -0.8625
  137MPD2    H3 2094   0.383   2.839   9.852 -0.1267 -1.4509 -1.0459
  137MPD2     N 2095   0.337   3.294   9.857 -0.1091  0.3065  0.2628
  137MPD2    H5 2096   0.329   3.372   9.791 -1.5242 -0.3479 -0.3473
  137MPD2    N1 2097   0.274   3.020   9.448 -0.2059 -0.5192 -0.1317
  137MPD2    H7 2098   0.297   2.928   9.412  1.2842  0.4947 -1.7872
  138TCq2    C1 2099   0.253   3.122   9.360  0.6082 -0.1490 -0.0779
  138TCq2    O2 2100   0.253   3.242   9.385 -0.3513 -0.6285  0.0813
  138TCq2    C2 2101   0.224   3.092   9.221  0.6838 -0.8111  0.2837
  138TCq2    C3 2102   0.205   3.192   9.123 -0.5407 -0.0304 -0.0020
  138TCq2    C4 2103   0.180   3.166   8.989 -0.5024  0.1620 -0.1352
  138TCq2    C5 2104   0.164   3.036   8.954  0.2241 -0.5400 -0.1265
  138TCq2    C6 2105   0.159   2.941   9.049 -0.3375  1.2399 -0.1125
  138TCq2    C7 2106   0.198   2.965   9.182  0.5389 -0.0559 -0.3193
  138TCq2    C8 2107   0.126   2.807   9.001  0.0253 -0.5468  0.6091
  138TCq2    O4 2108   0.149   2.778   8.884  0.3026 -0.0730  0.1815
  138TCq2    C9 2109   0.154   3.270   8.893  0.0675  0.4649 -0.3164
  138TCq2    O5 2110   0.157   3.231   8.775  0.8030  0.3212 -0.6728
  138TCq2    O6 2111   0.113   3.378   8.940 -0.3516 -0.1785 -0.2074
  138TCq2    H2 2112   0.224   3.292   9.158 -0.1337  0.5396 -1.8280
  138TCq2    H3 2113   0.144   3.011   8.850  1.4225  1.1885 -0.7858
  138TCq2    H4 2114   0.237   2.877   9.230 -1.4726 -1.1244 -0.6354
  139TMC2    C1 2115   0.415   2.825  13.149  0.1751  0.4479 -0.1383
  139TMC2    C2 2116   0.432   2.850  13.014  0.4844  0.5496 -0.7856
  139TMC2    C3 2117   0.319   2.900  12.960  0.5684 -0.4035  0.4332
  139TMC2    C4 2118   0.316   2.868  13.231  0.0417 -0.5237  0.2470
  139TMC2    C5 2119   0.214   2.925  13.173  0.6650  0.0745 -0.3337
  139TMC2    C6 2120   0.203   2.939  13.032  0.2551 -0.4263  0.7183
  139TMC2     C 2121   0.525   2.748  13.211 -1.0513 -0.2315  1.2913
  139TMC2     O 2122   0.636   2.754  13.158  0.0793 -0.0431 -0.1372
  139TMC2     H 2123   0.510   2.793  12.966  0.5661  0.7381 -0.8801
  139TMC2    H1 2124   0.318   2.853  13.339 -1.1486 -2.4628 -0.0131
  139TMC2    H2 2125   0.123   2.992  12.982  0.0317  0.0446  1.5904
  139TMC2    C7 2126   0.115   2.997  13.243 -0.4325 -0.1974 -0.3375
  139TMC2    C8 2127   0.309   2.907  12.815  0.2409  0.5792 -0.2633
  139TMC2    O1 2128   0.008   3.009  13.186 -0.4088  0.5349 -0.3706
  139TMC2    O2 2129   0.210   2.878  12.754 -0.5453 -0.1947 -0.3943
  139TMC2    O5 2130   0.427   2.952  12.766 -0.5706  0.2520  0.2999
  139TMC2    H5 2131   0.491   2.977  12.836  2.8064  1.3988 -3.1532
  140MPD2     C 2132   0.481   2.498  13.474 -0.4930  0.0220  0.5323
  140MPD2    C1 2133   0.537   2.555  13.369  0.0614 -0.5234  0.2381
  140MPD2    C2 2134   0.659   2.510  13.325 -0.5627  0.0377 -0.1176
  140MPD2    C3 2135   0.722   2.409  13.391  0.3099  0.2554 -0.0711
  140MPD2    C4 2136   0.656   2.348  13.496 -0.6161  0.8630  0.5108
  140MPD2    C5 2137   0.537   2.391  13.530 -0.1022  1.3732 -0.3038
  140MPD2     H 2138   0.707   2.571  13.249 -0.6271 -0.5570 -0.6346
  140MPD2    H1 2139   0.706   2.269  13.550  1.6509  1.5257 -0.5907
  140MPD2    H2 2140   0.380   2.521  13.507 -0.0063  0.3900  1.7597
  140MPD2    H3 2141   0.498   2.334  13.614 -0.2996  1.3974 -0.3780
  140MPD2     N 2142   0.842   2.367  13.339  0.2985 -0.1844 -0.1449
  140MPD2    H5 2143   0.874   2.422  13.260 -0.5780 -1.7097 -1.5526
  140MPD2    N1 2144   0.473   2.668  13.314 -0.4394  0.0587  0.0524
  140MPD2    H7 2145   0.374   2.684  13.329 -1.0759 -2.9036 -0.9767
  141TCq2    C1 2146   1.008   4.269  14.647  0.2710  0.0701  0.3427
  141TCq2    O2 2147   0.959   4.373  14.602 -0.1843  0.1493  0.1506
  141TCq2    C2 2148   1.081   4.271  14.770 -0.3706  0.2011 -0.1909
  141TCq2    C3 2149   1.192   4.190  14.778  0.1076 -0.0813 -0.0759
  141TCq2    C4 2150   1.273   4.213  14.880  0.7016 -0.5288 -0.1125
  141TCq2    C5 2151   1.248   4.312  14.979  0.3917  0.0649 -0.0103
  141TCq2    C6 2152   1.138   4.393  14.961  0.0284  0.2770 -0.1080
  141TCq2    C7 2153   1.050   4.371  14.857  0.6356 -0.2819  0.5782
  141TCq2    C8 2154   1.127   4.509  15.047  0.4845 -0.4845  0.1117
  141TCq2    O4 2155   1.177   4.502  15.156  0.0282 -0.3139 -0.4712
  141TCq2    C9 2156   1.390   4.129  14.902  0.0014  0.9382 -0.2281
  141TCq2    O5 2157   1.417   4.053  14.805 -0.0793  0.6408  0.3897
  141TCq2    O6 2158   1.478   4.182  14.980  0.0132  0.3506  0.3026
  141TCq2    H2 2159   1.219   4.114  14.706  1.7083 -0.9114  1.4272
  141TCq2    H3 2160   1.307   4.320  15.069  2.2580 -1.6434 -1.0858
  141TCq2    H4 2161   0.956   4.422  14.837  0.8936  0.1131  0.3700
  142MPD2     C 2162   2.862   1.936  10.236  0.2872 -0.8448  0.5320
  142MPD2    C1 2163   2.779   1.874  10.153 -0.0462 -0.2231 -0.1280
  142MPD2    C2 2164   2.833   1.836  10.030  0.2070  0.5140  0.1198
  142MPD2    C3 2165   2.962   1.854   9.990 -0.6812 -0.8617  0.3384
  142MPD2    C4 2166   3.047   1.904  10.081  0.0857 -0.6083 -0.4613
  142MPD2    C5 2167   2.993   1.948  10.197 -0.7225  0.5543  0.9681
  142MPD2     H 2168   2.760   1.800   9.959  1.2010 -0.2102 -0.5289
  142MPD2    H1 2169   3.147   1.937  10.056 -0.3601  0.1269 -1.2896
  142MPD2    H2 2170   2.833   1.965  10.337 -2.0734  1.0835 -0.6928
  142MPD2    H3 2171   3.058   1.996  10.269  0.6417 -0.1874  0.2292
  142MPD2     N 2172   3.005   1.825   9.857  0.5834 -0.2654 -0.1289
  142MPD2    H5 2173   3.097   1.861   9.838 -0.1295  1.7313  0.2040
  142MPD2    N1 2174   2.641   1.878  10.194  0.4463  0.0645 -0.4125
  142MPD2    H7 2175   2.622   1.911  10.288  0.4388  0.2614 -0.4831
  143TCq2    C1 2176   2.923   1.785   9.753 -0.1725  0.1694  0.2634
  143TCq2    O2 2177   2.804   1.755   9.746  0.1842 -0.0616 -0.8202
  143TCq2    C2 2178   2.995   1.773   9.625 -0.1246 -0.4166  0.7647
  143TCq2    C3 2179   2.921   1.739   9.508 -0.5712 -0.2897 -0.4880
  143TCq2    C4 2180   2.996   1.708   9.391  0.4532  0.4262 -0.1880
  143TCq2    C5 2181   3.131   1.714   9.395 -0.1378  0.0102  0.0176
  143TCq2    C6 2182   3.203   1.741   9.511  0.1707 -0.2237  0.5312
  143TCq2    C7 2183   3.135   1.768   9.629  0.0440 -0.9384 -0.2083
  143TCq2    C8 2184   3.349   1.778   9.497 -0.5781  0.5358 -0.4834
  143TCq2    O4 2185   3.402   1.867   9.564  0.1080 -0.1074  0.2033
  143TCq2    C9 2186   2.916   1.681   9.276  1.2620  0.0575 -0.4565
  143TCq2    O5 2187   2.977   1.678   9.169 -0.3740  0.4111  0.6172
  143TCq2    O6 2188   2.795   1.710   9.279 -0.2472 -0.4002  0.5957
  143TCq2    H2 2189   2.813   1.746   9.502 -0.5126  1.6943  0.7165
  143TCq2    H3 2190   3.173   1.694   9.297 -0.3092 -0.6257  0.0762
  143TCq2    H4 2191   3.192   1.794   9.718 -3.2064  0.2073  1.5190
  144MPD2     C 2192   0.908   1.346   0.744 -0.8006 -0.3701 -0.4110
  144MPD2    C1 2193   0.977   1.360   0.633  0.5986  0.9999  0.9569
  144MPD2    C2 2194   1.114   1.347   0.635  0.4653  0.1742 -0.0100
  144MPD2    C3 2195   1.179   1.306   0.748 -0.1597  0.4501 -0.2781
  144MPD2    C4 2196   1.105   1.287   0.862 -0.5060  0.0444 -0.5113
  144MPD2    C5 2197   0.974   1.306   0.857 -0.2895 -0.5248 -0.2611
  144MPD2     H 2198   1.167   1.358   0.541 -1.2986  1.2936 -0.9021
  144MPD2    H1 2199   1.153   1.264   0.956 -1.2091  1.4224  0.1974
  144MPD2    H2 2200   0.801   1.361   0.750 -1.0291 -1.6019 -1.5176
  144MPD2    H3 2201   0.927   1.285   0.953  0.2378  0.2572  0.1653
  144MPD2     N 2202   1.312   1.293   0.773  0.1980  0.1006 -0.6993
  144MPD2    H5 2203   1.321   1.278   0.873 -1.8245  0.9520 -0.3901
  144MPD2    N1 2204   0.913   1.394   0.504  0.0199  0.0562  0.2731
  144MPD2    H7 2205   0.977   1.407   0.426 -0.9455 -3.1470 -1.0399
  145TCq2    C1 2206   1.407   1.278   0.677 -0.1557 -0.0428 -0.6054
  145TCq2    O2 2207   1.382   1.266   0.559  0.0930  0.3130 -0.3166
  145TCq2    C2 2208   1.534   1.228   0.723 -0.5487 -0.3610 -0.1652
  145TCq2    C3 2209   1.613   1.167   0.623 -0.7793  0.4505  0.8637
  145TCq2    C4 2210   1.726   1.100   0.659 -0.9772  0.5953 -0.8494
  145TCq2    C5 2211   1.770   1.099   0.788 -0.3695  0.1256 -0.8179
  145TCq2    C6 2212   1.694   1.161   0.887 -0.2031  0.1237  0.7115
  145TCq2    C7 2213   1.572   1.228   0.857 -0.3909 -0.6704 -0.1299
  145TCq2    C8 2214   1.775   1.185   1.014  0.1649  0.1058 -0.0022
  145TCq2    O4 2215   1.892   1.156   1.012 -0.2253 -0.2653 -0.2556
  145TCq2    C9 2216   1.803   1.029   0.564 -0.5742  0.3741 -0.2962
  145TCq2    O5 2217   1.878   0.932   0.605  0.7860  0.1724  0.2686
  145TCq2    O6 2218   1.795   1.059   0.445 -0.1877  0.0961 -0.4822
  145TCq2    H2 2219   1.574   1.174   0.523 -3.0650 -3.2679  1.5181
  145TCq2    H3 2220   1.863   1.053   0.816 -0.1265  0.7055 -0.6659
  145TCq2    H4 2221   1.512   1.277   0.933  2.8351  3.3493 -0.1991
  146TMC2    C1 2222   2.500   0.100  12.156  0.4324  0.4208  0.4918
  146TMC2    C2 2223   2.423   0.099  12.039 -0.7978  0.0508 -0.3397
  146TMC2    C3 2224   2.472   0.013  11.939  0.3360 -0.8885  0.0056
  146TMC2    C4 2225   2.608   0.014  12.177  0.5025 -0.1867  0.0482
  146TMC2    C5 2226   2.644   4.658  12.075  0.7660  0.4906 -0.3194
  146TMC2    C6 2227   2.581   4.654  11.955 -0.2882 -0.2520 -1.2407
  146TMC2     C 2228   2.498   0.221  12.231  0.4413  0.4901  0.1196
  146TMC2     O 2229   2.457   0.324  12.181 -0.6069  0.5159 -0.2871
  146TMC2     H 2230   2.339   0.165  12.020 -0.2200  1.0089  0.4196
  146TMC2    H1 2231   2.662   0.020  12.270  0.5856  0.9349 -0.0677
  146TMC2    H2 2232   2.623   4.603  11.869 -3.7989 -0.2250 -2.9549
  146TMC2    C7 2233   2.785   4.620  12.071  0.2627 -0.0703 -0.5108
  146TMC2    C8 2234   2.399   0.011  11.811 -0.5529  0.5878  0.3156
  146TMC2    O1 2235   2.830   4.625  11.958  0.0389  0.3060  0.4899
  146TMC2    O2 2236   2.319   0.104  11.780 -0.6114 -0.5174 -0.0237
  146TMC2    O5 2237   2.458   4.654  11.720 -0.8412 -0.4374  0.1619
  146TMC2    H5 2238   2.528   4.591  11.746 -0.3765 -0.4662 -1.1644
  147MPD2     C 2239   3.251   4.557  12.278 -0.5607  0.2903 -0.3979
  147MPD2    C1 2240   3.156   4.531  12.371  0.6159  1.0941 -0.0064
  147MPD2    C2 2241   3.021   4.550  12.344 -0.3733 -0.8427  0.5190
  147MPD2    C3 2242   2.983   4.570  12.218 -0.3725  0.0999 -0.6394
  147MPD2    C4 2243   3.078   4.607  12.123  0.6362 -0.3590  0.3126
  147MPD2    C5 2244   3.215   4.605  12.153  0.0122 -1.1713 -0.1166
  147MPD2     H 2245   2.942   4.533  12.416 -0.2928  0.7347  0.9698
  147MPD2    H1 2246   3.049   4.644  12.026 -1.0496  0.3055  1.0639
  147MPD2    H2 2247   3.354   4.574  12.308 -0.0424 -1.1158 -1.3988
  147MPD2    H3 2248   3.291   4.639  12.084  0.7544 -0.7799  0.8985
  147MPD2     N 2249   2.844   4.588  12.193 -0.0203  0.1347 -0.1782
  147MPD2    H5 2250   2.781   4.567  12.271  0.6857  2.3041  0.9800
  147MPD2    N1 2251   3.202   4.503  12.506  0.2521 -0.9335  0.0802
  147MPD2    H7 2252   3.303   4.505  12.519  0.0717 -0.0975  1.3606
  148MPD2     C 2253   3.076   3.401  10.527  0.1435 -0.4367  0.1873
  148MPD2    C1 2254   3.099   3.293  10.450  0.7721 -0.1661  0.0982
  148MPD2    C2 2255   2.994   3.208  10.414  0.0157  0.8042 -0.1609
  148MPD2    C3 2256   2.868   3.225  10.467 -0.5309 -0.4323  0.3461
  148MPD2    C4 2257   2.847   3.334  10.545  0.0080 -0.5125 -0.2764
  148MPD2    C5 2258   2.952   3.418  10.580  0.1758  0.4289  0.3122
  148MPD2     H 2259   3.010   3.114  10.363 -3.8530 -0.0500  0.2229
  148MPD2    H1 2260   2.752   3.353  10.593  0.1518  0.4566 -0.3637
  148MPD2    H2 2261   3.151   3.473  10.557 -0.1292 -0.2134  0.3281
  148MPD2    H3 2262   2.943   3.517  10.624 -0.2710  0.8527 -0.7364
  148MPD2     N 2263   2.756   3.152  10.428  0.1323 -0.1294  0.0779
  148MPD2    H5 2264   2.674   3.173  10.484 -1.0890 -0.0872 -1.7251
  148MPD2    N1 2265   3.228   3.255  10.403 -0.6466  0.0440  0.2325
  148MPD2    H7 2266   3.236   3.165  10.356 -0.6830  0.2887 -0.2427
  149TCq2    C1 2267   3.336   3.339  10.414 -0.0450  0.4967 -0.4854
  149TCq2    O2 2268   3.351   3.458  10.439  0.0949  0.1275 -0.2531
  149TCq2    C2 2269   3.444   3.258  10.367 -0.0817  0.1520  0.2085
  149TCq2    C3 2270   3.541   3.316  10.288  0.3323  0.2302 -0.5181
  149TCq2    C4 2271   3.617   3.245  10.198  0.3258 -0.0749  0.5942
  149TCq2    C5 2272   3.597   3.107  10.183  0.3757 -0.1579  0.1150
  149TCq2    C6 2273   3.498   3.060  10.264  0.3068  0.2399  0.1670
  149TCq2    C7 2274   3.432   3.126  10.359 -0.0003  0.2425 -0.8127
  149TCq2    C8 2275   3.419   2.950  10.208  0.7745 -0.1181  0.7875
  149TCq2    O4 2276   3.298   2.962  10.220 -0.1408 -0.3049 -0.0144
  149TCq2    C9 2277   3.659   3.326  10.081 -0.0677 -0.0526  0.1702
  149TCq2    O5 2278   3.689   3.264   9.982  0.1800 -0.3592  0.2580
  149TCq2    O6 2279   3.635   3.449  10.085 -0.9305 -0.0682 -0.0237
  149TCq2    H2 2280   3.543   3.425  10.286  0.9298  0.2303  0.0324
  149TCq2    H3 2281   3.644   3.049  10.104 -0.1914 -0.6791  0.1594
  149TCq2    H4 2282   3.365   3.070  10.423  1.3425  0.7673  1.0654
  150MPD2     C 2283   4.069   3.331  12.047 -0.0937  0.2064 -0.3936
  150MPD2    C1 2284   4.159   3.319  11.941 -0.4423 -0.6891 -0.7224
  150MPD2    C2 2285   4.295   3.326  11.965  0.0352  0.4184  0.0894
  150MPD2    C3 2286   4.341   3.356  12.090  0.5670  0.3693  0.4225
  150MPD2    C4 2287   4.251   3.371  12.191 -0.6299  0.1398  0.7627
  150MPD2    C5 2288   4.115   3.365  12.171 -0.1176 -0.2378 -0.2487
  150MPD2     H 2289   4.366   3.304  11.886  3.6501 -0.0395  3.4780
  150MPD2    H1 2290   4.285   3.408  12.287 -0.6910  2.5556 -0.1420
  150MPD2    H2 2291   3.962   3.319  12.037 -0.3248  2.7312 -0.9482
  150MPD2    H3 2292   4.050   3.394  12.252  0.3422  1.0746 -0.3563
  150MPD2     N 2293   4.476   3.377  12.100  0.3321  0.0773 -0.0478
  150MPD2    H5 2294   4.539   3.367  12.022 -0.0881 -0.2299 -0.3473
  150MPD2    N1 2295   4.091   3.284  11.816 -0.2759 -0.1821  0.5805
  150MPD2    H7 2296   3.995   3.254  11.818  0.2955 -2.0667 -0.4191
  151TCq2    C1 2297   4.553   3.406  12.212 -0.1776  0.0008  0.7905
  151TCq2    O2 2298   4.513   3.464  12.312 -0.0969 -0.5761  0.0219
  151TCq2    C2 2299   4.694   3.367  12.191 -0.1287  0.4260  0.1447
  151TCq2    C3 2300   0.007   3.294  12.080  0.2107 -0.4932 -0.4457
  151TCq2    C4 2301   0.139   3.268  12.063  0.2276 -0.6181  0.4458
  151TCq2    C5 2302   0.235   3.333  12.137 -0.6482  0.7012 -0.6120
  151TCq2    C6 2303   0.198   3.413  12.247 -0.1358 -0.7282  0.4475
  151TCq2    C7 2304   0.061   3.424  12.284 -0.3180  0.0264 -0.2981
  151TCq2    C8 2305   0.285   3.425  12.359 -0.0656 -0.0213  0.1485
  151TCq2    O4 2306   0.282   3.531  12.427  0.4464 -0.3138  0.4962
  151TCq2    C9 2307   0.184   3.194  11.950 -0.2937 -0.2904  0.1027
  151TCq2    O5 2308   0.306   3.154  11.941 -0.2021  0.1991  0.5021
  151TCq2    O6 2309   0.087   3.140  11.889 -0.0410  0.5513  0.1977
  151TCq2    H2 2310   4.665   3.237  12.015 -0.8722  1.4449 -1.0550
  151TCq2    H3 2311   0.340   3.322  12.112 -0.5880 -0.8627  0.3431
  151TCq2    H4 2312   0.026   3.468  12.377 -0.0053 -0.1020 -0.1166
  152MPD2     C 2313   4.349   2.915  12.750  0.3573  0.9019 -0.0890
  152MPD2    C1 2314   4.331   2.977  12.629 -0.1389 -0.2260 -0.5182
  152MPD2    C2 2315   4.213   2.964  12.563  0.5780  0.3252  0.7016
  152MPD2    C3 2316   4.103   2.903  12.616  0.7243 -0.2084 -0.2067
  152MPD2    C4 2317   4.119   2.842  12.734  0.3661  0.0476  0.1531
  152MPD2    C5 2318   4.237   2.850  12.796 -0.2394  0.3517  0.2825
  152MPD2     H 2319   4.200   3.008  12.465  1.2610 -0.8293  0.0920
  152MPD2    H1 2320   4.039   2.787  12.782 -0.5971  0.5586 -0.8680
  152MPD2    H2 2321   4.435   2.922  12.816  1.3448 -1.6311 -1.0672
  152MPD2    H3 2322   4.245   2.809  12.896  0.2671  1.3182  0.6393
  152MPD2     N 2323   3.987   2.903  12.535 -0.9806  0.3012 -0.8189
  152MPD2    H5 2324   3.998   2.947  12.444  0.2967  0.8056 -0.4240
  152MPD2    N1 2325   4.441   3.051  12.573  0.3111 -0.6808 -0.7439
  152MPD2    H7 2326   4.525   3.045  12.630  1.7842  0.5737 -2.7528
  153TCq2    C1 2327   4.457   3.086  12.446 -0.3337  0.6202  0.0297
  153TCq2    O2 2328   4.389   3.067  12.347  0.0992  0.4464 -0.2782
  153TCq2    C2 2329   4.591   3.134  12.437 -0.4695  0.1959  0.4521
  153TCq2    C3 2330   4.679   3.063  12.359  0.3101  0.1949  0.0963
  153TCq2    C4 2331   0.087   3.061  12.388  0.2102  0.5388  0.3781
  153TCq2    C5 2332   0.141   3.125  12.494 -0.2943 -0.8873 -0.3658
  153TCq2    C6 2333   0.058   3.200  12.569  0.4734  0.8593 -0.0638
  153TCq2    C7 2334   4.648   3.205  12.535 -0.3870 -0.7379 -0.3785
  153TCq2    C8 2335   0.081   3.230  12.708 -0.5693  0.1833 -0.2723
  153TCq2    O4 2336   4.709   3.239  12.783  0.3313 -0.4956 -0.1119
  153TCq2    C9 2337   0.174   3.008  12.279 -0.0489 -0.4417  0.4704
  153TCq2    O5 2338   0.297   3.037  12.291 -0.7253  0.1146  0.1493
  153TCq2    O6 2339   0.114   2.967  12.175 -0.7541 -0.1560 -0.0737
  153TCq2    H2 2340   4.637   3.007  12.276  2.1168  0.4551 -0.9941
  153TCq2    H3 2341   0.248   3.118  12.514  0.0837 -0.4893 -2.2600
  153TCq2    H4 2342   4.587   3.262  12.603  0.2950  0.5468 -0.8492
  154MPD2     C 2343   1.261   1.954   0.648 -0.6738  1.0735  0.1840
  154MPD2    C1 2344   1.372   1.995   0.709 -0.0124  0.3080 -0.2818
  154MPD2    C2 2345   1.420   2.126   0.700  0.5929 -0.2650 -0.5824
  154MPD2    C3 2346   1.349   2.216   0.628  0.0423 -0.2888  0.3757
  154MPD2    C4 2347   1.233   2.175   0.565 -0.0034 -0.1696 -0.3265
  154MPD2    C5 2348   1.200   2.045   0.566  0.0066 -0.4164 -0.2669
  154MPD2     H 2349   1.500   2.161   0.765 -0.1566  2.4479 -1.1286
  154MPD2    H1 2350   1.170   2.233   0.499  0.5829 -0.0794 -0.8089
  154MPD2    H2 2351   1.224   1.852   0.653 -1.1880  1.2322 -0.4566
  154MPD2    H3 2352   1.117   2.005   0.509 -1.2797  0.3636  1.0548
  154MPD2     N 2353   1.400   2.347   0.630 -0.2224 -0.6157  0.1128
  154MPD2    H5 2354   1.492   2.367   0.666 -0.8412  1.4241  0.5996
  154MPD2    N1 2355   1.423   1.904   0.806 -0.5099  0.3223 -0.3151
  154MPD2    H7 2356   1.379   1.812   0.809  1.6916 -0.7530 -1.8291
  155TCq2    C1 2357   1.536   1.915   0.881 -0.4974  0.5587 -0.2657
  155TCq2    O2 2358   1.607   2.011   0.898 -0.3656 -0.3868 -0.3628
  155TCq2    C2 2359   1.564   1.808   0.971  0.1830  0.1296 -0.6412
  155TCq2    C3 2360   1.638   1.856   1.080  0.0766 -0.2376  0.2816
  155TCq2    C4 2361   1.742   1.783   1.131  0.2319 -0.5649 -0.7324
  155TCq2    C5 2362   1.778   1.667   1.066  0.4711 -0.5673 -0.4314
  155TCq2    C6 2363   1.705   1.631   0.958  0.5277  0.5380  0.2796
  155TCq2    C7 2364   1.602   1.698   0.906  0.7115 -0.3531  0.4363
  155TCq2    C8 2365   1.777   1.540   0.861  0.2730 -0.1354  0.9291
  155TCq2    O4 2366   1.706   1.493   0.774 -0.1527  0.2533 -0.3678
  155TCq2    C9 2367   1.830   1.820   1.235 -0.0283 -0.5105 -0.8430
  155TCq2    O5 2368   1.938   1.754   1.247  0.1176  0.0016 -0.3315
  155TCq2    O6 2369   1.810   1.927   1.294  0.9392  0.0319  0.2357
  155TCq2    H2 2370   1.620   1.948   1.135 -2.2372 -0.5973  0.1533
  155TCq2    H3 2371   1.859   1.610   1.108  1.3280 -0.1154 -1.4685
  155TCq2    H4 2372   1.541   1.663   0.824 -1.2048  1.2166  1.2084
  156MPD2     C 2373   0.581   0.441  11.860 -0.3049  0.0134 -0.0294
  156MPD2    C1 2374   0.449   0.448  11.816 -0.2619 -0.1095  0.3686
  156MPD2    C2 2375   0.354   0.433  11.912  0.2279  0.0891 -0.3883
  156MPD2    C3 2376   0.382   0.426  12.047 -0.2438 -0.1117  0.2679
  156MPD2    C4 2377   0.515   0.417  12.083 -0.0416 -0.2057  1.1391
  156MPD2    C5 2378   0.613   0.429  11.991  0.3043  0.8919  0.0841
  156MPD2     H 2379   0.248   0.435  11.885  0.2956 -1.2423 -0.7483
  156MPD2    H1 2380   0.547   0.415  12.187 -0.1067  0.6050  1.1730
  156MPD2    H2 2381   0.658   0.449  11.784  0.5941 -1.7901  0.6968
  156MPD2    H3 2382   0.714   0.415  12.028 -0.9890  0.1997  3.3703
  156MPD2     N 2383   0.277   0.418  12.139  0.0142 -0.3437  0.2203
  156MPD2    H5 2384   0.182   0.420  12.102  0.9191  0.8424 -2.0712
  156MPD2    N1 2385   0.420   0.483  11.681 -0.2417 -0.1859  0.3499
  156MPD2    H7 2386   0.500   0.476  11.618 -1.3166 -0.5714 -0.9834
  157TCq2    C1 2387   0.297   0.491  11.618  0.2839  0.2273 -0.1498
  157TCq2    O2 2388   0.185   0.504  11.662  0.0849 -0.5310 -0.3483
  157TCq2    C2 2389   0.293   0.532  11.479  0.2973 -0.4286  0.0805
  157TCq2    C3 2390   0.393   0.603  11.422 -0.8635  0.0936 -0.0884
  157TCq2    C4 2391   0.366   0.686  11.318  0.0633 -0.2792 -0.4577
  157TCq2    C5 2392   0.240   0.713  11.282  0.5023  0.4336  0.0888
  157TCq2    C6 2393   0.139   0.654  11.350  0.1230 -0.6615  0.7142
  157TCq2    C7 2394   0.168   0.559  11.438 -0.7699  0.0047 -0.0652
  157TCq2    C8 2395   0.028   0.740  11.378 -0.8477 -0.5689 -0.4378
  157TCq2    O4 2396   4.718   0.812  11.287 -0.1147  0.1122 -0.4045
  157TCq2    C9 2397   0.473   0.755  11.254  0.1227 -0.3555  0.8776
  157TCq2    O5 2398   0.437   0.855  11.181 -0.0821 -0.4428 -1.0924
  157TCq2    O6 2399   0.589   0.737  11.301  0.2288  0.2606  0.3036
  157TCq2    H2 2400   0.497   0.588  11.452 -0.5322  1.7683 -0.3881
  157TCq2    H3 2401   0.221   0.793  11.211  1.1924  1.5496  1.1600
  157TCq2    H4 2402   0.088   0.490  11.461 -2.6436  1.9036 -0.8583
  158TMC2    C1 2403   0.371   4.001  12.937 -0.0633 -0.5184  0.7097
  158TMC2    C2 2404   0.459   3.994  12.832  0.2296  0.0130  0.6824
  158TMC2    C3 2405   0.403   4.004  12.708 -0.1284  0.0631 -0.0836
  158TMC2    C4 2406   0.239   4.032  12.926 -0.2797  0.3973 -0.1835
  158TMC2    C5 2407   0.191   4.045  12.800 -0.1018  0.0783 -0.0440
  158TMC2    C6 2408   0.270   4.033  12.689  0.8048  0.7391 -0.4291
  158TMC2     C 2409   0.428   4.005  13.072 -0.2296 -0.1944 -0.6312
  158TMC2     O 2410   0.545   4.035  13.069 -0.0280 -0.1075  0.0301
  158TMC2     H 2411   0.560   3.956  12.836  1.1690  2.4118 -0.3574
  158TMC2    H1 2412   0.185   4.082  13.006  1.6976 -0.1350  1.4820
  158TMC2    H2 2413   0.238   4.054  12.588  2.9452 -1.7992 -1.6155
  158TMC2    C7 2414   0.050   4.065  12.786 -0.3437  0.9379  0.0348
  158TMC2    C8 2415   0.484   4.063  12.599 -0.0525  0.4007  0.5073
  158TMC2    O1 2416   0.015   4.106  12.675 -0.3405  0.5647  0.4833
  158TMC2    O2 2417   0.441   4.144  12.517 -0.1335 -0.5525 -0.2088
  158TMC2    O5 2418   0.593   3.984  12.584 -0.0268 -0.2234  0.0430
  158TMC2    H5 2419   0.598   3.918  12.656  0.6222 -0.7162 -0.4553
  159MPD2     C 2420   0.405   4.138  13.564  0.0538  0.5630 -0.3901
  159MPD2    C1 2421   0.276   4.106  13.524 -0.2193 -0.4017 -0.3197
  159MPD2    C2 2422   0.255   4.051  13.399  0.0348  0.0156  0.1453
  159MPD2    C3 2423   0.365   4.042  13.312  0.2132 -0.5391 -0.3753
  159MPD2    C4 2424   0.489   4.086  13.352  0.3789 -0.0734  0.4214
  159MPD2    C5 2425   0.506   4.138  13.470 -0.2973 -0.1748  0.1949
  159MPD2     H 2426   0.162   4.005  13.370 -0.0044  0.0221  0.2611
  159MPD2    H1 2427   0.573   4.104  13.285  1.5503 -1.1982  1.5964
  159MPD2    H2 2428   0.425   4.186  13.659 -2.9038  1.5243 -0.2562
  159MPD2    H3 2429   0.601   4.186  13.488 -0.1923 -0.4520  0.3894
  159MPD2     N 2430   0.341   4.002  13.177 -0.4575  0.1555 -0.2033
  159MPD2    H5 2431   0.246   3.975  13.152 -0.5011  0.6839 -0.6125
  159MPD2    N1 2432   0.183   4.128  13.618 -0.2973  0.7283 -0.0948
  159MPD2    H7 2433   0.210   4.157  13.712  1.8600  0.2502 -0.5575
  160TMC2    C1 2434   0.163   1.851   1.190  0.3312 -0.8187  0.6628
  160TMC2    C2 2435   0.147   1.719   1.138 -0.5335  0.2624 -0.1422
  160TMC2    C3 2436   0.214   1.688   1.022 -0.0683 -0.4590 -0.2889
  160TMC2    C4 2437   0.244   1.942   1.132  0.2748 -0.6518  0.2313
  160TMC2    C5 2438   0.309   1.902   1.016  0.5893  0.1749  0.0819
  160TMC2    C6 2439   0.288   1.784   0.959  0.3073 -1.0425 -1.1111
  160TMC2     C 2440   0.067   1.892   1.291  0.3521 -0.1781  0.8460
  160TMC2     O 2441   0.025   1.809   1.372 -0.4137  0.0699  0.8058
  160TMC2     H 2442   0.097   1.648   1.203  0.8773 -2.3541 -1.9147
  160TMC2    H1 2443   0.238   2.049   1.148  1.0827 -0.1640 -2.6895
  160TMC2    H2 2444   0.347   1.762   0.871  2.1173  0.0602 -0.1779
  160TMC2    C7 2445   0.341   2.012   0.927  0.2538 -0.3658  0.3731
  160TMC2    C8 2446   0.188   1.560   0.954  0.6569  0.2289 -0.4262
  160TMC2    O1 2447   0.310   1.989   0.813 -0.2604  0.1432 -0.2730
  160TMC2    O2 2448   0.147   1.457   1.005  0.2309  0.6698 -0.6310
  160TMC2    O5 2449   0.211   1.568   0.823  0.5841  0.6267 -0.4314
  160TMC2    H5 2450   0.220   1.658   0.787  1.9271  0.6044 -0.1530
  161MPD2     C 2451   4.609   2.045   1.469  0.2107  0.0822 -0.0006
  161MPD2    C1 2452   4.648   2.087   1.343  0.5250  0.6848 -0.1600
  161MPD2    C2 2453   4.587   2.191   1.282  0.7692 -0.5220 -0.1682
  161MPD2    C3 2454   4.480   2.255   1.354  0.5274  0.6927  0.4157
  161MPD2    C4 2455   4.441   2.208   1.478 -0.1625  0.4537 -0.1222
  161MPD2    C5 2456   4.503   2.105   1.532 -0.0998  0.2036 -0.0636
  161MPD2     H 2457   4.607   2.217   1.179  1.4104  3.0452  0.8616
  161MPD2    H1 2458   4.366   2.253   1.542 -2.0344  0.0659 -2.0658
  161MPD2    H2 2459   4.651   1.960   1.522 -0.5281 -0.0025  0.4570
  161MPD2    H3 2460   4.471   2.069   1.629 -0.6701 -1.5536 -0.8982
  161MPD2     N 2461   4.393   2.352   1.304  0.1896 -0.1977 -0.3357
  161MPD2    H5 2462   4.325   2.392   1.369  0.2274 -0.8957  0.1244
  161MPD2    N1 2463   0.021   2.018   1.266  0.3632  0.0003 -0.3960
  161MPD2    H7 2464   0.039   2.052   1.172  0.8509  0.0090 -0.2994
  162TMC2    C1 2465   2.369   3.579   0.813  0.5917  0.7752 -0.8626
  162TMC2    C2 2466   2.255   3.530   0.771 -0.1848 -0.0856 -0.3225
  162TMC2    C3 2467   2.208   3.414   0.821  0.0775  0.3876  0.0636
  162TMC2    C4 2468   2.431   3.514   0.919  0.8229 -0.2591 -0.9314
  162TMC2    C5 2469   2.365   3.411   0.986  0.4820 -0.5117 -0.5618
  162TMC2    C6 2470   2.247   3.366   0.934  0.0530  0.7005  0.6297
  162TMC2     C 2471   2.443   3.682   0.748  0.3709  0.5240  0.3389
  162TMC2     O 2472   2.564   3.678   0.756  0.2541 -0.0362 -0.1016
  162TMC2     H 2473   2.208   3.582   0.688  0.4392  1.7545  0.4590
  162TMC2    H1 2474   2.519   3.563   0.959 -0.4334  0.1269  1.3939
  162TMC2    H2 2475   2.203   3.279   0.981 -1.6791  0.9824 -0.4431
  162TMC2    C7 2476   2.386   3.380   1.130  0.2539 -0.0122 -0.2700
  162TMC2    C8 2477   2.088   3.351   0.763  0.5172 -0.4013  0.6175
  162TMC2    O1 2478   2.280   3.336   1.182 -0.2105 -0.6798 -0.0635
  162TMC2    O2 2479   2.021   3.421   0.690  0.2197 -0.5038  0.4936
  162TMC2    O5 2480   2.107   3.223   0.748 -0.6742  0.4705  0.0459
  162TMC2    H5 2481   2.186   3.184   0.791 -0.7094  0.3372 -0.0090
  163MPD2     C 2482   2.506   4.024   0.367 -0.5629  0.1314 -0.1714
  163MPD2    C1 2483   2.598   3.981   0.468 -0.1565  0.6872 -0.4620
  163MPD2    C2 2484   2.552   3.895   0.570  0.0339  0.1207 -0.1512
  163MPD2    C3 2485   2.420   3.848   0.571  0.3128  0.0740  0.0484
  163MPD2    C4 2486   2.331   3.895   0.470 -0.7341  0.1858  0.0592
  163MPD2    C5 2487   2.375   3.978   0.372 -0.1570  0.1229  0.4696
  163MPD2     H 2488   2.622   3.858   0.644  0.3035  0.2877 -0.3205
  163MPD2    H1 2489   2.228   3.861   0.481 -0.4331 -0.7440  0.0241
  163MPD2    H2 2490   2.534   4.095   0.290  0.4297 -1.2404 -1.0746
  163MPD2    H3 2491   2.303   4.025   0.306 -0.7428 -0.3056  0.8035
  163MPD2     N 2492   2.365   3.767   0.671  0.0628  0.2023  0.8009
  163MPD2    H5 2493   2.264   3.756   0.670  0.2391 -1.3671  0.9305
  163MPD2    N1 2494   2.736   4.015   0.455 -0.1901  0.1480  0.2497
  163MPD2    H7 2495   2.754   4.079   0.378 -0.7635  0.3523  0.2842
  164TCq2    C1 2496   3.219   3.681  10.899  0.7614 -0.3062 -0.4588
  164TCq2    O2 2497   3.119   3.622  10.934  0.2471 -0.0351 -0.1438
  164TCq2    C2 2498   3.211   3.829  10.901 -0.7793 -0.7883  0.5953
  164TCq2    C3 2499   3.306   3.914  10.851  0.0929 -0.4801 -0.4761
  164TCq2    C4 2500   3.274   4.052  10.853 -0.5200  0.6906 -0.2771
  164TCq2    C5 2501   3.147   4.098  10.887  0.2017 -0.4360 -0.5027
  164TCq2    C6 2502   3.053   4.000  10.914 -0.1236 -0.5663  0.2159
  164TCq2    C7 2503   3.080   3.866  10.926  0.2228  0.1105  0.2981
  164TCq2    C8 2504   2.930   4.029  10.976 -0.3593 -0.3062  0.3627
  164TCq2    O4 2505   2.820   4.005  10.926 -0.0235 -0.6622  0.0945
  164TCq2    C9 2506   3.373   4.146  10.809  0.0844 -0.4450  0.2473
  164TCq2    O5 2507   3.485   4.102  10.777  0.3739  0.1557  0.0600
  164TCq2    O6 2508   3.346   4.266  10.828 -0.0869  0.3293  0.4183
  164TCq2    H2 2509   3.400   3.875  10.815  0.5132 -0.2236  0.3324
  164TCq2    H3 2510   3.114   4.201  10.876  3.5407  0.7489  0.6815
  164TCq2    H4 2511   2.998   3.810  10.971 -0.9033 -1.0863 -3.2704
  165MPD2     C 2512   4.638   4.614   2.073  0.6086  0.2738  0.3904
  165MPD2    C1 2513   4.600   4.702   1.967  0.7770  0.3231  0.3176
  165MPD2    C2 2514   4.678   0.089   1.945  0.0278 -0.0225  0.6126
  165MPD2    C3 2515   0.084   0.099   1.994 -0.3204  0.2860 -0.1785
  165MPD2    C4 2516   0.129   4.723   2.077 -1.0320 -1.1521  0.4710
  165MPD2    C5 2517   0.046   4.622   2.119 -0.1594 -0.9202  0.2594
  165MPD2     H 2518   4.649   0.165   1.873  2.6138 -2.1129 -2.6597
  165MPD2    H1 2519   0.230   0.002   2.116 -0.2734  1.3254 -1.6817
  165MPD2    H2 2520   4.569   4.542   2.115 -0.3846  0.5321 -0.8059
  165MPD2    H3 2521   0.094   4.555   2.190  0.9737  0.2490  0.6002
  165MPD2     N 2522   0.181   0.199   1.970  0.0511 -0.5206 -0.1865
  165MPD2    H5 2523   0.267   0.193   2.023 -0.6531  2.0700  1.2665
  165MPD2    N1 2524   4.473   4.681   1.915 -0.3329 -0.7745 -0.0121
  165MPD2    H7 2525   4.423   4.601   1.953 -0.5748 -0.5821  0.0779
  166TCq2    C1 2526   0.171   0.296   1.881 -0.0823  0.2501 -0.3599
  166TCq2    O2 2527   0.081   0.324   1.806  0.7163 -0.2219  0.9751
  166TCq2    C2 2528   0.272   0.397   1.902 -0.6133 -0.5453 -0.0854
  166TCq2    C3 2529   0.388   0.362   1.976 -0.4042 -0.1306 -0.2839
  166TCq2    C4 2530   0.501   0.430   1.961  0.3506  0.5704 -0.2646
  166TCq2    C5 2531   0.508   0.531   1.870 -0.5689  0.6840 -0.1017
  166TCq2    C6 2532   0.391   0.571   1.809 -0.5283 -0.3627 -0.2263
  166TCq2    C7 2533   0.273   0.507   1.825 -0.3108  0.2898  0.4132
  166TCq2    C8 2534   0.405   0.689   1.722 -0.3355 -0.3245  0.3371
  166TCq2    O4 2535   0.523   0.716   1.701  0.6052 -0.4714 -0.6033
  166TCq2    C9 2536   0.617   0.395   2.037 -0.3473  0.2628  0.1610
  166TCq2    O5 2537   0.607   0.324   2.141  0.3024 -0.7668 -0.8171
  166TCq2    O6 2538   0.720   0.460   2.026 -0.3584  0.2801  0.6997
  166TCq2    H2 2539   0.393   0.277   2.043 -0.8422  1.2221  1.4811
  166TCq2    H3 2540   0.603   0.581   1.859 -0.1429 -0.3876 -1.3069
  166TCq2    H4 2541   0.190   0.545   1.765 -0.3605 -0.4182  0.0301
  167TMC2    C1 2542   2.334   3.756  12.584  0.3023 -0.5704  0.0394
  167TMC2    C2 2543   2.239   3.769  12.675  0.3844  0.5690  0.0035
  167TMC2    C3 2544   2.214   3.655  12.751 -0.3090  0.1741  0.1912
  167TMC2    C4 2545   2.413   3.648  12.584  0.6434 -0.0827  0.1511
  167TMC2    C5 2546   2.389   3.539  12.656 -0.2843  1.0468 -0.7201
  167TMC2    C6 2547   2.281   3.545  12.739 -0.2836  0.1899 -0.1740
  167TMC2     C 2548   2.323   3.849  12.476  0.1689 -0.4967 -0.1783
  167TMC2     O 2549   2.265   3.957  12.489  0.3472 -1.1909  0.0403
  167TMC2     H 2550   2.163   3.846  12.682  0.4166  0.6729 -0.8591
  167TMC2    H1 2551   2.494   3.650  12.512 -0.1226  0.2612 -0.7180
  167TMC2    H2 2552   2.226   3.466  12.789  0.5225 -0.1389  0.1982
  167TMC2    C7 2553   2.435   3.404  12.620  0.4736  0.0368  0.0109
  167TMC2    C8 2554   2.095   3.661  12.841 -0.1370 -0.0036 -0.2439
  167TMC2    O1 2555   2.372   3.311  12.663  0.0061 -0.3815 -0.1237
  167TMC2    O2 2556   2.037   3.563  12.874  0.1202  0.5109 -0.4624
  167TMC2    O5 2557   2.096   3.769  12.917  0.0120  0.2190 -0.5334
  167TMC2    H5 2558   2.160   3.842  12.902 -0.3207  0.9170  1.3567
  168MPD2     C 2559   2.349   3.995  12.208  0.5709 -0.2769  0.0415
  168MPD2    C1 2560   2.418   3.878  12.245 -0.1610 -0.5864 -0.4953
  168MPD2    C2 2561   2.488   3.812  12.143 -0.3862  0.3730 -0.2734
  168MPD2    C3 2562   2.511   3.856  12.015  0.5586 -0.3755 -0.0566
  168MPD2    C4 2563   2.456   3.980  11.990 -0.3462  0.8738  0.6384
  168MPD2    C5 2564   2.378   4.046  12.084  0.1027 -0.3640 -0.3910
  168MPD2     H 2565   2.515   3.709  12.168 -0.7957 -0.3122 -2.6436
  168MPD2    H1 2566   2.469   4.037  11.898  4.7561 -2.9347 -1.0145
  168MPD2    H2 2567   2.292   4.057  12.276  3.2982  2.1519  0.1381
  168MPD2    H3 2568   2.344   4.145  12.055 -2.4861 -1.6266 -1.6910
  168MPD2     N 2569   2.555   3.790  11.903  0.4321 -0.0835  0.1872
  168MPD2    H5 2570   2.543   3.837  11.814 -2.8718 -0.5830  0.3704
  168MPD2    N1 2571   2.398   3.811  12.368  0.4054  0.3545  0.1972
  168MPD2    H7 2572   2.438   3.718  12.358  0.6448  0.3942  0.7805
  169MPD1     C 2573   1.424   1.794   9.894 -0.0762  0.2327 -0.5316
  169MPD1    C1 2574   1.296   1.838   9.890  1.0900  0.0515  0.1840
  169MPD1    C2 2575   1.277   1.950   9.807 -0.0365 -0.6199  0.0262
  169MPD1    C3 2576   1.384   2.022   9.758 -1.2130  0.7507 -0.6174
  169MPD1    C4 2577   1.514   1.973   9.773  0.1288 -0.1269 -0.0944
  169MPD1    C5 2578   1.524   1.857   9.840 -0.4200  0.5966 -0.4152
  169MPD1     H 2579   1.180   1.997   9.794 -1.4280 -3.0888  1.4933
  169MPD1    H1 2580   1.596   2.032   9.736 -0.3450 -0.1449 -1.1754
  169MPD1    H2 2581   1.446   1.696   9.935  2.8975  0.3954 -1.7377
  169MPD1    H3 2582   1.624   1.818   9.854 -0.3575  1.5884  1.9339
  169MPD1     N 2583   1.351   2.139   9.677  0.2751 -0.6341 -0.2388
  169MPD1    H5 2584   1.256   2.174   9.674  0.1465 -1.1028 -1.6990
  169MPD1    N1 2585   1.185   1.757   9.927  0.6480  0.2019  0.5878
  169MPD1    H6 2586   1.188   1.690  10.004  1.2008  0.3843  0.7250
  169MPD1    H7 2587   1.105   1.818   9.945  2.3057  2.1661  1.2888
  170MPD1     C 2588   4.208   1.062  12.609 -0.0329 -0.3370 -1.0423
  170MPD1    C1 2589   4.148   1.186  12.573  0.5700 -0.2314  0.3136
  170MPD1    C2 2590   4.098   1.257  12.679  0.4444  0.5192  0.6471
  170MPD1    C3 2591   4.097   1.213  12.810  0.0525 -0.0434 -0.1897
  170MPD1    C4 2592   4.145   1.081  12.834 -0.8756 -0.0805 -0.3035
  170MPD1    C5 2593   4.201   1.005  12.732  0.2527  0.3314 -0.9640
  170MPD1     H 2594   4.060   1.357  12.663  1.2937  0.5292 -1.3595
  170MPD1    H1 2595   4.148   1.035  12.932 -1.8072  0.1352 -0.1801
  170MPD1    H2 2596   4.252   0.988  12.543  1.3644 -1.7471  1.4571
  170MPD1    H3 2597   4.243   0.907  12.753  2.5482  0.9602 -2.6322
  170MPD1     N 2598   4.066   1.301  12.921 -0.2188  0.5677  0.3564
  170MPD1    H5 2599   4.039   1.395  12.893 -0.6220  0.2276 -0.3968
  170MPD1    N1 2600   4.170   1.246  12.442  0.0812 -0.1958 -0.3147
  170MPD1    H6 2601   4.176   1.175  12.369  3.1773 -0.5296  0.2623
  170MPD1    H7 2602   4.109   1.322  12.413 -0.2762 -0.9355 -1.5314
  171MPD1     C 2603   2.583   2.854  15.312 -0.0763 -0.2083  0.2312
  171MPD1    C1 2604   2.680   2.753  15.289  0.9411  0.0705  0.0559
  171MPD1    C2 2605   2.634   2.630  15.254  0.5375  0.1548 -0.1388
  171MPD1    C3 2606   2.507   2.608  15.205 -0.3810 -0.3751  0.3918
  171MPD1    C4 2607   2.413   2.707  15.213  0.0928  0.2076  0.3926
  171MPD1    C5 2608   2.455   2.826  15.271  0.6919 -0.1862  0.1207
  171MPD1     H 2609   2.702   2.546  15.262  1.1431  0.6199 -0.4085
  171MPD1    H1 2610   2.306   2.688  15.205  0.3409 -0.4651 -1.1821
  171MPD1    H2 2611   2.616   2.953  15.340  0.0730  0.6790 -3.0537
  171MPD1    H3 2612   2.384   2.906  15.288  0.1128 -0.6244 -0.2354
  171MPD1     N 2613   2.467   2.475  15.158  0.3485  0.4300 -0.0676
  171MPD1    H5 2614   2.370   2.465  15.130 -0.7062  4.0357  2.2216
  171MPD1    N1 2615   2.813   2.779  15.338  0.3100  0.0873  0.1867
  171MPD1    H6 2616   2.876   2.707  15.302  0.7063  1.0087 -0.9618
  171MPD1    H7 2617   2.851   2.868  15.306  0.4649  0.2365  0.7869
  172MPD1     C 2618   1.712   2.052   0.214  0.3057  0.4530 -0.1992
  172MPD1    C1 2619   1.643   2.130   0.303 -0.0441  0.1330  0.2215
  172MPD1    C2 2620   1.626   2.259   0.270  0.1216 -0.5061 -0.2678
  172MPD1    C3 2621   1.649   2.311   0.140 -0.5782  0.2631 -0.0182
  172MPD1    C4 2622   1.709   2.226   0.044  0.2980  0.1436  0.4757
  172MPD1    C5 2623   1.735   2.101   0.088  0.0620  0.0125 -0.5719
  172MPD1     H 2624   1.566   2.312   0.343 -1.4606 -0.4465 -1.6146
  172MPD1    H1 2625   1.744   2.268  17.648 -0.3976 -0.6463 -0.1439
  172MPD1    H2 2626   1.735   1.948   0.233 -0.7708  0.2236 -0.1797
  172MPD1    H3 2627   1.790   2.044   0.013 -1.0750 -1.6365 -0.1558
  172MPD1     N 2628   1.620   2.442   0.098 -0.6589 -0.8047  0.7847
  172MPD1    H5 2629   1.627   2.459  17.696  0.2743  2.5413  1.4087
  172MPD1    N1 2630   1.604   2.088   0.428 -0.1405  0.1427  0.0948
  172MPD1    H6 2631   1.536   2.138   0.485 -0.0127  0.0273  0.3487
  172MPD1    H7 2632   1.589   1.988   0.431 -2.9236  0.5201 -1.3854
  173MPD1     C 2633   2.916   1.904  13.999 -0.9105  0.3123 -0.8052
  173MPD1    C1 2634   2.910   1.793  13.928  0.4820 -0.4834 -0.4271
  173MPD1    C2 2635   2.868   1.675  13.987 -0.5226 -0.2514  0.3737
  173MPD1    C3 2636   2.828   1.673  14.120 -0.6537  0.2995  0.0388
  173MPD1    C4 2637   2.849   1.788  14.199  0.1094 -0.3677  0.0579
  173MPD1    C5 2638   2.895   1.898  14.137 -0.0655 -0.0875  0.3873
  173MPD1     H 2639   2.857   1.582  13.933  2.2404  1.8922 -3.8174
  173MPD1    H1 2640   2.824   1.794  14.304 -0.0765  2.4577 -0.1504
  173MPD1    H2 2641   2.943   1.998  13.952 -0.5744  0.9833  0.7346
  173MPD1    H3 2642   2.898   1.986  14.201 -0.6424 -0.0790  0.4044
  173MPD1     N 2643   2.771   1.556  14.178 -0.2639 -0.1877 -0.4347
  173MPD1    H5 2644   2.755   1.479  14.115  0.2600 -0.0082 -0.7864
  173MPD1    N1 2645   2.926   1.796  13.788  0.0883 -0.3788  0.4217
  173MPD1    H6 2646   2.954   1.704  13.756 -1.7393 -1.7415  2.7352
  173MPD1    H7 2647   2.987   1.871  13.755 -2.3515  1.4126 -0.0506
  174MPD1     C 2648   2.334   0.744  13.916 -0.6666  0.0726  0.2635
  174MPD1    C1 2649   2.292   0.869  13.888 -0.2528  0.1005  0.3585
  174MPD1    C2 2650   2.329   0.972  13.977  0.4757  0.1325  0.0666
  174MPD1    C3 2651   2.383   0.935  14.097 -0.0651  0.7877  0.9385
  174MPD1    C4 2652   2.413   0.808  14.128 -0.3529  0.0688 -0.1336
  174MPD1    C5 2653   2.384   0.714  14.038  0.4611 -0.1367  0.0266
  174MPD1     H 2654   2.306   1.076  13.958  1.5083  0.4492  0.5977
  174MPD1    H1 2655   2.473   0.779  14.214 -0.3340 -1.0338 -0.5187
  174MPD1    H2 2656   2.311   0.667  13.842  0.9514 -1.4058  1.2960
  174MPD1    H3 2657   2.396   0.612  14.074  0.6533  0.0851  0.5854
  174MPD1     N 2658   2.436   1.032  14.188 -0.0899  0.4763  0.5267
  174MPD1    H5 2659   2.488   0.993  14.266 -1.3596 -0.8914  0.7081
  174MPD1    N1 2660   2.239   0.910  13.761  0.7273  0.0688 -0.7404
  174MPD1    H6 2661   2.189   0.999  13.761 -1.8847 -1.4019 -1.0601
  174MPD1    H7 2662   2.180   0.840  13.717 -1.0955  0.6651  0.7534
  175MPD1     C 2663   0.885   2.573  15.004 -0.5174  0.4643  0.0184
  175MPD1    C1 2664   0.802   2.532  15.105  0.0236  0.6950 -0.7210
  175MPD1    C2 2665   0.849   2.523  15.238 -0.6424 -0.7449  0.8027
  175MPD1    C3 2666   0.980   2.574  15.263  0.1369 -1.3442 -0.2686
  175MPD1    C4 2667   1.062   2.610  15.159 -0.4140  0.1802  0.3897
  175MPD1    C5 2668   1.010   2.614  15.032 -0.3339 -0.1595  0.0511
  175MPD1     H 2669   0.779   2.490  15.314 -0.7035 -0.2978  0.9371
  175MPD1    H1 2670   1.162   2.643  15.184 -1.4313  2.4282  1.5011
  175MPD1    H2 2671   0.854   2.575  14.900  0.4117 -2.9302 -0.3382
  175MPD1    H3 2672   1.070   2.658  14.953  0.7701  0.0162  0.9797
  175MPD1     N 2673   1.038   2.564  15.390  0.5276  0.5907  0.1988
  175MPD1    H5 2674   1.135   2.593  15.398  0.3860  1.1154  0.0528
  175MPD1    N1 2675   0.673   2.482  15.080 -0.2089 -0.5118  0.0575
  175MPD1    H6 2676   0.629   2.540  15.008 -0.4873  1.3167  1.7061
  175MPD1    H7 2677   0.606   2.466  15.155 -0.2371  1.8589  0.5363
  176MPD1     C 2678   2.812   4.085  16.358  0.4494  0.9868 -0.5815
  176MPD1    C1 2679   2.737   4.201  16.347 -0.2060  0.6117 -0.0840
  176MPD1    C2 2680   2.716   4.276  16.467  0.1975  0.1129 -0.2642
  176MPD1    C3 2681   2.779   4.244  16.585  0.2583 -0.6247  0.6950
  176MPD1    C4 2682   2.861   4.128  16.586 -0.2616  0.1600  0.1478
  176MPD1    C5 2683   2.874   4.050  16.476  0.1424 -0.8718  0.0779
  176MPD1     H 2684   2.647   4.359  16.464  2.1152  1.7422  0.6131
  176MPD1    H1 2685   2.912   4.090  16.674 -1.4500  2.6374  1.8836
  176MPD1    H2 2686   2.818   4.017  16.273 -0.0059  0.6513 -0.3450
  176MPD1    H3 2687   2.942   3.966  16.482  2.1784  0.7956  0.2624
  176MPD1     N 2688   2.758   4.320  16.703  0.1684 -0.5964  0.2854
  176MPD1    H5 2689   2.695   4.399  16.687 -1.8263 -2.4124 -0.8013
  176MPD1    N1 2690   2.648   4.221  16.235  0.3264 -0.2553 -0.2355
  176MPD1    H6 2691   2.700   4.182  16.157 -0.0230 -0.4434 -0.3751
  176MPD1    H7 2692   2.660   4.319  16.208 -2.4644  0.2272  0.2458
  177MPD1     C 2693   1.744   3.111  10.158 -0.2435  0.3732 -0.6470
  177MPD1    C1 2694   1.743   3.138  10.025  0.0762  0.7446 -0.4075
  177MPD1    C2 2695   1.647   3.223   9.978  0.8468  0.0928 -0.1576
  177MPD1    C3 2696   1.546   3.288  10.055  0.1918  0.4768  0.5252
  177MPD1    C4 2697   1.557   3.257  10.189  0.3550  0.2812 -0.0888
  177MPD1    C5 2698   1.652   3.175  10.239  0.2884  0.3090  0.0160
  177MPD1     H 2699   1.652   3.245   9.872  1.9629  1.6790  0.2187
  177MPD1    H1 2700   1.490   3.291  10.266 -0.9661 -0.6970 -0.8050
  177MPD1    H2 2701   1.824   3.048  10.194 -2.8116 -3.0438 -0.8707
  177MPD1    H3 2702   1.643   3.150  10.344 -0.5790 -1.4548 -0.4875
  177MPD1     N 2703   1.453   3.386  10.010 -0.0244 -1.0322 -0.7064
  177MPD1    H5 2704   1.446   3.404   9.910 -0.2490 -0.2627 -0.5509
  177MPD1    N1 2705   1.850   3.091   9.944 -0.2394  0.0051 -0.2171
  177MPD1    H6 2706   1.830   3.098   9.844 -0.1431 -0.0907 -0.2432
  177MPD1    H7 2707   1.870   2.993   9.963  0.0076  0.2769  0.9021
  178MPD1     C 2708   3.593   0.372   0.209 -0.6789  0.2924 -0.4457
  178MPD1    C1 2709   3.711   0.443   0.201  0.2421 -0.0175  0.5184
  178MPD1    C2 2710   3.756   0.468   0.074  0.2574  0.3915  0.7056
  178MPD1    C3 2711   3.682   0.420  17.663  0.6617  0.4743 -0.3108
  178MPD1    C4 2712   3.569   0.348  17.671  0.0870 -0.1098 -1.1570
  178MPD1    C5 2713   3.520   0.333   0.102  0.1100  0.4283  0.3275
  178MPD1     H 2714   3.849   0.523   0.064 -1.2407  3.0537  1.3888
  178MPD1    H1 2715   3.516   0.325  17.578 -0.3806  0.4870 -1.0409
  178MPD1    H2 2716   3.557   0.355   0.310 -0.5169 -2.7103 -0.8880
  178MPD1    H3 2717   3.421   0.289   0.108 -0.4813  1.5353 -1.1592
  178MPD1     N 2718   3.731   0.434  17.531  1.0181 -0.0425  0.7369
  178MPD1    H5 2719   3.693   0.373  17.458  1.7543 -1.4021  1.4873
  178MPD1    N1 2720   3.773   0.497   0.314  0.3386  0.9197 -0.2592
  178MPD1    H6 2721   3.764   0.448   0.403  0.2061  1.4450  0.0188
  178MPD1    H7 2722   3.874   0.504   0.300  0.3951  1.4222  0.4008
  179MPD1     C 2723   2.822   3.735  16.154 -0.2155 -0.0481  0.8171
  179MPD1    C1 2724   2.740   3.707  16.048  0.2984  0.5822  0.8534
  179MPD1    C2 2725   2.778   3.613  15.952  0.0337  0.2779  0.0864
  179MPD1    C3 2726   2.902   3.554  15.953 -0.6074  0.0235  0.3649
  179MPD1    C4 2727   2.986   3.596  16.047 -0.2986  0.7736  0.3645
  179MPD1    C5 2728   2.941   3.676  16.150 -0.0141  0.2940 -0.1228
  179MPD1     H 2729   2.712   3.589  15.869 -0.5682  1.4997  0.2000
  179MPD1    H1 2730   3.084   3.552  16.061 -0.0258  1.1889 -0.2229
  179MPD1    H2 2731   2.796   3.802  16.236 -1.4930  0.4966 -0.0299
  179MPD1    H3 2732   3.013   3.697  16.228 -1.3757  2.1977  0.6181
  179MPD1     N 2733   2.947   3.446  15.866 -0.0349 -0.0796 -0.4748
  179MPD1    H5 2734   3.031   3.402  15.902  0.0697  1.5616  1.3147
  179MPD1    N1 2735   2.635   3.793  16.015 -0.0589  0.0383 -0.0760
  179MPD1    H6 2736   2.616   3.830  16.108  3.1396 -0.2545  0.6669
  179MPD1    H7 2737   2.551   3.744  15.983 -0.2002  1.0602 -1.2957
  180MPD1     C 2738   2.992   4.362  15.200  0.3206 -0.4955  0.3374
  180MPD1    C1 2739   3.034   4.291  15.093  0.7991 -0.4336 -1.2418
  180MPD1    C2 2740   2.994   4.327  14.967 -0.0220 -0.1083  0.8715
  180MPD1    C3 2741   2.901   4.416  14.951  0.5703  0.3945 -0.7304
  180MPD1    C4 2742   2.858   4.493  15.060 -0.0282 -0.7801  0.4073
  180MPD1    C5 2743   2.904   4.459  15.185  0.3045  0.1211  0.6469
  180MPD1     H 2744   3.022   4.263  14.884  0.1851  0.0331  0.8320
  180MPD1    H1 2745   2.803   4.586  15.053 -0.8633 -1.2193  1.0235
  180MPD1    H2 2746   3.041   4.347  15.295 -0.6813 -0.4605  0.8582
  180MPD1    H3 2747   2.878   4.514  15.275  1.1262  1.2804  0.1827
  180MPD1     N 2748   2.862   4.448  14.819  0.2791  0.5939  0.1872
  180MPD1    H5 2749   2.905   4.396  14.743 -2.2325 -1.9182  0.4536
  180MPD1    N1 2750   3.140   4.203  15.099  0.1558  0.4784 -0.0736
  180MPD1    H6 2751   3.170   4.151  15.017  0.6710 -2.3418  1.9029
  180MPD1    H7 2752   3.173   4.166  15.188 -0.1562  0.7018  0.1347
  181MPD1     C 2753   4.212   0.675  10.342 -0.2493 -1.2305 -0.2366
  181MPD1    C1 2754   4.237   0.767  10.435  0.5326  0.0821 -0.3384
  181MPD1    C2 2755   4.336   0.862  10.414 -0.5126 -0.0702  0.2557
  181MPD1    C3 2756   4.418   0.854  10.305 -0.1336 -0.2764  0.0553
  181MPD1    C4 2757   4.396   0.748  10.213 -0.3261  0.2665  0.2327
  181MPD1    C5 2758   4.296   0.655  10.235  0.0713 -0.1346 -0.3978
  181MPD1     H 2759   4.352   0.938  10.490 -1.5182  1.5702 -1.1574
  181MPD1    H1 2760   4.462   0.731  10.129 -1.8909  1.1461 -1.1644
  181MPD1    H2 2761   4.144   0.592  10.359 -1.1540 -0.1734  1.3645
  181MPD1    H3 2762   4.285   0.582  10.155  0.4059 -0.2711 -0.3212
  181MPD1     N 2763   4.514   0.959  10.278 -0.3641  0.3910  0.3354
  181MPD1    H5 2764   4.581   0.931  10.206  1.5693  0.8736  1.9321
  181MPD1    N1 2765   4.147   0.781  10.544  0.5683 -0.4816 -0.0427
  181MPD1    H6 2766   4.097   0.695  10.568  0.0723  0.1452  1.1628
  181MPD1    H7 2767   4.178   0.833  10.626  0.5000  2.3415 -1.7941
  182MPD1     C 2768   1.322   0.308   0.300  0.1227 -0.4806  0.6388
  182MPD1    C1 2769   1.218   0.297   0.394 -0.3108 -0.1029 -0.8117
  182MPD1    C2 2770   1.153   0.420   0.412  0.5158 -0.2255 -0.2444
  182MPD1    C3 2771   1.206   0.541   0.358  0.0473  0.1092  0.0100
  182MPD1    C4 2772   1.313   0.539   0.274 -0.3190  0.3953  0.0674
  182MPD1    C5 2773   1.372   0.421   0.248  0.3076 -0.2969 -0.4343
  182MPD1     H 2774   1.056   0.413   0.460  0.0412  1.9405 -0.8440
  182MPD1    H1 2775   1.360   0.634   0.248 -0.7146  0.9360  1.3059
  182MPD1    H2 2776   1.380   0.222   0.269  1.0122  0.0318  0.8884
  182MPD1    H3 2777   1.450   0.415   0.173  0.8779 -1.5361  0.2549
  182MPD1     N 2778   1.144   0.663   0.381 -0.6267  0.1459  0.3219
  182MPD1    H5 2779   1.182   0.740   0.327  0.1258  0.1756  0.8796
  182MPD1    N1 2780   1.180   0.163   0.422 -0.0754 -0.0786 -0.3223
  182MPD1    H6 2781   1.258   0.097   0.419  1.3782  1.6469 -0.6298
  182MPD1    H7 2782   1.141   0.149   0.515  1.9321 -0.4612  0.4746
  183MPD1     C 2783   0.564   0.167   9.129 -0.2878 -0.3453  0.1015
  183MPD1    C1 2784   0.641   0.162   9.241  0.4321  0.5055  0.0184
  183MPD1    C2 2785   0.643   0.275   9.323 -0.3471  0.1421  0.0827
  183MPD1    C3 2786   0.608   0.401   9.278 -0.6547  0.1259 -0.8999
  183MPD1    C4 2787   0.538   0.401   9.159  0.4075  0.1213 -0.6994
  183MPD1    C5 2788   0.514   0.288   9.087  0.3994 -0.0923  0.4273
  183MPD1     H 2789   0.704   0.271   9.412 -2.0006  0.6692  1.2333
  183MPD1    H1 2790   0.519   0.490   9.101  0.4618  0.7534  0.2546
  183MPD1    H2 2791   0.558   0.077   9.069  0.0159  2.1205 -3.6885
  183MPD1    H3 2792   0.463   0.288   8.991  1.4655  1.2178 -0.1322
  183MPD1     N 2793   0.644   0.511   9.363  0.1766  0.3510  0.1052
  183MPD1    H5 2794   0.687   0.493   9.453 -0.5402  2.8660  0.9474
  183MPD1    N1 2795   0.674   0.039   9.291 -0.5857  0.0015 -0.0921
  183MPD1    H6 2796   0.710   4.699   9.221  1.3783  0.9186  0.1018
  183MPD1    H7 2797   0.752   0.055   9.354 -0.1755 -2.3214  0.0089
  184MPD1     C 2798   0.856   2.597  10.240  0.3018 -0.1678 -0.1909
  184MPD1    C1 2799   0.772   2.698  10.273 -0.1232 -0.7371 -0.6588
  184MPD1    C2 2800   0.768   2.808  10.191  0.4279  0.0562 -0.2772
  184MPD1    C3 2801   0.843   2.814  10.070 -0.2545 -0.3788  0.0263
  184MPD1    C4 2802   0.912   2.701  10.025  0.5288  0.1654  0.0200
  184MPD1    C5 2803   0.916   2.601  10.115  0.5875  1.2040 -0.8179
  184MPD1     H 2804   0.735   2.903  10.230  1.2247  1.0956 -2.0990
  184MPD1    H1 2805   0.961   2.686   9.930  0.6089 -2.8074  0.4986
  184MPD1    H2 2806   0.865   2.511  10.306 -0.5028 -1.2557 -1.4957
  184MPD1    H3 2807   0.978   2.515  10.089  0.6691  1.1878 -0.5703
  184MPD1     N 2808   0.828   2.919   9.982 -0.1801  0.4622  0.3727
  184MPD1    H5 2809   0.881   2.904   9.897 -0.3576  0.5315  0.2500
  184MPD1    N1 2810   0.716   2.701  10.402 -0.0432  0.1352 -0.1380
  184MPD1    H6 2811   0.722   2.605  10.435 -0.9126  0.2295  0.3071
  184MPD1    H7 2812   0.764   2.759  10.471 -3.5598  2.5909  0.2742
  185MPD1     C 2813   0.533   2.875   9.161 -0.1705 -0.2541 -0.2738
  185MPD1    C1 2814   0.548   3.012   9.175  0.7462 -0.1840 -0.0397
  185MPD1    C2 2815   0.604   3.055   9.297 -0.2379 -0.0192 -0.2555
  185MPD1    C3 2816   0.606   2.983   9.416  0.1037 -0.2766  0.0233
  185MPD1    C4 2817   0.578   2.844   9.399 -0.3519 -0.7268 -0.4165
  185MPD1    C5 2818   0.536   2.792   9.275 -0.1288 -0.7797 -0.2225
  185MPD1     H 2819   0.632   3.160   9.304 -0.2254 -0.1380  1.4812
  185MPD1    H1 2820   0.552   2.786   9.487 -0.9731 -0.6606 -0.5542
  185MPD1    H2 2821   0.502   2.824   9.070  3.3032  0.5581 -1.9135
  185MPD1    H3 2822   0.516   2.686   9.271  1.3630 -0.9493 -3.2850
  185MPD1     N 2823   0.629   3.037   9.547 -0.3463 -0.4669  0.8455
  185MPD1    H5 2824   0.642   2.973   9.624  0.4128 -1.3432 -0.0052
  185MPD1    N1 2825   0.557   3.080   9.054 -0.1235  0.2906 -0.2606
  185MPD1    H6 2826   0.491   3.049   8.982  1.2319 -1.0168 -0.9577
  185MPD1    H7 2827   0.546   3.180   9.068 -3.5271 -0.0519 -0.4987
  186MPD1     C 2828   3.635   3.279  15.471  0.2226  0.3612  0.3373
  186MPD1    C1 2829   3.542   3.265  15.572  0.1567 -0.0556  0.0404
  186MPD1    C2 2830   3.519   3.373  15.656  0.1551 -0.0349  0.2370
  186MPD1    C3 2831   3.585   3.490  15.655  0.2725  0.4454 -0.0072
  186MPD1    C4 2832   3.685   3.489  15.571  0.1599  0.2739 -0.3439
  186MPD1    C5 2833   3.716   3.386  15.484 -0.0905  0.0469 -0.0682
  186MPD1     H 2834   3.433   3.358  15.721 -0.1748 -0.5733 -0.3246
  186MPD1    H1 2835   3.740   3.581  15.555 -0.5608  0.7297 -0.2055
  186MPD1    H2 2836   3.648   3.192  15.407 -1.4228  0.9934 -0.8539
  186MPD1    H3 2837   3.803   3.405  15.422 -0.5173  2.3021  0.0314
  186MPD1     N 2838   3.558   3.608  15.740  0.1098 -0.1214  0.2275
  186MPD1    H5 2839   3.613   3.690  15.717 -1.3553  0.8392  0.1849
  186MPD1    N1 2840   3.443   3.165  15.571  0.4752 -0.3193  0.1586
  186MPD1    H6 2841   3.403   3.151  15.664  1.2494  3.3300  1.0456
  186MPD1    H7 2842   3.466   3.078  15.523  0.8847  1.1918 -2.3347
  187MPD1     C 2843   2.701   0.773   0.730  0.6342 -0.6959  0.0916
  187MPD1    C1 2844   2.830   0.747   0.682  0.2595  0.6958  0.4140
  187MPD1    C2 2845   2.854   0.763   0.544  0.9386  0.0606 -0.0688
  187MPD1    C3 2846   2.751   0.789   0.462 -0.7563  0.4644  0.6824
  187MPD1    C4 2847   2.626   0.800   0.512 -0.5296  0.4848 -0.0317
  187MPD1    C5 2848   2.598   0.789   0.645  0.4868 -0.2115 -0.8857
  187MPD1     H 2849   2.953   0.751   0.503  0.3384 -0.3146 -1.3815
  187MPD1    H1 2850   2.540   0.835   0.456 -2.8336  0.1248  3.2852
  187MPD1    H2 2851   2.679   0.789   0.835  1.1957  1.8289 -0.1803
  187MPD1    H3 2852   2.501   0.795   0.692 -0.5656 -1.4941 -2.9095
  187MPD1     N 2853   2.787   0.827   0.326  0.2666  0.1384 -0.0859
  187MPD1    H5 2854   2.886   0.847   0.316 -0.0991  1.6204 -0.6399
  187MPD1    N1 2855   2.933   0.745   0.772  0.1755 -0.0579  0.1996
  187MPD1    H6 2856   3.015   0.694   0.739  0.4418  0.9955 -0.7572
  187MPD1    H7 2857   2.907   0.709   0.864 -1.3669 -0.7922 -0.5314
  188MPD1     C 2858   3.362   0.208   9.552  0.2937  0.0769  0.0964
  188MPD1    C1 2859   3.346   0.171   9.684  0.3756  1.4595 -0.1358
  188MPD1    C2 2860   3.268   0.060   9.717  0.5397 -0.4856 -0.0757
  188MPD1    C3 2861   3.212   4.700   9.622 -0.0657 -0.2514  0.0278
  188MPD1    C4 2862   3.258   0.001   9.493 -0.0339  0.4228  0.2384
  188MPD1    C5 2863   3.323   0.118   9.456  0.2199  0.2392  0.0243
  188MPD1     H 2864   3.244   0.042   9.821 -0.3900  2.0973  0.1608
  188MPD1    H1 2865   3.237   4.656   9.412  1.3196  1.3883 -0.9295
  188MPD1    H2 2866   3.398   0.307   9.526 -0.5160 -0.0818 -1.6371
  188MPD1    H3 2867   3.355   0.134   9.354  1.1885 -1.0146  0.1168
  188MPD1     N 2868   3.134   4.587   9.650 -0.0402 -0.0113 -0.1885
  188MPD1    H5 2869   3.114   4.544   9.560 -1.7008 -2.1128  1.1728
  188MPD1    N1 2870   3.400   0.263   9.784 -0.0523 -0.2107  0.2291
  188MPD1    H6 2871   3.487   0.303   9.749 -1.2918  2.1179 -0.1780
  188MPD1    H7 2872   3.417   0.208   9.868  0.8510 -0.2811 -0.0002
  189MPD1     C 2873   3.808   0.804   0.805  0.0441  0.0442 -0.2001
  189MPD1    C1 2874   3.747   0.717   0.714  0.2509 -0.0581 -0.0084
  189MPD1    C2 2875   3.676   0.768   0.609 -0.1803 -0.5011 -0.1398
  189MPD1    C3 2876   3.656   0.900   0.593 -0.2480 -0.8689 -0.1142
  189MPD1    C4 2877   3.705   0.984   0.691 -0.6840 -0.5474 -0.6922
  189MPD1    C5 2878   3.780   0.940   0.789  0.3779 -0.3289 -0.1277
  189MPD1     H 2879   3.634   0.696   0.539  0.7210 -0.5922 -0.5819
  189MPD1    H1 2880   3.686   1.091   0.695  2.0250 -0.0876 -0.4129
  189MPD1    H2 2881   3.887   0.777   0.874 -0.7064 -1.4387  0.0648
  189MPD1    H3 2882   3.809   1.014   0.863  0.7936 -1.3463  0.7345
  189MPD1     N 2883   3.586   0.955   0.479 -0.2345  0.0578  0.0278
  189MPD1    H5 2884   3.553   0.891   0.407  0.7360 -0.3837 -0.0318
  189MPD1    N1 2885   3.768   0.580   0.722  0.9508 -0.4426 -0.0809
  189MPD1    H6 2886   3.695   0.533   0.670  1.1665  0.8958 -1.6118
  189MPD1    H7 2887   3.775   0.545   0.817  1.6793  0.8604  0.3497
  190MPD1     C 2888   3.387   0.882  15.353  0.3153 -0.4502 -0.3567
  190MPD1    C1 2889   3.510   0.819  15.353 -0.2841  0.2885  0.3579
  190MPD1    C2 2890   3.499   0.680  15.379 -0.0989  0.3479  0.3102
  190MPD1    C3 2891   3.381   0.618  15.408 -0.1021 -0.4789  0.0864
  190MPD1    C4 2892   3.258   0.682  15.419  0.1531  0.6886 -0.1402
  190MPD1    C5 2893   3.273   0.817  15.392  0.2319 -0.2712  0.6625
  190MPD1     H 2894   3.590   0.622  15.371  0.0438  0.8542 -1.7412
  190MPD1    H1 2895   3.161   0.635  15.431  0.5676 -0.3880 -1.0718
  190MPD1    H2 2896   3.370   0.988  15.336  0.4864 -0.4873 -0.7446
  190MPD1    H3 2897   3.176   0.866  15.388  0.0073 -0.7313  0.5161
  190MPD1     N 2898   3.390   0.482  15.417  0.2016 -0.1984  0.2468
  190MPD1    H5 2899   3.481   0.437  15.412  0.3592 -0.0130  1.3747
  190MPD1    N1 2900   3.625   0.877  15.298 -0.2840 -0.5929  1.0656
  190MPD1    H6 2901   3.618   0.978  15.312  1.8183 -0.7152  3.0717
  190MPD1    H7 2902   3.708   0.840  15.345 -0.5067 -3.9805 -1.2129
  191MPD1     C 2903   2.980   1.248  13.049  0.1081 -0.1868  0.2648
  191MPD1    C1 2904   2.919   1.313  13.152  0.8002  0.2911 -0.4266
  191MPD1    C2 2905   2.862   1.431  13.131 -0.4680  0.5056  0.3102
  191MPD1    C3 2906   2.866   1.482  13.006  0.3995 -0.4707 -0.2767
  191MPD1    C4 2907   2.913   1.414  12.895  1.1761  0.2702  0.4213
  191MPD1    C5 2908   2.976   1.295  12.922 -0.7521  0.4698  0.3466
  191MPD1     H 2909   2.808   1.482  13.210 -1.7653  0.9224 -0.8554
  191MPD1    H1 2910   2.899   1.446  12.792 -1.2124  1.2347  1.0492
  191MPD1    H2 2911   3.020   1.149  13.067  0.6243  0.4126  2.3446
  191MPD1    H3 2912   3.023   1.239  12.841 -2.3816  1.6962 -1.4498
  191MPD1     N 2913   2.818   1.615  12.994  0.0665 -0.1312  0.7895
  191MPD1    H5 2914   2.763   1.655  13.069  0.4331 -2.8815  2.5435
  191MPD1    N1 2915   2.904   1.243  13.275 -0.3826 -0.2297 -0.3208
  191MPD1    H6 2916   2.816   1.257  13.323 -0.4386  1.3779 -0.8880
  191MPD1    H7 2917   2.932   1.145  13.270 -1.3265 -0.5836  1.2213
  192MPD1     C 2918   1.903   1.690  12.817 -0.1758  0.2588  0.0529
  192MPD1    C1 2919   1.952   1.726  12.936  0.4303  0.2899 -0.6809
  192MPD1    C2 2920   2.081   1.789  12.941 -0.8825 -0.3802  0.2277
  192MPD1    C3 2921   2.159   1.785  12.824  0.2799 -0.7448 -0.3068
  192MPD1    C4 2922   2.105   1.743  12.705  0.4461 -0.0286 -0.1231
  192MPD1    C5 2923   1.978   1.692  12.704  0.0934  0.1047 -0.0160
  192MPD1     H 2924   2.120   1.832  13.032  1.4522 -0.2526 -0.8416
  192MPD1    H1 2925   2.162   1.733  12.614 -1.6975 -2.3949 -1.1849
  192MPD1    H2 2926   1.799   1.659  12.812 -0.2367  1.1772 -4.2618
  192MPD1    H3 2927   1.934   1.660  12.610  3.2026 -0.3995 -1.2707
  192MPD1     N 2928   2.288   1.835  12.819 -0.0910  0.0741  0.0138
  192MPD1    H5 2929   2.321   1.827  12.723 -1.4279 -3.4883 -0.1767
  192MPD1    N1 2930   1.856   1.736  13.040  0.3188 -0.1533  0.0210
  192MPD1    H6 2931   1.899   1.700  13.125 -1.6309 -3.2007 -0.3066
  192MPD1    H7 2932   1.774   1.677  13.035 -0.4885  0.7887  2.1521
  193MPD1     C 2933   1.895   2.058  16.099  0.5992 -1.1489  0.2490
  193MPD1    C1 2934   2.028   2.034  16.071 -0.1011 -0.0226  0.5078
  193MPD1    C2 2935   2.115   2.020  16.177  0.4403  0.5776  0.2291
  193MPD1    C3 2936   2.081   2.053  16.309 -0.8038 -0.0558 -0.1169
  193MPD1    C4 2937   1.947   2.095  16.327  0.1150  0.0543  0.3282
  193MPD1    C5 2938   1.860   2.100  16.224 -0.0829  0.1373  0.6318
  193MPD1     H 2939   2.219   1.999  16.156  1.0977  0.1657  3.8421
  193MPD1    H1 2940   1.910   2.136  16.421 -2.1778 -1.2166 -0.0145
  193MPD1    H2 2941   1.817   2.073  16.024 -1.2866 -2.8495  1.8780
  193MPD1    H3 2942   1.762   2.141  16.245 -0.4628 -0.3042 -0.2774
  193MPD1     N 2943   2.177   2.063  16.406 -0.4130  0.2581 -0.6056
  193MPD1    H5 2944   2.142   2.103  16.493  0.3121  0.7593 -0.5398
  193MPD1    N1 2945   2.061   2.019  15.938  0.4977  1.0423 -0.3597
  193MPD1    H6 2946   2.160   2.005  15.915  0.4717  0.8844 -0.3754
  193MPD1    H7 2947   2.036   2.100  15.881 -1.2936  1.7298  1.3983
  194MPD1     C 2948   0.093   4.535  17.277  0.0400  0.1546  0.6245
  194MPD1    C1 2949   0.105   4.445  17.372 -0.5060 -0.3264 -0.1626
  194MPD1    C2 2950   0.235   4.391  17.379 -0.1095  0.4158 -0.6735
  194MPD1    C3 2951   0.332   4.406  17.283 -0.2038  0.6815 -0.4090
  194MPD1    C4 2952   0.312   4.498  17.179  0.6204  0.1250 -0.0988
  194MPD1    C5 2953   0.194   4.560  17.190  0.2652 -0.2907  0.1815
  194MPD1     H 2954   0.252   4.328  17.466  1.4570 -0.0816 -1.3594
  194MPD1    H1 2955   0.383   4.536  17.107  0.0843  1.0852 -0.1105
  194MPD1    H2 2956   0.016   4.611  17.281  0.5190  0.6183  0.9432
  194MPD1    H3 2957   0.178   4.646  17.127  1.3579  0.3897  0.8404
  194MPD1     N 2958   0.456   4.327  17.287  0.2231 -0.1658  0.6055
  194MPD1    H5 2959   0.516   4.337  17.206 -0.2275 -0.1037  0.2858
  194MPD1    N1 2960   0.026   4.435  17.489  0.1460 -0.0941 -0.1377
  194MPD1    H6 2961   4.652   4.455  17.472  0.2120  0.6322  0.3172
  194MPD1    H7 2962   0.037   4.349  17.543 -1.7478 -0.6127 -0.5963
  195MPD1     C 2963   2.119   1.334  17.434  0.2223 -0.6518  0.2880
  195MPD1    C1 2964   2.135   1.286  17.561 -0.5694 -0.6160  0.5591
  195MPD1    C2 2965   2.176   1.156  17.576  0.2630 -0.0806  0.1369
  195MPD1    C3 2966   2.226   1.083  17.468 -0.4408  0.4688  0.6464
  195MPD1    C4 2967   2.225   1.144  17.346  0.5990 -0.2684 -0.0744
  195MPD1    C5 2968   2.177   1.270  17.328  0.0959  0.9172 -0.2917
  195MPD1     H 2969   2.164   1.105  17.671  2.7297 -1.7500 -0.4270
  195MPD1    H1 2970   2.279   1.101  17.263 -0.2317  1.8305 -1.6835
  195MPD1    H2 2971   2.083   1.434  17.413  0.9333 -0.4087  0.2162
  195MPD1    H3 2972   2.181   1.319  17.231  1.5887 -0.6143 -1.0096
  195MPD1     N 2973   2.265   0.944  17.469  0.7603  0.2023  0.2279
  195MPD1    H5 2974   2.302   0.897  17.387  0.8436  1.1321 -0.2634
  195MPD1    N1 2975   2.087   1.366  17.665  1.4079 -0.4983 -0.5361
  195MPD1    H6 2976   2.125   1.349   0.060 -2.0177 -0.7948  0.8071
  195MPD1    H7 2977   2.108   1.466  17.657  0.0237 -0.2092 -0.4161
  196MPD1     C 2978   1.693   4.483   0.347  0.0635 -0.6642  0.2771
  196MPD1    C1 2979   1.813   4.545   0.326 -0.1344  0.1876 -0.0193
  196MPD1    C2 2980   1.895   4.553   0.436  0.1798 -0.5365 -0.5836
  196MPD1    C3 2981   1.875   4.490   0.557 -0.7487  0.6635  0.5633
  196MPD1    C4 2982   1.752   4.432   0.572 -0.9664  0.1190  0.3418
  196MPD1    C5 2983   1.667   4.421   0.468  0.6160 -0.5844 -0.3726
  196MPD1     H 2984   1.977   4.625   0.440 -1.1811  1.0037 -0.1033
  196MPD1    H1 2985   1.720   4.396   0.669  0.5138  0.0799  0.8062
  196MPD1    H2 2986   1.623   4.479   0.264 -0.4893  1.3014  0.6590
  196MPD1    H3 2987   1.579   4.364   0.494 -0.0093  0.9600  0.8952
  196MPD1     N 2988   1.958   4.503   0.673 -0.5482 -0.1573  0.0449
  196MPD1    H5 2989   1.926   4.479   0.767  2.5870 -0.9251  0.9280
  196MPD1    N1 2990   1.834   4.615   0.206  0.3860 -0.2716 -0.6578
  196MPD1    H6 2991   1.932   4.602   0.183 -0.1736 -1.9054 -2.1103
  196MPD1    H7 2992   1.773   4.561   0.146  0.3854 -1.9417  0.8521
  197MPD1     C 2993   0.706   2.082  17.339  0.0789  0.1043 -0.6966
  197MPD1    C1 2994   0.765   2.193  17.401  0.3634  0.1164  0.6621
  197MPD1    C2 2995   0.824   2.295  17.325 -0.1458 -0.2943  0.1842
  197MPD1    C3 2996   0.821   2.292  17.191  0.0152 -0.1926  0.1185
  197MPD1    C4 2997   0.757   2.182  17.133  0.1887 -0.3387 -0.6373
  197MPD1    C5 2998   0.702   2.078  17.204  0.5338  0.2725 -0.0385
  197MPD1     H 2999   0.881   2.372  17.375 -0.1126 -1.8187  2.5103
  197MPD1    H1 3000   0.745   2.170  17.026  1.0926  0.4537 -0.8245
  197MPD1    H2 3001   0.678   1.994  17.396  2.0369 -0.0733 -0.0027
  197MPD1    H3 3002   0.668   1.988  17.154  1.7839 -1.1508  1.7143
  197MPD1     N 3003   0.889   2.384  17.103 -0.5808  0.4407 -0.1887
  197MPD1    H5 3004   0.869   2.375  17.004  0.2770  0.7701 -0.3921
  197MPD1    N1 3005   0.767   2.213  17.540  0.5637  0.1480  0.2096
  197MPD1    H6 3006   0.757   2.126  17.592 -0.6707 -0.6250 -1.3278
  197MPD1    H7 3007   0.853   2.261  17.569  1.0144 -0.6705  0.2194
  198MPD1     C 3008   3.751   0.402  15.806 -0.6898  0.1236 -0.9943
  198MPD1    C1 3009   3.734   0.451  15.683  0.1955  0.0790  0.2191
  198MPD1    C2 3010   3.707   0.588  15.667 -0.4787 -0.1580 -0.2950
  198MPD1    C3 3011   3.692   0.664  15.775 -0.4673  0.4408  0.3620
  198MPD1    C4 3012   3.724   0.614  15.907 -0.0209 -0.6185 -0.4623
  198MPD1    C5 3013   3.757   0.483  15.916  0.4682  0.5107  0.1480
  198MPD1     H 3014   3.689   0.624  15.566 -2.5899 -0.0063  0.1419
  198MPD1    H1 3015   3.731   0.678  15.994  1.1944  0.4117 -1.3058
  198MPD1    H2 3016   3.780   0.298  15.808  0.2198  0.4079  0.3928
  198MPD1    H3 3017   3.797   0.437  16.006 -0.3896 -0.3925  0.0696
  198MPD1     N 3018   3.641   0.799  15.745  0.3906  0.3168  0.1158
  198MPD1    H5 3019   3.637   0.831  15.648  0.5186 -0.3032 -0.0947
  198MPD1    N1 3020   3.729   0.367  15.570  0.4045 -0.3529 -0.4658
  198MPD1    H6 3021   3.772   0.280  15.602 -0.4219 -0.7845 -0.5406
  198MPD1    H7 3022   3.775   0.409  15.490 -1.0108  1.8846 -0.0822
  199MPD1     C 3023   4.598   1.441   9.325 -0.2746 -0.3387  0.0771
  199MPD1    C1 3024   0.008   1.413   9.347 -0.5576  0.5364  0.4296
  199MPD1    C2 3025   0.079   1.524   9.391  0.6381  0.1738  0.2215
  199MPD1    C3 3026   0.018   1.649   9.408  0.7328 -0.8255  0.1847
  199MPD1    C4 3027   4.610   1.671   9.377  0.3668 -0.2048  0.3636
  199MPD1    C5 3028   4.539   1.565   9.339  0.4274  0.1901  0.0859
  199MPD1     H 3029   0.183   1.513   9.421  0.7462 -1.6905 -0.8155
  199MPD1    H1 3030   4.566   1.770   9.374  0.6915 -0.0388  1.2452
  199MPD1    H2 3031   4.540   1.358   9.288 -2.9563  2.1558 -1.2674
  199MPD1    H3 3032   4.434   1.570   9.312  0.9901  0.0862 -2.1210
  199MPD1     N 3033   0.082   1.760   9.456  0.2061 -0.3790  0.4571
  199MPD1    H5 3034   0.020   1.836   9.480  0.7954 -0.2665  1.6078
  199MPD1    N1 3035   0.059   1.277   9.352 -0.3552  0.3253 -0.1159
  199MPD1    H6 3036   0.160   1.267   9.352 -0.3954  0.0440  1.4666
  199MPD1    H7 3037   0.011   1.221   9.282 -2.2372  1.8448 -0.0510
  200MPD1     C 3038   3.748   2.441  15.214 -0.5547  0.0236 -0.6014
  200MPD1    C1 3039   3.696   2.394  15.088 -0.0619 -0.0680 -0.3262
  200MPD1    C2 3040   3.777   2.385  14.968  0.4894 -0.1320 -0.1350
  200MPD1    C3 3041   3.914   2.400  14.964  0.0550 -0.0739  0.3733
  200MPD1    C4 3042   3.967   2.423  15.090  1.0704 -0.0581 -0.5799
  200MPD1    C5 3043   3.886   2.443  15.203 -0.0147  0.2720  0.1418
  200MPD1     H 3044   3.727   2.358  14.876 -0.4552  1.3030 -0.0457
  200MPD1    H1 3045   4.072   2.434  15.114  0.5833  0.3460  1.3054
  200MPD1    H2 3046   3.690   2.486  15.293 -0.7077  0.0053 -0.7041
  200MPD1    H3 3047   3.925   2.478  15.298  2.9193 -0.6361 -0.7281
  200MPD1     N 3048   3.990   2.381  14.847  0.3812 -0.0831  0.0963
  200MPD1    H5 3049   3.945   2.335  14.769 -0.8546 -1.1569  1.4396
  200MPD1    N1 3050   3.552   2.392  15.067 -0.3095  0.2429  0.4043
  200MPD1    H6 3051   3.549   2.320  14.996 -0.8395 -1.1077  1.7966
  200MPD1    H7 3052   3.501   2.374  15.154 -1.7121  0.8015 -0.2961
  201MPD1     C 3053   1.539   1.058  13.536  0.3801 -0.3400 -0.1625
  201MPD1    C1 3054   1.522   0.937  13.481 -0.0801 -0.2838 -0.3962
  201MPD1    C2 3055   1.606   0.887  13.378  0.0196  0.6263 -0.1816
  201MPD1    C3 3056   1.722   0.955  13.336 -0.0175 -0.3937 -0.8846
  201MPD1    C4 3057   1.732   1.088  13.390  0.9251 -0.0253  0.4387
  201MPD1    C5 3058   1.648   1.129  13.492  0.0166 -0.3440  0.2921
  201MPD1     H 3059   1.575   0.786  13.352  1.7378  0.2599 -0.7997
  201MPD1    H1 3060   1.812   1.159  13.370 -1.1925  3.3190  3.7384
  201MPD1    H2 3061   1.465   1.105  13.600 -1.1999 -1.5148 -1.1060
  201MPD1    H3 3062   1.664   1.230  13.527 -0.1041 -1.1582  2.6696
  201MPD1     N 3063   1.810   0.898  13.243 -0.3539  0.6127  0.1472
  201MPD1    H5 3064   1.789   0.808  13.200  1.1862  0.0710  0.5416
  201MPD1    N1 3065   1.410   0.860  13.510  0.2117  0.4821 -0.5417
  201MPD1    H6 3066   1.391   0.861  13.610  1.2291 -1.5997 -0.3452
  201MPD1    H7 3067   1.424   0.761  13.491 -2.9919  0.1279 -1.1749
  202MPD1     C 3068   1.377   4.458   8.959 -0.4248  0.0403  0.5992
  202MPD1    C1 3069   1.278   4.543   9.005  0.0357 -0.8496  0.3844
  202MPD1    C2 3070   1.314   4.601   9.123 -0.0596  0.5015 -0.4948
  202MPD1    C3 3071   1.409   4.541   9.208 -0.8561  0.7192  0.4526
  202MPD1    C4 3072   1.470   4.424   9.169  0.0794  0.0636 -0.7707
  202MPD1    C5 3073   1.467   4.391   9.037 -0.3046 -0.1726 -0.1808
  202MPD1     H 3074   1.262   4.691   9.156 -2.0120 -0.7602 -0.1647
  202MPD1    H1 3075   1.540   4.366   9.229  1.1081  0.6223 -1.4336
  202MPD1    H2 3076   1.366   4.419   8.859  0.5580 -0.4222  0.6718
  202MPD1    H3 3077   1.539   4.323   8.993 -2.1716 -0.7176 -2.4600
  202MPD1     N 3078   1.431   4.585   9.341 -0.5308  0.0942  0.0506
  202MPD1    H5 3079   1.499   4.524   9.386  0.8888  1.8837  0.3765
  202MPD1    N1 3080   1.203   4.616   8.910 -0.3029 -0.7647  0.5729
  202MPD1    H6 3081   1.137   4.686   8.942 -2.0659 -2.6336  0.9855
  202MPD1    H7 3082   1.161   4.557   8.839  0.3318 -1.6511  0.9378
  203MPD1     C 3083   0.453   1.773  12.493 -0.1964  0.2816  0.0853
  203MPD1    C1 3084   0.440   1.652  12.436 -0.0232 -0.7352  0.0520
  203MPD1    C2 3085   0.539   1.562  12.473 -0.1439  0.4481 -0.0827
  203MPD1    C3 3086   0.651   1.597  12.541 -0.1773  0.1975  0.3600
  203MPD1    C4 3087   0.670   1.726  12.585  0.8137 -0.7757 -0.0969
  203MPD1    C5 3088   0.561   1.806  12.574  0.3120  0.3174  0.8799
  203MPD1     H 3089   0.522   1.457  12.454  1.1606 -0.3377  3.0130
  203MPD1    H1 3090   0.763   1.763  12.626  0.1092 -0.0465  0.8529
  203MPD1    H2 3091   0.370   1.842  12.486 -0.5163 -0.2457 -1.2635
  203MPD1    H3 3092   0.575   1.907  12.609  3.4910 -0.1199  0.8652
  203MPD1     N 3093   0.752   1.502  12.559 -0.0230 -0.1766  1.1335
  203MPD1    H5 3094   0.734   1.412  12.515  1.2563  0.5806 -0.9577
  203MPD1    N1 3095   0.337   1.622  12.347  0.1371 -0.1602  0.2640
  203MPD1    H6 3096   0.303   1.704  12.296 -1.6918 -1.2952 -0.3323
  203MPD1    H7 3097   0.363   1.551  12.279 -0.4875 -2.2367  2.1973
  204MPD1     C 3098   4.390   2.264   0.061 -0.0693  0.1701 -0.0852
  204MPD1    C1 3099   4.388   2.143  17.697  0.3466 -0.3604  0.6333
  204MPD1    C2 3100   4.502   2.098  17.618 -0.5148 -0.5826 -0.1402
  204MPD1    C3 3101   4.613   2.181  17.614  1.2007 -0.1327  0.1063
  204MPD1    C4 3102   4.611   2.302  17.686  0.3513  0.1642  0.0400
  204MPD1    C5 3103   4.501   2.340   0.067 -0.0984  0.0070 -0.0268
  204MPD1     H 3104   4.501   2.007  17.559  0.4935 -0.5872 -0.1357
  204MPD1    H1 3105   4.701   2.360   0.006  0.8317 -0.2083 -1.2216
  204MPD1    H2 3106   4.300   2.292   0.115  0.1346  0.2361  0.2170
  204MPD1    H3 3107   4.498   2.433   0.123 -0.1254 -0.3952  0.6443
  204MPD1     N 3108   0.006   2.134  17.546 -0.7727 -0.0519 -0.3849
  204MPD1    H5 3109   0.002   2.036  17.518 -1.3029  0.2891 -1.5136
  204MPD1    N1 3110   4.269   2.066  17.690  0.5774  0.3626  0.4919
  204MPD1    H6 3111   4.226   2.064   0.085 -1.5346 -1.0105 -0.5552
  204MPD1    H7 3112   4.291   1.968  17.676  1.6166  0.6453  0.0827
  205MPD1     C 3113   4.467   1.142  16.567 -0.8597  0.3462  0.3590
  205MPD1    C1 3114   4.420   1.111  16.695 -1.2499 -0.3334 -0.1391
  205MPD1    C2 3115   4.526   1.091  16.783 -0.0050 -0.7204 -0.3546
  205MPD1    C3 3116   4.662   1.082  16.740  0.6512 -0.5892  0.7287
  205MPD1    C4 3117   4.692   1.109  16.610 -0.3352 -0.5917  0.0116
  205MPD1    C5 3118   4.592   1.132  16.524 -0.0697  0.1981  0.2881
  205MPD1     H 3119   4.499   1.077  16.887  2.4027 -1.1589  0.1981
  205MPD1    H1 3120   0.073   1.113  16.584 -0.0962 -1.2148  0.8772
  205MPD1    H2 3121   4.392   1.168  16.493  0.3285 -2.3767 -1.8451
  205MPD1    H3 3122   4.611   1.166  16.423 -1.4518  1.4885  0.4699
  205MPD1     N 3123   0.047   1.049  16.827 -0.2140  0.3240  0.0307
  205MPD1    H5 3124   0.140   1.058  16.786 -0.3482 -1.8067 -0.6964
  205MPD1    N1 3125   4.285   1.116  16.729 -0.1500  0.3235 -0.7252
  205MPD1    H6 3126   4.264   1.213  16.752 -1.0850 -0.0335 -0.0721
  205MPD1    H7 3127   4.230   1.098  16.644 -0.7900 -1.8291  0.1322
  206MPD1     C 3128   1.050   4.530  15.956 -0.2125 -0.5719  0.8825
  206MPD1    C1 3129   0.930   4.512  15.893  0.5083 -0.0000  0.8298
  206MPD1    C2 3130   0.814   4.543  15.962  0.5871  0.4902  0.2063
  206MPD1    C3 3131   0.816   4.556  16.099 -1.4409  0.0924 -0.7693
  206MPD1    C4 3132   0.938   4.554  16.164 -0.8025  0.0887  0.5250
  206MPD1    C5 3133   1.053   4.545  16.093  0.9337  0.1497  0.7248
  206MPD1     H 3134   0.725   4.559  15.903  1.1087  0.3049 -0.6228
  206MPD1    H1 3135   0.956   4.568  16.271 -2.9620  2.4353  0.5857
  206MPD1    H2 3136   1.145   4.514  15.906 -1.0059  1.1117 -1.1401
  206MPD1    H3 3137   1.151   4.557  16.137  2.1018 -0.5857 -1.6772
  206MPD1     N 3138   0.694   4.559  16.173 -0.9296  0.2381 -0.2035
  206MPD1    H5 3139   0.704   4.543  16.272  2.9763 -0.2808 -0.6789
  206MPD1    N1 3140   0.927   4.493  15.753  0.0177  0.1765  0.0205
  206MPD1    H6 3141   0.994   4.428  15.713 -0.0893 -0.3456  0.6916
  206MPD1    H7 3142   0.836   4.469  15.715  0.3942 -0.1747 -0.6529
  207MPD1     C 3143   1.616   1.515  10.015 -0.5615  0.3158 -0.2407
  207MPD1    C1 3144   1.722   1.504   9.936  0.6193  0.3534  0.4856
  207MPD1    C2 3145   1.837   1.566   9.984  0.6485 -0.5991  0.0162
  207MPD1    C3 3146   1.847   1.626  10.104 -0.2272  0.0188  0.4626
  207MPD1    C4 3147   1.741   1.619  10.190 -0.4370  0.0935  0.4155
  207MPD1    C5 3148   1.624   1.561  10.143 -0.5664 -0.0480  0.3205
  207MPD1     H 3149   1.920   1.574   9.914  0.9889  0.5105  0.5535
  207MPD1    H1 3150   1.745   1.671  10.285  0.8206  0.3393  0.2387
  207MPD1    H2 3151   1.517   1.475   9.995 -0.9860  0.0084  2.3758
  207MPD1    H3 3152   1.536   1.548  10.206 -2.7545  0.2348 -2.7173
  207MPD1     N 3153   1.962   1.688  10.160  0.0171 -0.3675 -0.4421
  207MPD1    H5 3154   1.961   1.713  10.259  0.4261 -3.9334  0.4561
  207MPD1    N1 3155   1.711   1.455   9.804  0.5386  0.2675  0.2042
  207MPD1    H6 3156   1.632   1.392   9.789  1.2738 -0.3343 -1.1331
  207MPD1    H7 3157   1.796   1.404   9.780  0.8956 -0.1378  2.2894
  208MPD1     C 3158   1.489   2.263  17.480 -0.2154 -0.0656  0.3981
  208MPD1    C1 3159   1.394   2.211  17.564  0.0143 -0.2402  0.2717
  208MPD1    C2 3160   1.364   2.074  17.548  0.8719  0.2207 -0.3011
  208MPD1    C3 3161   1.421   2.000  17.446  0.1564 -0.4605  0.2510
  208MPD1    C4 3162   1.520   2.059  17.364 -0.0102  0.0507  0.1207
  208MPD1    C5 3163   1.547   2.195  17.379  0.3461 -0.2684 -0.4460
  208MPD1     H 3164   1.283   2.032  17.606  0.8898 -0.0176 -0.4468
  208MPD1    H1 3165   1.558   2.013  17.274  1.4567  1.9455 -0.2333
  208MPD1    H2 3166   1.514   2.368  17.487  0.8056 -0.1161 -3.0147
  208MPD1    H3 3167   1.621   2.242  17.315  0.3876 -0.1689 -0.3254
  208MPD1     N 3168   1.370   1.871  17.423  0.3368 -0.6716  0.5116
  208MPD1    H5 3169   1.300   1.849  17.493 -0.6879  1.8281  0.2852
  208MPD1    N1 3170   1.325   2.290  17.653  0.0871 -0.2044  0.0350
  208MPD1    H6 3171   1.367   2.383  17.660  2.5318 -1.4631  2.3145
  208MPD1    H7 3172   1.303   2.250   0.047  1.7262  1.9822  1.4120
  209MPD1     C 3173   2.319   1.486  11.992 -0.5181 -0.2194 -0.6643
  209MPD1    C1 3174   2.260   1.422  11.884 -0.3668 -0.0172  0.1573
  209MPD1    C2 3175   2.302   1.454  11.753  0.0133  0.0568  0.0099
  209MPD1    C3 3176   2.416   1.538  11.735 -0.6363  0.0818 -0.0185
  209MPD1    C4 3177   2.486   1.579  11.847  0.3853  0.9133 -0.3227
  209MPD1    C5 3178   2.438   1.551  11.973 -0.3850  0.3224 -0.4516
  209MPD1     H 3179   2.255   1.410  11.666  2.9321  2.1913 -2.6755
  209MPD1    H1 3180   2.580   1.631  11.832  0.5795  0.7748  0.3879
  209MPD1    H2 3181   2.281   1.467  12.091  0.3442 -2.8212 -0.8488
  209MPD1    H3 3182   2.482   1.591  12.064  2.0315 -2.2514 -0.4959
  209MPD1     N 3183   2.473   1.567  11.613  0.7530  0.0129 -0.4223
  209MPD1    H5 3184   2.541   1.642  11.610  0.8420 -0.0838 -0.8314
  209MPD1    N1 3185   2.132   1.357  11.892 -0.2263 -0.4192  0.0631
  209MPD1    H6 3186   2.125   1.284  11.821 -1.8983  0.5121 -0.7288
  209MPD1    H7 3187   2.106   1.319  11.983  0.6871  0.7816  0.8155
  210MPD1     C 3188   3.311   1.603  11.132  0.0948  0.3338 -0.1497
  210MPD1    C1 3189   3.269   1.672  11.246 -0.2801 -0.1260  0.7197
  210MPD1    C2 3190   3.135   1.695  11.262 -0.0303  0.4727  0.3440
  210MPD1    C3 3191   3.042   1.651  11.167 -0.1880 -0.1074  0.2542
  210MPD1    C4 3192   3.087   1.596  11.049  0.6738  0.0947 -0.0737
  210MPD1    C5 3193   3.225   1.578  11.034 -0.3537  0.1963  0.0185
  210MPD1     H 3194   3.095   1.758  11.341 -0.9492 -0.6206  0.7373
  210MPD1    H1 3195   3.028   1.568  10.963 -0.8738 -0.2149  1.1003
  210MPD1    H2 3196   3.416   1.584  11.112 -0.2599 -0.2515 -1.4318
  210MPD1    H3 3197   3.262   1.529  10.945  2.0266  0.4424  0.8980
  210MPD1     N 3198   2.902   1.672  11.176  0.1261  0.6028  0.5487
  210MPD1    H5 3199   2.840   1.650  11.099  0.7273  0.1654  0.1934
  210MPD1    N1 3200   3.364   1.730  11.328 -0.5694 -0.5763  0.2906
  210MPD1    H6 3201   3.331   1.757  11.421  1.0203 -2.4392  1.3786
  210MPD1    H7 3202   3.449   1.677  11.342 -0.7546 -0.8280  0.4533
  211MPD1     C 3203   0.934   0.899  15.510  0.6465 -0.6646 -0.1110
  211MPD1    C1 3204   0.829   0.818  15.541  0.2837 -0.2993  0.3424
  211MPD1    C2 3205   0.740   0.868  15.640 -0.0288  0.0104 -0.3472
  211MPD1    C3 3206   0.761   0.994  15.700 -0.4053  0.1916  0.2417
  211MPD1    C4 3207   0.873   1.066  15.662  0.0939 -0.4123  0.7185
  211MPD1    C5 3208   0.957   1.027  15.562  0.2721 -0.2460 -1.1758
  211MPD1     H 3209   0.650   0.810  15.657 -0.4677  1.7058  3.0996
  211MPD1    H1 3210   0.901   1.162  15.704  0.5579 -0.5040  0.6248
  211MPD1    H2 3211   1.007   0.866  15.437  2.8112 -1.3305  2.3663
  211MPD1    H3 3212   1.044   1.087  15.539 -0.3980  0.9956 -0.5031
  211MPD1     N 3213   0.662   1.041  15.792  0.2442 -0.6576  0.4490
  211MPD1    H5 3214   0.576   0.993  15.818  0.4258 -0.6094  1.1377
  211MPD1    N1 3215   0.827   0.682  15.491 -0.4773  0.5060  0.1232
  211MPD1    H6 3216   0.860   0.680  15.394 -1.9211  1.2660 -0.3808
  211MPD1    H7 3217   0.734   0.649  15.465  0.2240 -2.7773  1.7366
  212MPD1     C 3218   4.615   4.388  16.395  0.0679 -0.1881  0.2895
  212MPD1    C1 3219   4.576   4.440  16.519 -0.3433 -0.0173 -0.0226
  212MPD1    C2 3220   4.495   4.364  16.607 -0.3127  0.3373  0.0965
  212MPD1    C3 3221   4.470   4.229  16.566  0.2646  0.2944  0.3339
  212MPD1    C4 3222   4.511   4.180  16.442  0.3998  0.0434 -0.3000
  212MPD1    C5 3223   4.569   4.263  16.355  0.1468  0.3073 -0.3994
  212MPD1     H 3224   4.460   4.410  16.699  1.2055 -0.5108  1.0977
  212MPD1    H1 3225   4.486   4.079  16.414 -0.9593  0.0885  0.7555
  212MPD1    H2 3226   4.665   4.446  16.318  2.8656 -3.2108 -0.1388
  212MPD1    H3 3227   4.615   4.222  16.266  1.2327  0.4463  0.1031
  212MPD1     N 3228   4.388   4.131  16.637  0.2691 -0.1078  0.5086
  212MPD1    H5 3229   4.389   4.035  16.605 -0.7199  0.7389 -2.0812
  212MPD1    N1 3230   4.590   4.574  16.554 -0.0327 -0.1916  0.2887
  212MPD1    H6 3231   4.670   4.598  16.496 -0.0849  0.0009  0.2976
  212MPD1    H7 3232   4.608   4.590  16.652 -2.2916 -2.0891  1.0323
  213MPD1     C 3233   2.653   0.484  15.459  0.0118  0.5159  0.5130
  213MPD1    C1 3234   2.526   0.440  15.429  0.3517 -0.7690  0.6202
  213MPD1    C2 3235   2.474   0.504  15.317  0.2674 -0.3729 -0.3755
  213MPD1    C3 3236   2.552   0.575  15.223 -0.4572 -0.1866  0.3776
  213MPD1    C4 3237   2.685   0.583  15.246 -0.2482  0.5036 -0.3119
  213MPD1    C5 3238   2.734   0.541  15.364 -0.4113  0.3586 -0.0282
  213MPD1     H 3239   2.366   0.496  15.309  0.3259 -0.1202 -1.5052
  213MPD1    H1 3240   2.764   0.606  15.176  2.4111  0.0741  2.5655
  213MPD1    H2 3241   2.710   0.463  15.548  0.3231 -0.7221  0.0261
  213MPD1    H3 3242   2.838   0.555  15.393 -0.7106 -0.7708  1.6227
  213MPD1     N 3243   2.492   0.636  15.105  0.1975 -0.3266 -0.0351
  213MPD1    H5 3244   2.400   0.598  15.088 -0.7876  2.1152 -0.1300
  213MPD1    N1 3245   2.446   0.417  15.541 -0.4535 -0.2476  0.1031
  213MPD1    H6 3246   2.356   0.379  15.515 -0.8978  0.3639  0.7464
  213MPD1    H7 3247   2.424   0.508  15.581 -0.1730  0.0925 -0.5176
  214MPD1     C 3248   1.752   0.422  14.810  0.1711 -0.7146  0.6010
  214MPD1    C1 3249   1.774   0.522  14.710 -0.3439 -0.2341 -0.4351
  214MPD1    C2 3250   1.890   0.597  14.712 -0.2164  0.4952 -0.1109
  214MPD1    C3 3251   1.969   0.583  14.822  0.6662  0.1199 -0.2493
  214MPD1    C4 3252   1.932   0.501  14.929 -0.5494 -0.1369  0.9395
  214MPD1    C5 3253   1.831   0.412  14.918 -0.7983  0.0027  0.5754
  214MPD1     H 3254   1.911   0.674  14.638 -2.1701  1.6452  0.5167
  214MPD1    H1 3255   2.000   0.498  15.014 -0.7289  0.8576  1.1201
  214MPD1    H2 3256   1.661   0.363  14.809  1.0723 -2.1039  1.1460
  214MPD1    H3 3257   1.815   0.330  14.987 -0.3691 -1.3650 -0.9363
  214MPD1     N 3258   2.091   0.653  14.836 -0.1318  0.2966  0.4728
  214MPD1    H5 3259   2.148   0.631  14.917 -1.9332 -1.3696  1.2931
  214MPD1    N1 3260   1.692   0.520  14.591 -0.1988  0.4397 -0.1461
  214MPD1    H6 3261   1.686   0.615  14.556  1.9128  1.0769  1.2295
  214MPD1    H7 3262   1.596   0.497  14.619 -0.2168  0.0444 -0.5424
  215MPD1     C 3263   2.689   0.486  10.597  0.0235  0.1248  0.1516
  215MPD1    C1 3264   2.678   0.475  10.732  0.8938  0.2389  0.6920
  215MPD1    C2 3265   2.651   0.590  10.804  0.1121 -0.1381 -0.5343
  215MPD1    C3 3266   2.641   0.716  10.746  0.3028  0.4952 -0.0228
  215MPD1    C4 3267   2.654   0.729  10.609  0.4371 -0.5888  0.1404
  215MPD1    C5 3268   2.686   0.612  10.542 -0.3964  0.3619 -0.6074
  215MPD1     H 3269   2.626   0.579  10.909 -0.4473  1.0234 -0.5447
  215MPD1    H1 3270   2.654   0.824  10.556  3.4492 -0.1258  0.9830
  215MPD1    H2 3271   2.716   0.404  10.531 -0.1066 -0.1532  0.4394
  215MPD1    H3 3272   2.725   0.624  10.441  1.7195 -0.1142  0.1532
  215MPD1     N 3273   2.618   0.827  10.829 -0.0529 -0.4253 -0.2315
  215MPD1    H5 3274   2.616   0.810  10.929  0.7766  1.7360  0.1604
  215MPD1    N1 3275   2.654   0.349  10.796  0.4195  0.6633  0.0940
  215MPD1    H6 3276   2.689   0.265  10.751  1.1593  1.2848 -0.4972
  215MPD1    H7 3277   2.681   0.352  10.894 -2.4700 -2.7502  0.9997
  216MPD1     C 3278   0.103   4.118  17.227  0.0604 -0.4611 -0.1367
  216MPD1    C1 3279   0.031   4.043  17.322 -0.3754 -1.0225  0.2267
  216MPD1    C2 3280   0.066   3.914  17.342  0.0756  0.6209  0.2917
  216MPD1    C3 3281   0.160   3.857  17.260 -0.1708 -0.3766  0.2214
  216MPD1    C4 3282   0.246   3.939  17.181  0.4955 -0.5260  0.0727
  216MPD1    C5 3283   0.216   4.074  17.174  0.5017  1.0031  0.0801
  216MPD1     H 3284   4.724   3.849  17.397 -1.1655  0.6303 -1.1723
  216MPD1    H1 3285   0.336   3.892  17.141  2.2869  2.8104  0.2074
  216MPD1    H2 3286   0.078   4.222  17.206  0.4767 -0.4658 -0.6466
  216MPD1    H3 3287   0.283   4.131  17.110  1.4587 -1.3445 -1.0314
  216MPD1     N 3288   0.185   3.719  17.275  0.2746  0.1190 -0.3607
  216MPD1    H5 3289   0.136   3.662  17.343  2.0853  1.0482  1.7143
  216MPD1    N1 3290   4.641   4.094  17.388  0.6991  0.0743 -0.5015
  216MPD1    H6 3291   4.572   4.026  17.421 -0.2627  0.6772 -1.2712
  216MPD1    H7 3292   4.599   4.172  17.337  0.8136  1.9530  2.2744
  217MPD1     C 3293   0.641   4.683   8.089 -0.1191 -0.8564  0.1418
  217MPD1    C1 3294   0.745   0.007   8.166  0.0689 -0.0318  0.1769
  217MPD1    C2 3295   0.723   0.006   8.306  0.0933  0.3789 -0.7123
  217MPD1    C3 3296   0.605   4.693   8.364 -0.8142 -0.7149  0.4178
  217MPD1    C4 3297   0.507   4.648   8.285 -0.4977 -0.3933 -0.3036
  217MPD1    C5 3298   0.521   4.653   8.151 -0.7010  0.0280 -0.4294
  217MPD1     H 3299   0.798   0.026   8.382 -1.0880 -0.0728  0.5705
  217MPD1    H1 3300   0.417   4.612   8.334  0.3300 -0.9010  0.8561
  217MPD1    H2 3301   0.664   4.673   7.983  2.0011  1.8935  0.3275
  217MPD1    H3 3302   0.438   4.604   8.100 -1.4715  0.7793  0.1023
  217MPD1     N 3303   0.574   4.689   8.499  0.1975 -0.0101  0.1985
  217MPD1    H5 3304   0.485   4.644   8.518  0.0612  0.0786 -0.2190
  217MPD1    N1 3305   0.869   0.035   8.111 -0.7422 -0.0092 -0.2935
  217MPD1    H6 3306   0.916   0.100   8.173  0.2907  0.9815 -2.1205
  217MPD1    H7 3307   0.862   0.084   8.022  1.6657 -0.0339 -0.5004
  218MPD1     C 3308   2.458   1.418  13.057 -0.6615 -0.0364  0.4497
  218MPD1    C1 3309   2.560   1.325  13.034 -0.6333 -0.0057 -0.2537
  218MPD1    C2 3310   2.593   1.304  12.900  0.3612  0.4028  0.2816
  218MPD1    C3 3311   2.535   1.381  12.801  0.6541 -0.3364  0.2436
  218MPD1    C4 3312   2.443   1.474  12.829 -0.5830  0.2985 -0.4410
  218MPD1    C5 3313   2.401   1.502  12.962 -0.2826 -0.2238 -0.5903
  218MPD1     H 3314   2.662   1.226  12.870 -1.6191 -0.6186 -1.6201
  218MPD1    H1 3315   2.414   1.536  12.745  0.9541 -0.0911 -1.2512
  218MPD1    H2 3316   2.424   1.432  13.159 -1.2400  1.6522  0.0072
  218MPD1    H3 3317   2.325   1.572  12.994 -0.2625 -0.0882 -0.8397
  218MPD1     N 3318   2.586   1.355  12.675 -0.7847 -0.3167 -0.0926
  218MPD1    H5 3319   2.674   1.305  12.684  0.1976  0.8129 -3.5268
  218MPD1    N1 3320   2.601   1.245  13.139  0.4209 -0.1305 -0.0276
  218MPD1    H6 3321   2.626   1.301  13.221  0.3627 -1.9489  1.2309
  218MPD1    H7 3322   2.689   1.199  13.114  1.4634  0.2080  3.0433
  219MPD1     C 3323   2.353   0.998  11.815 -0.2102 -1.1360 -0.2558
  219MPD1    C1 3324   2.485   1.031  11.791 -0.3545  0.2986  0.1897
  219MPD1    C2 3325   2.553   1.094  11.891  0.4128  0.1433 -0.5701
  219MPD1    C3 3326   2.490   1.135  12.011  0.1708  0.2595 -0.8875
  219MPD1    C4 3327   2.360   1.095  12.032  0.1526 -0.3038  0.3749
  219MPD1    C5 3328   2.287   1.033  11.934  0.1741  0.3598  0.4648
  219MPD1     H 3329   2.653   1.128  11.869  1.2739 -0.7554  1.9218
  219MPD1    H1 3330   2.310   1.129  12.122  1.1342 -0.0209  0.8155
  219MPD1    H2 3331   2.295   0.940  11.744 -0.5302 -2.1263  0.8192
  219MPD1    H3 3332   2.190   0.994  11.961  0.2395 -1.3449 -1.7976
  219MPD1     N 3333   2.542   1.210  12.118  0.0638  0.4943 -0.5111
  219MPD1    H5 3334   2.487   1.213  12.204  0.7703 -1.3854  0.0040
  219MPD1    N1 3335   2.541   1.004  11.665  0.0843  0.0148  0.6711
  219MPD1    H6 3336   2.485   1.042  11.589  0.8927  2.4138  1.2772
  219MPD1    H7 3337   2.640   1.029  11.671  0.2223 -0.6491  1.2051
  220MPD1     C 3338   2.217   1.365  10.097  0.4146  0.8057  0.7354
  220MPD1    C1 3339   2.231   1.397  10.228 -0.0096  0.1011 -0.1239
  220MPD1    C2 3340   2.116   1.400  10.307 -0.5283  0.2989 -0.0659
  220MPD1    C3 3341   2.000   1.362  10.258 -0.3903 -0.2219 -0.0950
  220MPD1    C4 3342   1.989   1.315  10.131 -0.7096 -0.0829  0.5061
  220MPD1    C5 3343   2.099   1.314  10.051  1.3248 -0.3903 -0.0341
  220MPD1     H 3344   2.123   1.423  10.413 -2.8984 -0.6458  0.2914
  220MPD1    H1 3345   1.889   1.301  10.091 -1.3296  0.9384  1.7084
  220MPD1    H2 3346   2.297   1.365  10.023  0.8994 -2.4948  1.2349
  220MPD1    H3 3347   2.099   1.283   9.947 -0.0119  1.2971 -0.5313
  220MPD1     N 3348   1.893   1.360  10.350 -0.1552  0.3748  0.5706
  220MPD1    H5 3349   1.908   1.408  10.438 -0.7346 -0.1368  0.9484
  220MPD1    N1 3350   2.352   1.460  10.275 -0.1504  1.3358 -0.1864
  220MPD1    H6 3351   2.436   1.431  10.225 -0.1317 -0.5449  0.9276
  220MPD1    H7 3352   2.363   1.459  10.376 -1.7913 -0.0480 -0.0278
  221MPD1     C 3353   4.490   0.664  16.522 -0.8873  0.0283  0.0668
  221MPD1    C1 3354   4.570   0.722  16.623 -0.0828 -0.0585 -0.4915
  221MPD1    C2 3355   4.697   0.766  16.587  0.2219 -0.8908 -0.2870
  221MPD1    C3 3356   0.020   0.762  16.454 -0.3900  0.4779 -0.1624
  221MPD1    C4 3357   4.663   0.698  16.359 -0.2482 -0.8692 -0.0886
  221MPD1    C5 3358   4.538   0.655  16.391  0.0251  0.1535 -0.2825
  221MPD1     H 3359   0.040   0.806  16.663  1.3829 -0.3334 -1.5914
  221MPD1    H1 3360   4.698   0.683  16.257 -0.6171 -1.7970 -0.0795
  221MPD1    H2 3361   4.389   0.638  16.551 -1.4384  0.3508 -1.5685
  221MPD1    H3 3362   4.469   0.614  16.318 -0.5810 -1.4236  1.1797
  221MPD1     N 3363   0.147   0.807  16.407 -1.0053 -0.6653 -0.4348
  221MPD1    H5 3364   0.176   0.780  16.313  2.4506  1.2688  0.0683
  221MPD1    N1 3365   4.540   0.720  16.761  0.9128 -0.2028  0.0135
  221MPD1    H6 3366   4.580   0.801  16.808 -0.3300 -0.1757  1.0242
  221MPD1    H7 3367   4.442   0.739  16.778  1.0876 -0.3937  1.2595
  222MPD1     C 3368   0.790   4.413  16.574 -0.2003  0.0384  0.2854
  222MPD1    C1 3369   0.704   4.516  16.563 -0.2825  0.7805  0.2143
  222MPD1    C2 3370   0.582   4.507  16.619  0.0619 -0.3010  0.3507
  222MPD1    C3 3371   0.542   4.398  16.688 -0.4475  0.0959  0.6720
  222MPD1    C4 3372   0.634   4.295  16.700  0.4278 -0.1737 -0.1738
  222MPD1    C5 3373   0.753   4.303  16.642  0.2580  0.1423  0.3745
  222MPD1     H 3374   0.515   4.591  16.602 -1.4856 -1.1506  2.1578
  222MPD1    H1 3375   0.611   4.203  16.753  0.1051  0.9951  1.6885
  222MPD1    H2 3376   0.888   4.413  16.527 -0.0426  1.6063  0.5973
  222MPD1    H3 3377   0.823   4.220  16.641 -0.3966 -0.3998 -2.2635
  222MPD1     N 3378   0.416   4.368  16.749 -0.2158  0.3478 -0.3221
  222MPD1    H5 3379   0.401   4.272  16.779  1.8281 -0.0012 -0.4260
  222MPD1    N1 3380   0.730   4.624  16.468  0.0666  0.7375 -0.0308
  222MPD1    H6 3381   0.679   4.711  16.480  0.3738  1.0799 -1.2115
  222MPD1    H7 3382   0.828   4.648  16.479  0.4009 -0.2785 -0.8281
  223MPD1     C 3383   4.393   3.707  16.929 -0.2326  0.1660 -0.3972
  223MPD1    C1 3384   4.391   3.782  17.047  0.1754 -0.5496  0.3564
  223MPD1    C2 3385   4.472   3.900  17.047 -0.0139  0.1877 -0.2369
  223MPD1    C3 3386   4.548   3.940  16.934 -0.1553  0.5593 -0.5160
  223MPD1    C4 3387   4.536   3.869  16.820 -0.1737  0.1270  0.1793
  223MPD1    C5 3388   4.458   3.752  16.822  0.0979  0.1798 -0.8758
  223MPD1     H 3389   4.480   3.966  17.133 -0.5756  0.0205 -0.0599
  223MPD1    H1 3390   4.591   3.893  16.730  1.1772  2.1701  1.5630
  223MPD1    H2 3391   4.340   3.613  16.928 -0.0525  0.0498  1.0759
  223MPD1    H3 3392   4.445   3.696  16.730 -0.9827 -0.6885 -0.1867
  223MPD1     N 3393   4.628   4.061  16.942  0.0494 -0.0364 -0.0907
  223MPD1    H5 3394   4.634   4.103  17.034  1.4114  3.2052 -1.6664
  223MPD1    N1 3395   4.333   3.749  17.168 -0.6887 -0.2956 -0.7182
  223MPD1    H6 3396   4.288   3.822  17.222 -1.1531 -1.1481  0.0390
  223MPD1    H7 3397   4.261   3.680  17.147 -1.6452  0.2890  0.6819
  224MPD1     C 3398   0.018   0.071   9.185 -0.8175  0.0517  0.5562
  224MPD1    C1 3399   0.057   0.202   9.163 -0.4786 -0.4532 -0.5033
  224MPD1    C2 3400   0.143   0.264   9.255 -0.7439 -0.2450  0.4738
  224MPD1    C3 3401   0.189   0.194   9.369  0.4227 -0.0293 -0.8293
  224MPD1    C4 3402   0.160   0.056   9.383  0.3162 -0.2179  0.0598
  224MPD1    C5 3403   0.074   0.003   9.291 -0.0607  0.0304  0.1642
  224MPD1     H 3404   0.148   0.372   9.248  0.6761 -0.5727 -3.3709
  224MPD1    H1 3405   0.193   0.005   9.472  1.7479 -1.0051 -0.9067
  224MPD1    H2 3406   4.676   0.023   9.113 -1.8340  0.3685  1.2814
  224MPD1    H3 3407   0.046   4.624   9.307  0.2259 -0.0625  0.0789
  224MPD1     N 3408   0.271   0.259   9.464  0.2058  0.5133  0.1848
  224MPD1    H5 3409   0.323   0.201   9.529 -0.8308  0.6100  1.0951
  224MPD1    N1 3410   4.717   0.276   9.064 -0.4728 -0.0176 -0.3167
  224MPD1    H6 3411   4.659   0.226   8.997  0.0158 -1.4606  0.3405
  224MPD1    H7 3412   0.049   0.349   9.022 -1.7750  0.4408 -1.2660
  225MPD1     C 3413   2.142   2.525  12.846 -0.0924  0.0750 -0.3848
  225MPD1    C1 3414   2.059   2.417  12.870 -0.4750  1.0199  0.2492
  225MPD1    C2 3415   1.989   2.372  12.756  0.7500 -0.3376 -0.3463
  225MPD1    C3 3416   1.985   2.429  12.630  0.5377 -0.4982  0.4415
  225MPD1    C4 3417   2.054   2.551  12.618 -0.2427 -0.0944 -0.2136
  225MPD1    C5 3418   2.117   2.596  12.731 -0.2458 -0.0036 -0.8563
  225MPD1     H 3419   1.932   2.279  12.761 -0.5802  0.4158 -1.5777
  225MPD1    H1 3420   2.060   2.612  12.529  1.9284 -1.0963 -0.7652
  225MPD1    H2 3421   2.208   2.568  12.921 -0.9905 -0.8924  0.9656
  225MPD1    H3 3422   2.180   2.683  12.719  0.0611 -0.1997 -0.6783
  225MPD1     N 3423   1.917   2.381  12.520  0.0089 -0.3954  0.0497
  225MPD1    H5 3424   1.909   2.448  12.444  2.4810 -1.5349 -1.2149
  225MPD1    N1 3425   2.081   2.338  12.978 -0.2608 -0.0046 -0.3395
  225MPD1    H6 3426   1.998   2.280  12.994 -0.1652  0.3827  1.5708
  225MPD1    H7 3427   2.113   2.386  13.062 -1.4292 -0.2948  0.2882
  226MPD1     C 3428   4.433   0.828   9.354  0.0487  0.3885 -0.5294
  226MPD1    C1 3429   4.566   0.874   9.342  0.0541 -0.2578  0.0550
  226MPD1    C2 3430   4.594   0.995   9.406  0.0370  0.3121 -0.2973
  226MPD1    C3 3431   4.495   1.067   9.475 -0.6700 -0.1823  0.2215
  226MPD1    C4 3432   4.367   1.015   9.473  0.5286  0.2362  0.3641
  226MPD1    C5 3433   4.343   0.894   9.421  0.0104  0.1443 -0.1253
  226MPD1     H 3434   4.698   1.025   9.412 -0.4616  1.4438  2.2236
  226MPD1    H1 3435   4.291   1.073   9.524  1.4597 -0.0494  2.0705
  226MPD1    H2 3436   4.404   0.730   9.318  0.0644  0.2790 -0.2422
  226MPD1    H3 3437   4.243   0.852   9.433  0.5501 -1.8107 -2.6202
  226MPD1     N 3438   4.541   1.182   9.549 -0.0328  0.0731 -0.1577
  226MPD1    H5 3439   4.641   1.200   9.554 -0.1294  0.8236 -0.9491
  226MPD1    N1 3440   4.674   0.809   9.281 -0.0761  0.1361  0.3064
  226MPD1    H6 3441   0.035   0.856   9.311 -0.6624  0.5711  1.2595
  226MPD1    H7 3442   4.680   0.711   9.310  0.7168  0.1729  0.2527
  227MPD1     C 3443   3.950   1.918   9.940 -0.3847 -0.0852 -0.0830
  227MPD1    C1 3444   3.926   1.827   9.840  0.3696 -0.5309 -0.6855
  227MPD1    C2 3445   4.035   1.744   9.810  0.2175 -0.5282 -0.1365
  227MPD1    C3 3446   4.160   1.767   9.863 -0.8488 -0.2077  0.7724
  227MPD1    C4 3447   4.175   1.852   9.968 -0.8579  1.0185 -0.3076
  227MPD1    C5 3448   4.069   1.921  10.008  0.7442 -0.5003 -0.2293
  227MPD1     H 3449   4.024   1.658   9.744 -1.2771 -1.1701  0.9322
  227MPD1    H1 3450   4.270   1.863  10.020 -1.3229  3.3170  0.0724
  227MPD1    H2 3451   3.870   1.982   9.977 -1.7651 -2.0759  0.3805
  227MPD1    H3 3452   4.080   1.998  10.083 -0.2648  0.9815 -1.6192
  227MPD1     N 3453   4.265   1.681   9.821  0.1230 -0.6049  0.3331
  227MPD1    H5 3454   4.247   1.616   9.745 -0.7495  1.2469 -1.0718
  227MPD1    N1 3455   3.795   1.788   9.802  0.0519  0.4351  0.6921
  227MPD1    H6 3456   3.796   1.764   9.703 -0.8283 -1.5681  1.1733
  227MPD1    H7 3457   3.725   1.861   9.815 -0.2270  0.5381 -1.3869
  228MPD1     C 3458   3.884   0.155  12.783 -0.0686 -0.3038 -0.0148
  228MPD1    C1 3459   3.779   0.175  12.695  0.2140 -0.1813 -0.5142
  228MPD1    C2 3460   3.656   0.108  12.714  0.1932  0.0971 -0.6136
  228MPD1    C3 3461   3.640   0.014  12.808 -0.4884  0.2421 -0.4458
  228MPD1    C4 3462   3.753   4.709  12.891  0.0541  0.2027  0.4489
  228MPD1    C5 3463   3.875   0.054  12.875  0.2977 -0.2192 -0.6490
  228MPD1     H 3464   3.575   0.139  12.649  1.7699  1.2457 -2.0552
  228MPD1    H1 3465   3.751   4.642  12.976  1.1498 -1.1251 -0.5793
  228MPD1    H2 3466   3.970   0.213  12.751 -1.0173  1.1061 -0.0090
  228MPD1    H3 3467   3.959   0.034  12.941  0.0387  0.4753 -0.1144
  228MPD1     N 3468   3.519   4.680  12.821  0.4236  0.8419  0.3605
  228MPD1    H5 3469   3.442   4.718  12.767  1.7189 -0.1851 -2.2330
  228MPD1    N1 3470   3.783   0.291  12.613 -0.3206 -0.0913 -0.3526
  228MPD1    H6 3471   3.714   0.288  12.539  0.1351 -0.4310 -0.7592
  228MPD1    H7 3472   3.873   0.297  12.565 -0.7825 -0.4787 -1.2513
  229MPD1     C 3473   2.983   3.608  15.513  0.0455 -0.5491  0.3367
  229MPD1    C1 3474   2.965   3.598  15.378 -0.3913 -0.2254  0.1426
  229MPD1    C2 3475   3.037   3.505  15.311  0.4569  0.3810  0.1496
  229MPD1    C3 3476   3.153   3.442  15.376  0.1573  0.2371 -0.1968
  229MPD1    C4 3477   3.186   3.483  15.500 -0.1816  0.5818 -0.1970
  229MPD1    C5 3478   3.100   3.563  15.570 -0.1129  0.9134  0.0265
  229MPD1     H 3479   3.012   3.478  15.210  1.4010 -3.6597  0.9843
  229MPD1    H1 3480   3.271   3.444  15.554  0.1236  0.7356 -0.5724
  229MPD1    H2 3481   2.913   3.654  15.581  0.7469  1.1902 -0.1201
  229MPD1    H3 3482   3.120   3.594  15.671  1.5955  0.5467 -0.1955
  229MPD1     N 3483   3.239   3.351  15.311 -0.1457  0.2213  0.0537
  229MPD1    H5 3484   3.310   3.304  15.366 -1.1456  0.5258  1.6035
  229MPD1    N1 3485   2.843   3.645  15.330 -0.9034  0.3638  0.7534
  229MPD1    H6 3486   2.843   3.657  15.229  2.4608  2.3028  0.9823
  229MPD1    H7 3487   2.795   3.721  15.377  0.3226  0.9310  1.0830
  230MPD1     C 3488   3.896   2.683  15.515  0.0316 -0.1410  0.0448
  230MPD1    C1 3489   3.931   2.708  15.383 -0.0065 -0.9025  0.6316
  230MPD1    C2 3490   3.845   2.778  15.309  0.4883  0.4289  0.1146
  230MPD1    C3 3491   3.717   2.808  15.353 -0.4976 -0.2792 -0.2155
  230MPD1    C4 3492   3.682   2.777  15.483 -0.5929  0.7365  0.0119
  230MPD1    C5 3493   3.777   2.715  15.561 -0.1454 -0.3604 -1.3421
  230MPD1     H 3494   3.873   2.818  15.213  0.2295 -0.7288 -0.4492
  230MPD1    H1 3495   3.582   2.786  15.523 -0.0600  2.5064  0.9473
  230MPD1    H2 3496   3.966   2.630  15.580  2.1186  0.4724 -1.7019
  230MPD1    H3 3497   3.756   2.698  15.666  0.4746 -0.9436 -1.3074
  230MPD1     N 3498   3.635   2.882  15.261 -0.3576 -0.2595 -0.0591
  230MPD1    H5 3499   3.682   2.909  15.176 -1.3389 -1.3372 -0.9479
  230MPD1    N1 3500   4.066   2.693  15.343 -0.4658  0.0571  0.1490
  230MPD1    H6 3501   4.112   2.613  15.386 -0.7892 -0.6459 -0.8082
  230MPD1    H7 3502   4.087   2.682  15.244 -0.9004 -1.3580  0.2262
  231MPD1     C 3503   1.341   1.055  15.596 -0.3866 -0.0254 -0.4136
  231MPD1    C1 3504   1.374   1.144  15.489 -0.5602  0.0270 -0.0779
  231MPD1    C2 3505   1.460   1.094  15.397 -0.8767 -0.0871 -0.5060
  231MPD1    C3 3506   1.517   0.968  15.401 -0.2580 -0.1429 -0.3148
  231MPD1    C4 3507   1.481   0.880  15.507  0.0761  0.1531 -0.6589
  231MPD1    C5 3508   1.396   0.927  15.601 -0.0295 -0.7382  0.1366
  231MPD1     H 3509   1.500   1.154  15.316 -0.6211 -0.1508 -0.4293
  231MPD1    H1 3510   1.510   0.776  15.501 -0.6029 -0.1540  1.2785
  231MPD1    H2 3511   1.272   1.081  15.675  1.0848  0.0984  0.8327
  231MPD1    H3 3512   1.362   0.859  15.678 -0.9700 -0.3040  0.1090
  231MPD1     N 3513   1.592   0.926  15.292 -0.3076 -0.3287 -0.1697
  231MPD1    H5 3514   1.606   0.985  15.211  1.2850 -0.7027 -0.1653
  231MPD1    N1 3515   1.304   1.260  15.462  0.3193 -0.0134 -0.4942
  231MPD1    H6 3516   1.297   1.304  15.554 -0.4734 -0.3680 -0.3909
  231MPD1    H7 3517   1.372   1.320  15.416  1.6760 -1.6223 -0.5772
  232MPD1     C 3518   4.043   2.999   0.239  0.1725  0.5716  1.3472
  232MPD1    C1 3519   3.934   2.974   0.320 -0.8938  0.6574  0.3575
  232MPD1    C2 3520   3.827   2.909   0.259  0.5316  0.1170 -0.0777
  232MPD1    C3 3521   3.820   2.879   0.122 -0.3699  0.0172 -0.1981
  232MPD1    C4 3522   3.932   2.911   0.050  0.2871  0.2496 -0.0550
  232MPD1    C5 3523   4.039   2.970   0.108  0.4932 -0.1790  0.9558
  232MPD1     H 3524   3.743   2.868   0.314 -0.2107 -1.3687 -2.3310
  232MPD1    H1 3525   3.932   2.903  17.639  1.7930 -0.6949  0.0214
  232MPD1    H2 3526   4.143   3.031   0.267  1.0989  0.3201 -1.6136
  232MPD1    H3 3527   4.129   2.992   0.052  0.2354  1.9995  1.3865
  232MPD1     N 3528   3.701   2.822   0.069 -0.2218  0.2712 -0.3504
  232MPD1    H5 3529   3.633   2.795   0.139 -0.2655 -1.3042 -1.0055
  232MPD1    N1 3530   3.944   2.983   0.459 -0.5455 -0.1254 -0.5435
  232MPD1    H6 3531   4.006   3.061   0.480  1.9096 -2.4260  0.8909
  232MPD1    H7 3532   3.851   3.002   0.494 -0.1566  0.1296  0.3548
  233MPD1     C 3533   4.349   1.198   1.500 -0.4807 -0.3740 -0.4371
  233MPD1    C1 3534   4.341   1.065   1.459 -0.1648 -0.5455 -0.0001
  233MPD1    C2 3535   4.451   1.003   1.413  0.4671 -0.6224 -0.0399
  233MPD1    C3 3536   4.575   1.067   1.404 -0.8452 -0.4089  0.1856
  233MPD1    C4 3537   4.582   1.202   1.430 -0.0128 -0.1202 -0.8526
  233MPD1    C5 3538   4.467   1.262   1.471  0.3435 -0.7014  0.2811
  233MPD1     H 3539   4.441   0.902   1.375  1.7459 -0.3438 -1.1011
  233MPD1    H1 3540   4.666   1.267   1.410  1.0324 -1.3262 -0.3361
  233MPD1    H2 3541   4.255   1.242   1.533  0.5250  1.1197  0.4081
  233MPD1    H3 3542   4.474   1.370   1.483  2.2273 -0.8209  0.2532
  233MPD1     N 3543   4.695   1.000   1.352 -0.1318 -0.0800  0.0306
  233MPD1    H5 3544   0.060   1.048   1.346 -0.1361 -0.1442 -0.6053
  233MPD1    N1 3545   4.227   0.986   1.489 -0.2005  1.2488  0.6342
  233MPD1    H6 3546   4.144   1.045   1.485  0.2236  1.8744  1.1231
  233MPD1    H7 3547   4.224   0.893   1.447 -0.0682  0.2380  2.8792
  234MPD1     C 3548   1.532   3.800  10.070  0.0062 -0.1936 -0.5218
  234MPD1    C1 3549   1.521   3.916  10.147  0.0373  0.3991 -0.2452
  234MPD1    C2 3550   1.448   4.019  10.088 -0.0915  0.3055  0.3735
  234MPD1    C3 3551   1.420   4.023   9.950  0.4059  0.0442 -0.5419
  234MPD1    C4 3552   1.431   3.906   9.886  0.6839  0.0135 -0.8854
  234MPD1    C5 3553   1.489   3.797   9.941 -0.6230 -0.1339  0.2188
  234MPD1     H 3554   1.433   4.104  10.154 -0.8822  0.5658 -0.1486
  234MPD1    H1 3555   1.398   3.889   9.784 -2.7720  1.8221 -0.0743
  234MPD1    H2 3556   1.576   3.708  10.106  0.8673 -0.6126 -2.6567
  234MPD1    H3 3557   1.509   3.711   9.879 -1.4895 -0.0218 -0.2218
  234MPD1     N 3558   1.370   4.142   9.892 -0.6289 -0.4851  0.0277
  234MPD1    H5 3559   1.358   4.219   9.956 -0.9251 -0.4537 -0.0648
  234MPD1    N1 3560   1.550   3.914  10.286  0.4071 -0.3554  0.1283
  234MPD1    H6 3561   1.547   4.008  10.326  0.4118 -0.1375 -0.3820
  234MPD1    H7 3562   1.636   3.866  10.311  1.7077  0.3735 -2.9588
  235MPD1     C 3563   3.306   2.937  10.768  0.4422 -0.6272  0.0131
  235MPD1    C1 3564   3.380   2.823  10.772 -0.6169  0.5233 -0.2512
  235MPD1    C2 3565   3.388   2.746  10.659 -0.4133  0.3092 -0.4140
  235MPD1    C3 3566   3.298   2.770  10.558 -0.0638  0.0652  0.2779
  235MPD1    C4 3567   3.218   2.883  10.558 -0.2790 -0.6104  0.1509
  235MPD1    C5 3568   3.219   2.965  10.664 -0.7411 -0.0626 -0.1489
  235MPD1     H 3569   3.454   2.660  10.655  0.7681  1.2714 -1.4951
  235MPD1    H1 3570   3.150   2.897  10.475  1.6800 -1.4302 -1.5730
  235MPD1    H2 3571   3.311   2.999  10.857 -1.9204 -1.2572  0.5765
  235MPD1    H3 3572   3.179   3.065  10.655  1.6859  1.0838  1.5647
  235MPD1     N 3573   3.304   2.664  10.464 -0.0905  0.2315 -0.3548
  235MPD1    H5 3574   3.376   2.593  10.478 -1.6035 -1.1227  0.5699
  235MPD1    N1 3575   3.461   2.794  10.881 -0.0060  0.0087 -0.8404
  235MPD1    H6 3576   3.491   2.697  10.883  1.4751  0.4464 -1.7364
  235MPD1    H7 3577   3.411   2.814  10.968  2.7018  1.9408  0.3042
  236MPD1     C 3578   2.128   2.827   9.631 -0.0913 -0.1022  0.4891
  236MPD1    C1 3579   2.256   2.774   9.644 -0.8299  0.3648 -0.5535
  236MPD1    C2 3580   2.317   2.788   9.765 -0.1188 -0.0272  0.4068
  236MPD1    C3 3581   2.257   2.857   9.872  0.3343 -0.7913  0.0421
  236MPD1    C4 3582   2.143   2.927   9.839  0.2045 -0.4375  0.1611
  236MPD1    C5 3583   2.076   2.910   9.720  0.4252  0.3070  0.2504
  236MPD1     H 3584   2.403   2.728   9.793 -0.8180 -1.4087 -0.3728
  236MPD1    H1 3585   2.092   3.000   9.901  1.3718  1.1009 -0.7088
  236MPD1    H2 3586   2.064   2.818   9.544 -0.4994 -0.7079  0.8575
  236MPD1    H3 3587   1.981   2.961   9.714  0.5400  0.4689 -0.1903
  236MPD1     N 3588   2.314   2.876  10.001  0.2619  0.1867 -0.5073
  236MPD1    H5 3589   2.267   2.941  10.063  1.6499 -1.1686  1.9620
  236MPD1    N1 3590   2.298   2.686   9.545 -0.7385  0.0271 -0.1793
  236MPD1    H6 3591   2.398   2.669   9.541 -0.8142 -0.3374 -0.6124
  236MPD1    H7 3592   2.263   2.714   9.454  0.0993  0.2262 -0.4427
  237MPD1     C 3593   1.912   2.622  14.856 -0.5055 -0.3156 -0.2129
  237MPD1    C1 3594   1.922   2.565  14.984  0.0142 -0.0159  0.2243
  237MPD1    C2 3595   1.879   2.436  15.000  0.4631 -0.9488  0.4473
  237MPD1    C3 3596   1.807   2.376  14.896 -0.3664 -0.6210 -0.2168
  237MPD1    C4 3597   1.793   2.437  14.773  0.5637  0.0056 -1.0556
  237MPD1    C5 3598   1.849   2.561  14.747  0.5794  0.2165 -0.5805
  237MPD1     H 3599   1.890   2.375  15.089 -0.8115  0.8497  1.8196
  237MPD1    H1 3600   1.752   2.384  14.688 -1.9421 -0.7017  0.6085
  237MPD1    H2 3601   1.957   2.721  14.855  0.1782 -0.6233 -0.0586
  237MPD1    H3 3602   1.841   2.613  14.652  0.6023 -2.4957 -2.0733
  237MPD1     N 3603   1.729   2.260  14.910  0.1797 -0.2493 -0.4151
  237MPD1    H5 3604   1.682   2.230  14.826 -1.3408  2.2739 -0.4848
  237MPD1    N1 3605   2.011   2.630  15.078  0.3286  0.4731  0.0347
  237MPD1    H6 3606   1.999   2.731  15.071 -1.9374  0.1260 -1.0480
  237MPD1    H7 3607   1.969   2.618  15.170 -0.0388  4.8081  0.4387
  238MPD1     C 3608   3.684   4.320  14.849  0.0601  0.4422 -0.5677
  238MPD1    C1 3609   3.753   4.433  14.813  0.4159  0.6522 -0.3125
  238MPD1    C2 3610   3.676   4.547  14.817 -0.0359 -0.3597 -0.1630
  238MPD1    C3 3611   3.536   4.545  14.831 -0.5489  0.2730  0.4266
  238MPD1    C4 3612   3.472   4.430  14.858  0.4603 -0.0175  0.2511
  238MPD1    C5 3613   3.549   4.321  14.866  0.2354  0.1316 -0.0625
  238MPD1     H 3614   3.735   4.634  14.788  0.5111 -0.1325  1.6157
  238MPD1    H1 3615   3.365   4.417  14.869  0.2164  0.8894 -1.0442
  238MPD1    H2 3616   3.738   4.229  14.872  0.7548  1.3458  1.3970
  238MPD1    H3 3617   3.494   4.230  14.889 -1.5495  1.2837  0.1770
  238MPD1     N 3618   3.455   4.660  14.805  0.8933  0.2009  0.4921
  238MPD1    H5 3619   3.356   4.640  14.816  0.7296  1.9973  2.2640
  238MPD1    N1 3620   3.897   4.443  14.803  0.4393  0.2273 -0.0737
  238MPD1    H6 3621   3.927   4.353  14.767 -1.6604  0.2717 -1.9705
  238MPD1    H7 3622   3.925   4.520  14.743  3.6290 -0.0388  1.1110
  239MPD1     C 3623   4.098   1.283  14.486 -0.1422  0.3666 -0.1527
  239MPD1    C1 3624   4.210   1.332  14.429  0.5884  0.4147  0.6092
  239MPD1    C2 3625   4.196   1.396  14.307  0.3942 -0.1907  0.0346
  239MPD1    C3 3626   4.075   1.421  14.250  0.5104  0.0445  0.1383
  239MPD1    C4 3627   3.964   1.386  14.320 -0.6439 -0.3737 -0.2508
  239MPD1    C5 3628   3.977   1.318  14.440  0.0033 -0.4705 -0.5360
  239MPD1     H 3629   4.289   1.438  14.271  0.7668 -2.2394 -1.3787
  239MPD1    H1 3630   3.864   1.401  14.283 -0.6068 -1.2307 -0.6934
  239MPD1    H2 3631   4.102   1.222  14.576 -1.1374  0.8483  0.2214
  239MPD1    H3 3632   3.890   1.276  14.487  0.6574  1.1617  2.1229
  239MPD1     N 3633   4.053   1.472  14.125 -0.0233  0.1049 -0.1069
  239MPD1    H5 3634   3.955   1.487  14.101 -0.0270  0.4908  0.1673
  239MPD1    N1 3635   4.333   1.287  14.481 -0.2006  0.1535 -0.0607
  239MPD1    H6 3636   4.321   1.277  14.582  0.4986 -3.8367 -0.3665
  239MPD1    H7 3637   4.394   1.368  14.470 -0.4169  0.0669 -1.8741
  240MPD1     C 3638   3.164   1.008  13.814  0.3078 -0.2835  0.5245
  240MPD1    C1 3639   3.091   0.895  13.830 -0.5477 -0.0813 -0.2464
  240MPD1    C2 3640   3.093   0.836  13.953 -0.1830 -0.3035  0.7314
  240MPD1    C3 3641   3.147   0.900  14.062  0.2329  0.7057 -0.4479
  240MPD1    C4 3642   3.201   1.027  14.049  0.3894  0.1172 -0.3333
  240MPD1    C5 3643   3.225   1.068  13.923 -0.0507  0.7020 -0.1778
  240MPD1     H 3644   3.036   0.745  13.967 -0.9710  0.1755  0.6215
  240MPD1    H1 3645   3.225   1.086  14.137 -0.7064  2.5744 -1.6879
  240MPD1    H2 3646   3.165   1.061  13.720  0.4109  1.1262  1.3093
  240MPD1    H3 3647   3.258   1.170  13.916 -1.3569  1.0679 -1.1251
  240MPD1     N 3648   3.141   0.835  14.191 -0.2127  0.1893  0.0033
  240MPD1    H5 3649   3.079   0.755  14.191 -0.0441  0.0602 -0.9242
  240MPD1    N1 3650   3.050   0.819  13.717  0.4741  0.1460  0.2926
  240MPD1    H6 3651   3.056   0.868  13.629 -0.2052  1.7988  1.1655
  240MPD1    H7 3652   2.959   0.773  13.722 -0.1886  1.2988 -1.2186
  241MPD1     C 3653   3.867   0.513  14.768 -0.7284 -0.0938 -0.0672
  241MPD1    C1 3654   3.779   0.413  14.743 -0.2080  0.4105  0.6360
  241MPD1    C2 3655   3.655   0.454  14.708 -0.1010 -0.7736 -0.0671
  241MPD1    C3 3656   3.625   0.593  14.682  0.5697  0.6199 -0.2265
  241MPD1    C4 3657   3.719   0.684  14.712  0.6626  0.3753  0.2434
  241MPD1    C5 3658   3.837   0.642  14.753  0.6428  0.5898  0.1417
  241MPD1     H 3659   3.580   0.378  14.689 -0.8354 -0.4844  1.6022
  241MPD1    H1 3660   3.698   0.789  14.696  0.5196  0.1560 -1.0161
  241MPD1    H2 3661   3.967   0.490  14.804 -0.4813 -1.6138 -1.7107
  241MPD1    H3 3662   3.908   0.719  14.780  2.3659 -0.7437 -0.5288
  241MPD1     N 3663   3.502   0.643  14.642 -0.0467  0.1859  0.3551
  241MPD1    H5 3664   3.495   0.744  14.632  0.1247  0.1640 -0.0206
  241MPD1    N1 3665   3.810   0.280  14.756 -0.4643 -0.5228 -0.4014
  241MPD1    H6 3666   3.748   0.216  14.707 -0.2719 -0.4244 -0.7753
  241MPD1    H7 3667   3.908   0.259  14.736  0.8145  2.8732  2.2444
  242MPD1     C 3668   2.508   4.276  15.859  0.0476 -0.0249  1.0800
  242MPD1    C1 3669   2.466   4.349  15.749 -0.6869 -0.2037  0.8107
  242MPD1    C2 3670   2.437   4.284  15.633  0.6524  0.3996  0.2636
  242MPD1    C3 3671   2.449   4.143  15.624  0.0445 -0.7457 -0.1765
  242MPD1    C4 3672   2.492   4.073  15.729  0.4086  0.5810  0.3991
  242MPD1    C5 3673   2.516   4.141  15.847  0.3536 -0.5602  0.1401
  242MPD1     H 3674   2.412   4.346  15.548  1.8236 -0.3708 -0.6458
  242MPD1    H1 3675   2.512   3.966  15.731  2.0873  0.8867  0.5709
  242MPD1    H2 3676   2.527   4.317  15.958  0.2906  0.4907  0.8184
  242MPD1    H3 3677   2.532   4.081  15.936  0.4587  2.5095  2.1912
  242MPD1     N 3678   2.436   4.075  15.496 -0.4047  0.2786 -0.4265
  242MPD1    H5 3679   2.462   3.977  15.493 -1.7522 -0.0542 -1.3396
  242MPD1    N1 3680   2.485   4.485  15.750  0.1194 -0.5213 -0.7308
  242MPD1    H6 3681   2.418   4.537  15.695 -0.7876  1.8231  2.5986
  242MPD1    H7 3682   2.475   4.532  15.840  0.3479 -3.9779  1.1141
  243MPD1     C 3683   0.485   2.966  17.180 -0.2677 -0.1493  0.1530
  243MPD1    C1 3684   0.437   2.945  17.053  0.4454 -0.6185 -0.3166
  243MPD1    C2 3685   0.301   2.904  17.034 -0.7454  0.0714  0.2018
  243MPD1    C3 3686   0.220   2.867  17.134 -0.6354  0.8291 -0.4909
  243MPD1    C4 3687   0.277   2.873  17.260 -0.2213 -0.1585 -0.5059
  243MPD1    C5 3688   0.405   2.925  17.282  0.6192 -0.3829  0.2125
  243MPD1     H 3689   0.270   2.881  16.933 -0.9711  0.4916  0.1759
  243MPD1    H1 3690   0.224   2.851  17.352  1.9789 -0.6488  0.6567
  243MPD1    H2 3691   0.588   2.996  17.197 -0.8068  2.8620 -1.9227
  243MPD1    H3 3692   0.443   2.921  17.383  1.3527 -0.2997 -0.0653
  243MPD1     N 3693   0.096   2.816  17.099  0.7432  0.1844  0.3448
  243MPD1    H5 3694   0.083   2.787  17.002 -1.1766 -0.9794  0.9345
  243MPD1    N1 3695   0.512   2.987  16.943  0.1150 -0.0893  0.4398
  243MPD1    H6 3696   0.611   2.999  16.959  0.0075  0.9687  0.3023
  243MPD1    H7 3697   0.481   2.933  16.862  1.4603 -0.0292 -0.1051
  244MPD1     C 3698   4.084   2.604   0.029  0.5258 -0.1787 -0.3348
  244MPD1    C1 3699   4.220   2.606   0.038 -0.0688 -0.1301  0.5974
  244MPD1    C2 3700   4.298   2.581  17.620  1.1027  0.0623  0.3381
  244MPD1    C3 3701   4.238   2.567  17.499 -0.1919  0.0608  0.9922
  244MPD1    C4 3702   4.098   2.565  17.488  0.2471 -0.2488 -0.6209
  244MPD1    C5 3703   4.027   2.585  17.607  0.8890  0.1900  0.6896
  244MPD1     H 3704   4.406   2.585  17.624  1.0446  0.1117  1.6151
  244MPD1    H1 3705   4.044   2.543  17.396 -0.0981  1.2023 -0.7599
  244MPD1    H2 3706   4.026   2.604   0.120  0.1525  2.2771 -0.5668
  244MPD1    H3 3707   3.919   2.579  17.604  1.1863 -4.0922 -1.5613
  244MPD1     N 3708   4.327   2.561  17.390 -0.0331 -0.7700  0.3957
  244MPD1    H5 3709   4.426   2.553  17.412  0.6248 -2.2823 -3.1712
  244MPD1    N1 3710   4.285   2.629   0.163 -0.2570 -0.2640 -0.2665
  244MPD1    H6 3711   4.371   2.683   0.153  2.1779 -4.0735 -0.0178
  244MPD1    H7 3712   4.224   2.668   0.234 -0.9121  1.2352 -1.6435
  245MPD1     C 3713   1.250   3.020  13.132  0.0450  0.1885 -0.2111
  245MPD1    C1 3714   1.184   3.074  13.241 -0.0188  0.3014 -0.6707
  245MPD1    C2 3715   1.232   3.196  13.290  0.2100 -0.1649  0.1778
  245MPD1    C3 3716   1.330   3.264  13.231 -0.4517 -0.0603  0.3625
  245MPD1    C4 3717   1.363   3.222  13.105  0.0240 -0.2654 -0.6706
  245MPD1    C5 3718   1.325   3.101  13.056 -0.2841 -0.6516  0.0232
  245MPD1     H 3719   1.188   3.240  13.379  2.4919  1.4930  0.4624
  245MPD1    H1 3720   1.426   3.277  13.035  0.4673 -1.1300 -0.9558
  245MPD1    H2 3721   1.228   2.925  13.086  0.9005  1.1154 -2.5595
  245MPD1    H3 3722   1.358   3.065  12.960  0.3353  0.1082 -0.0461
  245MPD1     N 3723   1.370   3.380  13.293 -0.4505 -0.3347 -0.0523
  245MPD1    H5 3724   1.354   3.384  13.393  1.2840 -0.3472  0.2157
  245MPD1    N1 3725   1.123   2.984  13.329 -0.0815  0.7339 -0.7136
  245MPD1    H6 3726   1.073   2.912  13.277  1.6523 -2.4233  1.9737
  245MPD1    H7 3727   1.065   3.026  13.401  2.6869  0.1647  1.8364
  246MPD1     C 3728   0.405   4.295   8.612 -0.3270  0.5919  0.0772
  246MPD1    C1 3729   0.434   4.242   8.486 -0.3557 -0.6676 -0.2104
  246MPD1    C2 3730   0.541   4.157   8.476 -0.1411 -0.2071  0.9952
  246MPD1    C3 3731   0.628   4.142   8.577  0.5340 -0.6147 -0.3553
  246MPD1    C4 3732   0.596   4.201   8.698  0.3581 -0.1365  0.3471
  246MPD1    C5 3733   0.482   4.270   8.720  0.2384  0.0610  0.2996
  246MPD1     H 3734   0.558   4.098   8.387 -2.3714  1.0426 -0.2632
  246MPD1    H1 3735   0.651   4.174   8.789  0.3237  0.8390  0.6531
  246MPD1    H2 3736   0.314   4.346   8.641  0.8903  2.3141  0.8029
  246MPD1    H3 3737   0.455   4.293   8.822 -2.2496 -1.2686 -0.0682
  246MPD1     N 3738   0.727   4.041   8.562  0.3831 -0.1665 -0.8598
  246MPD1    H5 3739   0.739   4.003   8.469  1.6369  2.1724 -1.6608
  246MPD1    N1 3740   0.328   4.245   8.393 -0.2383 -0.3721  0.2060
  246MPD1    H6 3741   0.286   4.338   8.396  1.3776  0.2556  3.1595
  246MPD1    H7 3742   0.365   4.227   8.300 -0.2777 -1.4418  0.4012
  247MPD1     C 3743   0.682   4.347  15.016  1.2816 -0.6204  0.1315
  247MPD1    C1 3744   0.578   4.360  15.111  0.9333  0.1259 -1.5195
  247MPD1    C2 3745   0.554   4.251  15.200 -0.3228 -0.7685 -0.7274
  247MPD1    C3 3746   0.638   4.148  15.199 -0.1571 -0.3071 -0.7504
  247MPD1    C4 3747   0.756   4.152  15.130 -0.9029  0.2309 -1.1336
  247MPD1    C5 3748   0.775   4.246  15.035  0.1731 -0.0253 -0.0435
  247MPD1     H 3749   0.460   4.254  15.255 -0.4816  0.2355 -1.0549
  247MPD1    H1 3750   0.825   4.069  15.132 -1.0230  0.1513 -0.2227
  247MPD1    H2 3751   0.701   4.428  14.947 -1.0212 -0.2323 -0.0698
  247MPD1    H3 3752   0.865   4.245  14.974 -1.1243 -0.2169 -1.9694
  247MPD1     N 3753   0.618   4.030  15.267  0.0253 -0.0132 -0.0394
  247MPD1    H5 3754   0.694   3.963  15.261 -1.1289 -1.3190 -0.1913
  247MPD1    N1 3755   0.485   4.471  15.097 -0.5970  0.0955  0.4518
  247MPD1    H6 3756   0.432   4.479  15.183  2.0032 -1.8378  2.2486
  247MPD1    H7 3757   0.540   4.555  15.082  0.0211  0.4107  4.4779
  248MPD1     C 3758   2.217   1.355   0.648  0.0433  0.0253 -0.5626
  248MPD1    C1 3759   2.254   1.444   0.750 -0.6606  0.0520 -0.2843
  248MPD1    C2 3760   2.150   1.489   0.836  0.2758  0.3046  0.5812
  248MPD1    C3 3761   2.014   1.472   0.806 -0.0646  0.2702  0.3671
  248MPD1    C4 3762   1.983   1.391   0.702 -0.2827  0.1301  0.1129
  248MPD1    C5 3763   2.086   1.329   0.627  0.5093  0.1881 -0.1266
  248MPD1     H 3764   2.170   1.558   0.917  2.6866  0.5342 -0.2308
  248MPD1    H1 3765   1.882   1.365   0.675  0.2399  2.1915 -3.8139
  248MPD1    H2 3766   2.284   1.315   0.574 -1.1124 -1.3971 -0.8167
  248MPD1    H3 3767   2.052   1.278   0.537 -2.3189  2.2108 -0.2138
  248MPD1     N 3768   1.914   1.543   0.879 -0.1469 -0.7762  0.2512
  248MPD1    H5 3769   1.946   1.610   0.948 -3.2725 -0.3052  1.2171
  248MPD1    N1 3770   2.383   1.446   0.801 -0.3937  0.1682 -0.0083
  248MPD1    H6 3771   2.438   1.461   0.716  0.1472  0.1820  0.3493
  248MPD1    H7 3772   2.403   1.535   0.845 -1.4901  0.2774  0.2848
  249MPD1     C 3773   1.365   0.799  10.203  0.0543 -0.4353 -0.1608
  249MPD1    C1 3774   1.394   0.921  10.249 -0.1100 -0.5541 -0.1752
  249MPD1    C2 3775   1.527   0.955  10.271 -0.1478 -0.3047  0.1519
  249MPD1    C3 3776   1.631   0.864  10.236  0.5503  0.9342  1.3638
  249MPD1    C4 3777   1.591   0.738  10.202 -0.2018 -0.0015 -1.1755
  249MPD1    C5 3778   1.466   0.706  10.186 -0.5437  0.6183  0.0969
  249MPD1     H 3779   1.553   1.057  10.295 -0.8633  0.2190 -1.2865
  249MPD1    H1 3780   1.669   0.664  10.189 -0.2215 -0.3046  0.4691
  249MPD1    H2 3781   1.260   0.777  10.185  0.4859 -2.2454 -0.4721
  249MPD1    H3 3782   1.448   0.601  10.163 -0.9850  0.3200  1.8132
  249MPD1     N 3783   1.770   0.920  10.245 -0.0236 -0.1914 -0.4363
  249MPD1    H5 3784   1.783   1.020  10.259 -0.9414 -0.1714  0.3072
  249MPD1    N1 3785   1.297   1.012  10.236 -0.0215  0.6354 -0.2624
  249MPD1    H6 3786   1.206   0.977  10.266 -0.4045  3.5500  1.9290
  249MPD1    H7 3787   1.302   1.093  10.298  0.2297  0.2368  0.2402
  250MPD2     C 3788   0.485   1.727  12.924 -0.0331 -0.7389  0.4276
  250MPD2    C1 3789   0.368   1.796  12.936  0.0408  0.6710 -0.4464
  250MPD2    C2 3790   0.246   1.749  12.909  0.0775  0.8738  0.5323
  250MPD2    C3 3791   0.230   1.618  12.872  0.2451 -0.0297 -0.1346
  250MPD2    C4 3792   0.345   1.547  12.857 -0.5056  0.2884 -0.0031
  250MPD2    C5 3793   0.471   1.598  12.876 -0.0219  0.0616 -0.1474
  250MPD2     H 3794   0.155   1.807  12.924 -1.3520 -0.6351 -2.2841
  250MPD2    H1 3795   0.342   1.451  12.807 -0.8725 -0.2779  1.1248
  250MPD2    H2 3796   0.584   1.768  12.942 -0.2342 -0.5325  1.0573
  250MPD2    H3 3797   0.554   1.534  12.849  1.1925  1.0549  1.2777
  250MPD2     N 3798   0.112   1.557  12.832  0.1276  0.0590 -0.3977
  250MPD2    H5 3799   0.107   1.471  12.779 -0.5976  0.4919 -1.0334
  250MPD2    N1 3800   0.390   1.929  12.968 -0.1748  0.1207 -0.2291
  250MPD2    H7 3801   0.480   1.951  13.011 -0.1972 -2.2702  1.0215
  251TMC3    C1 3802   0.346   2.157  13.002 -0.3374  0.6984  0.4396
  251TMC3    C2 3803   0.250   2.251  13.027 -0.6409  0.2946  0.1872
  251TMC3    C3 3804   0.284   2.379  13.044  0.0373 -0.4222 -0.9036
  251TMC3    C4 3805   0.475   2.188  13.011  0.1706 -0.6638  0.6228
  251TMC3    C5 3806   0.509   2.321  13.022 -0.5166  0.1660 -0.1833
  251TMC3    C6 3807   0.419   2.417  13.042 -0.2868  0.3662  0.3262
  251TMC3     C 3808   0.297   2.029  12.953  0.2548  0.4003  0.6653
  251TMC3     O 3809   0.183   2.022  12.910 -0.2086 -0.0796  0.1183
  251TMC3     H 3810   0.147   2.217  13.030 -0.6706  0.5050  1.6602
  251TMC3    H1 3811   0.546   2.107  12.998  2.7796  1.9004 -1.0490
  251TMC3    H2 3812   0.453   2.519  13.052  0.8920 -0.1063  1.0342
  251TMC3    C7 3813   0.653   2.346  13.011 -0.0087  0.1054 -0.2187
  251TMC3    C8 3814   0.188   2.464  13.120 -0.8169  0.4160  0.7502
  251TMC3    O1 3815   0.728   2.248  13.034  0.0832 -0.4795 -0.4669
  251TMC3    O2 3816   0.219   2.519  13.226 -0.0816  0.3787 -0.4782
  252TMC3    C1 3817   1.388   2.314   9.531  0.8012  0.2034 -0.1238
  252TMC3    C2 3818   1.444   2.438   9.532 -0.1288  0.2214  0.2472
  252TMC3    C3 3819   1.405   2.530   9.435  0.3834 -0.3174  0.8029
  252TMC3    C4 3820   1.293   2.276   9.440  0.1753  0.1355 -0.6625
  252TMC3    C5 3821   1.251   2.372   9.354  0.0778  0.2769  0.1471
  252TMC3    C6 3822   1.298   2.504   9.354 -0.2476  0.8235  0.5816
  252TMC3     C 3823   1.447   2.219   9.616  0.0831  0.4634  0.1035
  252TMC3     O 3824   1.569   2.212   9.612 -0.5198  0.0776  0.6023
  252TMC3     H 3825   1.531   2.460   9.593 -0.7492  0.6405  0.9918
  252TMC3    H1 3826   1.274   2.169   9.438 -0.8200  0.2546  1.5479
  252TMC3    H2 3827   1.260   2.568   9.275  1.9011  0.2979 -0.8624
  252TMC3    C7 3828   1.160   2.334   9.248 -0.1196 -0.8537 -0.2447
  252TMC3    C8 3829   1.419   2.670   9.471  0.2948 -0.6073 -0.0178
  252TMC3    O1 3830   1.169   2.387   9.141  0.4121 -0.5718 -0.1647
  252TMC3    O2 3831   1.391   2.748   9.381  0.0560 -0.0323  1.0461
  253MPD2     C 3832   1.352   2.417  14.947  0.3675  0.0842  0.3327
  253MPD2    C1 3833   1.228   2.354  14.941  0.4352  0.2065  0.3886
  253MPD2    C2 3834   1.179   2.281  15.042 -0.1246 -0.6540 -0.3400
  253MPD2    C3 3835   1.254   2.268  15.164 -0.0799 -0.0543  0.2462
  253MPD2    C4 3836   1.380   2.325  15.164  0.2767 -0.0456  0.5800
  253MPD2    C5 3837   1.424   2.400  15.060  0.0703  0.4686 -0.4079
  253MPD2     H 3838   1.075   2.251  15.032 -0.5132  0.4985  0.2654
  253MPD2    H1 3839   1.440   2.306  15.252 -0.2234 -0.7824  0.7604
  253MPD2    H2 3840   1.395   2.488  14.878 -0.2990 -1.2205 -1.4111
  253MPD2    H3 3841   1.518   2.454  15.052  0.2160  0.4619  1.3040
  253MPD2     N 3842   1.206   2.204  15.283  0.1456  0.3377 -0.0507
  253MPD2    H5 3843   1.268   2.198  15.363 -0.7859  1.2596  0.7347
  253MPD2    N1 3844   1.149   2.366  14.826 -0.3244  0.8711  0.6466
  253MPD2    H7 3845   1.065   2.311  14.840 -2.0685  3.0178 -1.3609
  254TMC3    C1 3846   1.043   2.130  15.430  0.1220 -0.2786 -0.8504
  254TMC3    C2 3847   0.915   2.146  15.477 -0.2414 -0.0518  0.1839
  254TMC3    C3 3848   0.895   2.091  15.595 -0.0770 -0.1741  0.1606
  254TMC3    C4 3849   1.141   2.055  15.495 -0.0348 -0.9688  0.2374
  254TMC3    C5 3850   1.108   2.000  15.614  0.1048  0.1134 -0.9893
  254TMC3    C6 3851   0.980   2.012  15.659  0.0425  0.6567  0.2169
  254TMC3     C 3852   1.078   2.189  15.305  0.4475  0.5749  0.1964
  254TMC3     O 3853   0.980   2.215  15.241 -0.1052  0.1887 -0.5019
  254TMC3     H 3854   0.852   2.215  15.422 -1.8438 -0.4545  1.5351
  254TMC3    H1 3855   1.235   2.033  15.446 -0.4340  0.5209 -1.2010
  254TMC3    H2 3856   0.953   1.980  15.759 -0.2008 -0.5613 -0.2361
  254TMC3    C7 3857   1.205   1.952  15.708  0.4467 -0.8775  0.4824
  254TMC3    C8 3858   0.769   2.106  15.662 -0.2457  1.0238  0.8167
  254TMC3    O1 3859   1.154   1.910  15.810  0.5577  0.2294  0.2589
  254TMC3    O2 3860   0.722   2.016  15.732  1.2198 -0.2163  0.2389
  255MPD2     C 3861   4.463   3.654  10.374  0.1553  0.1026  0.1845
  255MPD2    C1 3862   4.483   3.573  10.264 -0.4538 -0.0920  0.8310
  255MPD2    C2 3863   4.614   3.561  10.210  0.3420  0.6280  0.0012
  255MPD2    C3 3864   4.714   3.614  10.284  0.1193 -0.2108  0.8266
  255MPD2    C4 3865   4.690   3.684  10.400 -0.4368  0.6585  0.0376
  255MPD2    C5 3866   4.567   3.713  10.438 -0.3273  0.3487  0.4761
  255MPD2     H 3867   4.634   3.507  10.119  0.7496  1.3575 -0.3417
  255MPD2    H1 3868   0.043   3.727  10.463  1.2496  0.3737 -1.8061
  255MPD2    H2 3869   4.363   3.673  10.413  0.3935  1.8582 -0.0434
  255MPD2    H3 3870   4.560   3.771  10.530 -0.7244 -0.2670  0.8364
  255MPD2     N 3871   0.115   3.587  10.242 -0.2997 -0.3211 -0.8254
  255MPD2    H5 3872   0.127   3.541  10.152  2.2472  0.6813 -0.9761
  255MPD2    N1 3873   4.372   3.506  10.208  0.1221  0.3137  0.0244
  255MPD2    H7 3874   4.282   3.534  10.248  0.1184  0.8583 -0.3706
  256TMC3    C1 3875   4.247   3.387  10.047  0.8807  0.0989  0.4694
  256TMC3    C2 3876   4.168   3.493  10.018 -0.5034 -0.3131  0.5769
  256TMC3    C3 3877   4.051   3.472   9.957 -0.1827  0.9473 -0.0682
  256TMC3    C4 3878   4.205   3.263  10.032  0.5668  0.3072 -0.7098
  256TMC3    C5 3879   4.087   3.240   9.969 -0.0861 -0.5739 -0.0775
  256TMC3    C6 3880   4.004   3.343   9.941 -0.3930  0.3700 -0.2314
  256TMC3     C 3881   4.372   3.410  10.107 -0.1620  0.6400  0.4916
  256TMC3     O 3882   4.466   3.344  10.061 -0.4350  0.4650 -0.1486
  256TMC3     H 3883   4.217   3.590  10.015 -1.1162 -0.0009  0.5702
  256TMC3    H1 3884   4.265   3.181  10.069 -1.0161 -0.3750  0.3392
  256TMC3    H2 3885   3.913   3.326   9.884 -1.5404  0.9240  1.4262
  256TMC3    C7 3886   4.042   3.104   9.961 -0.6246 -0.0131 -0.1523
  256TMC3    C8 3887   3.972   3.574   9.886  0.3275  0.0921 -0.1671
  256TMC3    O1 3888   4.134   3.025   9.959  0.1866 -0.1937 -0.1338
  256TMC3    O2 3889   3.851   3.547   9.877  0.0480 -0.1976  0.3402
  257MPD2     C 3890   3.832   2.138  13.021  0.3910  0.4846 -0.4790
  257MPD2    C1 3891   3.777   2.048  12.930 -0.1028  0.0349 -0.0783
  257MPD2    C2 3892   3.784   1.919  12.957  0.0285  0.6571 -0.0245
  257MPD2    C3 3893   3.845   1.873  13.074 -0.1598  0.2244  0.0376
  257MPD2    C4 3894   3.897   1.955  13.169 -0.2312  0.6987  0.0604
  257MPD2    C5 3895   3.891   2.091  13.135  0.3978 -0.3111  0.5305
  257MPD2     H 3896   3.746   1.839  12.893 -0.3507  0.3978  0.5290
  257MPD2    H1 3897   3.938   1.929  13.266  1.6184  2.3100 -0.2799
  257MPD2    H2 3898   3.838   2.244  13.003 -0.1192  0.6988  0.6110
  257MPD2    H3 3899   3.936   2.157  13.208 -0.9726  1.7078 -0.4503
  257MPD2     N 3900   3.838   1.724  13.087  0.3944 -1.2700 -0.5486
  257MPD2    H5 3901   3.798   1.675  13.007 -0.1590 -1.6151 -0.0614
  257MPD2    N1 3902   3.724   2.106  12.811 -0.1102 -0.1715  0.0246
  257MPD2    H7 3903   3.730   2.207  12.802 -1.8828 -0.0646  0.0029
  258TMC3    C1 3904   3.845   1.521  13.206  0.3186 -0.0193 -0.0761
  258TMC3    C2 3905   3.914   1.454  13.107 -0.4681 -0.5560 -0.5756
  258TMC3    C3 3906   3.985   1.344  13.147  0.5715 -0.8710 -0.1087
  258TMC3    C4 3907   3.830   1.475  13.334 -0.2530 -0.1579 -0.4928
  258TMC3    C5 3908   3.895   1.357  13.362  0.7729 -0.8322  0.1142
  258TMC3    C6 3909   3.976   1.295  13.274 -0.6755  0.2534 -0.3079
  258TMC3     C 3910   3.857   1.666  13.207 -0.9689 -0.7358  0.4870
  258TMC3     O 3911   3.865   1.717  13.319 -0.0288  0.0548 -0.0891
  258TMC3     H 3912   3.915   1.491  13.005  0.5693 -0.4173 -0.5116
  258TMC3    H1 3913   3.763   1.526  13.402 -0.5429 -2.2033  0.7787
  258TMC3    H2 3914   4.034   1.208  13.300  0.0684  0.1577 -2.3287
  258TMC3    C7 3915   3.868   1.285  13.487 -0.1016 -0.5940 -0.0913
  258TMC3    C8 3916   4.079   1.269  13.055 -0.3230 -0.5356 -0.1940
  258TMC3    O1 3917   3.752   1.280  13.533 -0.0486 -0.1344 -0.6297
  258TMC3    O2 3918   4.154   1.186  13.107 -0.0362  0.2594 -0.1383
  259MPD2     C 3919   2.198   2.792   0.744  0.3952 -0.1414 -0.3558
  259MPD2    C1 3920   2.288   2.691   0.735 -0.0691 -0.1841 -0.3868
  259MPD2    C2 3921   2.313   2.649   0.608  0.1342  0.2803  0.0241
  259MPD2    C3 3922   2.258   2.703   0.494 -0.0900 -0.2494  0.5208
  259MPD2    C4 3923   2.160   2.807   0.508  0.2147 -0.1861 -0.8105
  259MPD2    C5 3924   2.136   2.851   0.637 -0.1720 -0.0497  0.4193
  259MPD2     H 3925   2.389   2.574   0.590 -0.0519 -0.7468  3.6064
  259MPD2    H1 3926   2.099   2.851   0.430 -1.7535  1.0680  1.4144
  259MPD2    H2 3927   2.189   2.838   0.841  2.0095  1.6218 -1.0394
  259MPD2    H3 3928   2.063   2.928   0.654 -0.4100 -0.6567  2.1866
  259MPD2     N 3929   2.300   2.651   0.368  0.3997 -0.1069  0.1707
  259MPD2    H5 3930   2.366   2.574   0.364  0.6811  0.2408 -2.2081
  259MPD2    N1 3931   2.353   2.644   0.851  0.1190 -0.0493 -0.0579
  259MPD2    H7 3932   2.317   2.668   0.943  1.5291  2.5838 -0.1672
  260TMC3    C1 3933   2.359   2.683   0.134 -0.0920  0.1899  0.1399
  260TMC3    C2 3934   2.411   2.782   0.056 -0.1792  0.0531  0.1766
  260TMC3    C3 3935   2.498   2.738  17.662  0.6386 -1.0624  0.3089
  260TMC3    C4 3936   2.390   2.553   0.126  0.9494  0.4333  0.3856
  260TMC3    C5 3937   2.477   2.510   0.029 -0.5115  0.2793  0.2734
  260TMC3    C6 3938   2.534   2.608  17.646  0.3540 -0.6492  0.4758
  260TMC3     C 3939   2.292   2.733   0.254 -0.4808  0.4630 -0.3058
  260TMC3     O 3940   2.244   2.844   0.247 -0.6312 -0.0442 -0.4232
  260TMC3     H 3941   2.392   2.887   0.078  1.3802 -0.1725  2.5370
  260TMC3    H1 3942   2.347   2.481   0.195  0.3113 -1.1152 -1.6346
  260TMC3    H2 3943   2.605   2.574  17.572  0.0036 -0.1544 -0.0888
  260TMC3    C7 3944   2.502   2.370   0.002 -0.1723  0.5614  0.2013
  260TMC3    C8 3945   2.589   2.841  17.611 -0.4302 -0.4455  0.0011
  260TMC3    O1 3946   2.539   2.344  17.588  0.8534 -0.0570  0.6499
  260TMC3    O2 3947   2.563   2.957  17.618  0.5739 -0.4735 -0.5645
  261MPD2     C 3948   4.225   1.900  12.397 -0.0857 -0.4882 -0.2469
  261MPD2    C1 3949   4.349   1.899  12.450  0.4781  0.6878  0.5865
  261MPD2    C2 3950   4.436   2.005  12.424 -0.1666 -0.1619  0.5445
  261MPD2    C3 3951   4.395   2.113  12.355 -0.7764  0.0914 -0.3122
  261MPD2    C4 3952   4.265   2.117  12.299 -0.4450  0.1843  0.0259
  261MPD2    C5 3953   4.183   2.011  12.327 -0.3775 -0.5127  0.3016
  261MPD2     H 3954   4.532   2.006  12.476 -0.0407 -2.0153  0.3362
  261MPD2    H1 3955   4.221   2.203  12.250  0.5916 -0.3811 -1.9041
  261MPD2    H2 3956   4.145   1.830  12.418  0.1042 -0.0737  1.7762
  261MPD2    H3 3957   4.087   2.019  12.278  0.1304 -0.5728 -0.7110
  261MPD2     N 3958   4.486   2.224  12.343 -0.0950  0.3374 -0.6091
  261MPD2    H5 3959   4.562   2.228  12.410  0.4730  1.0778 -1.3031
  261MPD2    N1 3960   4.403   1.789  12.526 -0.7821 -0.1651 -0.1170
  261MPD2    H7 3961   4.496   1.814  12.560 -0.0048 -0.7211 -1.8383
  262TMC3    C1 3962   4.412   2.309  12.134 -0.1697  0.2337 -0.8073
  262TMC3    C2 3963   4.318   2.396  12.077  0.1924 -0.6976  0.7194
  262TMC3    C3 3964   4.290   2.387  11.943 -0.0740 -0.3502  0.2802
  262TMC3    C4 3965   4.467   2.210  12.056  0.6451 -0.5529 -0.2254
  262TMC3    C5 3966   4.436   2.210  11.919  0.7439 -0.1468 -0.0066
  262TMC3    C6 3967   4.345   2.293  11.861  0.6449  0.5120  0.3081
  262TMC3     C 3968   4.476   2.335  12.264  0.0103  0.3054  0.3619
  262TMC3     O 3969   4.560   2.421  12.263  0.3941  0.2306  0.3657
  262TMC3     H 3970   4.274   2.471  12.142 -2.6001 -0.9830 -0.8505
  262TMC3    H1 3971   4.552   2.155  12.095  0.7186  0.8273  1.5792
  262TMC3    H2 3972   4.320   2.291  11.756  1.9244 -2.3432  0.0513
  262TMC3    C7 3973   4.530   2.145  11.828  0.1503  0.0850 -0.2735
  262TMC3    C8 3974   4.201   2.488  11.889 -0.3652  0.0878 -0.0306
  262TMC3    O1 3975   4.638   2.107  11.871 -0.0352 -0.0429 -0.3694
  262TMC3    O2 3976   4.229   2.603  11.934 -0.6006  0.2555  0.5073
  263MPD2     C 3977   0.343   0.839  11.794 -0.1786  0.3459  0.5829
  263MPD2    C1 3978   0.448   0.838  11.705 -0.4939  0.0929  0.4793
  263MPD2    C2 3979   0.432   0.891  11.577  0.3131  0.3256  0.7219
  263MPD2    C3 3980   0.304   0.947  11.541 -0.8622  0.2562  0.4685
  263MPD2    C4 3981   0.203   0.939  11.629 -0.4783  0.4295 -0.5371
  263MPD2    C5 3982   0.220   0.883  11.758  1.0077 -0.5341  0.7867
  263MPD2     H 3983   0.514   0.921  11.513 -0.0993  0.4393  0.2494
  263MPD2    H1 3984   0.102   0.974  11.612 -0.5176 -1.0232 -3.1917
  263MPD2    H2 3985   0.360   0.810  11.897 -2.2559  0.0658  0.8404
  263MPD2    H3 3986   0.146   0.875  11.837 -0.1360  0.9746 -0.1302
  263MPD2     N 3987   0.281   1.009  11.417 -0.2058  0.1142 -0.1266
  263MPD2    H5 3988   0.351   0.995  11.345  0.9357  0.0630  0.9968
  263MPD2    N1 3989   0.575   0.789  11.752 -0.7519 -0.0856 -0.1157
  263MPD2    H7 3990   0.578   0.756  11.847 -0.3540  0.3234  0.0159
  264TMC3    C1 3991   0.181   1.169  11.276 -0.1980 -0.3948  0.3534
  264TMC3    C2 3992   0.179   1.308  11.274  0.2309 -0.1129  0.3232
  264TMC3    C3 3993   0.241   1.368  11.170 -0.0379 -0.1908  0.2262
  264TMC3    C4 3994   0.206   1.089  11.168  0.3933 -0.5960  0.1990
  264TMC3    C5 3995   0.241   1.155  11.056 -0.0114  0.0161  0.3814
  264TMC3    C6 3996   0.264   1.292  11.056 -0.0984  0.1398 -0.8891
  264TMC3     C 3997   0.182   1.107  11.408  0.1218 -0.5893 -0.4712
  264TMC3     O 3998   0.130   1.174  11.500  0.1198  0.3298 -0.6304
  264TMC3     H 3999   0.174   1.358  11.370 -0.6686  3.0219 -1.3616
  264TMC3    H1 4000   0.211   0.981  11.176 -2.7283 -0.4989  2.8707
  264TMC3    H2 4001   0.300   1.347  10.970  1.8175 -0.2679 -0.3393
  264TMC3    C7 4002   0.306   1.081  10.947  0.0749  0.1772 -0.1815
  264TMC3    C8 4003   0.316   1.495  11.186 -0.1272  0.3162  0.4740
  264TMC3    O1 4004   0.383   1.146  10.883 -0.4167  0.2954  0.3121
  264TMC3    O2 4005   0.377   1.526  11.086  0.6434  0.0458  0.7601
  265MPD2     C 4006   2.860   1.739  15.090  0.1459  1.0696 -0.0498
  265MPD2    C1 4007   2.797   1.807  14.983 -0.3500 -0.9021  0.0570
  265MPD2    C2 4008   2.840   1.787  14.856 -0.7509  0.1598 -0.1900
  265MPD2    C3 4009   2.927   1.689  14.827  0.1428 -0.3217  0.9533
  265MPD2    C4 4010   2.975   1.611  14.925 -0.8330  0.5034 -0.5015
  265MPD2    C5 4011   2.954   1.651  15.054 -0.0137  0.0918  0.6402
  265MPD2     H 4012   2.779   1.838  14.781  0.2381  1.0439 -0.3902
  265MPD2    H1 4013   3.048   1.532  14.911  0.1982  0.8574  3.0325
  265MPD2    H2 4014   2.843   1.757  15.195 -3.3036  0.4261 -0.5154
  265MPD2    H3 4015   3.011   1.615  15.139  0.9318  3.4219  1.4081
  265MPD2     N 4016   2.972   1.659  14.693 -0.4033  0.1489  0.0042
  265MPD2    H5 4017   3.007   1.565  14.675  0.0284 -0.1568  2.4270
  265MPD2    N1 4018   2.695   1.901  15.012 -0.7034  0.4813 -0.1663
  265MPD2    H7 4019   2.639   1.935  14.934 -0.6064 -1.7457 -1.2139
  266TMC3    C1 4020   2.518   2.010  15.105  0.1898  0.4831 -0.7316
  266TMC3    C2 4021   2.395   1.994  15.167  0.5776  0.1284  0.1332
  266TMC3    C3 4022   2.322   2.104  15.199  0.6612 -0.3838  0.5699
  266TMC3    C4 4023   2.568   2.141  15.083  0.0826 -0.3976  0.0789
  266TMC3    C5 4024   2.488   2.245  15.117  0.2255 -0.7153 -0.3598
  266TMC3    C6 4025   2.365   2.228  15.168  0.2097  0.5308  0.3819
  266TMC3     C 4026   2.626   1.917  15.126 -0.6498  0.2908  0.8431
  266TMC3     O 4027   2.620   1.852  15.230 -0.0666  0.1374 -0.6766
  266TMC3     H 4028   2.358   1.894  15.181  0.8093 -0.2424 -1.9047
  266TMC3    H1 4029   2.669   2.160  15.047  0.2654  0.2592  0.9479
  266TMC3    H2 4030   2.297   2.311  15.184 -0.4007  0.5262 -2.2192
  266TMC3    C7 4031   2.552   2.371  15.128 -0.0708  0.1601 -0.2864
  266TMC3    C8 4032   2.194   2.090  15.266 -0.4962 -0.4725 -0.2755
  266TMC3    O1 4033   2.675   2.363  15.144 -0.1310  0.1088 -0.5585
  266TMC3    O2 4034   2.118   1.998  15.238  0.3810 -0.1984  0.8572
  267MPD2     C 4035   0.388   2.913   0.149  0.5237  0.5061 -1.1032
  267MPD2    C1 4036   0.461   3.032   0.132  0.5321  0.1309  0.3163
  267MPD2    C2 4037   0.415   3.120   0.032 -0.8336  0.7915  0.5164
  267MPD2    C3 4038   0.297   3.092  17.659  0.1450  0.2160 -0.3154
  267MPD2    C4 4039   0.234   2.971  17.669 -0.8458 -0.8259  0.2240
  267MPD2    C5 4040   0.280   2.883   0.070 -0.2180 -0.0488 -0.2858
  267MPD2     H 4041   0.467   3.215   0.028  1.1657 -0.2661  1.5305
  267MPD2    H1 4042   0.145   2.942  17.615 -2.0724 -0.3752  2.0205
  267MPD2    H2 4043   0.422   2.841   0.224 -0.0485  0.6901 -0.6628
  267MPD2    H3 4044   0.222   2.795   0.093 -1.9169 -0.0381 -4.5727
  267MPD2     N 4045   0.255   3.173  17.548 -0.7740 -0.0244  0.1517
  267MPD2    H5 4046   0.175   3.142  17.494 -0.0450 -2.8655  0.6951
  267MPD2    N1 4047   0.571   3.059   0.218  0.6201  0.1316  0.1105
  267MPD2    H7 4048   0.616   2.987   0.272 -3.1912 -2.7809 -0.5957
  268TMC3    C1 4049   0.762   3.193   0.260  0.1288  0.5868 -0.6642
  268TMC3    C2 4050   0.828   3.310   0.226  0.2308  0.2045  0.8020
  268TMC3    C3 4051   0.966   3.314   0.252 -0.0555 -0.8624 -0.2215
  268TMC3    C4 4052   0.827   3.086   0.314 -0.2371 -0.1906 -0.1418
  268TMC3    C5 4053   0.962   3.093   0.344  0.0240  0.0583  0.2148
  268TMC3    C6 4054   1.031   3.209   0.316 -0.2691 -0.0475  0.4583
  268TMC3     C 4055   0.620   3.189   0.231  0.1858 -0.4121  0.0174
  268TMC3     O 4056   0.565   3.298   0.205 -0.7493  0.0598  0.5619
  268TMC3     H 4057   0.775   3.392   0.179 -0.2078 -0.0496  0.8496
  268TMC3    H1 4058   0.770   3.005   0.359 -2.1706  1.8133  0.9711
  268TMC3    H2 4059   1.136   3.228   0.338 -0.1405 -1.2257  0.8326
  268TMC3    C7 4060   1.006   3.019   0.456  0.1829 -0.1459 -0.3254
  268TMC3    C8 4061   1.045   3.378   0.152  0.9376 -0.6852  0.0022
  268TMC3    O1 4062   0.938   2.924   0.493  0.6411  0.1401  0.7623
  268TMC3    O2 4063   1.165   3.346   0.155  0.0282 -0.3859  0.2048
  269MPD2     C 4064   0.463   2.313  15.477 -0.2550 -0.1643  0.0835
  269MPD2    C1 4065   0.374   2.361  15.568 -0.0861  0.1028  0.9850
  269MPD2    C2 4066   0.356   2.496  15.570 -0.1598  0.6199  0.1015
  269MPD2    C3 4067   0.409   2.582  15.478  0.2767  0.0030  0.6946
  269MPD2    C4 4068   0.505   2.536  15.394  0.6254 -0.2510  0.0747
  269MPD2    C5 4069   0.539   2.403  15.408  0.7520 -0.0533  0.6745
  269MPD2     H 4070   0.290   2.540  15.643  0.8499  0.3896  1.1435
  269MPD2    H1 4071   0.562   2.601  15.328  0.7688 -0.2792  0.1708
  269MPD2    H2 4072   0.486   2.207  15.488  0.9392  0.3188  2.1899
  269MPD2    H3 4073   0.610   2.367  15.334  0.4449  0.0382  0.3368
  269MPD2     N 4074   0.351   2.714  15.476 -0.4961 -0.4488 -0.9996
  269MPD2    H5 4075   0.280   2.752  15.538  1.0942  0.4287  0.2897
  269MPD2    N1 4076   0.302   2.274  15.655 -0.3457  0.7861 -0.4835
  269MPD2    H7 4077   0.314   2.174  15.648  0.8696  0.8502  0.8656
  270TMC3    C1 4078   0.136   2.191  15.798 -0.3038 -0.0442 -0.4801
  270TMC3    C2 4079   0.006   2.191  15.760 -0.5922 -0.0524  0.0700
  270TMC3    C3 4080   4.673   2.072  15.728 -0.3412 -0.3390  0.1993
  270TMC3    C4 4081   0.207   2.081  15.826  0.2265 -0.1963  0.3380
  270TMC3    C5 4082   0.146   1.962  15.796  0.9108 -0.0731  0.3758
  270TMC3    C6 4083   0.020   1.959  15.740 -0.2235 -0.0641 -0.1213
  270TMC3     C 4084   0.206   2.310  15.743  0.0392  0.0369 -0.8807
  270TMC3     O 4085   0.154   2.418  15.762  0.6879  0.0964  0.0540
  270TMC3     H 4086   4.686   2.287  15.733 -0.9933 -0.8018 -1.9992
  270TMC3    H1 4087   0.311   2.093  15.851  0.6164  0.4516 -1.5763
  270TMC3    H2 4088   4.695   1.873  15.696  2.0920 -1.4596  0.0407
  270TMC3    C7 4089   0.213   1.834  15.789 -0.0367  0.2441 -0.0302
  270TMC3    C8 4090   4.549   2.083  15.653  1.3410  0.3460 -0.1092
  270TMC3    O1 4091   0.335   1.842  15.759  0.3698  0.1775  0.4183
  270TMC3    O2 4092   4.448   2.129  15.707  0.3095  0.3805  0.5343
  271MPD2     C 4093   4.004   1.961  13.948  0.4921 -0.7152 -0.4944
  271MPD2    C1 4094   3.919   1.953  14.057  0.5596 -0.0679  0.5394
  271MPD2    C2 4095   3.787   1.965  14.028 -0.2250  0.3544  0.5944
  271MPD2    C3 4096   3.737   1.995  13.904  0.0564 -0.1831 -0.1438
  271MPD2    C4 4097   3.829   1.997  13.804  0.1587 -0.0513 -0.2155
  271MPD2    C5 4098   3.962   1.992  13.826  0.5479 -0.6089 -0.2899
  271MPD2     H 4099   3.714   1.964  14.109 -0.1175  0.1892  0.6872
  271MPD2    H1 4100   3.781   2.007  13.707  0.4948 -0.0743 -0.3825
  271MPD2    H2 4101   4.110   1.939  13.959  0.1957 -1.3603  1.0689
  271MPD2    H3 4102   4.029   2.013  13.743 -1.0082  2.9865 -0.5944
  271MPD2     N 4103   3.596   2.009  13.878  0.4351 -0.1870 -0.4027
  271MPD2    H5 4104   3.566   2.003  13.781 -0.9796  0.9373 -0.0472
  271MPD2    N1 4105   3.960   1.910  14.179  0.2123  0.3785  0.2279
  271MPD2    H7 4106   3.889   1.887  14.247 -0.6585  0.8716 -0.5043
  272TMC3    C1 4107   4.095   1.848  14.347 -0.8453  0.0048 -0.3669
  272TMC3    C2 4108   4.200   1.758  14.354  0.6174 -0.5409  0.6006
  272TMC3    C3 4109   4.235   1.712  14.473  0.2114 -0.4084 -0.4731
  272TMC3    C4 4110   4.026   1.896  14.450  0.0593  0.4382 -0.3319
  272TMC3    C5 4111   4.073   1.848  14.570  0.5036  0.8850 -0.1882
  272TMC3    C6 4112   4.176   1.762  14.580  0.5420 -0.2332  0.0758
  272TMC3     C 4113   4.091   1.920  14.223  0.4489 -0.1414  0.2583
  272TMC3     O 4114   4.195   1.953  14.169 -0.1231 -0.2472 -0.0534
  272TMC3     H 4115   4.257   1.731  14.266 -0.3477 -0.7067  0.0165
  272TMC3    H1 4116   3.944   1.965  14.437  1.2201  2.1966  1.7156
  272TMC3    H2 4117   4.205   1.726  14.678 -0.4525  0.7408  0.7244
  272TMC3    C7 4118   4.050   1.930  14.685 -0.9215  0.2370  0.0646
  272TMC3    C8 4119   4.377   1.671  14.477 -0.3783 -0.2482  0.1705
  272TMC3    O1 4120   3.932   1.960  14.706  0.0954  0.2946  0.2779
  272TMC3    O2 4121   4.436   1.699  14.375 -0.0412 -0.1730 -0.2834
  273MPD2     C 4122   1.045   4.673  11.869  0.1079  0.1589  0.1311
  273MPD2    C1 4123   1.130   0.005  11.778 -0.0518 -0.1389 -0.0559
  273MPD2    C2 4124   1.117   4.689  11.645 -0.1951  0.2309 -0.5662
  273MPD2    C3 4125   1.037   4.580  11.610 -0.3788 -0.0045 -0.6262
  273MPD2    C4 4126   0.968   4.515  11.710  0.6845 -0.1171  0.1787
  273MPD2    C5 4127   0.969   4.565  11.836 -0.7790  1.0821  0.9217
  273MPD2     H 4128   1.173   0.009  11.563  1.0299 -0.5930 -0.1746
  273MPD2    H1 4129   0.908   4.429  11.683  0.3786  0.6905 -1.7789
  273MPD2    H2 4130   1.042   4.698  11.974 -2.0678 -1.5843  0.4670
  273MPD2    H3 4131   0.912   4.513  11.912 -2.5969 -0.1789 -1.3066
  273MPD2     N 4132   1.038   4.547  11.477  0.0213  0.2536  0.8305
  273MPD2    H5 4133   1.100   4.598  11.415 -1.2752 -0.7654 -1.3131
  273MPD2    N1 4134   1.211   0.119  11.812  0.5171 -0.3744  0.0819
  273MPD2    H7 4135   1.194   0.151  11.906  1.4285 -2.7801  1.0639
  274TMC3    C1 4136   0.997   4.452  11.269  0.4286  0.5530  0.3595
  274TMC3    C2 4137   0.888   4.422  11.187  0.6682 -0.7772  0.4025
  274TMC3    C3 4138   0.880   4.494  11.076 -0.1223 -0.3015 -0.4259
  274TMC3    C4 4139   1.094   4.539  11.233 -0.0449 -0.5756 -0.4653
  274TMC3    C5 4140   1.076   4.607  11.119 -0.5955 -0.3896  0.8750
  274TMC3    C6 4141   0.972   4.591  11.036  0.5037 -0.4316  0.2137
  274TMC3     C 4142   0.963   4.457  11.409 -0.0010  0.2220 -0.4088
  274TMC3     O 4143   0.860   4.403  11.446 -0.7717 -0.2263 -0.1922
  274TMC3     H 4144   0.803   4.366  11.224 -1.5097 -0.1354 -3.5818
  274TMC3    H1 4145   1.190   4.563  11.277 -0.2358 -0.9047  0.1251
  274TMC3    H2 4146   0.957   4.670  10.964 -2.1330 -1.9090 -0.8399
  274TMC3    C7 4147   1.110   0.019  11.121 -0.2406 -0.2524  0.2977
  274TMC3    C8 4148   0.743   4.511  11.029 -0.3854  0.3781  0.4515
  274TMC3    O1 4149   1.185   0.056  11.032 -0.4429  0.0446  0.0518
  274TMC3    O2 4150   0.646   4.496  11.107 -0.0566 -0.5736 -0.1444
  275MPD2     C 4151   0.862   2.865  14.358 -0.1331  0.4305 -0.3010
  275MPD2    C1 4152   0.768   2.968  14.393  0.5580 -0.0048  0.9616
  275MPD2    C2 4153   0.639   2.938  14.390 -0.2919 -0.0275 -0.8770
  275MPD2    C3 4154   0.590   2.811  14.365  0.2447  0.0675 -0.0967
  275MPD2    C4 4155   0.686   2.714  14.335 -0.2213 -0.0528  0.0311
  275MPD2    C5 4156   0.820   2.738  14.335 -0.3286  0.4349 -1.0270
  275MPD2     H 4157   0.574   3.021  14.413 -0.1583 -0.5825  1.4710
  275MPD2    H1 4158   0.649   2.613  14.341  0.7934 -0.1224  5.2327
  275MPD2    H2 4159   0.970   2.878  14.352  0.3178 -2.5359  1.2472
  275MPD2    H3 4160   0.888   2.656  14.313 -2.0502 -1.3603  0.3016
  275MPD2     N 4161   0.448   2.777  14.367 -0.2316 -0.2340  0.5233
  275MPD2    H5 4162   0.434   2.679  14.345  0.3789  0.2113 -1.8569
  275MPD2    N1 4163   0.802   3.096  14.441 -0.2013 -0.6970  0.3999
  275MPD2    H7 4164   0.728   3.160  14.467  1.6207  1.5373  0.1513
  276TMC3    C1 4165   0.938   3.245  14.559 -0.0826 -0.4588  0.4239
  276TMC3    C2 4166   0.813   3.264  14.626  0.3874  0.5430  0.7839
  276TMC3    C3 4167   0.814   3.308  14.751 -1.2138 -0.4684 -0.1026
  276TMC3    C4 4168   1.061   3.267  14.610 -0.0493  0.0107  0.6621
  276TMC3    C5 4169   1.049   3.328  14.732 -0.0848 -0.3053  0.5013
  276TMC3    C6 4170   0.936   3.340  14.806  0.0122  0.0837 -0.3982
  276TMC3     C 4171   0.936   3.147  14.452  0.0369  0.6137 -0.1330
  276TMC3     O 4172   1.035   3.098  14.406  0.2497  0.7093  0.2580
  276TMC3     H 4173   0.716   3.234  14.589  0.8295 -1.7746  1.5362
  276TMC3    H1 4174   1.151   3.252  14.550 -0.6179 -2.3190  0.3982
  276TMC3    H2 4175   0.954   3.372  14.908  0.3209 -1.2467 -0.0352
  276TMC3    C7 4176   1.167   3.334  14.816 -0.1552  0.5240 -0.0545
  276TMC3    C8 4177   0.750   3.208  14.834 -0.4223  1.1490 -0.3013
  276TMC3    O1 4178   1.181   3.434  14.885 -0.1707  0.8031  0.4711
  276TMC3    O2 4179   0.824   3.133  14.894  0.1396  0.3054  0.1465
  277MPD2     C 4180   3.248   1.760  13.318 -0.4145 -0.1769 -0.4694
  277MPD2    C1 4181   3.124   1.762  13.381 -0.4715  0.1289 -0.1538
  277MPD2    C2 4182   3.090   1.650  13.461  0.3694  0.2977  0.5577
  277MPD2    C3 4183   3.180   1.547  13.488 -0.0476  0.1138  0.3170
  277MPD2    C4 4184   3.300   1.550  13.420 -0.1887  0.1689  1.2142
  277MPD2    C5 4185   3.333   1.655  13.339  0.2106 -0.1797 -0.8777
  277MPD2     H 4186   2.991   1.638  13.502  0.3014  0.7270  0.5171
  277MPD2    H1 4187   3.372   1.469  13.415  0.3199  0.5193  3.0581
  277MPD2    H2 4188   3.284   1.836  13.250  1.8177 -0.1502  0.7400
  277MPD2    H3 4189   3.432   1.666  13.296  0.8287 -0.0350  0.5753
  277MPD2     N 4190   3.144   1.435  13.560 -0.1720 -0.2987 -0.6103
  277MPD2    H5 4191   3.204   1.354  13.556 -0.0206 -0.2222  0.1810
  277MPD2    N1 4192   3.025   1.862  13.348 -0.7615 -0.0387 -0.1558
  277MPD2    H7 4193   3.050   1.927  13.274  1.3768 -1.5155 -0.7128
  278TMC3    C1 4194   3.016   1.308  13.715  0.3897  0.3204  0.0993
  278TMC3    C2 4195   2.997   1.215  13.618  0.0354  0.2570 -0.3022
  278TMC3    C3 4196   2.881   1.139  13.613  0.0235 -0.4851  0.3163
  278TMC3    C4 4197   2.927   1.306  13.821 -0.5702 -0.0034 -0.0518
  278TMC3    C5 4198   2.817   1.223  13.824  0.0873 -0.0725 -0.0105
  278TMC3    C6 4199   2.784   1.144  13.714 -0.0956  0.4028  0.0712
  278TMC3     C 4200   3.047   1.436  13.659  0.3013  0.3371 -0.2927
  278TMC3     O 4201   2.989   1.534  13.712  0.0477  0.6590 -0.1087
  278TMC3     H 4202   3.068   1.205  13.537  2.6994  1.4835  1.8811
  278TMC3    H1 4203   2.939   1.384  13.895  1.1186 -0.6793  0.3832
  278TMC3    H2 4204   2.724   1.055  13.729 -0.8182  0.3782 -2.8168
  278TMC3    C7 4205   2.699   1.284  13.886  0.1364 -0.2760  0.2867
  278TMC3    C8 4206   2.883   1.025  13.528 -0.6601  0.2270 -0.0755
  278TMC3    O1 4207   2.724   1.369  13.968  0.6173 -0.2383  0.0112
  278TMC3    O2 4208   2.990   0.984  13.487  0.0482 -0.1395 -0.4071
  279MPD2     C 4209   1.870   3.129  17.352 -0.5186 -0.3121 -0.3223
  279MPD2    C1 4210   1.834   2.992  17.379 -0.0252  0.0876  0.2913
  279MPD2    C2 4211   1.878   2.897  17.286  0.2170 -0.2397  0.0276
  279MPD2    C3 4212   1.940   2.931  17.171  0.6027 -0.0710 -0.2407
  279MPD2    C4 4213   1.988   3.063  17.156  0.0326 -0.5483  0.3369
  279MPD2    C5 4214   1.941   3.157  17.238  0.4999  0.2688  0.3582
  279MPD2     H 4215   1.856   2.792  17.304  2.7717 -1.1241 -2.0751
  279MPD2    H1 4216   2.042   3.092  17.067  1.5550 -1.7149  0.8664
  279MPD2    H2 4217   1.854   3.205  17.428  0.9947  1.3800 -1.6956
  279MPD2    H3 4218   1.972   3.260  17.229  0.3937  0.2808  0.1362
  279MPD2     N 4219   1.980   2.831  17.078 -0.2741  0.4121 -0.1999
  279MPD2    H5 4220   2.053   2.861  17.014 -0.9961 -2.8511 -2.5574
  279MPD2    N1 4221   1.771   2.958  17.501 -0.2087 -0.0205  0.3269
  279MPD2    H7 4222   1.750   3.034  17.564 -1.2847  0.2858 -0.4124
  280TMC3    C1 4223   1.690   2.805  17.669 -0.4872 -0.1750 -0.2774
  280TMC3    C2 4224   1.674   2.678   0.019  0.5787  0.1550  0.0640
  280TMC3    C3 4225   1.571   2.658   0.108  0.6192  0.0464  0.2730
  280TMC3    C4 4226   1.613   2.915   0.017 -0.4418 -0.5915 -0.0041
  280TMC3    C5 4227   1.507   2.883   0.102  0.0770 -0.1528 -0.7195
  280TMC3    C6 4228   1.485   2.761   0.149  0.2160  0.0787 -0.1996
  280TMC3     C 4229   1.778   2.833  17.554  0.8259 -0.2345  0.0549
  280TMC3     O 4230   1.844   2.737  17.522 -0.3736  0.5655  0.1908
  280TMC3     H 4231   1.747   2.600   0.001  0.3672 -0.0021 -0.1243
  280TMC3    H1 4232   1.610   3.014  17.671 -0.3560  0.5918  2.6926
  280TMC3    H2 4233   1.409   2.735   0.222  0.4895 -0.4792 -0.1191
  280TMC3    C7 4234   1.389   2.971   0.088 -0.8130 -0.4100 -0.0109
  280TMC3    C8 4235   1.558   2.531   0.174  0.9406 -0.2871 -0.4343
  280TMC3    O1 4236   1.408   3.083   0.045 -0.0968 -0.0649 -0.2508
  280TMC3    O2 4237   1.492   2.524   0.278 -0.0491 -0.2498  0.1969
  281TMC3    C1 4238   1.012   2.217  13.288  0.3382 -0.0988  0.2856
  281TMC3    C2 4239   1.094   2.300  13.219  0.7698 -0.1092  0.5022
  281TMC3    C3 4240   1.146   2.247  13.109  0.1518 -0.9139  0.1687
  281TMC3    C4 4241   0.998   2.085  13.269  0.5616 -0.0513 -0.2045
  281TMC3    C5 4242   1.072   2.033  13.166  0.0456 -0.6625  0.7793
  281TMC3    C6 4243   1.140   2.118  13.078 -0.1548  0.2813 -0.0154
  281TMC3     C 4244   0.918   2.263  13.384  0.0587 -0.2633  0.2338
  281TMC3     O 4245   0.891   2.196  13.485  0.3220  0.4522 -0.0539
  281TMC3     H 4246   1.110   2.406  13.238 -3.7793  0.8661 -0.9553
  281TMC3    H1 4247   0.922   2.035  13.327 -0.3524 -1.3264 -2.5044
  281TMC3    H2 4248   1.188   2.069  12.993 -3.3034 -1.6067 -0.6962
  281TMC3    C7 4249   1.017   1.915  13.105  0.0944 -0.1628  0.4960
  281TMC3    C8 4250   1.219   2.315  13.005  0.1829  0.0777  0.1220
  281TMC3    O1 4251   1.018   1.895  12.983 -0.3925 -0.0477 -0.0060
  281TMC3    O2 4252   1.322   2.268  12.958 -0.2987  0.2173 -0.3213
  282MPD2     C 4253   2.431   3.672  15.272 -0.4810  0.3934 -0.2418
  282MPD2    C1 4254   2.301   3.678  15.302  0.1565  1.0650 -0.2472
  282MPD2    C2 4255   2.202   3.663  15.205  0.1560 -0.0250 -0.4935
  282MPD2    C3 4256   2.232   3.627  15.076  0.1782 -0.1217  0.0500
  282MPD2    C4 4257   2.368   3.616  15.046  0.3919  0.5180  0.1845
  282MPD2    C5 4258   2.465   3.643  15.142  0.2744 -0.6209 -0.9386
  282MPD2     H 4259   2.100   3.652  15.238  0.9884 -1.4809  1.5655
  282MPD2    H1 4260   2.402   3.588  14.947  1.4780  1.7873  0.1989
  282MPD2    H2 4261   2.511   3.672  15.346 -0.1621  1.8525 -0.5839
  282MPD2    H3 4262   2.570   3.630  15.118  0.3057 -1.9447 -0.0393
  282MPD2     N 4263   2.126   3.608  14.985  0.7520 -0.1116  0.4321
  282MPD2    H5 4264   2.038   3.653  15.010  0.9138 -0.6104  1.9149
  282MPD2    N1 4265   2.260   3.692  15.440 -0.5052  0.1699 -0.2542
  282MPD2    H7 4266   2.162   3.680  15.464 -0.5604 -0.5502 -0.8257
  283TMC3    C1 4267   2.252   3.708  15.663  1.2518 -0.1276 -0.7026
  283TMC3    C2 4268   2.222   3.822  15.731 -0.1518 -0.0545 -0.5761
  283TMC3    C3 4269   2.113   3.821  15.807 -0.8252 -0.3617  0.0385
  283TMC3    C4 4270   2.177   3.596  15.671 -0.5869  0.1703  0.1580
  283TMC3    C5 4271   2.060   3.599  15.744  0.2580 -0.1590 -0.0076
  283TMC3    C6 4272   2.023   3.717  15.809 -0.5392 -1.0463  0.1243
  283TMC3     C 4273   2.334   3.726  15.543  0.0021  0.0101 -0.5668
  283TMC3     O 4274   2.437   3.788  15.547 -0.0237  0.0468 -0.3169
  283TMC3     H 4275   2.287   3.909  15.723  2.4552 -2.0838 -1.7059
  283TMC3    H1 4276   2.214   3.501  15.634 -2.1290 -1.3098  2.3898
  283TMC3    H2 4277   1.943   3.736  15.879 -0.6461  0.5002 -0.4210
  283TMC3    C7 4278   1.978   3.483  15.756  0.3417 -0.3925  0.4069
  283TMC3    C8 4279   2.052   3.952  15.839 -0.2929  0.1339 -0.0670
  283TMC3    O1 4280   1.907   3.488  15.855  0.0341 -0.5506  0.1575
  283TMC3    O2 4281   2.005   3.974  15.951  0.1074 -0.5969 -0.1652
  284MPD2     C 4282   0.652   2.631  12.203 -0.0217 -0.1892  0.2717
  284MPD2    C1 4283   0.680   2.578  12.080 -0.0972 -0.0380 -0.5477
  284MPD2    C2 4284   0.654   2.445  12.051 -0.6938 -0.1735 -0.3995
  284MPD2    C3 4285   0.612   2.365  12.154  0.4827 -0.1849  0.3675
  284MPD2    C4 4286   0.572   2.424  12.273  0.7980 -0.2770 -0.3407
  284MPD2    C5 4287   0.582   2.562  12.298  0.6178 -0.0584 -0.2744
  284MPD2     H 4288   0.698   2.394  11.965  0.6705  1.3098 -0.5801
  284MPD2    H1 4289   0.511   2.359  12.336  1.1686  0.6193  0.9565
  284MPD2    H2 4290   0.667   2.738  12.217 -0.9014 -0.2688  1.8323
  284MPD2    H3 4291   0.545   2.608  12.388  0.0653 -0.1317 -0.4622
  284MPD2     N 4292   0.587   2.231  12.120 -0.1268  0.3684 -0.3261
  284MPD2    H5 4293   0.598   2.195  12.026 -1.8644  0.3123 -0.4995
  284MPD2    N1 4294   0.750   2.659  11.979  0.0410 -0.0101 -0.0163
  284MPD2    H7 4295   0.803   2.603  11.914 -1.7729 -0.0813 -1.4562
  285TMC3    C1 4296   0.853   2.830  11.872  0.3325  0.0089 -0.5464
  285TMC3    C2 4297   0.884   2.740  11.771  0.2647 -0.8887 -0.0017
  285TMC3    C3 4298   1.002   2.741  11.696  0.1330 -0.1158 -0.2455
  285TMC3    C4 4299   0.960   2.913  11.908 -0.0076  0.0189 -0.4099
  285TMC3    C5 4300   1.071   2.920  11.831  0.1611 -0.5642 -0.1161
  285TMC3    C6 4301   1.096   2.838  11.720  0.6494  0.5067  0.1168
  285TMC3     C 4302   0.762   2.797  11.978  0.4046 -0.0987 -0.7282
  285TMC3     O 4303   0.708   2.885  12.045 -0.2052 -0.4336 -0.2129
  285TMC3     H 4304   0.814   2.661  11.744 -0.0428 -1.0336  1.2422
  285TMC3    H1 4305   0.945   2.983  11.990  0.5892 -1.0499  0.6099
  285TMC3    H2 4306   1.185   2.842  11.657  2.1451  0.9956  2.2693
  285TMC3    C7 4307   1.184   3.004  11.873  0.9288 -0.3684 -1.1065
  285TMC3    C8 4308   1.031   2.624  11.618 -0.3374 -0.2627  0.8438
  285TMC3    O1 4309   1.150   3.103  11.934 -0.2726 -0.2334  0.2419
  285TMC3    O2 4310   0.928   2.562  11.580 -0.4513 -0.0452 -0.7929
  286MPD2     C 4311   0.947   1.016   1.725  0.2778  0.1892  0.2271
  286MPD2    C1 4312   0.985   1.042   1.593 -0.5897  0.0276  0.1006
  286MPD2    C2 4313   1.080   0.970   1.532  0.4967  0.4111  0.1180
  286MPD2    C3 4314   1.162   0.885   1.599  0.2238 -0.0664 -0.0108
  286MPD2    C4 4315   1.135   0.857   1.736 -0.1518  0.3872 -0.0667
  286MPD2    C5 4316   1.019   0.910   1.787  0.2009 -0.5102 -0.4607
  286MPD2     H 4317   1.109   0.993   1.430  2.0987  1.1227  0.7243
  286MPD2    H1 4318   1.188   0.787   1.799 -1.2435 -0.6033 -0.2559
  286MPD2    H2 4319   0.860   1.048   1.781 -0.9675 -2.4017 -0.2332
  286MPD2    H3 4320   0.989   0.875   1.885 -1.8077 -0.7375 -1.1622
  286MPD2     N 4321   1.262   0.805   1.533 -0.1948  0.3251 -0.3550
  286MPD2    H5 4322   1.333   0.756   1.586  0.9094  2.3203  0.0016
  286MPD2    N1 4323   0.917   1.155   1.536 -0.1318  0.3446  0.7035
  286MPD2    H7 4324   0.833   1.184   1.586 -2.1755 -2.5011 -1.0621
  287TMC3    C1 4325   1.366   0.700   1.348  0.1229  0.2280 -0.0308
  287TMC3    C2 4326   1.338   0.637   1.227 -0.1291 -0.1694  0.0462
  287TMC3    C3 4327   1.430   0.550   1.179  0.3949  0.1074 -0.6144
  287TMC3    C4 4328   1.488   0.688   1.407  0.1685 -0.6011  0.0876
  287TMC3    C5 4329   1.581   0.602   1.349  0.4682 -0.7514  0.4660
  287TMC3    C6 4330   1.552   0.536   1.234  0.0206 -0.0027  0.2529
  287TMC3     C 4331   1.256   0.783   1.392  0.2049 -0.4267 -0.2690
  287TMC3     O 4332   1.154   0.793   1.321  0.2998  0.2652 -0.1988
  287TMC3     H 4333   1.241   0.632   1.177  0.0884 -1.1031 -0.2830
  287TMC3    H1 4334   1.523   0.740   1.496  1.0130  0.1705 -0.6965
  287TMC3    H2 4335   1.626   0.471   1.189  0.0009 -1.2105  1.9610
  287TMC3    C7 4336   1.716   0.609   1.402  0.2210 -0.2845 -0.7817
  287TMC3    C8 4337   1.425   0.522   1.040  0.4449 -0.0846  0.6834
  287TMC3    O1 4338   1.744   0.696   1.480 -0.2477 -0.6401 -0.4220
  287TMC3    O2 4339   1.503   0.434   1.003  0.1739  0.0038 -0.0741
  288TMC3    C1 4340   2.518   1.238  14.282  0.0372  0.7378  0.3171
  288TMC3    C2 4341   2.520   1.181  14.408  0.3249  0.6061  0.8198
  288TMC3    C3 4342   2.580   1.257  14.500 -0.0265 -0.2952 -0.0257
  288TMC3    C4 4343   2.588   1.350  14.240  0.0961 -0.2096 -0.5902
  288TMC3    C5 4344   2.664   1.409  14.337 -0.1368 -0.5167  0.0889
  288TMC3    C6 4345   2.650   1.368  14.465  0.1271 -0.1788 -0.8545
  288TMC3     C 4346   2.437   1.172  14.180  0.2832 -0.2706 -0.1162
  288TMC3     O 4347   2.396   1.244  14.096 -0.3435 -0.1290 -0.1429
  288TMC3     H 4348   2.460   1.095  14.433  1.6290 -0.9354 -1.3687
  288TMC3    H1 4349   2.583   1.387  14.139 -0.0923  2.2789  0.3392
  288TMC3    H2 4350   2.702   1.422  14.543 -0.9881  0.6815 -0.6998
  288TMC3    C7 4351   2.720   1.535  14.308 -0.3949 -0.5624 -0.5333
  288TMC3    C8 4352   2.577   1.228  14.646 -0.2695  0.5098 -0.3480
  288TMC3    O1 4353   2.721   1.611  14.405  0.2084 -0.1074  0.7880
  288TMC3    O2 4354   2.679   1.232  14.716 -0.0177  0.2714  0.8742
  289MPD2     C 4355   2.785   0.457  14.883  0.2839 -0.2791 -0.0074
  289MPD2    C1 4356   2.779   0.501  14.755 -0.0269  0.3800 -0.2615
  289MPD2    C2 4357   2.662   0.472  14.682  0.4831  0.0833  0.5974
  289MPD2    C3 4358   2.548   0.419  14.742  0.1039  0.2628 -0.1587
  289MPD2    C4 4359   2.559   0.388  14.872  0.0307 -0.0568 -0.1218
  289MPD2    C5 4360   2.676   0.406  14.938  0.2099 -0.5853 -0.9461
  289MPD2     H 4361   2.663   0.508  14.580 -0.9833  0.6322  0.7750
  289MPD2    H1 4362   2.471   0.361  14.929 -1.1702 -0.4446 -2.1358
  289MPD2    H2 4363   2.870   0.485  14.945 -0.0828  0.0765  0.3308
  289MPD2    H3 4364   2.683   0.383  15.044  0.7513  0.5554 -0.7342
  289MPD2     N 4365   2.423   0.407  14.680 -0.8842  0.0230  0.2130
  289MPD2    H5 4366   2.357   0.356  14.738 -0.7057 -0.6540 -0.1863
  289MPD2    N1 4367   2.889   0.573  14.710 -0.4630 -0.6859  0.4410
  289MPD2    H7 4368   2.962   0.595  14.776  0.1290  0.1723 -0.4990
  290TMC3    C1 4369   2.265   0.434  14.504 -0.3746 -0.2954 -0.6719
  290TMC3    C2 4370   2.214   0.529  14.423 -0.1718 -0.7208 -0.0287
  290TMC3    C3 4371   2.080   0.522  14.395 -0.2278  0.2184 -0.1099
  290TMC3    C4 4372   2.192   0.345  14.571 -0.4148  0.2511  0.5725
  290TMC3    C5 4373   2.061   0.342  14.539 -0.4099  0.0641 -0.7895
  290TMC3    C6 4374   2.006   0.425  14.450  0.4584  0.3057 -0.1047
  290TMC3     C 4375   2.403   0.449  14.546 -0.0273  0.8793  0.9229
  290TMC3     O 4376   2.473   0.505  14.463 -0.3453  0.1081  0.3638
  290TMC3     H 4377   2.276   0.599  14.369  0.0528 -1.8486 -1.2212
  290TMC3    H1 4378   2.243   0.266  14.625 -2.0427 -0.9274  0.4029
  290TMC3    H2 4379   1.900   0.430  14.425  0.8597  1.0536 -1.6971
  290TMC3    C7 4380   2.002   0.207  14.575  0.6432 -0.3401 -0.0163
  290TMC3    C8 4381   2.021   0.608  14.299  0.2034 -0.2700  0.1501
  290TMC3    O1 4382   2.075   0.110  14.591  0.0262  0.2750 -0.7108
  290TMC3    O2 4383   1.952   0.571  14.207  0.0904  0.5800 -0.0439
  291MPD2     C 4384   2.626   0.270   0.469 -0.3626 -0.0658  0.5635
  291MPD2    C1 4385   2.538   0.201   0.386 -0.1328 -0.3661  0.0634
  291MPD2    C2 4386   2.496   0.259   0.273  0.2301 -0.4070  0.7242
  291MPD2    C3 4387   2.524   0.394   0.246 -0.1562  0.7988  0.0121
  291MPD2    C4 4388   2.595   0.467   0.339  0.5769 -0.2304  0.4041
  291MPD2    C5 4389   2.662   0.399   0.438  0.0670 -0.0117  0.6869
  291MPD2     H 4390   2.428   0.205   0.207 -0.2743 -0.1535  1.0390
  291MPD2    H1 4391   2.622   0.571   0.330 -2.9288  0.2622 -4.2125
  291MPD2    H2 4392   2.675   0.237   0.560 -0.0078 -0.1546  0.3368
  291MPD2    H3 4393   2.729   0.457   0.500  1.5346 -2.7363  1.6245
  291MPD2     N 4394   2.478   0.467   0.134  0.4103  0.3729 -0.3018
  291MPD2    H5 4395   2.490   0.567   0.136 -1.2108  0.5593  0.5385
  291MPD2    N1 4396   2.511   0.059   0.395 -0.1006  0.3616  0.5709
  291MPD2    H7 4397   2.466   0.008   0.319  0.7004 -1.0540  1.0402
  292TMC3    C1 4398   2.495   4.568   0.497  0.4011 -0.6861  0.3397
  292TMC3    C2 4399   2.513   4.479   0.605  0.5621 -0.0185  0.6783
  292TMC3    C3 4400   2.458   4.356   0.602  0.1807 -0.5559  0.3008
  292TMC3    C4 4401   2.434   4.531   0.382 -0.2132  0.6246  0.4119
  292TMC3    C5 4402   2.376   4.407   0.382 -0.2446 -0.2119 -0.1055
  292TMC3    C6 4403   2.378   4.324   0.495 -0.1278  0.0079  0.0020
  292TMC3     C 4404   2.534   4.711   0.508  0.4339  0.5042  0.2162
  292TMC3     O 4405   2.576   0.021   0.620  0.1072 -0.1668 -0.7765
  292TMC3     H 4406   2.562   4.518   0.694  2.4274 -0.4334 -0.1761
  292TMC3    H1 4407   2.422   4.597   0.298 -0.5400 -3.1423 -2.4833
  292TMC3    H2 4408   2.351   4.220   0.484  1.1137 -0.5563  2.4685
  292TMC3    C7 4409   2.299   4.382   0.263 -0.2335 -0.0276  0.4662
  292TMC3    C8 4410   2.444   4.297   0.732 -0.5361  0.4003  0.7954
  292TMC3    O1 4411   2.328   4.431   0.155  0.2197 -0.8530  0.1857
  292TMC3    O2 4412   2.522   4.336   0.817  0.3815 -0.5432 -0.0718
  293MPD2     C 4413   3.643   1.935  12.273  0.5848  0.2199 -0.1660
  293MPD2    C1 4414   3.663   1.844  12.367  0.9201 -0.1925  0.2969
  293MPD2    C2 4415   3.761   1.868  12.468  0.1029 -0.4179  0.4442
  293MPD2    C3 4416   3.846   1.978  12.471  0.7025  0.3000  0.2396
  293MPD2    C4 4417   3.818   2.075  12.374  0.0470 -0.3273  1.2906
  293MPD2    C5 4418   3.728   2.042  12.277  0.0889 -0.0363 -0.3809
  293MPD2     H 4419   3.765   1.801  12.553  0.8759  1.0016  1.5229
  293MPD2    H1 4420   3.880   2.163  12.362  0.1270 -0.3811  1.3091
  293MPD2    H2 4421   3.566   1.939  12.196  1.4979  0.1654 -1.0830
  293MPD2    H3 4422   3.712   2.118  12.201 -2.1782  0.0948  0.2484
  293MPD2     N 4423   3.948   1.991  12.567 -0.4422 -0.4036  0.2465
  293MPD2    H5 4424   3.971   1.904  12.615 -1.1594  0.2894  1.8237
  293MPD2    N1 4425   3.568   1.735  12.368  0.1723  0.5126 -0.4778
  293MPD2    H7 4426   3.496   1.741  12.296  1.4327  2.4836 -1.5684
  294TMC3    C1 4427   3.460   1.538  12.434 -0.2448  0.0671  0.0059
  294TMC3    C2 4428   3.507   1.413  12.413 -0.4598  0.2318 -0.0212
  294TMC3    C3 4429   3.428   1.322  12.335  0.4680  0.2600  0.0022
  294TMC3    C4 4430   3.350   1.579  12.364 -0.4534  0.4205  0.1499
  294TMC3    C5 4431   3.284   1.491  12.283 -0.2902  0.0233 -0.0543
  294TMC3    C6 4432   3.319   1.362  12.258 -0.0202 -0.1550 -0.3021
  294TMC3     C 4433   3.558   1.639  12.466  0.3352 -0.0793  0.3269
  294TMC3     O 4434   3.642   1.608  12.544 -0.8139 -0.3190 -0.0488
  294TMC3     H 4435   3.595   1.376  12.464  0.4208  2.8649  0.3826
  294TMC3    H1 4436   3.310   1.680  12.372  0.4030  0.8215 -0.6260
  294TMC3    H2 4437   3.248   1.295  12.211  1.5795 -0.1515 -2.7093
  294TMC3    C7 4438   3.171   1.546  12.202 -0.8850  0.4300  0.4809
  294TMC3    C8 4439   3.518   1.211  12.292  0.1337  1.3259  0.1607
  294TMC3    O1 4440   3.088   1.619  12.255  0.2024 -0.1525  0.0438
  294TMC3    O2 4441   3.638   1.211  12.306 -0.0221 -0.7100 -0.3007
  295MPD2     C 4442   3.658   4.723   0.038  0.5519 -0.1757  0.3457
  295MPD2    C1 4443   3.763   0.051   0.117 -0.1784  0.3130 -0.1382
  295MPD2    C2 4444   3.733   0.074   0.246 -0.1700 -0.3734  0.1535
  295MPD2    C3 4445   3.610   0.057   0.305  0.3642  0.2239 -0.2518
  295MPD2    C4 4446   3.513   4.721   0.220  0.4213 -1.2933 -0.6023
  295MPD2    C5 4447   3.534   4.701   0.090 -0.0777  0.3085 -0.5656
  295MPD2     H 4448   3.810   0.129   0.298  0.4447  0.5317 -1.7219
  295MPD2    H1 4449   3.416   4.699   0.264  0.1955 -1.2540 -1.0838
  295MPD2    H2 4450   3.663   4.705  17.628 -1.4635 -2.7100  0.6888
  295MPD2    H3 4451   3.450   4.677   0.025  1.4140 -0.2840 -2.2778
  295MPD2     N 4452   3.580   0.072   0.444 -0.3050 -0.0801 -0.0082
  295MPD2    H5 4453   3.494   0.029   0.476 -0.5062  0.4704  0.1860
  295MPD2    N1 4454   3.893   0.089   0.067  0.0700  0.1172  0.6884
  295MPD2    H7 4455   3.969   0.106   0.133  0.4048  1.5613 -0.0827
  296TMC3    C1 4456   3.612   0.142   0.677  0.7671  0.7293  0.6101
  296TMC3    C2 4457   3.681   0.222   0.763  0.9379  0.2724 -0.1226
  296TMC3    C3 4458   3.656   0.216   0.897 -0.3463  0.1985  0.1281
  296TMC3    C4 4459   3.511   0.057   0.722 -0.7422  0.2241 -0.1413
  296TMC3    C5 4460   3.485   0.051   0.856  0.2600  0.4606 -0.0922
  296TMC3    C6 4461   3.562   0.128   0.946  0.2698  0.3805 -0.2451
  296TMC3     C 4462   3.661   0.135   0.536 -0.1804  1.3040 -0.6868
  296TMC3     O 4463   3.766   0.195   0.516 -0.3960  0.3814 -0.1228
  296TMC3     H 4464   3.767   0.278   0.728  0.6217  0.9286  0.1777
  296TMC3    H1 4465   3.462   4.718   0.649  0.2971 -0.3220 -0.3714
  296TMC3    H2 4466   3.526   0.143   1.047 -1.2107 -0.1300 -0.6926
  296TMC3    C7 4467   3.361   4.710   0.899  0.2848 -0.1208  0.2618
  296TMC3    C8 4468   3.740   0.295   0.981  0.3271 -0.1446  0.0951
  296TMC3    O1 4469   3.279   4.702   0.812 -0.1146  0.0296  0.0184
  296TMC3    O2 4470   3.777   0.404   0.940 -0.6385  0.1124 -0.0639
  297MPD2     C 4471   1.686   2.534  15.669  0.6637 -0.4168 -0.6980
  297MPD2    C1 4472   1.611   2.596  15.767 -0.2107 -0.4076 -0.0457
  297MPD2    C2 4473   1.671   2.696  15.842 -0.6421 -0.2125  0.1493
  297MPD2    C3 4474   1.802   2.733  15.823 -0.6365 -0.0597 -0.1093
  297MPD2    C4 4475   1.872   2.660  15.736 -0.3622  0.1788  0.2721
  297MPD2    C5 4476   1.816   2.565  15.654  0.1345  1.2003 -0.7526
  297MPD2     H 4477   1.614   2.754  15.914  0.8424  0.9629  0.3800
  297MPD2    H1 4478   1.980   2.669  15.735 -0.2454 -1.2498 -0.0743
  297MPD2    H2 4479   1.646   2.460  15.600 -1.1734  0.3016 -0.4194
  297MPD2    H3 4480   1.883   2.509  15.589 -1.5092  0.9945 -2.2556
  297MPD2     N 4481   1.852   2.843  15.893  0.0182  0.1707  0.6122
  297MPD2    H5 4482   1.788   2.895  15.952 -0.5177  0.4652 -0.2168
  297MPD2    N1 4483   1.474   2.577  15.789 -0.0035  0.7004  0.2652
  297MPD2    H7 4484   1.428   2.633  15.860  2.3692 -1.4833  3.5072
  298TMC3    C1 4485   1.265   2.492  15.721 -0.0282 -0.2278 -0.2659
  298TMC3    C2 4486   1.201   2.483  15.599 -0.1077 -0.1413 -0.6254
  298TMC3    C3 4487   1.065   2.490  15.615 -0.6587  0.5645 -0.4912
  298TMC3    C4 4488   1.207   2.517  15.843  0.2270 -0.9679 -0.8056
  298TMC3    C5 4489   1.066   2.548  15.844  0.4139 -0.4187 -0.1994
  298TMC3    C6 4490   0.999   2.533  15.728  0.3421 -0.2410  0.4083
  298TMC3     C 4491   1.404   2.480  15.717  0.1070  0.1719 -0.0740
  298TMC3     O 4492   1.441   2.418  15.618 -0.0465 -0.5476 -0.2494
  298TMC3     H 4493   1.257   2.448  15.513  0.8722 -0.8697  0.3081
  298TMC3    H1 4494   1.268   2.511  15.932 -1.6072  0.5595  0.5646
  298TMC3    H2 4495   0.892   2.546  15.729  0.5226  1.2395  0.9848
  298TMC3    C7 4496   1.012   2.624  15.952  0.3343 -0.7406  0.6615
  298TMC3    C8 4497   0.973   2.509  15.503  0.3582 -0.4586 -0.0445
  298TMC3    O1 4498   1.049   2.608  16.067  0.9977 -0.5495  0.0694
  298TMC3    O2 4499   0.871   2.442  15.503 -0.4028  0.2855  0.3844
  299MPD2     C 4500   2.243   2.152  10.124 -0.2640  0.3272  0.0770
  299MPD2    C1 4501   2.170   2.128  10.238  1.1155 -0.0862 -0.2106
  299MPD2    C2 4502   2.036   2.106  10.223  0.2901 -0.0888 -0.3258
  299MPD2    C3 4503   1.984   2.082  10.100  0.3966 -0.3212 -0.2042
  299MPD2    C4 4504   2.058   2.107   9.992  0.5694  0.8861 -0.3320
  299MPD2    C5 4505   2.187   2.147   9.997 -0.2759 -0.0055  0.1398
  299MPD2     H 4506   1.970   2.086  10.307  1.9410 -0.7376  0.8222
  299MPD2    H1 4507   2.016   2.097   9.892 -0.2173 -1.6477  0.2525
  299MPD2    H2 4508   2.350   2.171  10.129  0.0606 -1.2186 -1.0873
  299MPD2    H3 4509   2.251   2.159   9.911  2.4874  2.1280  2.4571
  299MPD2     N 4510   1.849   2.051  10.080 -0.3482  0.2503  0.3681
  299MPD2    H5 4511   1.810   2.085   9.993 -0.4323  0.0775  0.3387
  299MPD2    N1 4512   2.228   2.160  10.359  0.3927  0.0682 -0.0632
  299MPD2    H7 4513   2.317   2.208  10.362  0.0703  0.6977 -0.6767
  300TMC3    C1 4514   1.616   2.047  10.130  0.4907  0.2024 -0.6310
  300TMC3    C2 4515   1.585   2.177  10.149  0.3950 -0.0332  0.4774
  300TMC3    C3 4516   1.463   2.215  10.179  0.7452 -0.2963 -0.3535
  300TMC3    C4 4517   1.531   1.949  10.157 -0.2548 -0.0734 -0.9374
  300TMC3    C5 4518   1.408   1.988  10.210  0.0684 -0.4284  0.2265
  300TMC3    C6 4519   1.366   2.120  10.207  0.0007 -0.7737  0.3898
  300TMC3     C 4520   1.755   2.013  10.169 -0.0554  0.3600 -0.0244
  300TMC3     O 4521   1.768   1.968  10.280 -0.1849  0.0118  0.0332
  300TMC3     H 4522   1.666   2.246  10.128  1.1143 -1.0592 -0.0990
  300TMC3    H1 4523   1.573   1.850  10.171 -0.3648 -0.3959 -2.8447
  300TMC3    H2 4524   1.262   2.152  10.210  0.2296 -0.2988  3.2751
  300TMC3    C7 4525   1.325   1.878  10.263  0.1058 -0.2893  0.9552
  300TMC3    C8 4526   1.461   2.359  10.235  0.1562 -0.7244 -0.6636
  300TMC3    O1 4527   1.360   1.763  10.228 -0.6405  0.2510  0.1567
  300TMC3    O2 4528   1.563   2.410  10.266  0.0695 -0.3677 -0.1730
  301MPD2     C 4529   3.898   2.974   1.689 -0.0998 -0.0271 -0.3513
  301MPD2    C1 4530   3.853   2.984   1.562  0.2608  0.3853  0.4768
  301MPD2    C2 4531   3.887   2.890   1.470 -1.2021 -0.0322  0.1248
  301MPD2    C3 4532   3.982   2.790   1.493 -0.8237  0.3089 -0.8801
  301MPD2    C4 4533   4.025   2.785   1.627 -0.1167 -0.3753 -0.4041
  301MPD2    C5 4534   3.982   2.871   1.725  0.2285  0.5356 -0.0478
  301MPD2     H 4535   3.849   2.903   1.370 -2.5375  0.5322  0.7099
  301MPD2    H1 4536   4.107   2.718   1.650 -0.6516 -0.6862  0.5968
  301MPD2    H2 4537   3.861   3.032   1.773  2.2716 -1.1193  1.4628
  301MPD2    H3 4538   4.007   2.861   1.830 -0.0261  1.2105  0.0754
  301MPD2     N 4539   4.036   2.696   1.402 -0.2315  0.1155 -0.2764
  301MPD2    H5 4540   4.100   2.620   1.423 -0.3577  0.9998  3.3090
  301MPD2    N1 4541   3.756   3.080   1.513 -0.2634  0.1902  0.0357
  301MPD2    H7 4542   3.739   3.086   1.413 -0.9326 -3.2365 -0.0211
  302TMC3    C1 4543   4.100   2.627   1.182 -0.6910 -0.8345  0.3708
  302TMC3    C2 4544   4.209   2.551   1.225 -0.0359  1.6176 -0.3038
  302TMC3    C3 4545   4.273   2.468   1.136 -0.5697 -0.1783 -0.0623
  302TMC3    C4 4546   4.062   2.627   1.055  0.4683  0.7938  0.2127
  302TMC3    C5 4547   4.112   2.535   0.969 -0.2221  0.3241  0.0340
  302TMC3    C6 4548   4.221   2.458   1.004  0.2015  0.2808 -0.2228
  302TMC3     C 4549   4.026   2.719   1.267 -0.3360 -0.0231 -0.3563
  302TMC3     O 4550   3.962   2.805   1.209 -0.2760  0.1138  0.4866
  302TMC3     H 4551   4.255   2.562   1.322  0.5677  1.4934 -0.5762
  302TMC3    H1 4552   3.981   2.694   1.028 -0.4565 -0.5450 -0.3714
  302TMC3    H2 4553   4.269   2.396   0.929  0.5818  2.0974 -1.5024
  302TMC3    C7 4554   4.088   2.540   0.828  0.3129 -0.2340 -0.3307
  302TMC3    C8 4555   4.387   2.384   1.174  0.0627 -0.0926  0.1152
  302TMC3    O1 4556   4.168   2.482   0.753  0.2289  0.4402 -0.3257
  302TMC3    O2 4557   4.470   2.363   1.088  0.3126 -0.2294 -0.0602
  303MPD2     C 4558   4.119   1.349  11.003 -0.0486 -0.6048  0.0354
  303MPD2    C1 4559   4.044   1.323  10.884 -0.6844 -0.0361 -0.0481
  303MPD2    C2 4560   4.080   1.377  10.765 -0.2877  0.5462  0.0172
  303MPD2    C3 4561   4.204   1.443  10.754 -0.2626 -0.5385  0.3525
  303MPD2    C4 4562   4.284   1.460  10.866 -0.3854 -0.6594  0.7395
  303MPD2    C5 4563   4.238   1.421  10.989  0.1583  0.2987 -0.5269
  303MPD2     H 4564   4.025   1.368  10.672 -0.4298  1.4247  0.0149
  303MPD2    H1 4565   4.378   1.513  10.854 -0.5330 -0.5252  0.1564
  303MPD2    H2 4566   4.100   1.318  11.105  0.5150  0.5764  0.5086
  303MPD2    H3 4567   4.294   1.443  11.079 -0.8905  4.5839 -0.9584
  303MPD2     N 4568   4.258   1.483  10.629  0.2628  0.4844  0.4432
  303MPD2    H5 4569   4.332   1.552  10.639  1.7266 -0.6925 -2.2851
  303MPD2    N1 4570   3.931   1.244  10.896 -0.5580  0.8829 -0.0399
  303MPD2    H7 4571   3.910   1.202  10.986  1.4219  0.5905  0.2879
  304TMC3    C1 4572   3.738   1.123  10.842 -0.3266 -0.6685  0.8201
  304TMC3    C2 4573   3.627   1.127  10.763  0.1586  0.4645  1.0771
  304TMC3    C3 4574   3.574   1.006  10.732  1.5522 -0.0336  0.5692
  304TMC3    C4 4575   3.798   1.004  10.898  0.5022  0.7565 -1.0714
  304TMC3    C5 4576   3.721   0.896  10.875 -0.9394  0.0889 -0.0932
  304TMC3    C6 4577   3.602   0.891  10.803  0.0689 -0.2554 -0.3269
  304TMC3     C 4578   3.827   1.230  10.809  0.4951  0.9279 -0.5221
  304TMC3     O 4579   3.796   1.295  10.711 -0.2062 -1.0300  0.4797
  304TMC3     H 4580   3.593   1.224  10.728 -1.2951 -0.0085  1.2081
  304TMC3    H1 4581   3.883   1.010  10.965  0.8153  2.2128 -1.5932
  304TMC3    H2 4582   3.558   0.793  10.785 -0.4246  0.1081 -1.0900
  304TMC3    C7 4583   3.804   0.777  10.846 -0.5639 -0.9547  0.1896
  304TMC3    C8 4584   3.578   0.983  10.587 -0.1039 -0.1346 -0.9579
  304TMC3    O1 4585   3.887   0.741  10.926 -0.2634  0.7690 -0.4310
  304TMC3    O2 4586   3.591   0.869  10.545 -0.0005 -0.0788 -0.0134
  305MPD2     C 4587   2.264   3.806  13.786 -0.1990  0.1803  0.7919
  305MPD2    C1 4588   2.262   3.677  13.817 -0.3584  0.6157  0.3199
  305MPD2    C2 4589   2.280   3.577  13.716  0.2716  0.0648 -0.1906
  305MPD2    C3 4590   2.290   3.624  13.592 -0.0270  1.3551 -0.1097
  305MPD2    C4 4591   2.315   3.756  13.568 -0.2151 -0.9743 -0.2011
  305MPD2    C5 4592   2.290   3.848  13.660  0.2371  0.3539  0.1593
  305MPD2     H 4593   2.294   3.475  13.749 -0.5289  0.1174  0.3116
  305MPD2    H1 4594   2.348   3.795  13.472 -1.8349  2.6633  0.7529
  305MPD2    H2 4595   2.256   3.890  13.855 -0.1047  0.2301  0.7418
  305MPD2    H3 4596   2.300   3.955  13.645 -1.6359  0.7944  2.1587
  305MPD2     N 4597   2.307   3.539  13.478  0.0709 -0.2015 -0.5192
  305MPD2    H5 4598   2.334   3.585  13.391 -0.4038  4.3359  1.7189
  305MPD2    N1 4599   2.254   3.648  13.958 -0.3437  0.0290  0.5864
  305MPD2    H7 4600   2.250   3.738  14.006  0.7088  0.2442  0.2678
  306TMC3    C1 4601   2.251   3.520  14.163  0.0466 -0.5439  0.2087
  306TMC3    C2 4602   2.315   3.407  14.217 -0.3192 -0.3119 -0.2397
  306TMC3    C3 4603   2.306   3.394  14.357  0.3217  0.4058 -0.4376
  306TMC3    C4 4604   2.198   3.625  14.229  0.3434  0.4474  0.3736
  306TMC3    C5 4605   2.204   3.608  14.366 -0.2864  0.4061 -0.5798
  306TMC3    C6 4606   2.259   3.501  14.430 -0.0986  0.4847  0.8063
  306TMC3     C 4607   2.263   3.523  14.019 -0.1475  0.2967  0.1560
  306TMC3     O 4608   2.269   3.419  13.958  0.1397 -0.4974 -0.2759
  306TMC3     H 4609   2.362   3.341  14.145  0.0634 -1.1191  0.7422
  306TMC3    H1 4610   2.133   3.694  14.177  1.4700  0.3524 -1.1530
  306TMC3    H2 4611   2.245   3.487  14.537 -1.3515 -3.3155  0.1675
  306TMC3    C7 4612   2.124   3.692  14.443  1.0046  0.3307  0.4552
  306TMC3    C8 4613   2.371   3.292  14.434  0.3074  1.3645 -0.2890
  306TMC3    O1 4614   2.025   3.742  14.385 -0.2608 -0.4650 -0.7401
  306TMC3    O2 4615   2.372   3.305  14.555  0.6138  0.5442  0.4234
  307MPD2     C 4616   0.286   0.762   0.748 -0.4684 -0.2585  0.8196
  307MPD2    C1 4617   0.266   0.892   0.713  0.2641 -0.1225 -1.5624
  307MPD2    C2 4618   0.167   0.962   0.783 -0.5408  0.6829  0.2520
  307MPD2    C3 4619   0.082   0.907   0.871 -0.3983 -1.0650  0.5394
  307MPD2    C4 4620   0.108   0.779   0.916  0.2134 -0.6690  0.2951
  307MPD2    C5 4621   0.205   0.709   0.849 -0.0180  0.0107 -0.4618
  307MPD2     H 4622   0.154   1.068   0.763  0.4291  0.2362 -2.7503
  307MPD2    H1 4623   0.053   0.723   0.991  2.7608 -0.8096  2.0401
  307MPD2    H2 4624   0.360   0.695   0.705  1.3464  1.3136  1.5035
  307MPD2    H3 4625   0.243   0.612   0.879 -1.3340 -1.1892 -2.6643
  307MPD2     N 4626   4.694   0.985   0.920 -0.1204 -0.3964 -0.4698
  307MPD2    H5 4627   4.699   1.082   0.893 -0.1338 -0.0392  0.8386
  307MPD2    N1 4628   0.325   0.951   0.602  0.4353  0.2885 -0.3508
  307MPD2    H7 4629   0.288   1.041   0.573  1.3683  0.2852 -1.5405
  308TMC3    C1 4630   4.284   1.114   1.078  0.0387  0.4046 -0.0493
  308TMC3    C2 4631   4.328   1.234   1.136  0.6605  0.3449  0.1274
  308TMC3    C3 4632   4.463   1.261   1.120  0.1149  0.2857 -0.2747
  308TMC3    C4 4633   4.370   1.022   1.033  0.6346  0.1897  0.5258
  308TMC3    C5 4634   4.502   1.054   1.029  0.2883  0.3082 -0.0318
  308TMC3    C6 4635   4.549   1.175   1.064 -0.1097 -0.0282  0.1965
  308TMC3     C 4636   4.177   1.128   0.979 -0.4702  0.4059  0.2862
  308TMC3     O 4637   4.136   1.033   0.912 -0.1677  0.1586 -0.3087
  308TMC3     H 4638   4.264   1.311   1.178  1.2074  1.1869 -0.5855
  308TMC3    H1 4639   4.334   0.925   1.000 -1.3888  1.1291 -0.0049
  308TMC3    H2 4640   4.656   1.192   1.067  0.3595 -2.5058 -2.5474
  308TMC3    C7 4641   4.589   0.943   0.998  0.2409  0.0509 -0.5109
  308TMC3    C8 4642   4.492   1.401   1.105  0.0702  0.0711 -0.2730
  308TMC3    O1 4643   4.543   0.828   1.007 -0.0022  0.1479  0.2704
  308TMC3    O2 4644   4.551   1.453   1.196 -0.4526  0.2479  0.1797
  309MPD2     C 4645   4.558   2.168  17.122  0.2064 -0.8031 -0.1461
  309MPD2    C1 4646   4.460   2.138  17.030 -0.6091 -0.0545  0.4316
  309MPD2    C2 4647   4.329   2.161  17.060 -0.0565 -0.9825  0.0450
  309MPD2    C3 4648   4.291   2.199  17.187 -0.0699 -0.3924  0.3034
  309MPD2    C4 4649   4.391   2.218  17.275 -0.8973  0.2301 -0.2736
  309MPD2    C5 4650   4.523   2.204  17.246  0.4312  0.1739 -0.0841
  309MPD2     H 4651   4.255   2.151  16.981  1.3716  0.4221 -1.5066
  309MPD2    H1 4652   4.366   2.250  17.376  1.1385 -2.2018  1.0113
  309MPD2    H2 4653   4.661   2.153  17.093  0.6393  0.5765  0.7155
  309MPD2    H3 4654   4.594   2.222  17.325 -0.5454  4.0525 -0.1142
  309MPD2     N 4655   4.159   2.231  17.219 -0.2523 -0.1850 -1.0880
  309MPD2    H5 4656   4.150   2.263  17.315  0.7245 -0.8032 -0.7960
  309MPD2    N1 4657   4.489   2.092  16.904 -0.1180  0.7923 -0.1226
  309MPD2    H7 4658   4.411   2.087  16.840 -0.2417  1.1428 -0.0007
  310TMC3    C1 4659   4.585   1.978  16.729 -0.5023  0.1148 -0.5172
  310TMC3    C2 4660   4.504   2.055  16.639  1.1048 -0.0804 -0.0112
  310TMC3    C3 4661   4.509   2.028  16.502 -0.4877 -0.1529  0.4459
  310TMC3    C4 4662   4.664   1.870  16.693 -0.7986 -0.3143  0.1480
  310TMC3    C5 4663   4.662   1.850  16.555  0.8889  0.3827  0.1690
  310TMC3    C6 4664   4.589   1.923  16.460 -0.1456  0.1828  0.3207
  310TMC3     C 4665   4.603   2.026  16.864 -0.6577  0.0235 -0.4966
  310TMC3     O 4666   4.709   2.003  16.917 -0.3262  0.3998  0.6210
  310TMC3     H 4667   4.476   2.157  16.662 -2.0766 -1.1960  1.0922
  310TMC3    H1 4668   4.704   1.805  16.770 -1.1772 -0.1777  0.4584
  310TMC3    H2 4669   4.568   1.885  16.361 -1.0179 -0.6793  0.8413
  310TMC3    C7 4670   0.032   1.759  16.491 -0.0816  0.7238  0.1729
  310TMC3    C8 4671   4.407   2.085  16.409  0.5679  0.6617 -0.1796
  310TMC3    O1 4672   0.004   1.699  16.387 -0.1511 -0.3639 -0.5120
  310TMC3    O2 4673   4.431   2.082  16.291  0.4935  0.8237 -0.0866
  311MPD2     C 4674   1.458   2.985  12.531 -0.2327  0.2602 -0.1832
  311MPD2    C1 4675   1.471   3.099  12.605 -0.5601 -0.5226 -0.2191
  311MPD2    C2 4676   1.361   3.157  12.668 -0.1133  0.1191 -1.0504
  311MPD2    C3 4677   1.246   3.076  12.674  0.2794  0.4468 -0.5097
  311MPD2    C4 4678   1.233   2.964  12.598 -0.3549  0.2898 -0.0510
  311MPD2    C5 4679   1.343   2.923  12.528 -0.7863  0.6239  0.7415
  311MPD2     H 4680   1.370   3.244  12.732  0.1391  1.1909 -2.5407
  311MPD2    H1 4681   1.139   2.912  12.588  1.2154 -2.3797 -0.8621
  311MPD2    H2 4682   1.538   2.937  12.477 -0.7652 -1.1588  0.2987
  311MPD2    H3 4683   1.342   2.825  12.482  3.1994  0.5120  0.9055
  311MPD2     N 4684   1.141   3.124  12.747  0.5307 -0.3383 -0.0934
  311MPD2    H5 4685   1.154   3.192  12.820  0.4529 -2.4897  1.9424
  311MPD2    N1 4686   1.595   3.170  12.623  0.0275  0.1075 -0.5959
  311MPD2    H7 4687   1.590   3.249  12.687 -2.7853 -2.7268  2.6614
  312TMC3    C1 4688   0.966   3.141  12.883 -0.0854  0.1356 -0.2927
  312TMC3    C2 4689   0.858   3.083  12.943  0.0004  0.0609 -0.0350
  312TMC3    C3 4690   0.790   3.153  13.040 -0.5014 -0.0019 -0.6043
  312TMC3    C4 4691   1.000   3.271  12.913 -0.4669  0.0715 -0.1788
  312TMC3    C5 4692   0.934   3.329  13.018 -0.6762  0.2080 -0.0222
  312TMC3    C6 4693   0.829   3.276  13.081  0.2667  0.7345 -0.3497
  312TMC3     C 4694   1.015   3.074  12.763  0.2552 -0.3848 -0.6449
  312TMC3     O 4695   0.962   2.977  12.707  0.1315  0.3708  0.3953
  312TMC3     H 4696   0.824   2.985  12.910 -0.3776 -0.3391  1.4979
  312TMC3    H1 4697   1.072   3.326  12.854 -1.5578  0.1830 -1.4100
  312TMC3    H2 4698   0.776   3.332  13.158  3.1476  0.8087  1.6034
  312TMC3    C7 4699   0.990   3.461  13.050 -0.2689  0.0255  0.5242
  312TMC3    C8 4700   0.649   3.140  13.004 -0.2706  0.4351  0.4419
  312TMC3    O1 4701   1.036   3.523  12.955  0.4690 -0.3543 -0.4310
  312TMC3    O2 4702   0.622   3.059  12.918 -0.2485  0.4142  0.2017
  313MPD2     C 4703   1.106   2.440  10.892 -0.4514 -0.3691  0.1383
  313MPD2    C1 4704   0.966   2.435  10.899  0.6972  0.1021 -0.3195
  313MPD2    C2 4705   0.904   2.377  10.792 -0.2279 -0.6783  0.3334
  313MPD2    C3 4706   0.980   2.324  10.685 -0.7066  0.1295  0.4935
  313MPD2    C4 4707   1.116   2.338  10.680 -0.5497 -0.9230 -0.5167
  313MPD2    C5 4708   1.175   2.398  10.786 -0.1905 -0.4479  0.7871
  313MPD2     H 4709   0.796   2.369  10.786 -0.1772 -1.2721  0.2722
  313MPD2    H1 4710   1.165   2.299  10.592  2.3838  1.2461  0.1650
  313MPD2    H2 4711   1.161   2.497  10.967 -0.5521  0.8478 -0.7020
  313MPD2    H3 4712   1.283   2.403  10.783 -0.3047  0.2262 -2.6162
  313MPD2     N 4713   0.902   2.250  10.592 -0.0510 -0.4146  0.4028
  313MPD2    H5 4714   0.804   2.232  10.616  0.1818 -1.0595  0.8855
  313MPD2    N1 4715   0.882   2.485  11.005  0.2492  0.4268  0.1799
  313MPD2    H7 4716   0.781   2.481  10.995  0.1968  0.1894  0.8227
  314TMC3    C1 4717   0.836   2.630  11.193 -0.0672 -0.3428 -0.5539
  314TMC3    C2 4718   0.906   2.701  11.278 -0.1424 -0.3812  0.4468
  314TMC3    C3 4719   0.879   2.835  11.287 -0.4571  0.1856  0.0595
  314TMC3    C4 4720   0.739   2.688  11.118 -0.7634 -0.7674 -0.1612
  314TMC3    C5 4721   0.709   2.812  11.137 -0.0380 -0.4323  0.4700
  314TMC3    C6 4722   0.784   2.894  11.211  0.1971  0.5836  0.6317
  314TMC3     C 4723   0.926   2.555  11.111  0.1403  0.6589  0.3552
  314TMC3     O 4724   1.040   2.552  11.153 -0.2543  0.0472  0.4216
  314TMC3     H 4725   0.970   2.651  11.350 -1.4167 -4.3792 -1.1806
  314TMC3    H1 4726   0.681   2.630  11.047 -0.8607 -0.2468 -0.5025
  314TMC3    H2 4727   0.784   3.002  11.205 -0.2111  0.5709  0.4487
  314TMC3    C7 4728   0.646   2.868  11.020  0.4200  1.1187  0.7889
  314TMC3    C8 4729   0.981   2.923  11.352 -0.0771 -0.2828  0.5152
  314TMC3    O1 4730   0.559   2.949  11.038 -0.3811  0.3841  0.1363
  314TMC3    O2 4731   0.940   3.038  11.368 -0.2955  0.3840 -0.6761
  315MPD2     C 4732   0.347   2.002   0.216  0.4373  0.0466  0.2583
  315MPD2    C1 4733   0.482   1.999   0.190  0.6583  1.1882  0.0880
  315MPD2    C2 4734   0.539   2.100   0.108  0.1536 -0.0904  0.2000
  315MPD2    C3 4735   0.458   2.206   0.062 -0.1255 -0.0645  0.1251
  315MPD2    C4 4736   0.325   2.208   0.099 -0.8484  0.5433 -0.4507
  315MPD2    C5 4737   0.264   2.100   0.173 -0.0975 -0.0009  0.4460
  315MPD2     H 4738   0.647   2.107   0.102  0.0186  1.2109 -0.7227
  315MPD2    H1 4739   0.258   2.288   0.070 -1.4553  0.8724  1.8167
  315MPD2    H2 4740   0.299   1.918   0.264 -0.1531 -0.0260 -0.4600
  315MPD2    H3 4741   0.161   2.101   0.206 -0.3822 -2.4812 -0.3271
  315MPD2     N 4742   0.520   2.313  17.693  0.1816 -0.4267 -0.3589
  315MPD2    H5 4743   0.612   2.295  17.653  0.8261  1.6208  0.1868
  315MPD2    N1 4744   0.576   1.901   0.225 -0.3801  0.2921  0.7607
  315MPD2    H7 4745   0.666   1.924   0.183 -0.9326  1.8614  0.4681
  316TMC3    C1 4746   0.547   2.525  17.613 -0.9892 -0.5642  0.1451
  316TMC3    C2 4747   0.592   2.648  17.657  0.2408 -0.2925  0.6319
  316TMC3    C3 4748   0.633   2.733  17.559  0.1727 -0.0773 -0.8626
  316TMC3    C4 4749   0.557   2.478  17.482  0.0241 -0.0227 -1.2108
  316TMC3    C5 4750   0.599   2.576  17.390  0.1586  0.0010  0.1814
  316TMC3    C6 4751   0.636   2.707  17.427  0.1169  0.4169 -0.2108
  316TMC3     C 4752   0.476   2.440   0.005  0.8507  0.0879 -0.0382
  316TMC3     O 4753   0.391   2.492   0.076 -0.4129  0.5028 -0.6600
  316TMC3     H 4754   0.592   2.682   0.063 -1.2672 -0.8000  0.7865
  316TMC3    H1 4755   0.514   2.385  17.447  2.4705 -1.3980 -0.5435
  316TMC3    H2 4756   0.678   2.782  17.361  0.1093  0.5171 -0.1025
  316TMC3    C7 4757   0.561   2.556  17.248  0.0556  0.4220  0.2837
  316TMC3    C8 4758   0.702   2.850  17.600 -0.3549  0.1544  0.2112
  316TMC3    O1 4759   0.473   2.475  17.222 -0.2023 -0.5413 -0.0935
  316TMC3    O2 4760   0.691   2.943  17.524  0.5204 -0.7814  0.1660
  317MPD2     C 4761   2.538   0.437  12.456  0.3709 -0.4970  0.2155
  317MPD2    C1 4762   2.565   0.303  12.462  0.2185  0.9806 -0.1139
  317MPD2    C2 4763   2.607   0.251  12.577 -0.7289 -0.2574  0.1746
  317MPD2    C3 4764   2.641   0.332  12.683  0.6370 -0.2094 -0.0311
  317MPD2    C4 4765   2.612   0.466  12.683 -0.4596  0.4434 -0.6421
  317MPD2    C5 4766   2.558   0.517  12.564 -0.5826 -0.4783 -0.4753
  317MPD2     H 4767   2.636   0.147  12.586 -1.3566 -0.5780 -1.6459
  317MPD2    H1 4768   2.632   0.535  12.764  2.3193  0.4775 -1.3720
  317MPD2    H2 4769   2.489   0.495  12.379  0.3962 -1.0091 -0.1880
  317MPD2    H3 4770   2.535   0.623  12.564 -1.2510 -0.6314 -1.6159
  317MPD2     N 4771   2.700   0.269  12.796  1.1607  0.1300  0.0255
  317MPD2    H5 4772   2.712   0.169  12.785 -0.0810  0.0938 -1.0415
  317MPD2    N1 4773   2.549   0.207  12.359  0.1044  0.3722  0.4393
  317MPD2    H7 4774   2.573   0.110  12.375  1.7412  0.3382 -2.2927
  318TMC3    C1 4775   2.790   0.229  13.006  0.7816 -0.1193  0.3342
  318TMC3    C2 4776   2.751   0.096  13.007 -0.1954 -0.0355  0.2293
  318TMC3    C3 4777   2.813   0.011  13.098  0.4191 -0.0235  0.3769
  318TMC3    C4 4778   2.877   0.269  13.105  0.2349 -0.0265 -0.4031
  318TMC3    C5 4779   2.942   0.177  13.184 -0.0612  1.1186 -0.5527
  318TMC3    C6 4780   2.902   0.052  13.187 -0.4618 -0.5424 -0.1401
  318TMC3     C 4781   2.741   0.324  12.913 -0.3530 -0.6275  0.3353
  318TMC3     O 4782   2.744   0.445  12.937  0.3142  0.5834  0.7015
  318TMC3     H 4783   2.689   0.058  12.927 -0.2205 -1.1657  0.7911
  318TMC3    H1 4784   2.918   0.368  13.113 -0.8077  0.5436 -2.0926
  318TMC3    H2 4785   2.934   4.705  13.262  0.1331 -0.5742 -0.4226
  318TMC3    C7 4786   3.067   0.214  13.240  0.7409  0.3943  0.2551
  318TMC3    C8 4787   2.781   4.592  13.102 -0.5666 -0.1935  0.8569
  318TMC3    O1 4788   3.079   0.338  13.254 -0.2776 -0.3900  0.2526
  318TMC3    O2 4789   2.845   4.515  13.174 -0.1987  0.8092  0.3767
  319MPD2     C 4790   3.870   1.668  16.173  0.1980  0.3061  0.3159
  319MPD2    C1 4791   3.781   1.758  16.238  1.1344  0.8240  0.3233
  319MPD2    C2 4792   3.664   1.798  16.173  0.0741 -0.2330 -0.1216
  319MPD2    C3 4793   3.630   1.754  16.047 -0.1160  0.2157  0.0619
  319MPD2    C4 4794   3.726   1.683  15.975 -0.0816  0.1907  0.6522
  319MPD2    C5 4795   3.840   1.638  16.042  0.8999  0.0199 -0.6558
  319MPD2     H 4796   3.596   1.862  16.229  0.0007 -1.5577  1.2943
  319MPD2    H1 4797   3.708   1.655  15.871 -1.4865 -0.9568  1.1964
  319MPD2    H2 4798   3.955   1.617  16.216  0.0581  1.0111  1.4409
  319MPD2    H3 4799   3.915   1.577  15.993  0.3196 -2.3034  1.3344
  319MPD2     N 4800   3.511   1.774  15.982  0.2656 -0.3856 -0.0377
  319MPD2    H5 4801   3.499   1.727  15.893  2.4287 -0.6569 -0.1807
  319MPD2    N1 4802   3.812   1.797  16.368  0.9861 -0.1239 -0.2883
  319MPD2    H7 4803   3.741   1.841  16.425  1.8078  0.1061  0.5497
  320TMC3    C1 4804   3.290   1.847  15.947  0.2089  0.4885 -0.1228
  320TMC3    C2 4805   3.214   1.954  15.982  0.6756  0.1627  0.5014
  320TMC3    C3 4806   3.081   1.930  15.985  0.0793 -1.0790  0.5138
  320TMC3    C4 4807   3.244   1.721  15.934  0.1859 -1.0877 -0.4236
  320TMC3    C5 4808   3.107   1.705  15.941  0.7359  0.2177  0.1456
  320TMC3    C6 4809   3.020   1.805  15.966  0.2336 -0.4560 -0.5947
  320TMC3     C 4810   3.408   1.851  16.033  0.5231 -0.6123 -0.0013
  320TMC3     O 4811   3.390   1.898  16.145 -0.1217  0.7813  0.5026
  320TMC3     H 4812   3.265   2.044  16.013 -1.2648  1.3951  0.1444
  320TMC3    H1 4813   3.321   1.645  15.943  2.0050  0.8542  0.3976
  320TMC3    H2 4814   2.917   1.779  15.991 -1.4054  2.2787 -4.4857
  320TMC3    C7 4815   3.061   1.571  15.975 -0.1590  0.8953  1.1937
  320TMC3    C8 4816   3.007   2.043  16.043 -0.4996  0.5259  0.1153
  320TMC3    O1 4817   2.998   1.512  15.886 -0.3013  0.3213 -0.0639
  320TMC3    O2 4818   3.062   2.120  16.121  0.2812 -0.2999 -0.0564
  321TMC3    C1 4819   3.935   1.849  16.561 -0.4959 -0.4459  0.1032
  321TMC3    C2 4820   3.827   1.821  16.645  0.1592  0.0175 -0.4284
  321TMC3    C3 4821   3.829   1.870  16.771  0.0085 -0.3687 -0.4839
  321TMC3    C4 4822   4.032   1.933  16.606  0.2014 -1.3261  0.0406
  321TMC3    C5 4823   4.028   1.982  16.733 -0.0249  0.5236  0.6886
  321TMC3    C6 4824   3.918   1.964  16.814  0.1711 -0.3933 -0.0419
  321TMC3     C 4825   3.939   1.800  16.426  1.4378  1.6660 -0.2780
  321TMC3     O 4826   4.047   1.789  16.372  0.2655  0.2849 -0.6023
  321TMC3     H 4827   3.757   1.742  16.622 -0.6875  0.5436  0.3391
  321TMC3    H1 4828   4.108   1.943  16.530 -0.1309 -2.0323 -0.3807
  321TMC3    H2 4829   3.916   1.994  16.918  1.1115 -1.2602  0.2318
  321TMC3    C7 4830   4.152   1.956  16.805  0.0210 -0.2915 -0.3473
  321TMC3    C8 4831   3.781   1.780  16.878  0.1219  0.3212  0.0634
  321TMC3    O1 4832   4.256   1.991  16.750 -0.4439 -0.2979  0.3754
  321TMC3    O2 4833   3.834   1.791  16.987 -0.1286  0.1953 -0.7198
  322MPD2     C 4834   2.717   3.317  13.440 -0.5673 -0.5109  0.0333
  322MPD2    C1 4835   2.634   3.235  13.512  0.1029 -0.0526 -0.4818
  322MPD2    C2 4836   2.593   3.114  13.453  0.4217  0.0223 -0.1972
  322MPD2    C3 4837   2.632   3.077  13.327  0.5800 -0.4843 -0.5902
  322MPD2    C4 4838   2.717   3.165  13.256 -0.1965 -0.2712  0.2131
  322MPD2    C5 4839   2.748   3.286  13.313 -0.1964  0.4370  0.3575
  322MPD2     H 4840   2.539   3.034  13.504  0.4041  0.3443  0.2901
  322MPD2    H1 4841   2.755   3.148  13.156  0.7490  0.9669  0.3543
  322MPD2    H2 4842   2.761   3.406  13.482  1.1614 -0.2828 -2.2377
  322MPD2    H3 4843   2.806   3.354  13.252  0.5503  0.1129  0.7125
  322MPD2     N 4844   2.592   2.946  13.285 -0.4526  0.3165  0.3941
  322MPD2    H5 4845   2.545   2.889  13.355  1.1234  0.9146  1.9372
  322MPD2    N1 4846   2.613   3.268  13.649 -0.5355  0.8325 -0.1586
  322MPD2    H7 4847   2.658   3.348  13.693  1.4521 -1.5819  2.1825
  323TMC3    C1 4848   2.551   3.241  13.876  0.2204  0.1697  0.4777
  323TMC3    C2 4849   2.599   3.368  13.895  0.0211  0.4061  0.0041
  323TMC3    C3 4850   2.644   3.416  14.014 -0.2231  0.0544 -0.2991
  323TMC3    C4 4851   2.563   3.147  13.970 -0.0456 -0.6507  0.8716
  323TMC3    C5 4852   2.622   3.185  14.090  0.2730  0.1090 -0.7214
  323TMC3    C6 4853   2.652   3.321  14.116 -0.2628  0.2041 -0.0267
  323TMC3     C 4854   2.548   3.187  13.741  0.3280 -0.1753  0.1503
  323TMC3     O 4855   2.487   3.082  13.715 -0.1522 -0.3065  0.4415
  323TMC3     H 4856   2.585   3.439  13.814 -1.0577  0.3460  0.1321
  323TMC3    H1 4857   2.523   3.049  13.947 -0.6834 -0.1297 -0.2165
  323TMC3    H2 4858   2.700   3.352  14.208  1.7091 -0.4232 -0.8524
  323TMC3    C7 4859   2.684   3.076  14.162 -0.4685 -0.2451  0.3766
  323TMC3    C8 4860   2.760   3.504  13.989  0.2198 -0.2819 -0.7212
  323TMC3    O1 4861   2.628   2.973  14.141  0.0938 -0.3210  0.0899
  323TMC3    O2 4862   2.822   3.487  13.882  0.3441 -0.5445 -0.6583
  324MPD2     C 4863   4.158   4.498  13.749 -0.4925 -0.4408 -0.2227
  324MPD2    C1 4864   4.129   4.585  13.855 -0.0062  0.1420  0.1737
  324MPD2    C2 4865   4.011   4.656  13.853 -0.3239 -0.5383  0.7827
  324MPD2    C3 4866   3.920   4.636  13.748 -0.3149 -0.3872  0.1990
  324MPD2    C4 4867   3.965   4.564  13.639 -0.3917  0.3462 -0.2440
  324MPD2    C5 4868   4.075   4.486  13.637 -0.2935  0.0442 -0.6030
  324MPD2     H 4869   3.981   0.002  13.931 -1.7829  0.5038 -0.6920
  324MPD2    H1 4870   3.912   4.541  13.547  1.5126 -1.8871 -0.7836
  324MPD2    H2 4871   4.249   4.439  13.752  0.5998  1.2752 -0.0233
  324MPD2    H3 4872   4.096   4.416  13.557  1.3212  1.8379 -1.7548
  324MPD2     N 4873   3.792   4.699  13.751  0.2025  0.4103  0.2356
  324MPD2    H5 4874   3.772   0.039  13.827  2.9952  0.3364  1.0479
  324MPD2    N1 4875   4.209   4.587  13.972 -0.3825 -0.3404  0.0846
  324MPD2    H7 4876   4.182   4.649  14.047  0.5706 -0.6582  0.6871
  325TMC3    C1 4877   3.566   0.011  13.707  0.3732  0.0513 -0.6645
  325TMC3    C2 4878   3.456   4.675  13.653  0.7568 -0.1661 -0.1478
  325TMC3    C3 4879   3.338   4.686  13.719 -0.0153 -0.2556  0.0375
  325TMC3    C4 4880   3.555   0.093  13.811 -0.4970  0.6153  0.7591
  325TMC3    C5 4881   3.431   0.119  13.870 -0.5654  0.2234  0.1001
  325TMC3    C6 4882   3.316   0.053  13.824 -0.1278  0.2808  0.2222
  325TMC3     C 4883   3.694   4.681  13.658 -0.3952  0.9854 -0.4236
  325TMC3     O 4884   3.703   4.611  13.557 -0.2957  0.1560 -0.5269
  325TMC3     H 4885   3.473   4.597  13.580 -1.4103 -1.6631  0.9400
  325TMC3    H1 4886   3.638   0.162  13.825 -0.6967  0.6971  1.5386
  325TMC3    H2 4887   3.216   0.067  13.862 -0.2108 -1.4425  0.6169
  325TMC3    C7 4888   3.447   0.139  14.009 -0.3243  0.1291  0.0203
  325TMC3    C8 4889   3.245   4.575  13.691  0.3559  1.0195  0.5038
  325TMC3    O1 4890   3.560   0.153  14.051  0.1271 -0.4119  0.1005
  325TMC3    O2 4891   3.267   4.513  13.590 -0.0275 -0.4660  0.5461
  326MPD2     C 4892   0.353   0.179  11.364  0.5537  0.0144 -0.3963
  326MPD2    C1 4893   0.300   0.235  11.247  0.3172  0.0994 -0.0839
  326MPD2    C2 4894   0.368   0.331  11.185 -0.3956  0.0595  0.2814
  326MPD2    C3 4895   0.492   0.383  11.222  0.3108  0.3989 -0.6241
  326MPD2    C4 4896   0.546   0.331  11.331  0.3610  0.3005  0.4503
  326MPD2    C5 4897   0.477   0.233  11.402  0.2470 -0.0583 -0.2821
  326MPD2     H 4898   0.326   0.357  11.089  1.3904  2.3350  0.1169
  326MPD2    H1 4899   0.647   0.353  11.362  0.5699 -1.5209  1.0662
  326MPD2    H2 4900   0.314   0.100  11.426  0.2411  0.0850 -0.5052
  326MPD2    H3 4901   0.526   0.189  11.488  0.6262  0.9656  0.0257
  326MPD2     N 4902   0.569   0.474  11.146 -0.0563  0.2757 -0.5310
  326MPD2    H5 4903   0.649   0.521  11.186 -0.6985  1.5745 -0.7683
  326MPD2    N1 4904   0.188   0.185  11.175  0.1261 -0.5841 -0.4526
  326MPD2    H7 4905   0.167   0.238  11.090  0.4561 -0.0579 -0.2070
  327TMC3    C1 4906   0.040   0.028  11.090  0.3884 -0.0278  0.5656
  327TMC3    C2 4907   4.660   0.106  11.041 -0.3435 -0.0193 -0.0755
  327TMC3    C3 4908   4.621   0.089  10.914 -0.1576 -0.1011 -0.3413
  327TMC3    C4 4909   0.103   4.662  11.002  0.3328 -0.0237 -0.5804
  327TMC3    C5 4910   0.059   4.649  10.877  0.0532 -0.3591  0.0947
  327TMC3    C6 4911   4.689   0.002  10.833  0.3330 -0.4878  0.3764
  327TMC3     C 4912   0.127   0.067  11.191  0.2401  0.2746 -0.6049
  327TMC3     O 4913   0.144   4.721  11.289  0.0614 -1.1021  0.1603
  327TMC3     H 4914   4.622   0.186  11.104 -0.6735 -0.9664  0.9462
  327TMC3    H1 4915   0.158   4.583  11.051  1.1342 -0.0733 -1.5514
  327TMC3    H2 4916   4.669   0.001  10.727 -0.0436  0.7846  0.4249
  327TMC3    C7 4917   0.147   4.582  10.784  0.1154  0.2819 -0.3303
  327TMC3    C8 4918   4.558   0.194  10.842 -1.2488 -0.1518 -0.1276
  327TMC3    O1 4919   0.102   4.547  10.676  0.1503  0.3896  0.1634
  327TMC3    O2 4920   4.594   0.206  10.729 -0.2834 -0.2802 -0.5172
  328MPD2     C 4921   2.973   0.168  17.382  0.0876  0.4452  0.5610
  328MPD2    C1 4922   3.003   0.081  17.278 -0.3170  0.7063 -0.0191
  328MPD2    C2 4923   3.075   0.140  17.171  0.2641 -0.3183 -0.0719
  328MPD2    C3 4924   3.103   0.277  17.166 -0.0658  0.0028  0.1423
  328MPD2    C4 4925   3.107   0.345  17.284 -0.4574  0.0053  0.1256
  328MPD2    C5 4926   3.029   0.290  17.386 -0.0696 -0.1359 -0.7068
  328MPD2     H 4927   3.103   0.082  17.085  0.2816 -1.3925  0.6542
  328MPD2    H1 4928   3.127   0.452  17.279  1.9998 -0.4890 -0.6811
  328MPD2    H2 4929   2.910   0.132  17.462  1.0584  1.1376  1.6337
  328MPD2    H3 4930   3.018   0.353  17.474 -1.7307 -0.5572 -0.6162
  328MPD2     N 4931   3.149   0.341  17.052  0.3805  0.4832  0.0658
  328MPD2    H5 4932   3.177   0.437  17.068 -1.5196  1.3742 -2.0783
  328MPD2    N1 4933   2.939   4.683  17.264  0.6772 -0.0654 -0.3913
  328MPD2    H7 4934   2.863   4.666  17.330 -1.0903  1.1707 -2.0839
  329TMC3    C1 4935   2.840   4.522  17.120  0.0721 -0.9957  0.5016
  329TMC3    C2 4936   2.727   4.596  17.101 -0.0137 -0.1562 -0.7280
  329TMC3    C3 4937   2.645   4.563  17.001 -0.1206 -0.6672 -0.6738
  329TMC3    C4 4938   2.866   4.424  17.021  0.1864  0.1375  0.2314
  329TMC3    C5 4939   2.771   4.392  16.924  0.0640 -0.1913 -0.0537
  329TMC3    C6 4940   2.656   4.462  16.918 -0.0823 -0.0443  0.1219
  329TMC3     C 4941   2.952   4.606  17.149  0.2076 -0.4232 -0.0002
  329TMC3     O 4942   3.053   4.593  17.077  0.4423 -0.2890 -0.3680
  329TMC3     H 4943   2.720   4.687  17.160 -3.0517 -1.5920  1.1510
  329TMC3    H1 4944   2.958   4.367  17.028 -1.7218 -3.0288 -0.5315
  329TMC3    H2 4945   2.588   4.454  16.834  2.8649 -0.3710 -2.2615
  329TMC3    C7 4946   2.806   4.292  16.829 -0.2402  0.5087  0.4454
  329TMC3    C8 4947   2.517   4.626  16.984 -0.2726  0.1337  0.0549
  329TMC3    O1 4948   2.908   4.233  16.854  0.1204 -0.4180  0.8505
  329TMC3    O2 4949   2.451   4.599  16.885 -0.5952 -0.2887  0.7719
  330TMC3    C1 4950   1.131   3.722  10.030 -0.3679  0.3252 -0.1265
  330TMC3    C2 4951   1.060   3.659   9.928  0.2653  0.7040  0.1021
  330TMC3    C3 4952   1.103   3.544   9.877  0.2629  1.1786 -0.3887
  330TMC3    C4 4953   1.229   3.665  10.094 -0.0532  0.3221 -0.0201
  330TMC3    C5 4954   1.277   3.550  10.040 -0.3035 -0.1241 -0.1991
  330TMC3    C6 4955   1.216   3.495   9.927 -0.6615 -0.1261  0.7481
  330TMC3     C 4956   1.077   3.854  10.063 -0.0040  0.4075  0.3149
  330TMC3     O 4957   1.101   3.900  10.177 -0.3713  0.6742 -0.2487
  330TMC3     H 4958   0.976   3.706   9.879 -0.2079  0.3191  0.5377
  330TMC3    H1 4959   1.273   3.712  10.181 -1.4420  0.9306  0.3423
  330TMC3    H2 4960   1.261   3.405   9.885  0.3154  0.1787  1.1238
  330TMC3    C7 4961   1.390   3.476  10.092 -0.3553 -0.0545 -0.1848
  330TMC3    C8 4962   1.046   3.478   9.758 -0.8160 -0.2950 -0.1531
  330TMC3    O1 4963   1.408   3.495  10.212  0.0728 -0.0573 -0.2283
  330TMC3    O2 4964   0.975   3.545   9.687  0.9669  0.1779  0.5899
  331MPD2     C 4965   3.063   3.164  12.624 -0.1710 -0.4884 -0.2333
  331MPD2    C1 4966   3.170   3.241  12.590  0.7700  0.1535 -0.1043
  331MPD2    C2 4967   3.267   3.172  12.522  0.8092  0.1752  0.7009
  331MPD2    C3 4968   3.263   3.035  12.505  0.4828 -0.0350  0.4633
  331MPD2    C4 4969   3.161   2.959  12.559  0.5264 -0.7645 -0.6518
  331MPD2    C5 4970   3.058   3.027  12.612 -0.3482 -0.1935 -0.0857
  331MPD2     H 4971   3.357   3.223  12.488 -0.9047  2.3917 -0.4726
  331MPD2    H1 4972   3.157   2.853  12.537  0.7175 -0.7120 -0.9425
  331MPD2    H2 4973   2.977   3.207  12.675  0.0087  0.8768 -1.0894
  331MPD2    H3 4974   2.970   2.974  12.646 -0.2556 -0.3844 -0.1443
  331MPD2     N 4975   3.373   2.978  12.437  0.0105 -0.0227 -0.4410
  331MPD2    H5 4976   3.433   3.043  12.386 -1.6237  1.5787 -0.3437
  331MPD2    N1 4977   3.182   3.378  12.617  0.4692  0.5397  0.0471
  331MPD2    H7 4978   3.101   3.421  12.661  0.1542  1.4071 -1.3781
  332TMC3    C1 4979   3.547   2.846  12.389  0.3979 -0.1441  0.3375
  332TMC3    C2 4980   3.578   2.919  12.275  0.4382  0.5361 -0.3015
  332TMC3    C3 4981   3.710   2.946  12.252 -0.1985 -0.3672  0.1896
  332TMC3    C4 4982   3.648   2.812  12.484  0.5227 -0.1358 -0.7084
  332TMC3    C5 4983   3.774   2.853  12.453  0.0783 -0.5628  0.6279
  332TMC3    C6 4984   3.815   2.919  12.341 -0.4808 -0.8559 -0.5126
  332TMC3     C 4985   3.410   2.844  12.438 -0.3554 -0.6657 -0.7169
  332TMC3     O 4986   3.369   2.749  12.499  0.6009  0.3638 -0.1891
  332TMC3     H 4987   3.490   2.949  12.220  0.2006  0.3878 -0.0039
  332TMC3    H1 4988   3.627   2.754  12.573  3.9699 -1.2166 -0.6143
  332TMC3    H2 4989   3.904   2.977  12.318 -0.0033 -1.9694 -1.5438
  332TMC3    C7 4990   3.860   2.846  12.564  0.2020 -0.0578 -0.6480
  332TMC3    C8 4991   3.734   3.014  12.129  0.4886 -0.1022  0.2432
  332TMC3    O1 4992   3.823   2.802  12.672  0.3397 -0.2420 -0.6498
  332TMC3    O2 4993   3.833   3.087  12.124 -0.3111 -0.0986 -0.5386
  333MPD2     C 4994   3.763   3.372  11.005  0.2898  0.2195  0.1993
  333MPD2    C1 4995   3.840   3.282  10.945  0.2065  0.9627  0.3391
  333MPD2    C2 4996   3.817   3.146  10.957 -1.1567  0.3529  0.5872
  333MPD2    C3 4997   3.715   3.104  11.043  0.5291 -0.1384 -0.3365
  333MPD2    C4 4998   3.624   3.199  11.097  0.4876  0.3644  0.0214
  333MPD2    C5 4999   3.658   3.328  11.077 -0.0373  0.1208  0.1935
  333MPD2     H 5000   3.897   3.084  10.919 -2.3551 -0.8351  0.0180
  333MPD2    H1 5001   3.540   3.166  11.157  0.6366  0.1186  0.0968
  333MPD2    H2 5002   3.790   3.477  11.001  2.2392 -0.3913 -2.7593
  333MPD2    H3 5003   3.603   3.411  11.120 -0.6780  0.0185 -0.4165
  333MPD2     N 5004   3.703   2.970  11.074  0.3007  0.5669  0.4467
  333MPD2    H5 5005   3.790   2.921  11.057 -0.4208 -1.2149  1.9200
  333MPD2    N1 5006   3.943   3.336  10.874 -0.4397  0.3607 -0.1629
  333MPD2    H7 5007   3.957   3.437  10.871  1.2331  0.1467  0.6843
  334TMC3    C1 5008   4.142   3.348  10.745 -0.1327  0.1541  1.1304
  334TMC3    C2 5009   4.239   3.282  10.669  0.5025  0.2230 -0.0033
  334TMC3    C3 5010   4.348   3.355  10.613  0.1153  0.1474  0.2944
  334TMC3    C4 5011   4.152   3.485  10.759 -0.0690 -0.4290  0.8088
  334TMC3    C5 5012   4.258   3.553  10.701  0.0576 -0.4298 -0.3548
  334TMC3    C6 5013   4.364   3.491  10.650 -0.3534  1.3446  0.1777
  334TMC3     C 5014   4.039   3.268  10.816  0.7558 -0.3553 -0.0716
  334TMC3     O 5015   4.057   3.150  10.796 -0.3905  0.2750  0.2817
  334TMC3     H 5016   4.235   3.176  10.646  2.6164  0.2586 -0.5910
  334TMC3    H1 5017   4.069   3.542  10.799  0.5478 -0.1469  1.7014
  334TMC3    H2 5018   4.444   3.557  10.620 -0.0763  1.6115  1.5029
  334TMC3    C7 5019   4.269   3.692  10.721 -0.5234  0.3103 -0.2408
  334TMC3    C8 5020   4.442   3.302  10.525  0.4313  0.1577 -0.4771
  334TMC3    O1 5021   4.368   3.735  10.776 -0.1825 -0.1965  0.5011
  334TMC3    O2 5022   4.396   3.217  10.446  0.8128  0.5942  0.7733
  335TMC3    C1 5023   3.861   0.515  17.359 -0.3727  0.3564 -0.1181
  335TMC3    C2 5024   3.785   0.450  17.264  0.3362 -0.9589 -0.2593
  335TMC3    C3 5025   3.835   0.432  17.140  0.3102  0.3477 -0.3285
  335TMC3    C4 5026   3.985   0.564  17.327  0.6024 -0.0451 -0.2233
  335TMC3    C5 5027   4.034   0.536  17.203  0.5392 -0.1336  0.2626
  335TMC3    C6 5028   3.961   0.468  17.107 -0.1333  0.7069 -0.3664
  335TMC3     C 5029   3.822   0.530  17.497 -0.2150  0.1439 -0.6282
  335TMC3     O 5030   3.869   0.619  17.566  0.4323 -0.1297  0.2743
  335TMC3     H 5031   3.678   0.447  17.282  0.8322 -1.6856  2.6184
  335TMC3    H1 5032   4.025   0.648  17.382 -0.4139  1.3391 -1.5882
  335TMC3    H2 5033   4.002   0.443  17.009 -0.7444  0.3000 -0.5183
  335TMC3    C7 5034   4.166   0.591  17.160 -0.1948 -0.5752 -0.1406
  335TMC3    C8 5035   3.757   0.367  17.036 -0.4278  0.3053  0.3779
  335TMC3    O1 5036   4.182   0.589  17.039 -0.1625 -1.0065 -0.2881
  335TMC3    O2 5037   3.784   0.398  16.921 -0.6482  0.5257  0.7352
  336MPD2     C 5038   3.454   2.925  15.816 -0.5379 -0.3230  0.0153
  336MPD2    C1 5039   3.340   2.860  15.788 -1.0429 -0.3675 -0.7608
  336MPD2    C2 5040   3.334   2.723  15.813  0.1744  0.1672  0.4223
  336MPD2    C3 5041   3.445   2.661  15.866  0.7186  0.7403  0.3653
  336MPD2    C4 5042   3.555   2.730  15.903  0.1933 -0.2348 -0.1426
  336MPD2    C5 5043   3.568   2.864  15.866 -0.0850 -0.4100  0.6184
  336MPD2     H 5044   3.246   2.668  15.782 -0.9195  1.5844  1.0291
  336MPD2    H1 5045   3.642   2.680  15.944 -0.2144  1.8195  3.2175
  336MPD2    H2 5046   3.466   3.029  15.787 -4.5093  0.4706  1.2152
  336MPD2    H3 5047   3.660   2.920  15.874 -0.0374 -0.5958  1.3897
  336MPD2     N 5048   3.443   2.523  15.901  0.1509 -0.1149  0.5990
  336MPD2    H5 5049   3.528   2.480  15.936  0.1513 -2.2915 -2.0193
  336MPD2    N1 5050   3.227   2.927  15.737  0.5927  0.2905 -0.0575
  336MPD2    H7 5051   3.159   2.865  15.695 -0.2918  2.1846 -1.3982
  337TMC3    C1 5052   3.084   3.107  15.691  0.8300  0.4756  0.7204
  337TMC3    C2 5053   3.054   3.092  15.559  0.8698 -0.3872 -0.5704
  337TMC3    C3 5054   2.965   3.180  15.507 -0.6414  0.8495 -0.2083
  337TMC3    C4 5055   3.029   3.210  15.766  0.8375 -0.2427 -0.4661
  337TMC3    C5 5056   2.931   3.283  15.705 -0.4891  0.1756  0.2918
  337TMC3    C6 5057   2.890   3.268  15.576 -0.2798 -0.0824 -0.1212
  337TMC3     C 5058   3.213   3.063  15.737  0.4022  0.6590  0.0110
  337TMC3     O 5059   3.269   3.147  15.798  0.4481 -0.1806 -0.2689
  337TMC3     H 5060   3.112   3.018  15.506 -1.2014 -0.7324 -2.3802
  337TMC3    H1 5061   3.038   3.220  15.874  0.0963  1.5269 -0.5689
  337TMC3    H2 5062   2.811   3.322  15.526 -0.9107 -0.9924 -0.1071
  337TMC3    C7 5063   2.875   3.403  15.760  0.1639 -0.6158  0.0677
  337TMC3    C8 5064   2.921   3.147  15.371 -0.5896  0.2559 -0.3528
  337TMC3    O1 5065   2.781   3.453  15.696 -0.3284 -0.3894 -0.1063
  337TMC3    O2 5066   2.950   3.036  15.326  0.0493 -0.7829  0.4272
  338MPD2     C 5067   4.044   2.198   1.036  0.2324 -0.2884 -0.4344
  338MPD2    C1 5068   3.993   2.207   0.910  0.7745  0.6221  0.0727
  338MPD2    C2 5069   3.883   2.285   0.890 -0.8761  0.0996  0.4902
  338MPD2    C3 5070   3.809   2.329   1.006 -0.3262  0.6750  0.4476
  338MPD2    C4 5071   3.862   2.326   1.130  0.7884  0.1471  0.6620
  338MPD2    C5 5072   3.977   2.255   1.145 -0.6249  0.2243  0.4694
  338MPD2     H 5073   3.829   2.302   0.798  1.8367 -0.4083 -1.1697
  338MPD2    H1 5074   3.803   2.350   1.217 -0.1716 -2.0624  0.6213
  338MPD2    H2 5075   4.142   2.155   1.053 -0.0118 -1.8649 -2.9056
  338MPD2    H3 5076   4.019   2.235   1.243 -0.7904  2.5589  1.0178
  338MPD2     N 5077   3.678   2.385   0.975  0.1853  0.4630 -0.4969
  338MPD2    H5 5078   3.656   2.397   0.876 -1.5845  2.2537  0.1266
  338MPD2    N1 5079   4.035   2.134   0.796  0.2170  0.0872 -0.5103
  338MPD2    H7 5080   3.979   2.142   0.712  2.8527  1.9818 -2.1114
  339TMC3    C1 5081   3.454   2.445   1.025  0.3194 -0.0712 -0.3747
  339TMC3    C2 5082   3.352   2.371   1.083 -0.1174 -0.0520  0.6583
  339TMC3    C3 5083   3.233   2.359   1.019  0.1409 -0.4145 -0.0540
  339TMC3    C4 5084   3.443   2.486   0.896 -0.0790  0.0022 -0.3001
  339TMC3    C5 5085   3.328   2.466   0.835 -0.4207 -0.0989 -0.9116
  339TMC3    C6 5086   3.219   2.404   0.893  0.1953  0.0435 -0.8625
  339TMC3     C 5087   3.585   2.413   1.074 -0.2458 -0.1780 -0.8307
  339TMC3     O 5088   3.588   2.376   1.189  0.2453 -0.9611 -0.0609
  339TMC3     H 5089   3.359   2.330   1.183  1.5430  0.4906  0.7633
  339TMC3    H1 5090   3.528   2.536   0.851 -1.0625  0.6078 -1.4809
  339TMC3    H2 5091   3.125   2.388   0.841  0.2828 -0.6894 -0.7941
  339TMC3    C7 5092   3.332   2.479   0.693  0.1494  0.6435 -0.0708
  339TMC3    C8 5093   3.135   2.260   1.071  0.0197  0.3308 -0.1503
  339TMC3    O1 5094   3.439   2.454   0.638  0.1981  0.2772  0.0474
  339TMC3    O2 5095   3.029   2.262   1.006 -0.3142  0.2413  0.3567
  340MPD2     C 5096   3.727   2.772   9.725 -0.2249 -0.2866 -0.1152
  340MPD2    C1 5097   3.856   2.761   9.762  0.5322 -0.2267  0.6040
  340MPD2    C2 5098   3.918   2.861   9.844 -0.3430 -0.7896  0.1662
  340MPD2    C3 5099   3.849   2.971   9.880  0.4332  0.8176 -0.7037
  340MPD2    C4 5100   3.718   2.983   9.835 -0.7068 -0.0994 -0.7005
  340MPD2    C5 5101   3.657   2.886   9.760  0.0511  0.0458 -0.3093
  340MPD2     H 5102   4.024   2.860   9.868 -0.4153  1.5534  0.5272
  340MPD2    H1 5103   3.652   3.063   9.866 -2.0803 -1.6678  0.3903
  340MPD2    H2 5104   3.676   2.699   9.663  0.4225 -1.2598  0.5167
  340MPD2    H3 5105   3.552   2.904   9.736  0.5751  0.8985 -1.9761
  340MPD2     N 5106   3.911   3.089   9.927  0.4736  0.3189 -0.9710
  340MPD2    H5 5107   3.850   3.170   9.935 -0.3284 -0.2900 -0.9281
  340MPD2    N1 5108   3.921   2.653   9.704  0.1152  0.3219  0.5897
  340MPD2    H7 5109   3.868   2.600   9.635  1.9826 -1.3983  0.4963
  341TMC3    C1 5110   4.100   2.530   9.604  0.1279  0.1245 -0.1475
  341TMC3    C2 5111   4.011   2.452   9.537 -0.1687 -0.9029  0.4311
  341TMC3    C3 5112   4.041   2.393   9.420  0.2594  0.0577  0.4019
  341TMC3    C4 5113   4.231   2.535   9.573  0.5332 -0.6492  0.1266
  341TMC3    C5 5114   4.261   2.494   9.442 -0.3905 -0.3503 -0.0008
  341TMC3    C6 5115   4.170   2.418   9.363 -0.2926 -0.5357 -0.7710
  341TMC3     C 5116   4.058   2.628   9.710 -0.4721 -0.3514  0.3598
  341TMC3     O 5117   4.145   2.692   9.767  0.1979  0.1815 -0.1525
  341TMC3     H 5118   3.910   2.437   9.574 -0.2097 -1.1124  0.2400
  341TMC3    H1 5119   4.308   2.595   9.620 -0.6796  1.8343 -1.0446
  341TMC3    H2 5120   4.188   2.405   9.257 -0.4526  0.4337 -0.9206
  341TMC3    C7 5121   4.378   2.553   9.373  0.4940 -0.1903 -0.0398
  341TMC3    C8 5122   3.929   2.339   9.353  0.3710 -0.1500  0.2803
  341TMC3    O1 5123   4.411   2.664   9.409 -0.3131 -0.5420 -0.5197
  341TMC3    O2 5124   3.819   2.373   9.389  0.0501  0.1238  0.1603
  342MPD2     C 5125   1.574   3.314  17.243  0.0348 -0.6916  0.3087
  342MPD2    C1 5126   1.656   3.352  17.135 -0.0009 -0.2369  0.2364
  342MPD2    C2 5127   1.726   3.471  17.146  0.3886 -0.5465 -0.7876
  342MPD2    C3 5128   1.725   3.555  17.257 -0.4435  0.5274 -0.9630
  342MPD2    C4 5129   1.639   3.517  17.361 -0.1403 -0.4084 -0.1878
  342MPD2    C5 5130   1.568   3.400  17.353 -0.4520  0.2262 -0.0221
  342MPD2     H 5131   1.782   3.497  17.057  0.7496  0.8806 -0.1465
  342MPD2    H1 5132   1.629   3.565  17.458 -0.7963 -0.4029 -0.2590
  342MPD2    H2 5133   1.522   3.220  17.257  0.7120 -1.0637  0.3033
  342MPD2    H3 5134   1.512   3.370  17.440  0.0727 -0.1353  0.1942
  342MPD2     N 5135   1.803   3.674  17.274  0.7615 -0.3050 -0.1192
  342MPD2    H5 5136   1.817   3.704  17.370 -0.8237  0.1214 -0.0176
  342MPD2    N1 5137   1.676   3.270  17.026  0.0014 -0.3878  0.2241
  342MPD2    H7 5138   1.736   3.309  16.954 -0.4309 -1.7982 -0.9100
  343TMC3    C1 5139   1.637   3.087  16.873 -0.7200  0.2769 -0.8838
  343TMC3    C2 5140   1.767   3.079  16.833  0.1305  0.0219  0.3789
  343TMC3    C3 5141   1.812   2.962  16.780 -1.0846  0.3804 -0.4811
  343TMC3    C4 5142   1.552   2.986  16.853 -0.4303  0.2234  0.7027
  343TMC3    C5 5143   1.607   2.872  16.807  0.2434  0.1697  0.3962
  343TMC3    C6 5144   1.736   2.852  16.763 -0.2987  0.2586 -0.2277
  343TMC3     C 5145   1.614   3.150  17.004 -0.2620 -0.1758 -0.0791
  343TMC3     O 5146   1.533   3.083  17.072  0.6751 -0.3275 -0.2389
  343TMC3     H 5147   1.845   3.152  16.851  0.5492 -0.3033 -0.1224
  343TMC3    H1 5148   1.449   2.988  16.887 -0.8174 -0.0495 -0.4643
  343TMC3    H2 5149   1.778   2.752  16.761  2.2769  1.2684  2.6734
  343TMC3    C7 5150   1.547   2.762  16.868 -1.0219  0.0723  0.5771
  343TMC3    C8 5151   1.958   2.946  16.763 -0.2741  0.4906 -0.0649
  343TMC3    O1 5152   1.533   2.653  16.815 -0.6632 -0.1910  0.3821
  343TMC3    O2 5153   2.034   3.015  16.828  0.4744 -0.1312 -0.0494
  344MPD2     C 5154   2.660   2.661  10.516 -0.4390  0.1187 -0.1381
  344MPD2    C1 5155   2.587   2.564  10.449  0.1052  0.5227 -0.4299
  344MPD2    C2 5156   2.610   2.546  10.316  0.3229 -0.6348  0.7898
  344MPD2    C3 5157   2.707   2.607  10.243  0.3962  0.1977  0.0221
  344MPD2    C4 5158   2.787   2.696  10.318 -0.4864  0.1174  0.3180
  344MPD2    C5 5159   2.752   2.731  10.450 -0.0408  0.5146 -0.1935
  344MPD2     H 5160   2.548   2.465  10.277  0.9316 -1.1566  0.9079
  344MPD2    H1 5161   2.873   2.744  10.273 -1.5302  2.4800  0.8337
  344MPD2    H2 5162   2.649   2.698  10.617 -0.2157 -0.6761  0.1696
  344MPD2    H3 5163   2.810   2.808  10.501  1.3096 -0.8495  0.3235
  344MPD2     N 5164   2.748   2.577  10.109  0.1662  0.5346 -0.1389
  344MPD2    H5 5165   2.832   2.630  10.087 -0.4315  1.6052  0.1320
  344MPD2    N1 5166   2.474   2.496  10.504 -0.0798  0.0971 -0.2545
  344MPD2    H7 5167   2.434   2.436  10.433  1.4237 -2.6094  1.1560
  345TMC3    C1 5168   2.751   2.523   9.877  0.9446  0.3843 -0.1130
  345TMC3    C2 5169   2.884   2.529   9.883 -0.5800 -0.7691 -0.2310
  345TMC3    C3 5170   2.953   2.569   9.768 -0.6677  0.1593  0.0339
  345TMC3    C4 5171   2.684   2.553   9.756 -0.2923  0.4058  0.0091
  345TMC3    C5 5172   2.751   2.578   9.647  1.0425 -0.7238  0.0471
  345TMC3    C6 5173   2.892   2.584   9.649 -0.1067 -0.0803  0.0644
  345TMC3     C 5174   2.677   2.526  10.004  0.5539 -0.3363  0.6285
  345TMC3     O 5175   2.565   2.482  10.006  0.1768 -0.3673  0.4468
  345TMC3     H 5176   2.936   2.486   9.968  0.2393 -0.4665 -0.5695
  345TMC3    H1 5177   2.576   2.560   9.750 -0.1947  0.6879 -1.5866
  345TMC3    H2 5178   2.956   2.629   9.574  2.6245 -2.0750  1.2321
  345TMC3    C7 5179   2.691   2.694   9.581 -0.6794  0.6237  0.1814
  345TMC3    C8 5180   3.097   2.585   9.768 -0.6126  0.1869  0.0869
  345TMC3    O1 5181   2.597   2.750   9.637  0.2398  0.1668 -0.2821
  345TMC3    O2 5182   3.151   2.571   9.659  0.3718  0.0527  0.6074
  346MPD2     C 5183   2.185   4.367  13.995  0.0234 -0.3409  0.2590
  346MPD2    C1 5184   2.313   4.400  13.950  0.7941 -0.1518  0.1778
  346MPD2    C2 5185   2.417   4.408  14.043  0.2544  0.1853  0.2644
  346MPD2    C3 5186   2.390   4.435  14.176 -0.2355 -0.0547  0.0364
  346MPD2    C4 5187   2.261   4.410  14.219  0.2688  0.5609 -0.6807
  346MPD2    C5 5188   2.160   4.376  14.131  0.8814  0.0553 -0.6773
  346MPD2     H 5189   2.516   4.439  14.014 -0.0662  1.8893  1.0039
  346MPD2    H1 5190   2.233   4.389  14.322  3.6796 -1.7094 -0.2085
  346MPD2    H2 5191   2.103   4.342  13.928 -0.0552  0.0066  0.2278
  346MPD2    H3 5192   2.064   4.355  14.177 -0.0550  4.2092 -0.7701
  346MPD2     N 5193   2.494   4.462  14.261 -0.5705  0.3272  0.5039
  346MPD2    H5 5194   2.588   4.441  14.228  1.0369  2.5660  3.7365
  346MPD2    N1 5195   2.349   4.392  13.816  0.5924  0.9394  0.1321
  346MPD2    H7 5196   2.448   4.394  13.794  0.2064 -1.5773 -1.8339
  347TMC3    C1 5197   2.623   4.509  14.460  0.1542  0.3321  0.4851
  347TMC3    C2 5198   2.738   4.516  14.392  0.2188  0.1757 -0.0798
  347TMC3    C3 5199   2.855   4.552  14.453  0.2673  0.3987 -0.1451
  347TMC3    C4 5200   2.631   4.518  14.598 -1.4105 -0.0895  0.2315
  347TMC3    C5 5201   2.746   4.558  14.653  0.0936 -0.2837 -0.0952
  347TMC3    C6 5202   2.862   4.565  14.584 -0.3263 -0.1515  0.3983
  347TMC3     C 5203   2.489   4.498  14.397 -0.1528  0.7938  0.0470
  347TMC3     O 5204   2.392   4.525  14.474  0.1732 -0.0299  0.3076
  347TMC3     H 5205   2.735   4.506  14.284  3.1780  0.7942 -0.2023
  347TMC3    H1 5206   2.539   4.529  14.653 -1.2130  1.7328  0.2087
  347TMC3    H2 5207   2.948   4.607  14.635  0.5437 -0.8658 -0.4922
  347TMC3    C7 5208   2.762   4.546  14.792  0.7882 -0.7226  0.1022
  347TMC3    C8 5209   2.962   4.595  14.364 -0.5221 -0.3239  0.3708
  347TMC3    O1 5210   2.677   4.581  14.874 -0.5500  0.6177  0.6222
  347TMC3    O2 5211   2.932   4.646  14.259  0.2687 -0.1724 -0.3079
  348MPD2     C 5212   1.829   4.112  12.164  0.1707  0.1860  0.9124
  348MPD2    C1 5213   1.804   4.005  12.084 -0.0586 -0.1462 -0.5808
  348MPD2    C2 5214   1.762   4.032  11.952  0.0983  0.3157  1.4263
  348MPD2    C3 5215   1.742   4.163  11.909  0.7879  0.1373 -0.0992
  348MPD2    C4 5216   1.763   4.264  11.991  0.3230  0.6703 -0.0742
  348MPD2    C5 5217   1.803   4.238  12.120  1.0799  0.1826  0.7733
  348MPD2     H 5218   1.751   3.943  11.891 -0.8624  4.1264 -3.8930
  348MPD2    H1 5219   1.750   4.367  11.961  1.2061  0.8706  0.2412
  348MPD2    H2 5220   1.873   4.110  12.263  2.4513 -0.7326 -0.0970
  348MPD2    H3 5221   1.824   4.319  12.189 -0.0427 -1.1458  2.6830
  348MPD2     N 5222   1.720   4.189  11.767  0.0768 -0.1986  0.3743
  348MPD2    H5 5223   1.698   4.106  11.713  0.4385 -0.7196  1.0157
  348MPD2    N1 5224   1.835   3.875  12.130  0.7581 -0.1337 -0.4496
  348MPD2    H7 5225   1.900   3.870  12.208 -0.6353 -0.2375  0.7103
  349TMC3    C1 5226   1.894   3.646  12.092  0.2389 -0.1357 -1.1972
  349TMC3    C2 5227   1.840   3.522  12.063 -1.1074 -0.5429 -0.4086
  349TMC3    C3 5228   1.922   3.420  12.024  0.0491 -0.1914  0.1487
  349TMC3    C4 5229   2.027   3.670  12.072  0.0677  0.3057 -0.5432
  349TMC3    C5 5230   2.100   3.566  12.015  0.0057  0.6484  0.4019
  349TMC3    C6 5231   2.055   3.440  11.992 -0.2672 -0.1991  0.6195
  349TMC3     C 5232   1.804   3.757  12.060  1.0058 -0.4234  0.1761
  349TMC3     O 5233   1.704   3.731  11.988 -0.0469  0.3301  0.2431
  349TMC3     H 5234   1.732   3.514  12.069 -0.8619 -1.0212  3.6258
  349TMC3    H1 5235   2.074   3.768  12.073 -0.7184  0.6864 -0.1677
  349TMC3    H2 5236   2.118   3.361  11.951  0.7392  0.9201  0.0244
  349TMC3    C7 5237   2.231   3.594  11.967 -0.2559 -0.4716  0.0782
  349TMC3    C8 5238   1.882   3.294  12.071 -0.5266 -0.6253 -0.5553
  349TMC3    O1 5239   2.317   3.522  12.019 -0.4743  0.5867  0.0247
  349TMC3    O2 5240   1.791   3.297  12.157  0.4810 -0.4668 -0.0838
  350MPD2     C 5241   0.119   1.735  10.499  0.1386  0.3494 -0.7116
  350MPD2    C1 5242   0.198   1.675  10.400 -0.8805 -0.2154 -0.4312
  350MPD2    C2 5243   0.317   1.731  10.365 -0.2663 -0.4345  0.0992
  350MPD2    C3 5244   0.357   1.851  10.426  0.6504 -0.3396 -0.3846
  350MPD2    C4 5245   0.275   1.911  10.519 -0.7435  0.5214 -0.7963
  350MPD2    C5 5246   0.161   1.852  10.564 -0.2662 -0.1850 -0.4813
  350MPD2     H 5247   0.389   1.694  10.293 -0.5149  1.6759 -1.2323
  350MPD2    H1 5248   0.307   2.000  10.572 -3.0792 -0.4544  2.2115
  350MPD2    H2 5249   0.036   1.686  10.548 -1.1054  2.1871 -0.9802
  350MPD2    H3 5250   0.106   1.895  10.647  1.3884  0.5727  0.2131
  350MPD2     N 5251   0.467   1.917  10.370 -0.3189  0.3258 -0.2511
  350MPD2    H5 5252   0.512   1.857  10.301  0.3430 -0.4049  0.8222
  350MPD2    N1 5253   0.161   1.552  10.341  0.5953  0.0119 -0.3049
  350MPD2    H7 5254   0.231   1.518  10.275  1.0221 -0.7592  0.5309
  351TMC3    C1 5255   0.018   1.368  10.276  0.0779  0.6975  0.6552
  351TMC3    C2 5256   0.101   1.335  10.172  0.6218  0.3829  0.5810
  351TMC3    C3 5257   0.066   1.215  10.113 -0.5583  0.4569 -0.4278
  351TMC3    C4 5258   4.640   1.293  10.327  0.0204 -0.2528  0.3251
  351TMC3    C5 5259   4.622   1.167  10.267  0.1608  0.7377  0.3904
  351TMC3    C6 5260   4.696   1.130  10.158  0.3669 -0.3794 -0.3332
  351TMC3     C 5261   0.042   1.486  10.360 -0.3732  0.2390  0.0270
  351TMC3     O 5262   4.679   1.505  10.441 -0.3519 -0.3320 -0.2402
  351TMC3     H 5263   0.185   1.391  10.134  1.2841  0.2289  1.8244
  351TMC3    H1 5264   4.581   1.310  10.417 -0.2525  1.2644 -0.1393
  351TMC3    H2 5265   4.675   1.039  10.102 -0.8795  0.9430 -2.0091
  351TMC3    C7 5266   4.514   1.086  10.326  0.6929 -0.4766  0.2573
  351TMC3    C8 5267   0.168   1.147  10.032  0.4107 -0.3103 -0.1660
  351TMC3    O1 5268   4.444   1.130  10.411 -0.3579 -0.2690 -0.4953
  351TMC3    O2 5269   0.129   1.071   9.946  0.1499 -0.0356  0.0780
  352MPD2     C 5270   3.627   4.061   1.528 -0.0852 -0.0708  0.1736
  352MPD2    C1 5271   3.526   4.015   1.447 -0.0395 -0.4947 -0.5458
  352MPD2    C2 5272   3.512   3.883   1.421 -0.1170 -0.4648 -0.4796
  352MPD2    C3 5273   3.602   3.789   1.484 -0.1114 -0.4164  0.4827
  352MPD2    C4 5274   3.689   3.840   1.574 -0.1068 -0.2049 -0.7485
  352MPD2    C5 5275   3.708   3.972   1.596 -0.2488 -0.2193 -0.1618
  352MPD2     H 5276   3.451   3.843   1.341 -0.8519 -0.8953  0.2863
  352MPD2    H1 5277   3.749   3.767   1.626  3.5213  1.3259 -2.7431
  352MPD2    H2 5278   3.638   4.169   1.537 -0.7658  0.0521 -0.4681
  352MPD2    H3 5279   3.775   3.991   1.679 -0.6211 -0.4675  0.1954
  352MPD2     N 5280   3.607   3.649   1.463 -0.4091  0.4445  0.1685
  352MPD2    H5 5281   3.690   3.599   1.492 -1.1248 -0.4756  0.6328
  352MPD2    N1 5282   3.460   4.108   1.368 -0.0690 -0.3066  0.3887
  352MPD2    H7 5283   3.494   4.203   1.365 -1.2532  0.0870 -0.9373
  353TMC3    C1 5284   3.535   3.439   1.394  0.4707  0.3141  0.3289
  353TMC3    C2 5285   3.618   3.377   1.487  0.2290 -0.2462 -0.0382
  353TMC3    C3 5286   3.606   3.244   1.491 -0.2600 -0.3224  0.2278
  353TMC3    C4 5287   3.464   3.374   1.300 -0.2868 -0.2726 -0.5946
  353TMC3    C5 5288   3.468   3.236   1.309  1.2266 -0.2615 -0.3604
  353TMC3    C6 5289   3.537   3.168   1.402 -0.1747  0.0718  0.1141
  353TMC3     C 5290   3.507   3.581   1.400  0.1829 -0.4001 -0.2186
  353TMC3     O 5291   3.405   3.620   1.344  0.6556 -0.8136 -0.8081
  353TMC3     H 5292   3.666   3.429   1.569  0.4615 -0.4493 -0.0458
  353TMC3    H1 5293   3.418   3.434   1.223  1.9391  1.1383 -0.8229
  353TMC3    H2 5294   3.525   3.063   1.425  2.8668 -0.5084 -0.9266
  353TMC3    C7 5295   3.405   3.164   1.196 -0.1603 -0.3618 -0.4501
  353TMC3    C8 5296   3.691   3.174   1.588 -0.6906  0.1262  0.5682
  353TMC3    O1 5297   3.451   3.053   1.169 -0.4253 -0.1077 -0.0520
  353TMC3    O2 5298   3.716   3.230   1.691 -0.1886 -0.1224  0.2738
  354TMC3    C1 5299   0.744   0.553  13.521  0.3036  0.0038  0.0362
  354TMC3    C2 5300   0.823   0.657  13.551 -0.3548 -0.4468 -0.6417
  354TMC3    C3 5301   0.893   0.703  13.442  0.4377  0.0292 -0.1333
  354TMC3    C4 5302   0.731   0.489  13.401  0.7051 -0.7000 -0.2396
  354TMC3    C5 5303   0.806   0.542  13.295  0.1480  0.1168  0.2455
  354TMC3    C6 5304   0.880   0.658  13.310  0.1717  0.6683 -0.3915
  354TMC3     C 5305   0.655   0.505  13.624 -0.2801  0.2524  0.5541
  354TMC3     O 5306   0.625   0.385  13.618 -0.1188 -0.0521  0.1196
  354TMC3     H 5307   0.831   0.701  13.649  1.4487 -2.0581 -0.0578
  354TMC3    H1 5308   0.688   0.389  13.396 -2.1374  0.6183 -2.5563
  354TMC3    H2 5309   0.948   0.691  13.232 -0.1205 -0.8947 -1.3033
  354TMC3    C7 5310   0.816   0.460  13.179  0.1693  0.2398  0.6447
  354TMC3    C8 5311   0.963   0.827  13.460  0.2934  0.3647 -0.2364
  354TMC3    O1 5312   0.800   0.340  13.188 -0.5134  0.1445  0.2395
  354TMC3    O2 5313   1.017   0.854  13.568 -0.3203 -0.6342  0.5918
  355MPD2     C 5314   0.547   1.198  11.820  0.6078  0.1117  0.3190
  355MPD2    C1 5315   0.592   1.252  11.701  0.2919 -0.8657 -0.8987
  355MPD2    C2 5316   0.729   1.264  11.688  0.1270 -0.3739 -0.0680
  355MPD2    C3 5317   0.815   1.256  11.798 -0.3998  0.2522 -0.2767
  355MPD2    C4 5318   0.762   1.202  11.915  0.0066  0.0710  0.6796
  355MPD2    C5 5319   0.628   1.165  11.924 -0.4777 -0.4708  0.1815
  355MPD2     H 5320   0.777   1.301  11.598  0.3866 -0.0469  0.2063
  355MPD2    H1 5321   0.829   1.189  12.000  0.8036 -1.5944 -0.1881
  355MPD2    H2 5322   0.444   1.164  11.825 -0.0701  2.1900  0.4486
  355MPD2    H3 5323   0.593   1.111  12.012  0.4498 -0.4867  0.5444
  355MPD2     N 5324   0.951   1.292  11.799 -0.6476  0.2814 -0.4969
  355MPD2    H5 5325   0.999   1.271  11.886 -2.1252 -2.5193 -0.3658
  355MPD2    N1 5326   0.491   1.264  11.599  0.0225 -0.0285 -0.4849
  355MPD2    H7 5327   0.407   1.215  11.627  2.2460 -1.8647  3.0085
  356TMC3    C1 5328   1.166   1.384  11.716  1.0889 -0.6398 -0.3412
  356TMC3    C2 5329   1.224   1.467  11.618 -0.0451  0.6764 -0.3138
  356TMC3    C3 5330   1.345   1.535  11.633  0.2693  0.0284  0.7654
  356TMC3    C4 5331   1.214   1.385  11.840  0.1196 -0.0645 -0.5215
  356TMC3    C5 5332   1.338   1.444  11.857  0.3711  0.6171  0.1701
  356TMC3    C6 5333   1.415   1.511  11.756 -0.0533  0.0052  0.2946
  356TMC3     C 5334   1.025   1.343  11.688  0.0375 -0.2985  0.5118
  356TMC3     O 5335   0.988   1.360  11.572 -0.2662 -0.0179  0.5500
  356TMC3     H 5336   1.184   1.460  11.517  1.9573  2.0186 -1.2144
  356TMC3    H1 5337   1.173   1.330  11.924  1.7664  0.6538  0.7597
  356TMC3    H2 5338   1.519   1.539  11.766  0.0552 -0.3486  0.1344
  356TMC3    C7 5339   1.390   1.453  11.995  0.1577  0.5948 -0.3503
  356TMC3    C8 5340   1.423   1.569  11.521 -0.0873  0.5239 -0.5745
  356TMC3    O1 5341   1.341   1.379  12.077  0.4041 -0.2685 -0.4863
  356TMC3    O2 5342   1.389   1.522  11.414  0.3302  0.1293 -0.0524
  357MPD2     C 5343   0.499   1.238   0.737  0.1516 -0.2262  0.0123
  357MPD2    C1 5344   0.583   1.139   0.780 -0.1038  0.3339 -0.9118
  357MPD2    C2 5345   0.549   1.072   0.896 -0.1823  0.5143 -0.1383
  357MPD2    C3 5346   0.428   1.096   0.959  0.1738  0.1415 -0.4466
  357MPD2    C4 5347   0.350   1.205   0.919  0.5206 -0.6381 -0.1789
  357MPD2    C5 5348   0.388   1.278   0.808  0.2195 -0.1348 -0.0953
  357MPD2     H 5349   0.620   1.004   0.943 -0.6470 -0.5001 -0.8953
  357MPD2    H1 5350   0.267   1.236   0.981  1.4771 -0.8158  1.1842
  357MPD2    H2 5351   0.511   1.286   0.640 -2.7611 -0.0731 -0.2721
  357MPD2    H3 5352   0.329   1.361   0.768  0.6163 -0.9252 -2.3036
  357MPD2     N 5353   0.378   1.028   1.069 -0.2556  0.0901 -0.1664
  357MPD2    H5 5354   0.290   1.063   1.107  0.8797  0.8522  1.7490
  357MPD2    N1 5355   0.683   1.102   0.687 -0.0146  0.1893 -0.2420
  357MPD2    H7 5356   0.675   1.153   0.600  0.7320  0.3501 -0.2119
  358TMC3    C1 5357   0.829   0.957   0.568  0.4157 -0.3079 -0.6801
  358TMC3    C2 5358   0.835   1.036   0.457 -0.3668 -0.0944 -0.6531
  358TMC3    C3 5359   0.928   1.009   0.356  0.3707 -0.3645  0.2408
  358TMC3    C4 5360   0.898   0.840   0.573  0.0894  0.6173 -0.2727
  358TMC3    C5 5361   0.988   0.816   0.476  0.1189 -0.6054  0.1060
  358TMC3    C6 5362   1.011   0.899   0.372  0.6194 -0.4471  0.1350
  358TMC3     C 5363   0.752   0.987   0.693  0.5040  0.2419  0.2495
  358TMC3     O 5364   0.752   0.901   0.780  0.7551  0.0179 -0.6075
  358TMC3     H 5365   0.788   1.134   0.459 -0.6273 -0.2398  0.5531
  358TMC3    H1 5366   0.903   0.788   0.669  0.7642 -0.0237 -0.6554
  358TMC3    H2 5367   1.064   0.871   0.281  0.0756  0.7772 -0.5625
  358TMC3    C7 5368   1.053   0.684   0.478  0.8691 -0.4625  0.2809
  358TMC3    C8 5369   0.986   1.111   0.281 -0.4527 -0.1443  0.3956
  358TMC3    O1 5370   1.003   0.607   0.559 -0.7297 -0.2319  0.6900
  358TMC3    O2 5371   0.914   1.202   0.240  0.8487  0.9584 -0.0977
  359MPD2     C 5372   1.518   0.262  12.425  0.6585 -0.0723  0.0307
  359MPD2    C1 5373   1.393   0.273  12.359  0.2309  0.2086 -0.2562
  359MPD2    C2 5374   1.286   0.214  12.422 -0.0974 -0.1979  0.3568
  359MPD2    C3 5375   1.290   0.153  12.544  0.4406 -0.0799 -0.0493
  359MPD2    C4 5376   1.414   0.143  12.610  0.2035  0.2309 -0.3319
  359MPD2    C5 5377   1.525   0.196  12.542  0.4212  0.8551  0.2285
  359MPD2     H 5378   1.198   0.213  12.359 -0.7206 -0.8343  1.2298
  359MPD2    H1 5379   1.435   0.083  12.698  0.8109  2.0544  0.7560
  359MPD2    H2 5380   1.605   0.314  12.388  1.4902 -1.6854 -0.2992
  359MPD2    H3 5381   1.619   0.175  12.591 -0.4314  1.4648  2.1469
  359MPD2     N 5382   1.179   0.095  12.609  0.0663 -0.1714 -0.1048
  359MPD2    H5 5383   1.197   0.050  12.698  0.9105  0.2771 -0.0508
  359MPD2    N1 5384   1.379   0.310  12.226  0.9706 -0.2446  0.4818
  359MPD2    H7 5385   1.291   0.291  12.179  0.2812  0.3225  1.5454
  360TMC3    C1 5386   1.460   0.381  12.004 -0.4780 -0.3745 -0.4707
  360TMC3    C2 5387   1.544   0.465  11.929 -0.3198  0.3783  0.1233
  360TMC3    C3 5388   1.548   0.449  11.796 -0.3246 -0.3984 -0.2012
  360TMC3    C4 5389   1.390   0.277  11.942  0.4184 -0.1114  0.1586
  360TMC3    C5 5390   1.396   0.269  11.806 -0.1816 -0.8541 -0.4593
  360TMC3    C6 5391   1.479   0.348  11.727 -0.2544  0.4833 -0.2169
  360TMC3     C 5392   1.482   0.369  12.149 -0.0804  0.1913  1.0529
  360TMC3     O 5393   1.585   0.427  12.193  1.2889  0.2202  0.5708
  360TMC3     H 5394   1.581   0.559  11.969  1.8159  0.2509 -1.5965
  360TMC3    H1 5395   1.325   0.215  12.002  0.9798 -0.4458  0.4280
  360TMC3    H2 5396   1.483   0.337  11.620  2.3200  0.7974 -0.1575
  360TMC3    C7 5397   1.310   0.179  11.734  0.4846  0.1891  0.1742
  360TMC3    C8 5398   1.626   0.539  11.718  0.8104  0.3584  0.4074
  360TMC3    O1 5399   1.335   0.156  11.617 -0.3016  0.2265  0.1483
  360TMC3    O2 5400   1.602   0.659  11.729  0.5038 -0.9970 -0.2500
  361MPD2     C 5401   2.804   3.663  16.533  0.0759  0.5099 -0.3102
  361MPD2    C1 5402   2.792   3.695  16.663  0.7732 -0.1590  0.4891
  361MPD2    C2 5403   2.854   3.628  16.765  0.3615 -0.0887  0.0739
  361MPD2    C3 5404   2.934   3.520  16.737  1.6472 -0.4346 -0.5312
  361MPD2    C4 5405   2.951   3.494  16.605 -0.0208  0.0628  0.5281
  361MPD2    C5 5406   2.884   3.556  16.503  0.0127 -0.3255 -0.7724
  361MPD2     H 5407   2.840   3.656  16.869 -0.4227  1.5671 -0.4727
  361MPD2    H1 5408   3.013   3.411  16.573 -0.4175 -0.3220  0.7586
  361MPD2    H2 5409   2.761   3.721  16.452 -0.8147 -0.0930 -0.2755
  361MPD2    H3 5410   2.897   3.513  16.405 -0.0813 -0.7052 -0.6211
  361MPD2     N 5411   3.002   3.442  16.829  0.7737  0.8615 -0.0985
  361MPD2    H5 5412   3.052   3.362  16.791  0.7601  0.6763  0.2679
  361MPD2    N1 5413   2.710   3.804  16.702  0.0326  0.3163  0.4985
  361MPD2    H7 5414   2.716   3.832  16.800  0.3278  0.9407  0.3057
  362TMC3    C1 5415   2.532   3.970  16.693  0.9745  0.3073  0.3183
  362TMC3    C2 5416   2.539   3.998  16.829  0.4163  0.7423 -0.2609
  362TMC3    C3 5417   2.469   4.103  16.878  0.1749 -0.3177  0.2100
  362TMC3    C4 5418   2.459   4.046  16.602 -0.7838 -0.3837  0.5778
  362TMC3    C5 5419   2.391   4.149  16.659  0.1854 -0.1858  0.5346
  362TMC3    C6 5420   2.387   4.174  16.795  0.2765 -0.7040  0.2415
  362TMC3     C 5421   2.616   3.872  16.629  0.1727  0.3627 -0.9094
  362TMC3     O 5422   2.598   3.856  16.509  0.1265 -0.2700 -0.1714
  362TMC3     H 5423   2.608   3.941  16.891  1.8449  0.0043 -2.5193
  362TMC3    H1 5424   2.467   4.039  16.494 -2.1891  0.0656  0.4421
  362TMC3    H2 5425   2.346   4.267  16.832  0.2964 -1.0695  1.1727
  362TMC3    C7 5426   2.361   4.261  16.576  0.9325  0.3172  0.2481
  362TMC3    C8 5427   2.510   4.154  17.006 -0.4771  0.1508 -0.5518
  362TMC3    O1 5428   2.376   4.370  16.622 -0.3608 -0.3303 -0.6376
  362TMC3    O2 5429   2.628   4.126  17.042  0.8046  0.4438 -0.0512
  363TMC3    C1 5430   0.651   0.740   9.429 -0.3317 -0.1031 -0.5862
  363TMC3    C2 5431   0.764   0.716   9.514  0.5258 -0.5086  0.1431
  363TMC3    C3 5432   0.799   0.814   9.606 -0.4258  0.4490  0.1635
  363TMC3    C4 5433   0.578   0.860   9.444 -0.4908  0.8759 -0.2781
  363TMC3    C5 5434   0.612   0.950   9.536  0.9260 -0.1331 -0.1198
  363TMC3    C6 5435   0.727   0.930   9.617 -0.4687  0.4775  0.7376
  363TMC3     C 5436   0.605   0.642   9.339  0.4516  1.1118  1.2231
  363TMC3     O 5437   0.531   0.676   9.249  0.1353  0.2709 -0.3511
  363TMC3     H 5438   0.829   0.633   9.489 -0.0347 -0.5971 -1.0505
  363TMC3    H1 5439   0.484   0.864   9.390 -0.8601  0.6117  0.3437
  363TMC3    H2 5440   0.752   0.997   9.699 -1.9293  0.6556  1.0306
  363TMC3    C7 5441   0.514   1.060   9.577 -0.5366  0.4516 -0.4094
  363TMC3    C8 5442   0.895   0.791   9.705 -0.3825  0.2538  0.1498
  363TMC3    O1 5443   0.405   1.064   9.513  0.1720 -0.2538 -0.0552
  363TMC3    O2 5444   0.923   0.883   9.780 -0.1147 -0.5298  0.0525
  364MPD2     C 5445   4.368   0.675  10.844 -0.3464  0.3001  0.0819
  364MPD2    C1 5446   4.477   0.616  10.771 -0.9009 -0.1262 -0.0524
  364MPD2    C2 5447   4.511   0.484  10.807  0.2224 -0.7315 -0.4112
  364MPD2    C3 5448   4.440   0.406  10.896 -0.2672 -1.0015 -0.2833
  364MPD2    C4 5449   4.339   0.469  10.968 -0.4604  0.1880 -0.1499
  364MPD2    C5 5450   4.311   0.596  10.940 -0.5439  0.8015  0.0402
  364MPD2     H 5451   4.601   0.445  10.761 -0.6501 -0.1317 -2.6256
  364MPD2    H1 5452   4.276   0.424  11.043 -0.6769 -0.2613 -0.5973
  364MPD2    H2 5453   4.350   0.781  10.833 -2.1137  0.0957  0.9261
  364MPD2    H3 5454   4.246   0.654  11.005  0.5466  1.2711  0.7316
  364MPD2     N 5455   4.473   0.269  10.917  0.1859  0.0462  0.3899
  364MPD2    H5 5456   4.436   0.225  11.000  0.2017 -1.4999 -0.4101
  364MPD2    N1 5457   4.555   0.689  10.678 -0.8200 -0.5989 -0.4071
  364MPD2    H7 5458   4.542   0.789  10.666  2.0866 -0.3572 -1.6453
  365TMC3    C1 5459   0.017   0.749  10.541  0.3943  0.4608 -0.6545
  365TMC3    C2 5460   0.092   0.711  10.433 -0.4467 -0.3999  0.1949
  365TMC3    C3 5461   0.152   0.806  10.365 -0.3401 -0.4006 -0.3963
  365TMC3    C4 5462   0.013   0.883  10.580  0.1083  0.3785 -0.4250
  365TMC3    C5 5463   0.080   0.975  10.506 -0.3366  0.2345  0.1494
  365TMC3    C6 5464   0.145   0.937  10.392  0.1880  0.0848  0.0166
  365TMC3     C 5465   4.656   0.644  10.599 -0.0791 -0.4754  0.1322
  365TMC3     O 5466   4.662   0.534  10.550 -0.5347  0.0337  0.3974
  365TMC3     H 5467   0.080   0.612  10.393 -0.0918 -0.8446  1.1890
  365TMC3    H1 5468   4.696   0.907  10.677 -1.2833 -0.4168 -0.8142
  365TMC3    H2 5469   0.185   1.011  10.323 -0.5148 -1.0424 -1.6036
  365TMC3    C7 5470   0.090   1.112  10.547 -0.2735 -0.6596 -0.8520
  365TMC3    C8 5471   0.159   0.772  10.222 -0.1766  0.6210 -0.7598
  365TMC3    O1 5472   0.175   1.168  10.484 -0.6045 -0.1111  0.0893
  365TMC3    O2 5473   0.086   0.826  10.142 -0.3081  0.3503 -0.0940
  366MPD2     C 5474   3.447   1.630  14.708 -0.4249  0.0602  0.8454
  366MPD2    C1 5475   3.453   1.671  14.840  0.1854  0.1743 -0.4976
  366MPD2    C2 5476   3.568   1.644  14.910  0.8585  0.2806  0.6737
  366MPD2    C3 5477   3.681   1.588  14.847 -0.3236  0.4557  0.3949
  366MPD2    C4 5478   3.682   1.556  14.714  0.4820 -0.5365  0.4345
  366MPD2    C5 5479   3.556   1.567  14.655 -0.0502 -0.7578  0.5373
  366MPD2     H 5480   3.577   1.671  15.015  1.0338  0.7798  0.5337
  366MPD2    H1 5481   3.762   1.498  14.670  0.4346 -0.6699  0.5215
  366MPD2    H2 5482   3.362   1.649  14.644 -0.3127 -3.3659 -0.3122
  366MPD2    H3 5483   3.541   1.522  14.558 -2.1867  0.2548  0.3817
  366MPD2     N 5484   3.806   1.585  14.913  0.5125  0.0499 -0.2156
  366MPD2    H5 5485   3.865   1.512  14.875  1.3225  0.7241 -0.2508
  366MPD2    N1 5486   3.352   1.748  14.907  0.0251  0.3211 -0.6823
  366MPD2    H7 5487   3.357   1.765  15.007  0.4090 -0.9832 -0.4772
  367TMC3    C1 5488   3.211   1.935  14.931 -0.5461 -0.1716 -0.0093
  367TMC3    C2 5489   3.292   1.987  15.029 -0.3577  0.6311  0.3116
  367TMC3    C3 5490   3.259   2.104  15.087 -0.0593 -0.1827 -0.4390
  367TMC3    C4 5491   3.111   2.003  14.872 -0.1230  0.2155 -0.4891
  367TMC3    C5 5492   3.081   2.126  14.929  0.2421 -0.0765 -0.6352
  367TMC3    C6 5493   3.150   2.176  15.040  0.3904  0.2947 -0.1094
  367TMC3     C 5494   3.258   1.828  14.848 -0.1534  0.3993 -0.1839
  367TMC3     O 5495   3.238   1.838  14.725 -1.0567  0.1890  0.5338
  367TMC3     H 5496   3.390   1.949  15.057 -0.3147 -0.0524 -0.7737
  367TMC3    H1 5497   3.063   1.966  14.782  1.0594  1.5779 -1.6816
  367TMC3    H2 5498   3.123   2.269  15.089  1.5331  0.2829  0.5568
  367TMC3    C7 5499   2.959   2.194  14.893  0.0342  0.3680 -0.4175
  367TMC3    C8 5500   3.328   2.142  15.213 -0.0755  0.0822  0.5358
  367TMC3    O1 5501   2.925   2.284  14.966  0.2835  0.0312 -0.3690
  367TMC3    O2 5502   3.397   2.057  15.261 -0.0459  0.2155 -0.6632
  368MPD2     C 5503   4.077   4.085  13.085 -0.1693 -0.0242  0.3172
  368MPD2    C1 5504   4.079   4.197  13.006 -0.1835 -0.0887 -0.1188
  368MPD2    C2 5505   4.199   4.267  13.001 -0.1238  0.4488  0.5183
  368MPD2    C3 5506   4.322   4.205  13.037 -0.1461 -0.3352  0.6109
  368MPD2    C4 5507   4.312   4.096  13.121  0.1926 -0.1342  0.0503
  368MPD2    C5 5508   4.188   4.041  13.150  0.4124 -0.2203  0.1365
  368MPD2     H 5509   4.192   4.361  12.947 -0.2654  1.1944  1.8388
  368MPD2    H1 5510   4.393   4.051  13.177 -0.0807 -0.7685 -0.0571
  368MPD2    H2 5511   3.991   4.021  13.092  1.8351 -2.4817  2.4729
  368MPD2    H3 5512   4.178   3.953  13.212  3.6683  0.4884  1.6732
  368MPD2     N 5513   4.449   4.251  13.008 -0.0500 -0.2410 -0.5346
  368MPD2    H5 5514   4.522   4.206  13.062 -0.8960 -0.7277  0.2098
  368MPD2    N1 5515   3.951   4.243  12.961 -0.0324  0.4786  0.3570
  368MPD2    H7 5516   3.869   4.184  12.968  1.4077 -1.3462  1.6536
  369TMC3    C1 5517   3.786   4.361  12.839 -0.3045  0.6377 -1.1503
  369TMC3    C2 5518   3.768   4.402  12.707 -0.1310 -0.0422  0.1070
  369TMC3    C3 5519   3.645   4.377  12.649  0.1304 -0.5244  0.5428
  369TMC3    C4 5520   3.689   4.292  12.908 -0.0643  0.2105 -0.3161
  369TMC3    C5 5521   3.575   4.261  12.840 -0.1024 -0.0149  0.1289
  369TMC3    C6 5522   3.545   4.309  12.714  0.1509  0.2757 -0.3403
  369TMC3     C 5523   3.925   4.350  12.879 -0.0315  0.1525  0.0010
  369TMC3     O 5524   4.008   4.403  12.809  0.0636  0.1819 -0.2460
  369TMC3     H 5525   3.846   4.468  12.670 -2.0797  0.7911 -2.4727
  369TMC3    H1 5526   3.691   4.258  13.011  0.1242 -2.9997 -1.3660
  369TMC3    H2 5527   3.447   4.302  12.668 -0.4131  1.6304  0.6613
  369TMC3    C7 5528   3.480   4.168  12.904  0.0209  0.4297 -0.0198
  369TMC3    C8 5529   3.621   4.421  12.518 -0.0312 -0.0012 -0.7772
  369TMC3    O1 5530   3.517   4.124  13.009  0.0583  0.6273  0.3241
  369TMC3    O2 5531   3.506   4.446  12.484 -0.1151  0.1818  0.0208
  370TMC3    C1 5532   3.866   4.706  16.151 -0.1913 -0.7315  0.0756
  370TMC3    C2 5533   3.761   4.679  16.229 -0.3374  0.6591 -0.1324
  370TMC3    C3 5534   3.682   4.564  16.204 -0.2313  0.6142  0.3360
  370TMC3    C4 5535   3.882   4.634  16.035 -0.1724  0.1109  0.2770
  370TMC3    C5 5536   3.803   4.520  16.013  0.3013 -0.4818  0.9640
  370TMC3    C6 5537   3.700   4.486  16.093  0.1636  0.0493  0.3478
  370TMC3     C 5538   3.950   0.091  16.197  0.3513 -0.6677 -0.1509
  370TMC3     O 5539   3.976   0.104  16.316  0.1969  0.5143 -0.1160
  370TMC3     H 5540   3.749   0.023  16.312  1.7978 -0.1850  0.8798
  370TMC3    H1 5541   3.951   4.668  15.959  0.4531 -0.5391  0.5502
  370TMC3    H2 5542   3.647   4.391  16.088 -0.0048  0.2374 -1.3516
  370TMC3    C7 5543   3.837   4.433  15.898 -0.0191  1.2477  0.9481
  370TMC3    C8 5544   3.632   4.490  16.321  0.8856 -0.0097 -0.2126
  370TMC3    O1 5545   3.956   4.438  15.869 -0.1376 -0.4857  0.0838
  370TMC3    O2 5546   3.591   4.377  16.314  0.0889  0.0452  0.1752
  371TMC3    C1 5547   0.330   2.946  15.413 -0.4487 -0.1782 -0.3973
  371TMC3    C2 5548   0.201   2.935  15.438 -0.5700  0.4436  0.0990
  371TMC3    C3 5549   0.129   3.053  15.446 -0.3178 -0.2167  0.5520
  371TMC3    C4 5550   0.402   3.062  15.397 -0.3004  0.3727 -0.2570
  371TMC3    C5 5551   0.324   3.177  15.408  0.0704 -0.4474 -0.5110
  371TMC3    C6 5552   0.188   3.182  15.435  0.0131 -0.0447  0.3866
  371TMC3     C 5553   0.397   2.813  15.391 -0.1549 -0.0559  0.5479
  371TMC3     O 5554   0.488   2.812  15.315  0.2246 -0.4131  0.2388
  371TMC3     H 5555   0.149   2.840  15.428 -0.2250  0.1048  1.4918
  371TMC3    H1 5556   0.510   3.061  15.380 -0.2539  1.5207 -0.0731
  371TMC3    H2 5557   0.129   3.273  15.443  0.3492  0.2191 -0.1031
  371TMC3    C7 5558   0.373   3.303  15.355  0.0947 -0.1222  0.5420
  371TMC3    C8 5559   4.713   3.037  15.449 -0.0466 -0.4123  0.2045
  371TMC3    O1 5560   0.304   3.402  15.378 -0.6441  0.5465 -0.0704
  371TMC3    O2 5561   4.671   2.941  15.386  0.1926  0.5680  0.3594
  372MPD2     C 5562   4.475   4.018  12.787 -0.5839 -0.2608 -0.0994
  372MPD2    C1 5563   4.579   3.952  12.867  0.6434 -0.0601 -0.1327
  372MPD2    C2 5564   4.539   3.844  12.943 -0.1671  0.2346  0.1493
  372MPD2    C3 5565   4.407   3.799  12.947  0.0430  0.0486  0.2485
  372MPD2    C4 5566   4.319   3.860  12.863  0.6898  0.2552 -0.1787
  372MPD2    C5 5567   4.348   3.959  12.777  0.7058 -1.0648  0.0328
  372MPD2     H 5568   4.609   3.790  13.007  1.7751  2.2727 -0.2585
  372MPD2    H1 5569   4.214   3.831  12.856  0.9012 -0.0713 -2.0825
  372MPD2    H2 5570   4.491   4.100  12.718  0.6663 -1.7890 -1.6442
  372MPD2    H3 5571   4.272   4.002  12.712 -0.3856 -0.0301  1.9928
  372MPD2     N 5572   4.372   3.702  13.035 -0.4906  0.5146  0.4002
  372MPD2    H5 5573   4.442   3.686  13.106  1.0393 -0.5098 -1.3290
  372MPD2    N1 5574   4.710   3.984  12.868  0.7786 -0.2524  0.0307
  372MPD2    H7 5575   0.040   3.938  12.941 -0.0464 -0.1137  0.7215
  373TMC3    C1 5576   4.230   3.553  13.147  0.7118  0.1043  0.5885
  373TMC3    C2 5577   4.176   3.629  13.248  0.2008  0.6707  0.0157
  373TMC3    C3 5578   4.183   3.586  13.369  0.2549 -0.4164 -0.5164
  373TMC3    C4 5579   4.294   3.438  13.171 -0.5101  0.2780  0.0477
  373TMC3    C5 5580   4.308   3.406  13.301 -0.2462 -0.5029 -0.4253
  373TMC3    C6 5581   4.258   3.477  13.402 -0.5019 -0.5057  0.3667
  373TMC3     C 5582   4.256   3.626  13.023  0.0032 -0.0255 -0.0881
  373TMC3     O 5583   4.185   3.608  12.923 -0.5233 -0.0442  0.0958
  373TMC3     H 5584   4.153   3.729  13.213  0.4729 -0.5262 -3.6816
  373TMC3    H1 5585   4.350   3.386  13.095  0.7509  1.8979 -0.1365
  373TMC3    H2 5586   4.268   3.442  13.504 -1.5514 -0.0483  0.6281
  373TMC3    C7 5587   4.415   3.314  13.331  1.0412  0.5586 -0.4060
  373TMC3    C8 5588   4.184   3.703  13.461 -0.3769  0.9568  0.0134
  373TMC3    O1 5589   4.435   3.227  13.246 -0.1174  0.1153 -0.0869
  373TMC3    O2 5590   4.243   3.802  13.425 -0.1754 -0.0640  0.4334
  374TMC3    C1 5591   0.786   3.140   9.904  0.2893 -0.2932  0.0222
  374TMC3    C2 5592   0.776   3.264   9.948  0.4654  0.2672 -0.5509
  374TMC3    C3 5593   0.740   3.358   9.854  0.0104 -0.3461 -0.0658
  374TMC3    C4 5594   0.741   3.103   9.781  0.1529  0.5790 -0.2206
  374TMC3    C5 5595   0.695   3.196   9.699  0.0900 -0.1260 -0.0293
  374TMC3    C6 5596   0.695   3.325   9.733  0.2939  0.1405  0.3793
  374TMC3     C 5597   0.775   3.042  10.011 -0.2247  0.8632  0.8123
  374TMC3     O 5598   0.716   3.085  10.110  0.1013 -0.2442 -0.0924
  374TMC3     H 5599   0.822   3.293  10.042 -2.5198  1.8276  0.4383
  374TMC3    H1 5600   0.756   3.001   9.747 -1.6173 -0.4061  1.9896
  374TMC3    H2 5601   0.645   3.395   9.667  1.4280  2.3301  1.8370
  374TMC3    C7 5602   0.661   3.168   9.565 -0.3450  0.7425 -0.1090
  374TMC3    C8 5603   0.710   3.497   9.890  0.2597 -0.3732 -0.3165
  374TMC3    O1 5604   0.650   3.262   9.486  0.2532  0.2725 -0.1780
  374TMC3    O2 5605   0.658   3.571   9.806  0.0342 -0.0120 -0.2937
  375MPD2     C 5606   0.669   0.654  16.516 -0.1569 -0.4143 -0.2700
  375MPD2    C1 5607   0.561   0.591  16.462 -0.3269  0.1632 -0.5243
  375MPD2    C2 5608   0.582   0.531  16.335 -0.5674  0.0727 -0.1310
  375MPD2    C3 5609   0.696   0.545  16.253  0.4284 -0.1275 -0.1355
  375MPD2    C4 5610   0.798   0.615  16.314  0.1916 -0.5515 -0.4506
  375MPD2    C5 5611   0.781   0.670  16.441 -0.2918  0.0357  0.1228
  375MPD2     H 5612   0.500   0.471  16.297  0.0641 -0.8917  0.0105
  375MPD2    H1 5613   0.886   0.638  16.255 -0.4566 -2.3768 -2.1372
  375MPD2    H2 5614   0.663   0.700  16.614  4.1022 -0.5552  0.0615
  375MPD2    H3 5615   0.858   0.728  16.491  0.5452 -0.9652 -0.0058
  375MPD2     N 5616   0.723   0.471  16.135 -0.3512 -0.2525 -1.0754
  375MPD2    H5 5617   0.809   0.490  16.085  0.9499 -2.0297  0.4992
  375MPD2    N1 5618   0.444   0.552  16.531  0.5068  0.3116 -0.4576
  375MPD2    H7 5619   0.380   0.488  16.486  2.8020 -3.2364  1.3579
  376TMC3    C1 5620   0.745   0.272  16.025  0.2655 -0.0046 -0.2920
  376TMC3    C2 5621   0.881   0.261  16.052  1.0921 -0.7561  0.0156
  376TMC3    C3 5622   0.959   0.186  15.973  0.4473  0.1805 -0.7791
  376TMC3    C4 5623   0.688   0.203  15.925  0.5426  0.1706 -0.4599
  376TMC3    C5 5624   0.778   0.136  15.843  0.4681 -0.0269 -0.3971
  376TMC3    C6 5625   0.914   0.131  15.862 -0.1276 -1.0146  0.3298
  376TMC3     C 5626   0.663   0.352  16.111  1.1621 -0.4124 -0.0472
  376TMC3     O 5627   0.551   0.316  16.128  0.8331 -0.0574 -0.1324
  376TMC3     H 5628   0.922   0.319  16.134 -0.0162 -0.5587  0.4310
  376TMC3    H1 5629   0.580   0.214  15.914  0.3707 -1.0430  0.0076
  376TMC3    H2 5630   0.983   0.070  15.803  2.0376  0.6488  1.1334
  376TMC3    C7 5631   0.717   0.093  15.714  0.5300 -0.1941 -0.3250
  376TMC3    C8 5632   1.098   0.172  16.017 -0.5105 -0.2749  0.3564
  376TMC3    O1 5633   0.595   0.106  15.705  0.3814  0.3187 -0.5801
  376TMC3    O2 5634   1.189   0.146  15.937  0.4801 -0.7026  0.4255
  377MPD2     C 5635   2.681   4.293  12.048 -0.1901 -0.4137 -0.0572
  377MPD2    C1 5636   2.740   4.269  12.168  0.1245 -0.4951 -0.3317
  377MPD2    C2 5637   2.677   4.289  12.291 -0.4124  0.1049 -0.5792
  377MPD2    C3 5638   2.542   4.326  12.295  0.8183 -0.6613 -0.3886
  377MPD2    C4 5639   2.482   4.351  12.172  0.0385  0.3235 -0.0559
  377MPD2    C5 5640   2.553   4.340  12.052 -0.5437  0.0404 -0.5105
  377MPD2     H 5641   2.734   4.275  12.382 -1.7720 -1.5858  0.0003
  377MPD2    H1 5642   2.377   4.380  12.171  0.1627  0.6204 -2.9162
  377MPD2    H2 5643   2.734   4.272  11.956 -0.0187  2.3161 -0.5964
  377MPD2    H3 5644   2.504   4.371  11.961  0.5908  2.3857 -0.3395
  377MPD2     N 5645   2.467   4.338  12.415  0.2097  0.5421 -0.8225
  377MPD2    H5 5646   2.374   4.376  12.401 -0.2892  0.0733  1.1692
  377MPD2    N1 5647   2.878   4.222  12.163 -0.5677  1.0530 -0.5449
  377MPD2    H7 5648   2.921   4.237  12.072 -0.5011 -0.2886 -0.7431
  378TMC3    C1 5649   3.262   4.233  12.102 -0.0117  0.1595  0.1569
  378TMC3    C2 5650   3.134   4.187  12.100  0.3647  0.3565 -0.3366
  378TMC3    C3 5651   3.084   4.152  12.221  0.7422  0.0151 -0.2245
  378TMC3    C4 5652   3.350   4.234  12.213  0.4538  0.0216 -0.0524
  378TMC3    C5 5653   3.290   4.197  12.331  0.3371 -1.0931  0.4459
  378TMC3    C6 5654   3.161   4.146  12.338  0.3286 -0.0312  0.7985
  378TMC3     C 5655   3.303   4.289  11.978 -0.4480 -0.3015  0.3119
  378TMC3     O 5656   3.218   4.315  11.892  0.2086  0.3930  0.2662
  378TMC3     H 5657   3.070   4.187  12.012 -0.2211 -0.4977  0.0869
  378TMC3    H1 5658   3.452   4.270  12.203  0.1197  0.4500 -1.9470
  378TMC3    H2 5659   3.122   4.113  12.433  1.0834 -2.5922  0.2078
  378TMC3    C7 5660   3.380   4.156  12.436 -0.0893 -0.1503 -0.2295
  378TMC3    C8 5661   2.944   4.161  12.260  0.2988 -0.1184  0.5148
  378TMC3    O1 5662   3.335   4.134  12.550 -0.0696  0.5111  0.1926
  378TMC3    O2 5663   2.906   4.126  12.369  1.1057 -0.6273 -0.4690
  379MPD2     C 5664   3.929   2.241  16.310 -0.1433 -0.6745  0.2233
  379MPD2    C1 5665   4.034   2.213  16.226  0.2572 -0.2578 -0.0828
  379MPD2    C2 5666   4.158   2.180  16.283  0.0544 -0.2036 -0.7701
  379MPD2    C3 5667   4.178   2.177  16.419  0.2656  0.4814  0.0700
  379MPD2    C4 5668   4.070   2.212  16.499  0.1622  0.1536 -0.6329
  379MPD2    C5 5669   3.953   2.250  16.446 -0.3352 -0.6004 -0.0406
  379MPD2     H 5670   4.243   2.179  16.216 -2.1909 -1.2442 -3.6077
  379MPD2    H1 5671   4.079   2.224  16.607 -0.0012 -0.3870 -0.5637
  379MPD2    H2 5672   3.832   2.272  16.272 -0.0355 -1.5393 -0.7502
  379MPD2    H3 5673   3.877   2.281  16.516 -1.0556  0.3255 -1.2379
  379MPD2     N 5674   4.295   2.122  16.473  0.7257 -0.6331 -0.4998
  379MPD2    H5 5675   4.289   2.092  16.570 -0.5344 -1.3424 -0.7987
  379MPD2    N1 5676   4.007   2.233  16.088 -0.3886  0.0255 -0.1581
  379MPD2    H7 5677   3.911   2.258  16.068 -0.7281 -1.1229  0.0072
  380TMC3    C1 5678   4.054   2.270  15.849  0.1307  0.1846 -0.4352
  380TMC3    C2 5679   4.142   2.245  15.749 -0.0410 -0.5727 -0.4239
  380TMC3    C3 5680   4.094   2.261  15.621  0.0909  0.2659  0.4887
  380TMC3    C4 5681   3.928   2.302  15.826 -0.3788  0.1508 -0.0562
  380TMC3    C5 5682   3.882   2.301  15.697 -0.1341 -0.0614 -0.2055
  380TMC3    C6 5683   3.965   2.279  15.590  0.1524 -0.0536 -0.3942
  380TMC3     C 5684   4.106   2.245  15.988  0.2106  0.8080  0.0273
  380TMC3     O 5685   4.228   2.250  16.007 -0.4360 -0.4329  0.5160
  380TMC3     H 5686   4.239   2.204  15.773 -1.1791 -2.8636  0.2214
  380TMC3    H1 5687   3.855   2.324  15.903  1.6021  3.1351  0.9440
  380TMC3    H2 5688   3.921   2.303  15.494  0.3814  0.2311 -0.4271
  380TMC3    C7 5689   3.756   2.363  15.672 -0.7755 -0.5243  0.0010
  380TMC3    C8 5690   4.182   2.344  15.536 -0.1923  0.6171  0.5688
  380TMC3    O1 5691   3.715   2.443  15.756 -0.2310  0.2888 -0.0465
  380TMC3    O2 5692   4.121   2.387  15.441 -0.8893 -0.6614  0.6245
  381TMC3    C1 5693   3.454   3.747  15.900  0.1198 -0.0850  0.3408
  381TMC3    C2 5694   3.576   3.810  15.919 -0.0919  0.3883 -0.0109
  381TMC3    C3 5695   3.584   3.907  16.011  0.2461  0.0158 -0.7298
  381TMC3    C4 5696   3.348   3.775  15.985 -0.6863  0.1251  0.0299
  381TMC3    C5 5697   3.370   3.854  16.089 -0.5062 -0.1593 -0.3529
  381TMC3    C6 5698   3.480   3.939  16.101 -0.3728 -0.7254  0.0864
  381TMC3     C 5699   3.452   3.622  15.834 -0.0486  0.0864 -1.0301
  381TMC3     O 5700   3.362   3.543  15.845 -0.2050 -0.4226 -0.0607
  381TMC3     H 5701   3.662   3.795  15.855 -0.4481  2.2176 -0.8884
  381TMC3    H1 5702   3.260   3.711  15.981 -0.3005 -0.4807  1.3950
  381TMC3    H2 5703   3.503   4.004  16.185 -1.8238 -2.1690  1.5897
  381TMC3    C7 5704   3.321   3.805  16.215 -0.5879  0.6898 -0.0561
  381TMC3    C8 5705   3.719   3.969  16.034  0.5348  0.0397  0.1994
  381TMC3    O1 5706   3.277   3.689  16.211  0.1908 -0.1070  0.1098
  381TMC3    O2 5707   3.805   3.929  15.961  0.2078  0.7015 -0.2402
  382MPD2     C 5708   3.388   1.412   0.302 -0.0090 -0.5227  0.3385
  382MPD2    C1 5709   3.358   1.405   0.163  0.3034  0.3679  0.2697
  382MPD2    C2 5710   3.267   1.316   0.114 -0.0880  0.0279 -0.1706
  382MPD2    C3 5711   3.189   1.239   0.195  0.3630 -0.1220  0.4722
  382MPD2    C4 5712   3.205   1.258   0.331  0.4080  0.5880 -0.3928
  382MPD2    C5 5713   3.308   1.336   0.384  0.1347 -0.9845  0.1020
  382MPD2     H 5714   3.262   1.320   0.006 -1.2122 -3.1871 -0.2299
  382MPD2    H1 5715   3.158   1.195   0.406  1.1114  1.8410  1.0982
  382MPD2    H2 5716   3.467   1.468   0.351  1.2086  0.9225 -3.2749
  382MPD2    H3 5717   3.324   1.338   0.491  1.7474  0.5781 -0.1664
  382MPD2     N 5718   3.090   1.149   0.156  0.5415  0.5162  0.2119
  382MPD2    H5 5719   3.043   1.095   0.229 -0.3881 -1.0623 -1.5519
  382MPD2    N1 5720   3.434   1.480   0.073  0.2210  0.0010 -0.1445
  382MPD2    H7 5721   3.419   1.466  17.670 -0.1909 -2.7976  0.3127
  383TMC3    C1 5722   2.938   1.033   0.019  0.3032 -0.3596  0.3065
  383TMC3    C2 5723   2.889   1.019  17.587  0.6954 -0.6580 -0.6587
  383TMC3    C3 5724   2.780   0.939  17.573 -0.1793  0.2085  0.5699
  383TMC3    C4 5725   2.873   0.989   0.134 -0.5416  0.0978 -0.0282
  383TMC3    C5 5726   2.760   0.908   0.110 -0.1495  0.2943  0.5927
  383TMC3    C6 5727   2.717   0.888  17.679 -0.2052  0.5399 -0.5393
  383TMC3     C 5728   3.052   1.125   0.029  0.5310  0.3566 -0.1867
  383TMC3     O 5729   3.093   1.198  17.638 -0.7754  0.3744  0.5990
  383TMC3     H 5730   2.931   1.071  17.502 -1.1895 -1.6846 -2.2444
  383TMC3    H1 5731   2.890   1.025   0.234 -1.6578 -2.7288  1.1771
  383TMC3    H2 5732   2.625   0.831  17.669  0.0517 -0.4171  2.7702
  383TMC3    C7 5733   2.700   0.853   0.229 -0.7725 -0.3656 -0.2547
  383TMC3    C8 5734   2.700   0.955  17.455 -0.6045  0.0670 -0.2043
  383TMC3    O1 5735   2.591   0.801   0.210  0.2867 -0.1814 -0.0349
  383TMC3    O2 5736   2.579   0.951  17.467  0.4110  1.0321 -0.8969
  384MPD2     C 5737   4.513   2.582  11.742  0.2084 -0.3765 -0.3713
  384MPD2    C1 5738   4.560   2.598  11.873 -0.3659 -0.1697  0.6078
  384MPD2    C2 5739   4.676   2.544  11.912 -0.3307  0.0718  0.0624
  384MPD2    C3 5740   0.029   2.463  11.831 -0.2101  0.1938  0.4340
  384MPD2    C4 5741   4.697   2.437  11.704  0.3692 -0.1771 -0.3490
  384MPD2    C5 5742   4.581   2.495  11.668 -0.2311  0.7165 -0.2605
  384MPD2     H 5743   4.699   2.535  12.017  1.1706 -1.0244 -0.3569
  384MPD2    H1 5744   0.015   2.361  11.639 -0.8761  0.1211 -1.4933
  384MPD2    H2 5745   4.416   2.619  11.713 -0.3441 -0.9693  0.6901
  384MPD2    H3 5746   4.530   2.475  11.575 -1.1479  1.9284 -0.0298
  384MPD2     N 5747   0.135   2.377  11.880  0.2433  0.7638  0.1422
  384MPD2    H5 5748   0.170   2.300  11.825  0.1476 -0.5915  1.9827
  384MPD2    N1 5749   4.482   2.678  11.957  0.5268 -0.3234  0.1169
  384MPD2    H7 5750   4.382   2.674  11.936  0.2253 -0.8420  1.6776
  385TMC3    C1 5751   0.242   2.287  12.075  0.1739  0.1583  0.4780
  385TMC3    C2 5752   0.177   2.172  12.040 -0.0732 -0.8010  0.2795
  385TMC3    C3 5753   0.146   2.083  12.140 -0.2035  0.0822  0.9881
  385TMC3    C4 5754   0.269   2.305  12.204 -0.1354  0.2045 -0.7155
  385TMC3    C5 5755   0.235   2.218  12.300  0.2669  1.1460  0.0553
  385TMC3    C6 5756   0.171   2.100  12.271  0.0810  0.8282  0.4259
  385TMC3     C 5757   0.192   2.400  12.002 -0.0664 -0.0311 -0.5467
  385TMC3     O 5758   0.203   2.506  12.063  0.9452 -0.3739 -0.1501
  385TMC3     H 5759   0.154   2.145  11.937 -0.1753 -0.1889  0.1423
  385TMC3    H1 5760   0.325   2.394  12.230 -0.3519 -0.5064  2.1767
  385TMC3    H2 5761   0.162   2.020  12.344  1.1152  0.2087 -0.1278
  385TMC3    C7 5762   0.165   2.296  12.397 -1.2718  0.0170  0.1402
  385TMC3    C8 5763   0.133   1.943  12.108 -0.5252 -0.9683  0.1032
  385TMC3    O1 5764   0.157   2.419  12.371  0.4112 -0.6654 -0.7939
  385TMC3    O2 5765   0.180   1.866  12.187 -0.3821  0.0923 -0.1400
  386TMC3    C1 5766   4.462   4.242  11.951  0.1832 -0.4046  0.7964
  386TMC3    C2 5767   4.548   4.267  11.845 -0.2006  0.4554  0.6455
  386TMC3    C3 5768   4.525   4.365  11.755  0.5663 -0.3577 -1.0115
  386TMC3    C4 5769   4.342   4.312  11.959  0.5944  0.3859  0.7435
  386TMC3    C5 5770   4.321   4.410  11.860 -0.1288 -0.3327  0.3010
  386TMC3    C6 5771   4.413   4.435  11.763 -1.3239 -0.1046 -0.1653
  386TMC3     C 5772   4.512   4.197  12.078  0.5176  0.6439  0.0202
  386TMC3     O 5773   4.462   4.239  12.182  0.3323  0.5494  0.0671
  386TMC3     H 5774   4.640   4.210  11.843  1.2771  2.8186  1.5740
  386TMC3    H1 5775   4.266   4.294  12.033 -1.1201  0.5131 -0.9767
  386TMC3    H2 5776   4.395   4.515  11.692  1.3258 -0.5307 -1.3001
  386TMC3    C7 5777   4.182   4.446  11.826 -0.6465 -0.0661 -0.0109
  386TMC3    C8 5778   4.541   4.315  11.622  0.5198 -0.3342  0.4377
  386TMC3    O1 5779   4.108   4.466  11.922 -0.1154  0.0763  0.0172
  386TMC3    O2 5780   4.446   4.335  11.548  0.4445 -0.4925 -0.4743
  387MPD2     C 5781   2.654   4.140   9.254  0.1419 -1.4618  1.2144
  387MPD2    C1 5782   2.639   4.114   9.385 -0.0672 -0.6303 -0.4072
  387MPD2    C2 5783   2.569   4.008   9.429 -0.0315  0.4996  0.1334
  387MPD2    C3 5784   2.502   3.932   9.342 -0.0137  0.4281 -0.0417
  387MPD2    C4 5785   2.509   3.953   9.203  0.1200 -0.3804 -0.3291
  387MPD2    C5 5786   2.583   4.067   9.162  0.0808 -0.1653 -0.7014
  387MPD2     H 5787   2.575   3.973   9.532 -0.2145  1.2387  0.3911
  387MPD2    H1 5788   2.454   3.889   9.135 -0.2691 -1.1300  0.7060
  387MPD2    H2 5789   2.714   4.220   9.211  1.0968 -2.7589  0.1332
  387MPD2    H3 5790   2.590   4.095   9.057 -2.1733 -0.7554 -1.0183
  387MPD2     N 5791   2.444   3.823   9.403  0.1882 -0.5612  0.4289
  387MPD2    H5 5792   2.468   3.811   9.501  1.3213  0.6177  0.3010
  387MPD2    N1 5793   2.708   4.194   9.485 -0.6668 -0.7150 -0.3040
  387MPD2    H7 5794   2.683   4.182   9.582  2.0023  2.7966  0.8051
  388TMC3    C1 5795   2.884   4.300   9.588 -0.0160  0.0711  0.1838
  388TMC3    C2 5796   2.938   4.422   9.614 -0.1946 -0.3973 -0.2716
  388TMC3    C3 5797   2.981   4.442   9.747 -0.5787  0.7618 -0.0852
  388TMC3    C4 5798   2.876   4.202   9.684  0.1918 -0.0516  0.2026
  388TMC3    C5 5799   2.918   4.232   9.809 -0.1331 -0.5492 -0.4470
  388TMC3    C6 5800   2.980   4.349   9.845  0.8969  0.0116  0.1827
  388TMC3     C 5801   2.811   4.279   9.463 -0.8208  0.4148  0.7859
  388TMC3     O 5802   2.837   4.350   9.364 -0.0261 -0.4862 -0.3481
  388TMC3     H 5803   2.917   4.500   9.542  3.0291  2.0349  1.4249
  388TMC3    H1 5804   2.850   4.100   9.658 -1.1042  0.5944 -1.0007
  388TMC3    H2 5805   2.994   4.374   9.950 -0.3948  0.8427  0.1551
  388TMC3    C7 5806   2.905   4.135   9.908  0.7004 -0.2453  0.2120
  388TMC3    C8 5807   3.076   4.549   9.765  0.3098 -0.4409 -0.4350
  388TMC3    O1 5808   2.983   4.121   9.999 -0.2873  0.3893  0.1172
  388TMC3    O2 5809   3.085   4.594   9.880 -0.9793  0.1912  0.6169
  389MPD2     C 5810   1.874   2.766  11.523 -0.0753  0.2385  0.7779
  389MPD2    C1 5811   1.790   2.684  11.452  0.2436 -0.3913  0.1672
  389MPD2    C2 5812   1.732   2.569  11.514 -0.3373 -0.7917 -1.0660
  389MPD2    C3 5813   1.768   2.539  11.646  0.7067  0.4854 -0.4950
  389MPD2    C4 5814   1.846   2.627  11.715  0.0344  0.1835 -0.5347
  389MPD2    C5 5815   1.909   2.735  11.655 -1.0625  0.2845  0.1262
  389MPD2     H 5816   1.664   2.500  11.465 -1.6250 -2.2996  2.8411
  389MPD2    H1 5817   1.860   2.612  11.822 -1.7349 -2.1304 -0.6368
  389MPD2    H2 5818   1.920   2.847  11.467 -0.9922 -0.7857 -1.4863
  389MPD2    H3 5819   1.982   2.793  11.710 -0.6950 -0.1111  0.0599
  389MPD2     N 5820   1.717   2.430  11.716  0.8974  0.0816 -0.2004
  389MPD2    H5 5821   1.719   2.417  11.817  1.9286 -1.1394 -0.3727
  389MPD2    N1 5822   1.755   2.727  11.314 -0.0500  0.7130  0.3238
  389MPD2    H7 5823   1.807   2.805  11.276  1.7768 -0.7463 -0.1548
  390TMC3    C1 5824   1.587   2.241  11.745  0.2931  0.0714 -0.2398
  390TMC3    C2 5825   1.583   2.105  11.718 -0.0647  0.3127 -0.3373
  390TMC3    C3 5826   1.508   2.035  11.815  0.1141 -0.1792  0.3736
  390TMC3    C4 5827   1.504   2.298  11.838 -0.2253 -0.6713  0.0739
  390TMC3    C5 5828   1.413   2.228  11.915 -0.7100  0.1782  0.2072
  390TMC3    C6 5829   1.420   2.095  11.901 -0.2074  0.1048  0.0256
  390TMC3     C 5830   1.669   2.323  11.652 -0.0740 -1.0694 -0.1123
  390TMC3     O 5831   1.705   2.282  11.542  0.3724  0.2048 -0.1715
  390TMC3     H 5832   1.635   2.043  11.646  0.9112  2.4460 -1.4829
  390TMC3    H1 5833   1.518   2.405  11.850  1.1863 -1.1243  2.4259
  390TMC3    H2 5834   1.357   2.033  11.965  0.6795  0.0238  0.8175
  390TMC3    C7 5835   1.286   2.287  11.888  0.0678  0.1585 -0.4640
  390TMC3    C8 5836   1.453   1.905  11.779  0.2216 -0.3047  0.1585
  390TMC3    O1 5837   1.283   2.390  11.825 -0.1172  0.1522 -0.1262
  390TMC3    O2 5838   1.513   1.802  11.815  0.5951 -0.4337  0.0402
  391MPD2     C 5839   1.309   3.876  11.388 -0.6501  0.6350  0.2200
  391MPD2    C1 5840   1.388   3.939  11.291  0.5809 -0.1524 -0.1466
  391MPD2    C2 5841   1.358   3.935  11.162 -0.1681 -0.1359 -0.7071
  391MPD2    C3 5842   1.252   3.859  11.117 -0.3961 -0.3356  0.0433
  391MPD2    C4 5843   1.176   3.793  11.212 -0.2128 -0.0596 -0.5424
  391MPD2    C5 5844   1.199   3.803  11.346 -0.0034  0.6208  0.1135
  391MPD2     H 5845   1.422   3.986  11.091 -0.1366  0.6510 -0.1047
  391MPD2    H1 5846   1.102   3.722  11.176  0.3212  0.0514 -1.8338
  391MPD2    H2 5847   1.336   3.882  11.493  3.1115  1.6016 -0.7983
  391MPD2    H3 5848   1.136   3.752  11.419 -0.8993  2.7272  0.8491
  391MPD2     N 5849   1.230   3.852  10.976 -0.7085  0.4933 -0.3080
  391MPD2    H5 5850   1.295   3.908  10.922  1.2041 -2.8645 -1.4805
  391MPD2    N1 5851   1.492   4.017  11.344  0.0240 -0.3168  0.3337
  391MPD2    H7 5852   1.502   4.028  11.444 -1.0552  1.2488  0.2635
  392TMC3    C1 5853   1.127   3.804  10.773  0.5597 -0.0974  0.0440
  392TMC3    C2 5854   1.023   3.744  10.703  0.7471 -0.4003  0.0594
  392TMC3    C3 5855   1.008   3.789  10.578 -0.3936  0.6283  0.0499
  392TMC3    C4 5856   1.222   3.887  10.723  0.2109  0.6134  0.2823
  392TMC3    C5 5857   1.202   3.918  10.594  0.0415  0.4765 -0.1678
  392TMC3    C6 5858   1.097   3.876  10.511  0.1637  0.4459  0.6520
  392TMC3     C 5859   1.157   3.758  10.905  0.2638 -0.2158  0.4525
  392TMC3     O 5860   1.103   3.657  10.947 -0.5466 -0.3298  0.2637
  392TMC3     H 5861   0.978   3.654  10.742 -2.5507  0.2868 -2.1434
  392TMC3    H1 5862   1.319   3.910  10.766 -0.3440  0.9163  1.3653
  392TMC3    H2 5863   1.088   3.894  10.404  0.5072 -0.5601  0.4548
  392TMC3    C7 5864   1.269   4.047  10.563  0.6446  0.1583  0.6422
  392TMC3    C8 5865   0.905   3.728  10.490 -0.3714  0.2432 -0.2636
  392TMC3    O1 5866   1.331   4.094  10.656  0.4395  0.5612 -0.4212
  392TMC3    O2 5867   0.885   3.608  10.501  0.1251 -0.5656 -0.5025
  393TMC3    C1 5868   0.565   2.002  10.887  0.2983 -0.2186  0.3633
  393TMC3    C2 5869   0.459   1.978  10.974  0.3200 -0.0008  0.2010
  393TMC3    C3 5870   0.390   1.861  10.955 -0.1574  0.3304 -0.9763
  393TMC3    C4 5871   0.612   1.903  10.802 -0.0043  0.2873 -0.5161
  393TMC3    C5 5872   0.532   1.799  10.782  0.2310  0.2310 -0.3773
  393TMC3    C6 5873   0.419   1.770  10.860  0.2116  0.1187  0.7804
  393TMC3     C 5874   0.603   2.135  10.860  0.0663 -0.5553  0.0377
  393TMC3     O 5875   0.675   2.148  10.759 -0.2285  0.2428  0.4029
  393TMC3     H 5876   0.407   2.052  11.035 -0.6844 -2.0319  1.8376
  393TMC3    H1 5877   0.707   1.917  10.752 -2.2287 -1.4094 -5.1669
  393TMC3    H2 5878   0.349   1.694  10.827 -1.2171  1.4381  0.7539
  393TMC3    C7 5879   0.554   1.699  10.678  0.2193 -0.3785 -0.3960
  393TMC3    C8 5880   0.241   1.858  10.976  0.5127  0.1585 -0.0027
  393TMC3    O1 5881   0.494   1.597  10.689 -0.2420 -0.4683  0.3824
  393TMC3    O2 5882   0.176   1.845  10.868 -0.1613  0.1782 -0.3645
  394TMC3    C1 5883   1.668   2.711  11.095  0.1533 -0.7050 -0.7509
  394TMC3    C2 5884   1.558   2.690  11.014  0.3176  0.5956 -0.3003
  394TMC3    C3 5885   1.576   2.684  10.875 -0.2109 -0.5353  0.3967
  394TMC3    C4 5886   1.790   2.722  11.038  0.3923  0.4146 -0.4394
  394TMC3    C5 5887   1.802   2.725  10.899 -0.2516  0.2334  0.0075
  394TMC3    C6 5888   1.696   2.705  10.819 -0.6774  0.5495 -0.3846
  394TMC3     C 5889   1.676   2.652  11.227 -0.6784 -0.5759  0.4042
  394TMC3     O 5890   1.583   2.582  11.256  0.2662 -0.1225 -0.1851
  394TMC3     H 5891   1.463   2.684  11.065  0.5241  2.3201  0.3129
  394TMC3    H1 5892   1.881   2.722  11.097  0.1511  1.1284 -0.0751
  394TMC3    H2 5893   1.694   2.738  10.716  3.7710  1.3450 -0.2173
  394TMC3    C7 5894   1.907   2.798  10.835  0.6927  0.4404  0.7191
  394TMC3    C8 5895   1.465   2.681  10.793  0.3166 -0.9666 -0.2331
  394TMC3    O1 5896   1.913   2.795  10.714  0.4252 -0.3191  0.3169
  394TMC3    O2 5897   1.366   2.725  10.848 -0.1396  0.4745  0.0953
  395TMC3    C1 5898   0.801   0.494  14.549  0.4090 -0.3035  0.5371
  395TMC3    C2 5899   0.802   0.437  14.675  0.4156 -0.2639  0.2788
  395TMC3    C3 5900   0.846   0.511  14.778  0.5047 -1.1110  0.2526
  395TMC3    C4 5901   0.829   0.624  14.530 -0.3018  0.7026  0.0190
  395TMC3    C5 5902   0.885   0.692  14.637  0.1400  0.7196 -0.5266
  395TMC3    C6 5903   0.894   0.632  14.761 -0.0763 -0.2499  0.2492
  395TMC3     C 5904   0.907   0.421  14.477 -0.1263 -0.2433 -0.5667
  395TMC3     O 5905   1.020   0.469  14.466 -0.0223 -0.3014  0.3978
  395TMC3     H 5906   0.747   0.346  14.694  1.2328 -0.8314 -0.0780
  395TMC3    H1 5907   0.834   0.673  14.434  0.0058 -0.2540 -0.4455
  395TMC3    H2 5908   0.920   0.687  14.851  1.5236 -0.3771 -0.1362
  395TMC3    C7 5909   0.968   0.800  14.611  0.2133 -0.0695  0.5773
  395TMC3    C8 5910   0.867   0.441  14.906  0.1348 -0.6127  0.7397
  395TMC3    O1 5911   0.959   0.850  14.499 -0.4414  0.3466 -0.4164
  395TMC3    O2 5912   0.893   0.517  15.002  0.4165  0.7385 -0.3929
  396MPD2     C 5913   1.139   1.178  16.876  0.5114 -0.3026  0.5331
  396MPD2    C1 5914   1.265   1.217  16.914  0.9641 -0.3080 -0.3237
  396MPD2    C2 5915   1.335   1.305  16.833 -0.4374 -0.0523 -0.5568
  396MPD2    C3 5916   1.281   1.348  16.714  0.1301  0.4082 -0.3115
  396MPD2    C4 5917   1.162   1.300  16.667 -0.0383  1.0743 -0.1683
  396MPD2    C5 5918   1.089   1.218  16.755  0.6724  0.0094 -0.0343
  396MPD2     H 5919   1.438   1.334  16.848 -0.9957  1.0483  1.0486
  396MPD2    H1 5920   1.118   1.320  16.570  1.6330 -0.7484 -1.3056
  396MPD2    H2 5921   1.065   1.129  16.939  0.6476  0.4527  1.2779
  396MPD2    H3 5922   0.983   1.195  16.743  0.5308 -0.3798  1.8182
  396MPD2     N 5923   1.361   1.434  16.633 -0.1754  0.1485  0.7027
  396MPD2    H5 5924   1.447   1.469  16.673  0.2542 -1.3024  1.0288
  396MPD2    N1 5925   1.307   1.185  17.043  1.1044 -0.0517  0.6748
  396MPD2    H7 5926   1.246   1.118  17.090  1.3400 -1.2243 -0.6577
  397TMC3    C1 5927   1.440   1.168  17.238 -0.4746 -0.3364  0.2009
  397TMC3    C2 5928   1.565   1.205  17.281 -0.6090  0.0082 -1.3427
  397TMC3    C3 5929   1.659   1.113  17.321  0.6083 -0.0101  0.0813
  397TMC3    C4 5930   1.408   1.032  17.242 -1.1075 -0.7517 -0.0708
  397TMC3    C5 5931   1.498   0.949  17.307  0.2084  0.4955  0.1081
  397TMC3    C6 5932   1.626   0.988  17.354  0.2364 -0.4611 -0.0667
  397TMC3     C 5933   1.418   1.229  17.109 -0.6431 -0.3062 -0.0714
  397TMC3     O 5934   1.492   1.318  17.073 -0.3607  0.3710 -0.5094
  397TMC3     H 5935   1.609   1.304  17.271  0.3765 -0.1445  1.5069
  397TMC3    H1 5936   1.316   0.991  17.202 -0.9234  0.4413 -1.7340
  397TMC3    H2 5937   1.700   0.924  17.400  2.3684  1.1360 -1.3290
  397TMC3    C7 5938   1.461   0.810  17.317 -0.3262 -0.1395 -0.3366
  397TMC3    C8 5939   1.794   1.151  17.353 -0.1989  0.6020  0.3698
  397TMC3    O1 5940   1.371   0.759  17.252  0.2306 -0.3024  0.2397
  397TMC3    O2 5941   1.834   1.117  17.463  0.4383 -0.1830  0.3713
  398MPD2     C 5942   3.847   1.507  17.595 -0.8320 -0.5957  0.9782
  398MPD2    C1 5943   3.884   1.439   0.005 -0.3137 -0.8822 -0.0466
  398MPD2    C2 5944   3.997   1.487   0.076 -0.0835  0.1033 -0.1631
  398MPD2    C3 5945   4.074   1.593   0.034 -0.1268  0.3677 -0.6620
  398MPD2    C4 5946   4.031   1.661  17.622 -1.0932  0.5517  0.2763
  398MPD2    C5 5947   3.915   1.617  17.554 -0.7404  0.0852 -0.6178
  398MPD2     H 5948   4.035   1.423   0.155 -1.5022 -1.7203 -0.9558
  398MPD2    H1 5949   4.072   1.755  17.587 -1.0662  0.2217 -0.5857
  398MPD2    H2 5950   3.751   1.495  17.547  0.2290  2.7641 -2.0087
  398MPD2    H3 5951   3.862   1.678  17.482  1.9262  4.4461  1.1500
  398MPD2     N 5952   4.193   1.636   0.100  0.2814 -0.7103  0.2189
  398MPD2    H5 5953   4.221   1.573   0.175  0.0423 -0.7059  0.3113
  398MPD2    N1 5954   3.818   1.324   0.053  0.1562  0.2579 -0.1350
  398MPD2    H7 5955   3.855   1.275   0.134 -0.5963  1.5779  1.0184
  399TMC3    C1 5956   3.636   1.181   0.097 -0.2543  0.9740 -0.0505
  399TMC3    C2 5957   3.638   1.196   0.237  0.2656 -0.2672  0.3291
  399TMC3    C3 5958   3.554   1.116   0.308  0.1665  0.0777  0.5811
  399TMC3    C4 5959   3.545   1.097   0.040 -0.2193  0.4720  0.1277
  399TMC3    C5 5960   3.463   1.017   0.116  0.4075 -0.6817 -0.1886
  399TMC3    C6 5961   3.469   1.027   0.251  0.4857  0.0427 -0.1805
  399TMC3     C 5962   3.692   1.289   0.017  0.0339  0.6151 -0.4062
  399TMC3     O 5963   3.619   1.316  17.617 -0.1068 -0.0425 -0.3609
  399TMC3     H 5964   3.703   1.262   0.292 -0.4790 -1.7539  2.9938
  399TMC3    H1 5965   3.556   1.077  17.631  0.3692 -1.3208  0.5217
  399TMC3    H2 5966   3.406   0.961   0.311  0.7413  0.8940  1.0256
  399TMC3    C7 5967   3.360   0.931   0.055 -0.4127  0.7430  0.0409
  399TMC3    C8 5968   3.588   1.089   0.445 -0.0827  0.0595  0.7994
  399TMC3    O1 5969   3.292   0.862   0.133  0.2116  0.0075  0.3614
  399TMC3    O2 5970   3.650   1.185   0.498 -0.2035 -0.2775  0.1144
  400TMC3    C1 5971   3.151   0.399  16.831 -0.1453  0.1512 -0.2876
  400TMC3    C2 5972   3.036   0.422  16.761  0.4866  0.1398 -0.1988
  400TMC3    C3 5973   3.019   0.554  16.725  0.0542  0.3122  0.1472
  400TMC3    C4 5974   3.242   0.500  16.855 -0.6024  0.5290  0.4629
  400TMC3    C5 5975   3.222   0.630  16.812  0.2323 -0.5528  0.1306
  400TMC3    C6 5976   3.107   0.659  16.754 -0.1851  0.3297  0.5666
  400TMC3     C 5977   3.136   0.296  16.929 -0.3206 -0.1907 -0.1210
  400TMC3     O 5978   3.070   0.202  16.891  0.4218 -0.4872  0.0009
  400TMC3     H 5979   2.957   0.349  16.747  1.2826 -0.3515 -2.0646
  400TMC3    H1 5980   3.330   0.478  16.914 -0.9923 -1.0084  0.4713
  400TMC3    H2 5981   3.076   0.753  16.709  1.7070  0.9777  0.5956
  400TMC3    C7 5982   3.287   0.733  16.887  0.5711  0.4992  0.8359
  400TMC3    C8 5983   2.878   0.596  16.702 -0.0242  0.2049 -0.1227
  400TMC3    O1 5984   3.377   0.698  16.959 -0.1890  0.5531 -0.0056
  400TMC3    O2 5985   2.854   0.715  16.727 -0.0626  0.2813  0.1422
  401MPD2     C 5986   1.481   3.436   0.439 -0.2304  0.0254 -0.4672
  401MPD2    C1 5987   1.560   3.387   0.551 -0.1999  0.6334 -0.4367
  401MPD2    C2 5988   1.550   3.252   0.585 -0.3791 -0.2442  0.1919
  401MPD2    C3 5989   1.466   3.159   0.522 -0.0413  0.3108 -0.5045
  401MPD2    C4 5990   1.391   3.204   0.420 -0.1903 -0.1214  0.1943
  401MPD2    C5 5991   1.402   3.340   0.377 -0.1593  0.6156 -0.1746
  401MPD2     H 5992   1.611   3.219   0.668 -0.5124  0.4104  0.5481
  401MPD2    H1 5993   1.330   3.137   0.361 -1.5846  0.5971  0.8442
  401MPD2    H2 5994   1.464   3.539   0.411  0.8213 -0.3941 -2.6437
  401MPD2    H3 5995   1.347   3.384   0.294  1.8202  3.0215 -0.2293
  401MPD2     N 5996   1.472   3.022   0.572 -0.4965 -0.5084 -0.0732
  401MPD2    H5 5997   1.519   3.012   0.661 -0.3456  1.6177  0.0906
  401MPD2    N1 5998   1.648   3.466   0.629  0.5380  0.3129  0.3242
  401MPD2    H7 5999   1.694   3.436   0.714  1.7639 -3.0432 -1.5528
  402TMC3    C1 6000   1.392   2.809   0.614  1.2681 -0.1300  0.0316
  402TMC3    C2 6001   1.427   2.819   0.739 -0.0309  0.3680 -0.2254
  402TMC3    C3 6002   1.444   2.701   0.805  0.1544 -0.3862 -0.4280
  402TMC3    C4 6003   1.359   2.690   0.559 -0.0446  0.0554 -0.5510
  402TMC3    C5 6004   1.390   2.576   0.623  0.4847  0.2997  0.3968
  402TMC3    C6 6005   1.423   2.579   0.754 -0.5343  0.4581  0.2805
  402TMC3     C 6006   1.386   2.919   0.529  0.2197  0.1367 -0.8879
  402TMC3     O 6007   1.325   2.905   0.423 -0.8835 -0.0860  0.1822
  402TMC3     H 6008   1.429   2.915   0.789 -2.7062 -0.1920  0.9666
  402TMC3    H1 6009   1.329   2.675   0.456  0.7760  2.7230 -1.1670
  402TMC3    H2 6010   1.410   2.496   0.822 -0.3204  0.0583 -0.1680
  402TMC3    C7 6011   1.336   2.450   0.569  0.3368  0.6121  0.0237
  402TMC3    C8 6012   1.504   2.699   0.940  0.0534 -0.0678  0.4024
  402TMC3    O1 6013   1.241   2.452   0.499  0.4632 -0.4638 -0.5060
  402TMC3    O2 6014   1.526   2.595   0.987  0.3117 -0.0256 -0.3903
  403MPD2     C 6015   3.956   2.575  13.083 -0.4113  0.8299  0.4290
  403MPD2    C1 6016   4.059   2.491  13.099 -0.1039 -0.7161 -0.6680
  403MPD2    C2 6017   4.133   2.507  13.216 -0.1495 -0.2163  0.0500
  403MPD2    C3 6018   4.106   2.600  13.313  0.2470 -0.3032  0.0437
  403MPD2    C4 6019   3.999   2.690  13.294  0.6509  0.2535 -0.3908
  403MPD2    C5 6020   3.931   2.673  13.176  0.1952 -0.0998  0.5718
  403MPD2     H 6021   4.214   2.440  13.241 -0.8402 -1.0246  0.1428
  403MPD2    H1 6022   3.968   2.766  13.365 -2.7052 -3.1665  1.7556
  403MPD2    H2 6023   3.890   2.575  12.997  1.3596 -0.7865 -0.9224
  403MPD2    H3 6024   3.849   2.743  13.163  0.5809  0.3774  0.7328
  403MPD2     N 6025   4.183   2.603  13.426 -0.1576 -0.2155  0.4688
  403MPD2    H5 6026   4.270   2.551  13.423  1.4702  2.5301  0.8410
  403MPD2    N1 6027   4.090   2.394  13.005 -0.0108  0.1560 -0.1327
  403MPD2    H7 6028   4.020   2.379  12.933  1.3224 -0.1559 -1.3776
  404TMC3    C1 6029   4.184   2.198  12.915 -0.8553  0.1695  0.6755
  404TMC3    C2 6030   4.232   2.077  12.950 -0.3352 -0.1907 -0.2729
  404TMC3    C3 6031   4.195   1.971  12.879  0.4533  0.4210  0.2408
  404TMC3    C4 6032   4.109   2.211  12.798 -0.7432 -0.9921  0.3624
  404TMC3    C5 6033   4.088   2.102  12.717  0.3717  1.0840 -0.4890
  404TMC3    C6 6034   4.131   1.982  12.758 -0.7291  1.1498 -0.0623
  404TMC3     C 6035   4.196   2.306  13.009 -0.5435 -0.6274  0.3899
  404TMC3     O 6036   4.289   2.305  13.089 -0.1507 -0.7391 -0.4234
  404TMC3     H 6037   4.291   2.067  13.039 -1.5972  1.7620  0.7892
  404TMC3    H1 6038   4.073   2.305  12.757  0.0384 -0.9323 -0.1879
  404TMC3    H2 6039   4.121   1.902  12.686  0.4147  0.6627  0.3161
  404TMC3    C7 6040   4.006   2.108  12.604  0.0672 -0.0781  0.5623
  404TMC3    C8 6041   4.237   1.843  12.921 -0.1682  0.6952  0.4340
  404TMC3    O1 6042   3.992   2.217  12.558 -0.1431  0.2095  0.4003
  404TMC3    O2 6043   4.272   1.757  12.838 -0.6883 -0.2043  0.0463
  405MPD2     C 6044   4.367   2.986  14.541  0.5741  0.0345 -0.2317
  405MPD2    C1 6045   4.289   2.889  14.484 -0.0321 -1.0154  0.6124
  405MPD2    C2 6046   4.192   2.924  14.403 -0.5260 -0.4145 -0.3018
  405MPD2    C3 6047   4.172   3.054  14.361  0.8136  0.3022  0.3536
  405MPD2    C4 6048   4.255   3.155  14.407 -0.3437 -0.4793 -0.1804
  405MPD2    C5 6049   4.347   3.119  14.503  0.5633  0.2083  0.5628
  405MPD2     H 6050   4.115   2.854  14.372 -0.2673 -0.8503  0.0444
  405MPD2    H1 6051   4.241   3.258  14.377  0.0954  0.1510  1.7734
  405MPD2    H2 6052   4.454   2.952  14.595  1.0281  0.8378 -0.4698
  405MPD2    H3 6053   4.425   3.190  14.530 -0.6097  0.9368  2.0473
  405MPD2     N 6054   4.058   3.077  14.280 -0.2157 -0.3742 -0.1217
  405MPD2    H5 6055   4.018   2.987  14.254  0.9026 -1.0759  0.5999
  405MPD2    N1 6056   4.320   2.756  14.519 -0.0533  0.0480 -0.0693
  405MPD2    H7 6057   4.393   2.734  14.587  0.8722  0.3833 -0.9612
  406TMC3    C1 6058   3.642   3.204  14.176 -0.4603  0.1443 -0.0811
  406TMC3    C2 6059   3.606   3.077  14.150 -0.3899 -0.3045  0.1408
  406TMC3    C3 6060   3.710   2.995  14.134 -0.1858  0.3288 -0.6012
  406TMC3    C4 6061   3.775   3.246  14.190  0.6575 -0.1433 -0.3691
  406TMC3    C5 6062   3.875   3.157  14.184  0.2618 -0.5024  0.9596
  406TMC3    C6 6063   3.843   3.027  14.144 -0.4067 -0.1272  0.2817
  406TMC3     C 6064   3.545   3.291  14.245 -0.1049 -0.4939 -0.1197
  406TMC3     O 6065   3.537   3.399  14.194  0.2758  0.0784  0.0576
  406TMC3     H 6066   3.505   3.042  14.165 -0.2037 -1.4835 -1.3174
  406TMC3    H1 6067   3.792   3.343  14.235 -2.7654 -0.3070  1.2735
  406TMC3    H2 6068   3.925   2.965  14.110  1.2246  1.3731  1.4676
  406TMC3    C7 6069   4.001   3.190  14.244  0.1811  0.1186 -0.5740
  406TMC3    C8 6070   3.672   2.858  14.129  0.6584 -0.0300 -0.5824
  406TMC3    O1 6071   4.021   3.304  14.278 -0.1753  0.0171 -0.3042
  406TMC3    O2 6072   3.563   2.824  14.080 -0.3772 -0.7959  0.3615
  407MPD2     C 6073   2.086   3.254   9.454 -0.0788  0.0946  0.7905
  407MPD2    C1 6074   2.041   3.374   9.395 -0.2345 -0.4505 -0.2423
  407MPD2    C2 6075   2.029   3.481   9.480 -0.2150  0.4464 -0.0114
  407MPD2    C3 6076   2.073   3.481   9.616  0.1193  1.0536 -0.0856
  407MPD2    C4 6077   2.128   3.361   9.660 -0.4376 -0.6200  0.2321
  407MPD2    C5 6078   2.124   3.245   9.587  0.0108  0.6852 -0.0379
  407MPD2     H 6079   1.992   3.577   9.446 -1.3346 -0.5058 -1.4910
  407MPD2    H1 6080   2.179   3.354   9.755  0.6469 -1.4678 -0.4168
  407MPD2    H2 6081   2.092   3.162   9.397  0.0075  0.7681 -0.2922
  407MPD2    H3 6082   2.164   3.149   9.617  1.4107  1.8033  1.6488
  407MPD2     N 6083   2.075   3.593   9.699 -0.0834  0.2377  0.7795
  407MPD2    H5 6084   2.130   3.572   9.782 -0.3809  2.4084  1.5509
  407MPD2    N1 6085   2.009   3.394   9.260 -0.8737  0.8234  0.1241
  407MPD2    H7 6086   1.960   3.478   9.233  2.9087  1.9722 -3.2075
  408TMC3    C1 6087   2.018   3.377   9.030  0.8088  0.0064  0.2117
  408TMC3    C2 6088   2.115   3.387   8.935  0.1717  0.1444  0.3449
  408TMC3    C3 6089   2.074   3.456   8.821  0.1994 -0.0662 -0.7236
  408TMC3    C4 6090   1.890   3.429   9.025  0.4527  0.4958  0.2461
  408TMC3    C5 6091   1.857   3.480   8.903 -0.6016 -0.7469 -0.3022
  408TMC3    C6 6092   1.946   3.493   8.799  0.8952  0.9567  0.0445
  408TMC3     C 6093   2.053   3.317   9.155 -0.0300 -1.4831 -0.1098
  408TMC3     O 6094   2.151   3.237   9.156 -0.2508  0.1862 -0.3309
  408TMC3     H 6095   2.211   3.339   8.953 -0.6557 -1.7358 -0.2802
  408TMC3    H1 6096   1.827   3.413   9.111 -0.9646  0.8324 -0.7299
  408TMC3    H2 6097   1.916   3.543   8.707  2.3865 -2.2070 -2.1466
  408TMC3    C7 6098   1.729   3.552   8.877 -0.3992 -0.5169 -0.2177
  408TMC3    C8 6099   2.170   3.546   8.765 -0.0032  0.0241  0.2628
  408TMC3    O1 6100   1.698   3.574   8.758 -0.2144  0.2228  0.6801
  408TMC3    O2 6101   2.151   3.585   8.656 -0.3595  0.5566  0.3498
  409MPD2     C 6102   1.609   0.361  17.126  0.7667 -1.3133 -0.3475
  409MPD2    C1 6103   1.734   0.389  17.172 -0.0805  0.2083  0.7408
  409MPD2    C2 6104   1.779   0.521  17.177  1.0871 -0.3538  0.4482
  409MPD2    C3 6105   1.704   0.628  17.115 -0.5825  0.2248 -0.3363
  409MPD2    C4 6106   1.583   0.595  17.063 -0.3310  0.6809 -0.1644
  409MPD2    C5 6107   1.533   0.462  17.071 -0.2476  0.2548 -0.0991
  409MPD2     H 6108   1.876   0.538  17.222  0.3650  2.2043  1.0636
  409MPD2    H1 6109   1.521   0.676  17.028 -2.4688 -0.9834 -0.2548
  409MPD2    H2 6110   1.566   0.261  17.130  0.6864 -1.2850 -0.5369
  409MPD2    H3 6111   1.440   0.439  17.021 -0.1659 -2.5546  1.0125
  409MPD2     N 6112   1.757   0.756  17.112 -0.2547 -0.5774 -0.3665
  409MPD2    H5 6113   1.715   0.821  17.046 -0.2049 -0.4158 -0.2404
  409MPD2    N1 6114   1.803   0.299  17.246 -0.4597 -0.4730  0.5608
  409MPD2    H7 6115   1.894   0.324  17.284 -0.1359  0.3084 -0.7714
  410TMC3    C1 6116   1.938   0.896  17.075  0.0346  0.1465  0.0653
  410TMC3    C2 6117   2.067   0.916  17.120  0.3019 -0.6564  0.5801
  410TMC3    C3 6118   2.168   0.935  17.029 -0.4171  0.3272  0.0190
  410TMC3    C4 6119   1.911   0.875  16.945  0.3134  0.7172  0.5892
  410TMC3    C5 6120   2.012   0.915  16.857 -0.0844 -0.4870  0.0848
  410TMC3    C6 6121   2.142   0.939  16.894  0.4471 -0.4349  0.1281
  410TMC3     C 6122   1.875   0.797  17.161  0.6476  0.2878 -0.0658
  410TMC3     O 6123   1.925   0.774  17.269  0.0944 -0.1804  0.3235
  410TMC3     H 6124   2.093   0.913  17.225 -1.1454 -0.0762  0.9458
  410TMC3    H1 6125   1.814   0.877  16.897  0.4965 -0.6071  0.1744
  410TMC3    H2 6126   2.221   0.946  16.820  0.2780  0.4201  0.0343
  410TMC3    C7 6127   1.974   0.938  16.721 -0.3854  0.7256 -0.4698
  410TMC3    C8 6128   2.302   0.912  17.074 -0.2394 -0.2787  0.5399
  410TMC3    O1 6129   1.894   0.864  16.660  0.3107 -0.7387  0.3205
  410TMC3    O2 6130   2.310   0.872  17.191  0.1266 -0.3247 -0.1420
  411MPD2     C 6131   1.804   1.230  14.441  0.4444 -0.0572  0.2109
  411MPD2    C1 6132   1.718   1.242  14.343  0.1618 -0.3949  0.2889
  411MPD2    C2 6133   1.676   1.127  14.274 -0.3540  0.0910  0.5025
  411MPD2    C3 6134   1.699   1.004  14.330  0.0871  0.7748  1.1001
  411MPD2    C4 6135   1.785   0.999  14.441  0.2540  0.0614  0.1467
  411MPD2    C5 6136   1.847   1.113  14.478 -0.6734  0.5583 -0.2756
  411MPD2     H 6137   1.613   1.139  14.187 -1.2918  3.0180  1.5951
  411MPD2    H1 6138   1.818   0.907  14.486 -1.2657 -0.3819  0.3541
  411MPD2    H2 6139   1.846   1.316  14.491  0.6412 -0.0135 -0.0280
  411MPD2    H3 6140   1.910   1.102  14.565  1.0647 -3.5469 -2.0492
  411MPD2     N 6141   1.645   0.893  14.260  0.6319 -0.9372 -0.7096
  411MPD2    H5 6142   1.608   0.908  14.168 -0.8590 -0.4509 -0.0235
  411MPD2    N1 6143   1.674   1.367  14.314 -0.6455 -0.1566 -0.3119
  411MPD2    H7 6144   1.711   1.443  14.371 -1.2163  0.1750 -0.3765
  412TMC3    C1 6145   1.652   0.678  14.198 -0.6761  0.1239  0.2988
  412TMC3    C2 6146   1.683   0.713  14.071  0.3485  0.2411  0.2955
  412TMC3    C3 6147   1.657   0.617  13.974 -0.1948  0.5912 -0.2671
  412TMC3    C4 6148   1.611   0.552  14.229 -0.5965  0.0331 -0.4784
  412TMC3    C5 6149   1.584   0.464  14.140 -0.1635 -0.0400  0.2007
  412TMC3    C6 6150   1.613   0.492  14.009 -0.1730  0.2444  0.0516
  412TMC3     C 6151   1.670   0.771  14.308  0.2917 -0.5449  0.4967
  412TMC3     O 6152   1.647   0.729  14.420 -0.6152  0.4117 -1.5608
  412TMC3     H 6153   1.721   0.812  14.052  0.2243  0.5859  1.8476
  412TMC3    H1 6154   1.591   0.526  14.333 -1.8095  0.0357 -0.7106
  412TMC3    H2 6155   1.584   0.422  13.931  1.0832  0.6049 -0.7320
  412TMC3    C7 6156   1.636   0.333  14.171  0.2612 -0.3563 -0.3435
  412TMC3    C8 6157   1.774   0.593  13.879 -0.4372  0.8831 -0.0007
  412TMC3    O1 6158   1.582   0.266  14.256  0.6038  0.0827  0.0832
  412TMC3    O2 6159   1.826   0.480  13.889  0.4292  0.2709 -0.0229
  413MPD2     C 6160   3.049   3.968  15.479 -1.1163  0.0915 -0.5465
  413MPD2    C1 6161   3.022   3.960  15.343 -1.0057 -0.1624 -0.3468
  413MPD2    C2 6162   3.119   3.905  15.261 -0.4786 -0.2188  0.3943
  413MPD2    C3 6163   3.239   3.868  15.306  0.0103 -0.3631  0.7537
  413MPD2    C4 6164   3.264   3.883  15.439  0.4892 -0.3656 -0.1973
  413MPD2    C5 6165   3.172   3.941  15.520  0.9668 -0.4521  0.0285
  413MPD2     H 6166   3.097   3.906  15.155  0.4635  0.1499  0.2113
  413MPD2    H1 6167   3.361   3.857  15.479  0.7208 -0.6560 -0.9440
  413MPD2    H2 6168   2.981   3.993  15.560  1.1659 -0.1484  1.4495
  413MPD2    H3 6169   3.206   3.952  15.622  1.2191  0.7085 -0.1883
  413MPD2     N 6170   3.319   3.805  15.214  0.5204  0.6120 -0.0381
  413MPD2    H5 6171   3.275   3.783  15.125  1.2664  1.4221 -0.6066
  413MPD2    N1 6172   2.889   3.999  15.302  0.0971  0.2643  0.0221
  413MPD2    H7 6173   2.848   4.048  15.381  2.3031  1.1167  0.6534
  414TMC3    C1 6174   3.502   3.666  15.133  0.2240  0.0566  0.4753
  414TMC3    C2 6175   3.618   3.598  15.158  0.7159 -0.4060  0.7880
  414TMC3    C3 6176   3.681   3.529  15.061  0.1301  0.7362 -0.7469
  414TMC3    C4 6177   3.457   3.679  15.009 -0.0831 -0.0189 -0.1198
  414TMC3    C5 6178   3.525   3.617  14.906  0.2129  0.6562  0.6157
  414TMC3    C6 6179   3.633   3.532  14.933  0.1981 -0.9968 -0.0439
  414TMC3     C 6180   3.437   3.738  15.241 -0.4443 -0.1550 -1.2173
  414TMC3     O 6181   3.502   3.750  15.342 -0.2449 -0.4870  0.2308
  414TMC3     H 6182   3.646   3.583  15.262  0.5489 -1.0955  0.7326
  414TMC3    H1 6183   3.361   3.726  14.990  1.5195  2.2552 -2.4767
  414TMC3    H2 6184   3.687   3.468  14.864  0.3448 -0.4847 -0.4020
  414TMC3    C7 6185   3.458   3.594  14.783 -0.2742  0.0570 -0.2398
  414TMC3    C8 6186   3.799   3.451  15.082 -0.1868 -0.5109 -0.1653
  414TMC3    O1 6187   3.339   3.629  14.783 -0.0844 -0.2965 -0.2367
  414TMC3    O2 6188   3.827   3.355  15.014  0.0847  0.2231  0.1581
  415TMC3    C1 6189   4.300   1.511  10.392 -0.7820  0.2219  0.4280
  415TMC3    C2 6190   4.358   1.635  10.398  0.2928 -0.0502  0.3066
  415TMC3    C3 6191   4.434   1.680  10.290  1.1780 -0.0295 -0.2224
  415TMC3    C4 6192   4.310   1.430  10.283  0.5040 -0.4572  0.7233
  415TMC3    C5 6193   4.392   1.473  10.177 -0.0914  0.4482  0.7253
  415TMC3    C6 6194   4.458   1.593  10.182  0.3118 -0.3124  0.1411
  415TMC3     C 6195   4.223   1.452  10.500  0.1394 -0.3763 -0.8330
  415TMC3     O 6196   4.137   1.372  10.463  0.2332 -0.1751  0.0890
  415TMC3     H 6197   4.331   1.707  10.475 -2.0118  0.3645 -0.8771
  415TMC3    H1 6198   4.279   1.326  10.289 -1.6545  0.0385 -1.7129
  415TMC3    H2 6199   4.530   1.625  10.108 -0.0587  0.3022  0.0482
  415TMC3    C7 6200   4.432   1.380  10.067  0.1644  0.3392 -0.5508
  415TMC3    C8 6201   4.510   1.803  10.308 -0.0623  0.2986  0.3627
  415TMC3    O1 6202   4.535   1.414  10.010 -0.4585  0.3577 -0.1849
  415TMC3    O2 6203   4.541   1.837  10.422 -0.0542 -0.5111  0.0412
  416MPD2     C 6204   1.245   0.380  11.445  0.3634 -0.0140 -0.3655
  416MPD2    C1 6205   1.108   0.351  11.459  0.0251 -0.4695 -0.0363
  416MPD2    C2 6206   1.047   0.259  11.385 -0.0463  0.0144  0.2014
  416MPD2    C3 6207   1.123   0.194  11.297 -0.3582  0.9638  0.7729
  416MPD2    C4 6208   1.254   0.228  11.266 -0.1515 -0.0232 -0.1639
  416MPD2    C5 6209   1.312   0.331  11.338 -0.0891  0.7657  0.0360
  416MPD2     H 6210   0.944   0.237  11.411 -0.8098  1.2801 -1.7296
  416MPD2    H1 6211   1.322   0.171  11.203  0.6233  0.5450  0.1539
  416MPD2    H2 6212   1.297   0.449  11.510  0.0315  0.0249 -0.1451
  416MPD2    H3 6213   1.418   0.345  11.324 -0.0196 -0.5842 -0.8842
  416MPD2     N 6214   1.064   0.082  11.232 -0.4877 -0.5776  0.2491
  416MPD2    H5 6215   0.973   0.066  11.273 -0.1736 -2.0151  0.3589
  416MPD2    N1 6216   1.031   0.417  11.559 -0.6375 -0.0742 -0.3671
  416MPD2    H7 6217   0.940   0.377  11.581  0.1878 -2.1835 -0.7709
  417TMC3    C1 6218   0.985   0.573  11.728  0.5203 -0.2872  0.1379
  417TMC3    C2 6219   1.024   0.599  11.855  0.4439 -0.2422  0.2377
  417TMC3    C3 6220   0.940   0.690  11.918  0.8525 -1.3257 -0.1065
  417TMC3    C4 6221   0.881   0.632  11.668 -0.5110 -0.1886 -0.0565
  417TMC3    C5 6222   0.794   0.708  11.737  0.6181  0.0875 -0.0813
  417TMC3    C6 6223   0.823   0.743  11.869  0.0022  0.1485 -0.8043
  417TMC3     C 6224   1.088   0.501  11.650  0.8298  0.5171  0.5357
  417TMC3     O 6225   1.202   0.534  11.688  0.7310 -0.1392 -0.8415
  417TMC3     H 6226   1.105   0.541  11.899  1.4457  1.0458  0.0884
  417TMC3    H1 6227   0.869   0.606  11.563  2.4098 -0.9276 -0.2088
  417TMC3    H2 6228   0.751   0.804  11.924 -1.2391  0.4644 -2.7802
  417TMC3    C7 6229   0.691   0.777  11.672  0.3011  0.3933 -0.4041
  417TMC3    C8 6230   0.983   0.756  12.043 -0.1524  0.3592 -0.0432
  417TMC3    O1 6231   0.714   0.811  11.556  0.0177 -0.3393  0.3699
  417TMC3    O2 6232   0.928   0.861  12.064  0.2072  0.4229 -0.4518
  418TMC3    C1 6233   4.616   1.780   0.194  0.2457  0.3153 -0.6349
  418TMC3    C2 6234   4.509   1.779   0.116 -0.0936  0.3723  0.1813
  418TMC3    C3 6235   4.393   1.729   0.153 -0.1039  0.9530 -0.6228
  418TMC3    C4 6236   4.600   1.737   0.320  0.5248 -0.0391 -0.8568
  418TMC3    C5 6237   4.482   1.699   0.364 -0.3592 -0.2457 -0.3747
  418TMC3    C6 6238   4.375   1.690   0.283 -0.1786  0.4424 -0.3538
  418TMC3     C 6239   0.015   1.777   0.119 -0.2840  0.1633  0.4185
  418TMC3     O 6240   0.026   1.848   0.017  0.3163 -0.1940  0.6929
  418TMC3     H 6241   4.523   1.799   0.011  0.3846 -1.9493 -0.1891
  418TMC3    H1 6242   4.689   1.733   0.381 -0.2528 -1.9937  0.1392
  418TMC3    H2 6243   4.279   1.653   0.319  0.9111 -2.7783 -0.7276
  418TMC3    C7 6244   4.473   1.652   0.502  0.2290  0.4552  0.0139
  418TMC3    C8 6245   4.284   1.726   0.060  0.3806  0.5003  0.0873
  418TMC3    O1 6246   4.387   1.568   0.524 -0.3035  0.0798  0.0007
  418TMC3    O2 6247   4.298   1.786  17.654  0.3287 -0.7558  0.1503
  419MPD2     C 6248   3.187   0.235  12.192 -0.4917 -0.2240 -0.0044
  419MPD2    C1 6249   3.219   0.366  12.157  0.0069 -0.2850  0.4513
  419MPD2    C2 6250   3.269   0.449  12.257 -0.1565  0.2036 -0.1303
  419MPD2    C3 6251   3.292   0.399  12.386  1.1808 -0.8449 -0.1557
  419MPD2    C4 6252   3.259   0.273  12.412 -0.4554  0.1453  0.1426
  419MPD2    C5 6253   3.200   0.193  12.321 -0.4955 -0.1368 -0.1254
  419MPD2     H 6254   3.291   0.552  12.235  0.1339  0.0575 -0.5164
  419MPD2    H1 6255   3.283   0.232  12.509  2.8019  0.9352 -0.3308
  419MPD2    H2 6256   3.139   0.163  12.127 -2.6418  0.4027  0.9046
  419MPD2    H3 6257   3.166   0.091  12.337  3.7248 -1.1217  2.4410
  419MPD2     N 6258   3.347   0.499  12.474  0.5158 -0.6802  0.6015
  419MPD2    H5 6259   3.377   0.582  12.423  0.9642 -1.2286 -0.0312
  419MPD2    N1 6260   3.180   0.424  12.037 -0.6012 -0.6493  0.0764
  419MPD2    H7 6261   3.212   0.519  12.029 -1.3960 -0.3391  0.6058
  420TMC3    C1 6262   3.420   0.603  12.667 -0.8902 -0.3013 -0.5389
  420TMC3    C2 6263   3.413   0.725  12.602  0.7364  0.7557  0.1024
  420TMC3    C3 6264   3.435   0.840  12.669  0.2746  0.1547  0.0616
  420TMC3    C4 6265   3.447   0.592  12.797 -0.2741  0.1618  0.4703
  420TMC3    C5 6266   3.460   0.705  12.866 -0.3763 -0.8840  0.7691
  420TMC3    C6 6267   3.447   0.828  12.806 -0.5169 -0.4052  0.5008
  420TMC3     C 6268   3.376   0.477  12.602 -0.1852 -0.0876  0.1439
  420TMC3     O 6269   3.362   0.380  12.673 -0.1959  0.3061  0.0975
  420TMC3     H 6270   3.393   0.734  12.496 -0.3333 -2.2567  0.0541
  420TMC3    H1 6271   3.453   0.494  12.843 -1.5360 -1.1839 -2.2444
  420TMC3    H2 6272   3.428   0.908  12.876 -0.4611 -1.0399  1.2487
  420TMC3    C7 6273   3.465   0.688  13.010  0.0273  0.9383 -0.2328
  420TMC3    C8 6274   3.372   0.957  12.611  0.0246  0.4787  0.0491
  420TMC3    O1 6275   3.424   0.583  13.056 -0.0857 -0.4044 -0.4692
  420TMC3    O2 6276   3.285   0.939  12.527  0.1524  0.2062  0.6400
  421TMC3    C1 6277   4.267   2.637  13.644 -0.1087  0.0034 -0.7181
  421TMC3    C2 6278   4.294   2.716  13.748  0.4791 -1.0830 -0.3750
  421TMC3    C3 6279   4.373   2.671  13.843 -0.2565 -0.2080  0.3926
  421TMC3    C4 6280   4.308   2.501  13.636 -0.6430  0.5363  0.7225
  421TMC3    C5 6281   4.385   2.457  13.738 -0.4886 -0.4905 -0.2389
  421TMC3    C6 6282   4.422   2.545  13.834 -0.0207  0.2380  0.9139
  421TMC3     C 6283   4.168   2.677  13.542 -0.4584 -0.3531  0.2261
  421TMC3     O 6284   4.092   2.770  13.566 -0.0320  0.3483  0.1602
  421TMC3     H 6285   4.253   2.817  13.748 -0.6751 -1.5616 -1.4189
  421TMC3    H1 6286   4.280   2.429  13.559 -1.4648  0.3341  1.2082
  421TMC3    H2 6287   4.480   2.509  13.918  1.2838  0.6893  0.1899
  421TMC3    C7 6288   4.450   2.327  13.735 -1.0842 -0.4312  0.1649
  421TMC3    C8 6289   4.467   2.763  13.914 -0.1356 -0.6576  0.2748
  421TMC3    O1 6290   4.563   2.313  13.788  0.0607  0.3168 -0.5009
  421TMC3    O2 6291   4.584   2.725  13.930 -0.3771 -0.0152  0.1607
  422TMC3    C1 6292   1.994   3.334  12.441  0.1329 -0.3881 -0.0389
  422TMC3    C2 6293   1.971   3.468  12.479  0.4385 -0.4646 -0.0300
  422TMC3    C3 6294   1.858   3.488  12.561  0.3097 -0.1387  0.0933
  422TMC3    C4 6295   1.922   3.226  12.485  0.2813 -0.2962  0.0334
  422TMC3    C5 6296   1.810   3.252  12.565 -0.3169 -0.0162 -0.1048
  422TMC3    C6 6297   1.777   3.386  12.602 -0.0264 -0.1206 -0.0752
  422TMC3     C 6298   2.113   3.311  12.358  0.2274 -0.8358  0.3438
  422TMC3     O 6299   2.168   3.409  12.314  0.2990 -0.2972 -0.0834
  422TMC3     H 6300   2.030   3.552  12.446  0.3832  0.3193  1.8765
  422TMC3    H1 6301   1.943   3.126  12.451 -0.9487 -0.3487 -0.5779
  422TMC3    H2 6302   1.693   3.399  12.669  2.6125  1.5988  2.8622
  422TMC3    C7 6303   1.707   3.147  12.552 -0.0050 -0.1554 -0.3722
  422TMC3    C8 6304   1.839   3.621  12.616  0.0511  0.1209  0.7743
  422TMC3    O1 6305   1.732   3.063  12.468 -0.0133  0.2342 -0.5886
  422TMC3    O2 6306   1.922   3.710  12.608 -0.3114  0.5724  0.1804
  423MPD2     C 6307   3.618   4.465   0.705  0.0498 -0.2707  0.4170
  423MPD2    C1 6308   3.496   4.405   0.684 -0.3869  0.8065  0.6326
  423MPD2    C2 6309   3.463   4.369   0.558  0.2872  0.7480  0.5561
  423MPD2    C3 6310   3.543   4.397   0.448 -0.4399  0.0240  0.0459
  423MPD2    C4 6311   3.661   4.473   0.473 -0.1461 -0.1552  0.6048
  423MPD2    C5 6312   3.694   4.502   0.603  0.1695 -0.1896 -0.9560
  423MPD2     H 6313   3.370   4.315   0.545  0.3370  0.2689  2.1576
  423MPD2    H1 6314   3.725   4.513   0.395  1.6064 -2.5928  0.7753
  423MPD2    H2 6315   3.665   4.490   0.799 -0.4704 -0.0504  0.6193
  423MPD2    H3 6316   3.788   4.553   0.620 -0.0966  0.3715 -1.1830
  423MPD2     N 6317   3.512   4.362   0.306 -0.3775  0.1886  0.2743
  423MPD2    H5 6318   3.585   4.385   0.240 -0.3977 -0.9289 -0.1338
  423MPD2    N1 6319   3.418   4.352   0.788 -0.5005 -0.3324  1.1872
  423MPD2    H7 6320   3.333   4.305   0.760 -0.9651  0.9994  0.3802
  424TMC3    C1 6321   3.346   4.315   1.007  0.6751 -0.2951 -0.2778
  424TMC3    C2 6322   3.392   4.260   1.126 -0.3858  0.6343 -0.1932
  424TMC3    C3 6323   3.300   4.180   1.196  0.7130  0.3898  0.4331
  424TMC3    C4 6324   3.222   4.294   0.954  0.4183 -0.1998  0.4938
  424TMC3    C5 6325   3.136   4.204   1.022 -0.0721 -1.0001  0.0482
  424TMC3    C6 6326   3.174   4.151   1.147 -0.8949 -0.9261  0.5660
  424TMC3     C 6327   3.450   4.354   0.920  0.5701 -0.7158  0.2438
  424TMC3     O 6328   3.545   4.411   0.972  0.4428 -0.2074 -0.3301
  424TMC3     H 6329   3.492   4.280   1.163 -0.5760 -0.8659  1.0851
  424TMC3    H1 6330   3.189   4.356   0.872 -0.9874 -1.3830  0.1658
  424TMC3    H2 6331   3.106   4.089   1.205 -1.3979 -1.2234 -0.3482
  424TMC3    C7 6332   3.000   4.181   0.973 -0.1751  0.0180  0.8067
  424TMC3    C8 6333   3.339   4.085   1.304 -0.1986 -1.0105 -0.2425
  424TMC3    O1 6334   2.968   4.242   0.873 -0.1843  0.3867  0.4658
  424TMC3    O2 6335   3.263   3.996   1.326 -0.0769  0.5906 -0.3959
  425MPD2     C 6336   2.670   3.638  17.069  0.1483  0.4049  0.4370
  425MPD2    C1 6337   2.561   3.617  16.991 -0.5723 -0.9890 -0.7327
  425MPD2    C2 6338   2.454   3.695  16.999 -0.0588  0.8344 -0.1802
  425MPD2    C3 6339   2.453   3.799  17.090 -0.3631  0.0008 -0.0897
  425MPD2    C4 6340   2.563   3.825  17.169  0.0890 -0.4499 -0.6814
  425MPD2    C5 6341   2.679   3.757  17.147  0.2582 -0.6321  0.9171
  425MPD2     H 6342   2.365   3.680  16.940  1.4253  0.1177 -2.2382
  425MPD2    H1 6343   2.567   3.912  17.233 -1.8549 -0.2108 -0.8859
  425MPD2    H2 6344   2.751   3.566  17.057 -1.7385 -1.4117 -1.5474
  425MPD2    H3 6345   2.771   3.781  17.199  0.3186 -1.3221  1.1299
  425MPD2     N 6346   2.339   3.879  17.096 -0.2262  0.5152  0.0885
  425MPD2    H5 6347   2.277   3.873  17.016  0.0757  0.1851 -0.1219
  425MPD2    N1 6348   2.580   3.520  16.896 -0.5361 -0.4308 -0.7118
  425MPD2    H7 6349   2.660   3.460  16.916  0.1307  1.6098  2.6049
  426TMC3    C1 6350   2.549   3.398  16.692  0.5032  0.0054 -0.8660
  426TMC3    C2 6351   2.471   3.356  16.591 -0.4145  0.2625  0.0005
  426TMC3    C3 6352   2.515   3.248  16.510 -0.4804  0.2754 -0.4281
  426TMC3    C4 6353   2.669   3.336  16.712  1.1138  0.5034 -0.2834
  426TMC3    C5 6354   2.710   3.226  16.636 -0.1086 -0.8179 -0.4426
  426TMC3    C6 6355   2.634   3.181  16.535 -0.4247  0.3550  0.6971
  426TMC3     C 6356   2.516   3.516  16.775 -0.7452 -0.4779 -0.8678
  426TMC3     O 6357   2.417   3.580  16.750  0.9395  0.1163  0.3515
  426TMC3     H 6358   2.371   3.397  16.590 -1.0941 -1.3526  1.4332
  426TMC3    H1 6359   2.732   3.351  16.799 -1.7142 -1.5818  2.0831
  426TMC3    H2 6360   2.674   3.100  16.475 -0.3394  2.0349 -1.4763
  426TMC3    C7 6361   2.782   3.120  16.714 -0.6705 -0.6630  0.5499
  426TMC3    C8 6362   2.422   3.171  16.420  0.1085  0.4590 -0.6758
  426TMC3    O1 6363   2.904   3.115  16.696  0.0151  0.3753  0.5619
  426TMC3    O2 6364   2.471   3.072  16.360  0.1656 -0.1064 -1.0604
  427MPD2     C 6365   0.812   1.427  14.795  1.0302 -0.2794 -1.0372
  427MPD2    C1 6366   0.806   1.323  14.891  0.3620  0.5148  0.2114
  427MPD2    C2 6367   0.693   1.309  14.968 -0.1177  0.7081 -0.1008
  427MPD2    C3 6368   0.580   1.399  14.960  0.3032 -0.4909 -0.4295
  427MPD2    C4 6369   0.597   1.505  14.877  0.3615 -0.6737 -0.8335
  427MPD2    C5 6370   0.711   1.517  14.796 -0.2529  0.0325 -0.5292
  427MPD2     H 6371   0.693   1.222  15.033  0.2596  0.2664 -0.6872
  427MPD2    H1 6372   0.523   1.583  14.866  1.8608  0.6981 -1.2177
  427MPD2    H2 6373   0.895   1.441  14.726  3.9629 -2.7092  1.9989
  427MPD2    H3 6374   0.712   1.601  14.728  3.4691 -0.2519 -0.8035
  427MPD2     N 6375   0.463   1.392  15.035  0.1274  0.5356 -0.0511
  427MPD2    H5 6376   0.406   1.475  15.046 -0.8438 -0.3179  1.3848
  427MPD2    N1 6377   0.914   1.231  14.917  0.2927 -0.1385  0.1621
  427MPD2    H7 6378   0.898   1.167  14.995 -1.3507 -1.0359 -0.8990
  428TMC3    C1 6379   1.127   1.121  14.887  0.0391  0.1293 -1.0013
  428TMC3    C2 6380   1.087   1.013  14.961  0.2673  0.1969  0.0013
  428TMC3    C3 6381   1.190   0.958  15.028 -0.1990 -0.9436  0.0182
  428TMC3    C4 6382   1.253   1.174  14.881  0.0570  0.8833 -0.7650
  428TMC3    C5 6383   1.344   1.119  14.966 -0.3916  0.4220 -0.4398
  428TMC3    C6 6384   1.318   1.009  15.034 -0.2270 -0.2481  0.0967
  428TMC3     C 6385   1.028   1.222  14.842  0.7761 -0.2007 -0.0286
  428TMC3     O 6386   1.059   1.285  14.743 -0.1816  0.4410  0.1973
  428TMC3     H 6387   0.996   0.955  14.958 -0.7722  1.9201 -1.9002
  428TMC3    H1 6388   1.271   1.253  14.810  1.1364  0.1859 -1.2582
  428TMC3    H2 6389   1.401   0.978  15.097  0.2880  1.6638  0.3644
  428TMC3    C7 6390   1.485   1.161  14.957  0.3031 -0.2324  0.2686
  428TMC3    C8 6391   1.170   0.822  15.077  0.8037 -0.5062  0.5831
  428TMC3    O1 6392   1.555   1.118  15.047  0.4345 -0.3926  0.2410
  428TMC3    O2 6393   1.126   0.734  14.997  0.0354 -0.8063 -0.0589
  429MPD2     C 6394   2.578   1.201   0.239 -0.3310  0.4438  0.8789
  429MPD2    C1 6395   2.482   1.143   0.157 -0.3580  0.2540 -0.3163
  429MPD2    C2 6396   2.489   1.168   0.022 -0.3776 -0.0905  0.2926
  429MPD2    C3 6397   2.594   1.237  17.655 -0.6712 -0.3848 -0.4504
  429MPD2    C4 6398   2.691   1.291   0.041 -0.1082 -0.3252 -0.2047
  429MPD2    C5 6399   2.668   1.284   0.177 -0.6274 -0.0815  0.2837
  429MPD2     H 6400   2.413   1.122  17.658 -1.6561  0.4065  1.5196
  429MPD2    H1 6401   2.778   1.346   0.006 -1.0265  0.1510 -1.7156
  429MPD2    H2 6402   2.593   1.181   0.345 -1.0806 -0.5718  0.7949
  429MPD2    H3 6403   2.743   1.328   0.241 -1.2693  0.0873  0.9232
  429MPD2     N 6404   2.598   1.254  17.516  0.2702  0.1639 -0.3772
  429MPD2    H5 6405   2.521   1.211  17.464 -0.7026  0.1555  1.0886
  429MPD2    N1 6406   2.391   1.054   0.210 -0.8442  0.2428  0.0811
  429MPD2    H7 6407   2.354   0.983   0.148 -0.8931  0.1936  0.1664
  430TMC3    C1 6408   2.694   1.310  17.299 -0.4782 -0.1890  0.0581
  430TMC3    C2 6409   2.568   1.314  17.241  0.0012  0.5571 -0.0417
  430TMC3    C3 6410   2.566   1.323  17.102  0.1465 -0.7162 -0.0185
  430TMC3    C4 6411   2.810   1.331  17.232 -0.4941 -0.3373 -0.5779
  430TMC3    C5 6412   2.806   1.326  17.091 -0.4825 -0.1733 -0.4950
  430TMC3    C6 6413   2.685   1.329  17.027  0.2092 -0.2896  0.2739
  430TMC3     C 6414   2.703   1.308  17.448 -0.0952  0.1467  0.2608
  430TMC3     O 6415   2.818   1.332  17.491 -0.1144 -0.4178 -0.2800
  430TMC3     H 6416   2.474   1.288  17.289  0.9204 -1.4145  0.6967
  430TMC3    H1 6417   2.909   1.334  17.275 -0.2101 -2.7592 -1.0844
  430TMC3    H2 6418   2.673   1.329  16.920 -1.8699  0.9102  0.5202
  430TMC3    C7 6419   2.915   1.267  17.012 -0.2108  0.1382 -0.4278
  430TMC3    C8 6420   2.443   1.374  17.042  0.2327  0.3409 -0.0223
  430TMC3    O1 6421   2.886   1.226  16.899 -0.0244 -0.2639  0.6992
  430TMC3    O2 6422   2.442   1.366  16.920 -0.2833  0.5440 -1.1373
  431MPD2     C 6423   3.629   0.983  12.117 -0.9645 -0.3331  0.3473
  431MPD2    C1 6424   3.495   1.022  12.121 -0.0800 -0.1097 -0.7516
  431MPD2    C2 6425   3.406   0.951  12.037 -0.2715 -0.0790  0.1548
  431MPD2    C3 6426   3.449   0.850  11.961  0.1606 -0.8920  0.0273
  431MPD2    C4 6427   3.579   0.807  11.959  0.5731 -0.0132  0.6131
  431MPD2    C5 6428   3.667   0.864  12.048  1.5734  0.2225 -0.2181
  431MPD2     H 6429   3.307   0.994  12.032  0.4704  1.5858 -0.0591
  431MPD2    H1 6430   3.621   0.731  11.894 -1.4329 -0.9148  0.3961
  431MPD2    H2 6431   3.697   1.034  12.184  0.2216  0.5989 -1.5631
  431MPD2    H3 6432   3.773   0.841  12.051  1.2368 -1.0628  1.7491
  431MPD2     N 6433   3.352   0.786  11.878 -0.2317 -0.7164  0.4421
  431MPD2    H5 6434   3.390   0.722  11.809 -0.9413 -1.3975  0.6763
  431MPD2    N1 6435   3.446   1.137  12.195  0.0457  0.8300  0.0304
  431MPD2    H7 6436   3.345   1.149  12.196 -0.0540 -0.1246  0.9459
  432TMC3    C1 6437   3.159   0.694  11.791  0.3799  0.0551  0.3082
  432TMC3    C2 6438   3.218   0.648  11.672 -0.5274 -0.1970  0.0729
  432TMC3    C3 6439   3.211   0.516  11.646  0.3867 -0.1477  0.4524
  432TMC3    C4 6440   3.101   0.602  11.876 -0.3003  0.3305 -0.4372
  432TMC3    C5 6441   3.084   0.469  11.837  0.3764  0.8488 -0.1539
  432TMC3    C6 6442   3.140   0.425  11.721  0.1146  0.2182  0.4671
  432TMC3     C 6443   3.215   0.805  11.872 -0.6948 -0.3305  0.1202
  432TMC3     O 6444   3.138   0.876  11.930  0.1255  0.0840  0.0767
  432TMC3     H 6445   3.280   0.711  11.609  0.9417 -0.7948  0.9288
  432TMC3    H1 6446   3.070   0.640  11.972  0.0073  0.2855 -0.3213
  432TMC3    H2 6447   3.159   0.320  11.701 -0.2791  0.6540 -2.2469
  432TMC3    C7 6448   3.100   0.366  11.944 -0.2509  0.4062  0.2488
  432TMC3    C8 6449   3.286   0.464  11.533  0.5897  0.2275 -0.5266
  432TMC3    O1 6450   3.067   0.249  11.917  0.1587  0.2631 -0.5328
  432TMC3    O2 6451   3.251   0.353  11.488 -0.0337  0.2003  0.0048
  433MPD2     C 6452   1.837   4.447  10.592  0.1340  0.0442 -0.1556
  433MPD2    C1 6453   1.868   4.360  10.701  0.4438 -0.9404 -1.2545
  433MPD2    C2 6454   1.925   4.421  10.813 -1.0032  0.9564  0.0037
  433MPD2    C3 6455   1.947   4.566  10.817 -0.7008  0.3259  0.6346
  433MPD2    C4 6456   1.904   4.646  10.712 -0.3255  0.0444 -0.3034
  433MPD2    C5 6457   1.863   4.584  10.591 -0.0791 -0.0191 -0.5092
  433MPD2     H 6458   1.955   4.354  10.892  3.0416  1.5132 -1.0409
  433MPD2    H1 6459   1.913   0.030  10.709 -1.9207  0.1741 -0.3905
  433MPD2    H2 6460   1.795   4.411  10.499 -0.5360  1.5559 -0.4393
  433MPD2    H3 6461   1.842   4.653  10.510 -0.5682  0.8595  0.3540
  433MPD2     N 6462   2.005   4.618  10.938  0.2349  0.1262  0.1414
  433MPD2    H5 6463   2.009   4.563  11.023 -2.1324  1.4484  1.1020
  433MPD2    N1 6464   1.846   4.220  10.683 -0.2207  0.0587  0.0531
  433MPD2    H7 6465   1.807   4.191  10.594 -0.0735  1.3829 -0.4428
  434TMC3    C1 6466   1.888   3.989  10.707 -0.3310 -0.1280  0.4415
  434TMC3    C2 6467   1.980   3.913  10.783  1.0951 -0.3373 -0.1060
  434TMC3    C3 6468   2.073   3.832  10.723 -0.1198 -0.5962  0.2634
  434TMC3    C4 6469   1.895   3.975  10.570  0.6620  0.2263  0.2205
  434TMC3    C5 6470   1.981   3.883  10.513 -0.1432  0.1502  0.5180
  434TMC3    C6 6471   2.073   3.818  10.586  0.4681 -0.3186 -0.0538
  434TMC3     C 6472   1.862   4.121  10.774 -0.1596  0.1324 -0.1908
  434TMC3     O 6473   1.885   4.118  10.893 -0.2743 -0.0836 -0.0867
  434TMC3     H 6474   1.973   3.921  10.891 -1.9405 -2.1622 -0.1530
  434TMC3    H1 6475   1.825   4.026  10.505  1.1773  2.2710  1.2568
  434TMC3    H2 6476   2.151   3.761  10.536 -0.7698 -1.4348 -0.7072
  434TMC3    C7 6477   1.939   3.846  10.373  0.3752 -0.1978  0.7139
  434TMC3    C8 6478   2.185   3.790  10.804  0.4058 -0.2013 -0.7125
  434TMC3    O1 6479   1.853   3.911  10.314  0.2078 -0.1383  0.1770
  434TMC3    O2 6480   2.171   3.825  10.922  0.4659 -0.3110  0.3264
  435MPD2     C 6481   3.821   4.599  15.306  0.6122 -0.0733 -0.4552
  435MPD2    C1 6482   3.795   4.602  15.441 -0.3876  0.1939  0.6694
  435MPD2    C2 6483   3.884   4.543  15.526  0.1407 -0.0213 -0.1890
  435MPD2    C3 6484   4.007   4.490  15.484  0.0863  0.1487 -0.3482
  435MPD2    C4 6485   4.030   4.501  15.348 -0.1594  0.4810  0.1491
  435MPD2    C5 6486   3.934   4.543  15.260  0.7428 -0.0488  0.2984
  435MPD2     H 6487   3.859   4.557  15.631 -0.8422 -0.4939 -0.3601
  435MPD2    H1 6488   4.124   4.479  15.299 -0.0488  0.8727  0.1898
  435MPD2    H2 6489   3.748   4.638  15.236 -0.8709  0.5536  1.4619
  435MPD2    H3 6490   3.958   4.555  15.155 -1.9203  0.7229 -0.2243
  435MPD2     N 6491   4.103   4.452  15.585  0.3498  0.1536 -0.2476
  435MPD2    H5 6492   4.083   4.466  15.684 -1.4353  0.1448 -0.6085
  435MPD2    N1 6493   3.675   4.665  15.489 -0.1676  0.5521  1.0091
  435MPD2    H7 6494   3.648   4.653  15.587 -2.6391  0.8401  0.3683
  436TMC3    C1 6495   3.290   0.050  15.560 -0.4437  0.5769 -0.8571
  436TMC3    C2 6496   3.416   0.007  15.533  0.5897  0.4903  0.1889
  436TMC3    C3 6497   3.502   0.098  15.471  0.0484  0.8478 -0.3212
  436TMC3    C4 6498   3.244   0.173  15.527  0.1591 -0.1272  0.3362
  436TMC3    C5 6499   3.334   0.261  15.476 -0.0608 -0.9435 -0.4186
  436TMC3    C6 6500   3.465   0.224  15.440  0.0834 -0.2904 -0.6742
  436TMC3     C 6501   3.221   4.717  15.673  0.1315 -0.2202 -0.6094
  436TMC3     O 6502   3.240   4.601  15.702  0.4039  0.6340 -0.0363
  436TMC3     H 6503   3.450   4.636  15.573  1.6745  1.1697  0.8557
  436TMC3    H1 6504   3.136   0.183  15.537  0.0810  0.8198 -1.4120
  436TMC3    H2 6505   3.542   0.278  15.386 -0.6566  2.1663  0.7217
  436TMC3    C7 6506   3.289   0.396  15.449  0.2508 -0.7014 -0.7248
  436TMC3    C8 6507   3.628   0.050  15.428 -0.2373  0.3041  0.6213
  436TMC3    O1 6508   3.172   0.413  15.470 -0.2995  0.4974 -0.5656
  436TMC3    O2 6509   3.684   0.113  15.338 -0.4652  0.2894 -0.2917
  437TMC3    C1 6510   2.733   1.798  12.878 -0.3147  0.1723 -0.2669
  437TMC3    C2 6511   2.606   1.796  12.925 -0.3931  0.2839 -0.1791
  437TMC3    C3 6512   2.506   1.865  12.865 -0.7254 -0.6175 -0.6123
  437TMC3    C4 6513   2.765   1.886  12.770 -0.4846  0.1128 -0.1788
  437TMC3    C5 6514   2.660   1.957  12.712 -0.4079  0.5840 -1.3736
  437TMC3    C6 6515   2.531   1.950  12.758 -0.1628  0.3960  0.2742
  437TMC3     C 6516   2.820   1.681  12.878 -0.1399  0.2551  0.0855
  437TMC3     O 6517   2.904   1.671  12.790  0.0380 -0.1277  0.0056
  437TMC3     H 6518   2.581   1.712  12.989  0.0867  1.0274  0.9761
  437TMC3    H1 6519   2.868   1.906  12.742  0.3375 -1.7362  1.5030
  437TMC3    H2 6520   2.447   2.006  12.718  0.2673  0.2659 -0.7974
  437TMC3    C7 6521   2.690   2.032  12.590 -0.9048 -0.2722 -0.1506
  437TMC3    C8 6522   2.375   1.845  12.918 -0.2738  0.0990 -0.0858
  437TMC3    O1 6523   2.591   2.084  12.536  0.4242 -0.4120 -0.2036
  437TMC3    O2 6524   2.365   1.812  13.034  0.1886  0.0574  0.3489
  438MPD2     C 6525   0.065   2.305  16.731 -0.0487 -1.4845 -0.0432
  438MPD2    C1 6526   0.196   2.258  16.737 -0.3183  0.4989 -0.0383
  438MPD2    C2 6527   0.269   2.251  16.857 -0.7536  0.1675 -0.0825
  438MPD2    C3 6528   0.191   2.285  16.967 -0.1997 -0.0344 -0.0954
  438MPD2    C4 6529   0.071   2.345  16.961  0.2144  0.2965  0.1826
  438MPD2    C5 6530   0.008   2.354  16.840  0.4155 -0.0679 -0.1227
  438MPD2     H 6531   0.369   2.210  16.851 -0.0790  2.0763 -1.8530
  438MPD2    H1 6532   0.014   2.371  17.049 -1.0239  1.2227 -0.8858
  438MPD2    H2 6533   0.011   2.325  16.639  1.3698 -0.8893 -0.7432
  438MPD2    H3 6534   4.630   2.388  16.831 -0.3334 -1.9952  1.2160
  438MPD2     N 6535   0.238   2.243  17.098  0.6760  0.3968  0.2514
  438MPD2    H5 6536   0.179   2.266  17.177  0.0370  0.2839 -0.1958
  438MPD2    N1 6537   0.264   2.219  16.620  0.3025  0.0781  0.0277
  438MPD2    H7 6538   0.357   2.179  16.633  0.3885  0.2257 -0.1299
  439TMC3    C1 6539   0.296   2.123  16.417 -0.2076 -0.1385  0.8685
  439TMC3    C2 6540   0.324   2.168  16.286 -0.5896 -0.0140 -0.1527
  439TMC3    C3 6541   0.434   2.107  16.227  0.1712 -0.2774  0.4561
  439TMC3    C4 6542   0.367   2.021  16.474 -0.8800 -0.4310  0.1656
  439TMC3    C5 6543   0.472   1.957  16.407 -0.2530  0.0840  0.5630
  439TMC3    C6 6544   0.500   2.004  16.280  0.3975 -0.4480 -0.2335
  439TMC3     C 6545   0.208   2.203  16.496  0.2505  0.1109  1.3793
  439TMC3     O 6546   0.109   2.251  16.443 -0.1238  0.0037 -0.6855
  439TMC3     H 6547   0.265   2.248  16.243  0.7720  0.6645 -0.7716
  439TMC3    H1 6548   0.340   1.994  16.576 -0.9376 -0.4392  0.1482
  439TMC3    H2 6549   0.589   1.961  16.237 -0.0531 -1.9714  0.3582
  439TMC3    C7 6550   0.585   1.921  16.496 -0.0938 -0.4621  0.0692
  439TMC3    C8 6551   0.482   2.143  16.092  0.6212  0.6701  0.0249
  439TMC3    O1 6552   0.574   1.958  16.612  0.4903  0.2929 -0.4084
  439TMC3    O2 6553   0.519   2.045  16.024  0.0831  0.2965  0.1575
  440MPD2     C 6554   3.769   3.244  14.666  0.8218 -0.5258 -0.1482
  440MPD2    C1 6555   3.775   3.135  14.755  0.4150 -0.6167 -0.1801
  440MPD2    C2 6556   3.895   3.059  14.775 -0.9273 -0.5427  0.4541
  440MPD2    C3 6557   4.018   3.106  14.728 -0.6028  0.2828  0.0600
  440MPD2    C4 6558   4.010   3.218  14.649  0.0457  0.6169  0.7415
  440MPD2    C5 6559   3.892   3.286  14.610  0.1693 -0.5613  0.3194
  440MPD2     H 6560   3.886   2.963  14.824  0.7466 -0.3737  1.0812
  440MPD2    H1 6561   4.105   3.247  14.607 -0.8719  2.0466 -0.3241
  440MPD2    H2 6562   3.683   3.302  14.635  0.9263 -0.3339 -0.0792
  440MPD2    H3 6563   3.894   3.372  14.545 -0.4505 -0.0430  0.9916
  440MPD2     N 6564   4.145   3.054  14.765 -0.3756  0.1765  0.3654
  440MPD2    H5 6565   4.231   3.107  14.760 -0.4424  0.4398  1.8318
  440MPD2    N1 6566   3.669   3.104  14.844  0.3956 -0.4079  0.4613
  440MPD2    H7 6567   3.683   3.023  14.903  0.4258 -0.0373  0.9584
  441TMC3    C1 6568   4.275   2.940  14.921  0.1261 -0.1472 -0.7903
  441TMC3    C2 6569   4.320   3.063  14.963  0.0398 -0.1060 -0.4511
  441TMC3    C3 6570   4.405   3.071  15.072 -0.2309  0.7326  0.1960
  441TMC3    C4 6571   4.303   2.830  14.989  0.3284  0.4695 -0.0523
  441TMC3    C5 6572   4.378   2.841  15.100  0.5876  0.0898  0.0851
  441TMC3    C6 6573   4.439   2.960  15.140 -0.7819 -0.0384  0.4553
  441TMC3     C 6574   4.154   2.933  14.834  0.1940 -0.1793  1.1629
  441TMC3     O 6575   4.084   2.832  14.832  0.1149  0.2211 -0.1936
  441TMC3     H 6576   4.279   3.153  14.917 -0.5264 -0.6265 -0.9612
  441TMC3    H1 6577   4.253   2.736  14.967 -0.6213  1.3497 -1.6706
  441TMC3    H2 6578   4.484   2.971  15.238  0.0241 -3.3198  0.4470
  441TMC3    C7 6579   4.378   2.717  15.184  0.0628 -0.7108 -0.4321
  441TMC3    C8 6580   4.390   3.183  15.164  0.4667  0.2399  0.7194
  441TMC3    O1 6581   4.334   2.613  15.139 -0.6029  0.1171  0.3596
  441TMC3    O2 6582   4.491   3.251  15.183 -0.0499  0.2079 -0.0616
  442MPD2     C 6583   1.899   3.577  16.570 -0.5277 -0.2752 -0.1107
  442MPD2    C1 6584   1.801   3.497  16.522 -0.0107 -0.0362  0.0167
  442MPD2    C2 6585   1.820   3.434  16.403  0.2294  0.4027 -0.9210
  442MPD2    C3 6586   1.938   3.445  16.332  0.0106  0.0627 -1.2387
  442MPD2    C4 6587   2.048   3.508  16.387  0.1340  0.1063 -0.8958
  442MPD2    C5 6588   2.025   3.576  16.508 -0.3836  0.1884 -0.0565
  442MPD2     H 6589   1.738   3.371  16.370 -0.7027  0.1029  1.9142
  442MPD2    H1 6590   2.146   3.518  16.342  1.9117 -0.2011  2.8786
  442MPD2    H2 6591   1.887   3.641  16.658 -1.0730  1.3985 -1.4056
  442MPD2    H3 6592   2.101   3.636  16.555 -0.5176  0.7066 -0.4992
  442MPD2     N 6593   1.967   3.382  16.205 -0.1547 -0.0873  0.3695
  442MPD2    H5 6594   2.064   3.394  16.178 -0.1861 -1.0869 -0.1945
  442MPD2    N1 6595   1.670   3.508  16.565  0.0206  0.3057 -0.1319
  442MPD2    H7 6596   1.591   3.486  16.505 -1.1802 -0.0120  1.5723
  443TMC3    C1 6597   1.487   3.537  16.702 -0.5189  0.0595  0.4016
  443TMC3    C2 6598   1.416   3.603  16.597  0.1631  0.2339 -0.1983
  443TMC3    C3 6599   1.280   3.612  16.618 -0.1740 -0.3259  0.8157
  443TMC3    C4 6600   1.434   3.510  16.825 -0.8037 -0.2436  0.8121
  443TMC3    C5 6601   1.300   3.537  16.848 -0.0466  0.7517 -0.4799
  443TMC3    C6 6602   1.224   3.577  16.744 -0.0731  0.6861 -0.1671
  443TMC3     C 6603   1.630   3.533  16.695  0.0574 -1.0357 -0.4159
  443TMC3     O 6604   1.691   3.528  16.798 -0.5864 -0.0274 -0.1427
  443TMC3     H 6605   1.465   3.631  16.504  0.4154 -0.5699 -0.3112
  443TMC3    H1 6606   1.485   3.473  16.913 -1.4326 -0.5876  1.0346
  443TMC3    H2 6607   1.117   3.589  16.751 -0.1818  0.8566 -2.0931
  443TMC3    C7 6608   1.225   3.434  16.914  0.3449  0.6428 -0.0966
  443TMC3    C8 6609   1.192   3.628  16.501  0.5259 -0.0208 -0.0931
  443TMC3    O1 6610   1.150   3.368  16.839  0.4420 -0.0869 -1.1072
  443TMC3    O2 6611   1.102   3.545  16.490  0.0292 -0.5395  0.1188
  444MPD2     C 6612   2.225   2.899  16.664 -0.8277 -0.3627  0.0747
  444MPD2    C1 6613   2.127   2.803  16.660  0.3715  0.4790  0.4251
  444MPD2    C2 6614   2.151   2.679  16.608  0.1317  0.4485 -0.4413
  444MPD2    C3 6615   2.284   2.644  16.573  0.2469  0.0007 -0.2800
  444MPD2    C4 6616   2.380   2.745  16.573 -0.8660  0.1493  0.6571
  444MPD2    C5 6617   2.355   2.874  16.617  0.0497  0.0554  0.6579
  444MPD2     H 6618   2.077   2.601  16.596  0.5720  0.0683 -0.7031
  444MPD2    H1 6619   2.482   2.725  16.543 -0.8875  1.0547  0.0012
  444MPD2    H2 6620   2.207   3.004  16.686 -1.1024 -0.4315  0.1807
  444MPD2    H3 6621   2.430   2.953  16.614  0.5806 -0.5088 -0.7879
  444MPD2     N 6622   2.310   2.507  16.556 -0.4004 -0.1920  0.3659
  444MPD2    H5 6623   2.230   2.446  16.547  0.2474 -0.9635 -0.2117
  444MPD2    N1 6624   1.992   2.838  16.687  0.1598  0.0840 -0.6227
  444MPD2    H7 6625   1.922   2.775  16.651 -1.3624  0.6054  1.4180
  445TMC3    C1 6626   2.458   2.304  16.572  0.4544 -0.0518 -0.2009
  445TMC3    C2 6627   2.362   2.227  16.516 -0.1196 -0.4562  0.5846
  445TMC3    C3 6628   2.391   2.099  16.499 -0.2646 -0.4613 -0.0754
  445TMC3    C4 6629   2.577   2.253  16.606 -0.4247  0.2865 -0.0714
  445TMC3    C5 6630   2.610   2.129  16.575 -0.8203  0.4205 -0.1930
  445TMC3    C6 6631   2.514   2.042  16.535  0.4055  0.7626 -0.4579
  445TMC3     C 6632   2.441   2.449  16.566  0.2145  0.2714 -0.1714
  445TMC3     O 6633   2.548   2.500  16.587 -0.1841  0.1061  0.3146
  445TMC3     H 6634   2.277   2.275  16.467 -0.8471  0.1420  2.4175
  445TMC3    H1 6635   2.656   2.321  16.635 -1.9722  0.7963  2.9148
  445TMC3    H2 6636   2.538   1.937  16.523  1.6109  1.0024 -0.1316
  445TMC3    C7 6637   2.749   2.093  16.555 -0.2328  0.7993 -0.0964
  445TMC3    C8 6638   2.315   2.029  16.406  0.6878 -0.5765  0.1586
  445TMC3    O1 6639   2.776   2.002  16.480  0.0593 -0.2259  0.6248
  445TMC3    O2 6640   2.381   1.950  16.338  0.2740  0.2680 -0.5615
  446MPD2     C 6641   1.945   3.747  11.336 -0.4003 -0.5002  0.3682
  446MPD2    C1 6642   1.869   3.797  11.232 -0.2512  0.6498 -0.4117
  446MPD2    C2 6643   1.909   3.898  11.155 -0.3778 -0.2237 -0.2157
  446MPD2    C3 6644   2.032   3.966  11.186  0.5592  0.0750 -0.0342
  446MPD2    C4 6645   2.094   3.926  11.301  0.7000 -0.3365  0.1629
  446MPD2    C5 6646   2.054   3.821  11.374  0.1403  0.5180 -0.6039
  446MPD2     H 6647   1.860   3.930  11.064 -2.6311  0.3578  1.2141
  446MPD2    H1 6648   2.184   3.976  11.336 -0.2553  2.0884 -0.8040
  446MPD2    H2 6649   1.926   3.660  11.398 -2.0839 -0.3445  0.0622
  446MPD2    H3 6650   2.114   3.802  11.463 -1.9781  1.3946  1.0207
  446MPD2     N 6651   2.074   4.075  11.107 -0.1863  0.0051 -0.4609
  446MPD2    H5 6652   2.011   4.103  11.033 -2.3087 -1.9882  0.5886
  446MPD2    N1 6653   1.739   3.742  11.205 -0.4878 -0.5555  0.6089
  446MPD2    H7 6654   1.695   3.776  11.120 -0.8036 -1.9825  0.2126
  447TMC3    C1 6655   2.228   4.232  11.023  0.0150  0.0663 -0.8033
  447TMC3    C2 6656   2.198   4.194  10.892  0.1679 -0.2519  0.5389
  447TMC3    C3 6657   2.281   4.235  10.795  0.5039 -0.1076  0.5138
  447TMC3    C4 6658   2.325   4.320  11.060 -0.1338  0.8355  0.5727
  447TMC3    C5 6659   2.411   4.348  10.953  0.0965  0.3587 -0.8347
  447TMC3    C6 6660   2.386   4.317  10.822  0.5290  0.2501 -0.2118
  447TMC3     C 6661   2.189   4.147  11.133  0.3178  0.0043 -0.0255
  447TMC3     O 6662   2.275   4.132  11.220 -0.1580 -0.2335 -0.3158
  447TMC3     H 6663   2.125   4.119  10.863  0.9231 -0.6875 -0.2277
  447TMC3    H1 6664   2.361   4.323  11.162 -0.0171  2.4839  0.4819
  447TMC3    H2 6665   2.454   4.348  10.743  0.8956  3.4310  1.3499
  447TMC3    C7 6666   2.547   4.365  10.983 -0.0823 -0.8694  0.0136
  447TMC3    C8 6667   2.272   4.171  10.666 -0.6223  0.2996 -0.2807
  447TMC3    O1 6668   2.622   4.340  10.892 -0.7868 -0.0009 -0.5199
  447TMC3    O2 6669   2.163   4.153  10.622 -0.0271  0.2342 -0.6904
  448TMC3    C1 6670   0.582   4.128  17.342 -0.4983 -0.3928  0.1118
  448TMC3    C2 6671   0.600   4.108  17.211  0.2331 -0.1695 -0.8125
  448TMC3    C3 6672   0.682   3.999  17.174 -1.0157 -0.1307  0.3775
  448TMC3    C4 6673   0.621   4.036  17.436  0.1575  0.4411 -0.6834
  448TMC3    C5 6674   0.701   3.932  17.394  0.2372 -0.0786 -0.5514
  448TMC3    C6 6675   0.731   3.914  17.265  0.7783  0.9932 -0.0635
  448TMC3     C 6676   0.488   4.231  17.381  0.4356 -0.4838  0.4506
  448TMC3     O 6677   0.447   4.230  17.496  0.6040 -0.2155 -0.9601
  448TMC3     H 6678   0.560   4.165  17.128  0.0353  0.2792 -0.4153
  448TMC3    H1 6679   0.610   4.054  17.542 -0.6865 -1.2285 -0.4862
  448TMC3    H2 6680   0.804   3.841  17.231 -1.1721 -0.2645 -1.5700
  448TMC3    C7 6681   0.774   3.859  17.499  0.7156 -0.2355 -0.1159
  448TMC3    C8 6682   0.725   3.994  17.035  0.3775  0.1479 -0.3344
  448TMC3    O1 6683   0.752   3.881  17.621 -0.1497 -0.3763  0.5612
  448TMC3    O2 6684   0.722   4.096  16.974 -0.3346  0.6095  0.5602
  449MPD2     C 6685   1.595   2.002  14.060 -0.0477 -0.3026  0.0831
  449MPD2    C1 6686   1.547   2.099  13.980 -0.1131  0.1083  0.8188
  449MPD2    C2 6687   1.411   2.109  13.961  0.2962  0.8796 -0.5894
  449MPD2    C3 6688   1.317   2.028  14.019  0.2938  0.2584  0.2662
  449MPD2    C4 6689   1.370   1.929  14.095  0.4256  0.0209 -1.1052
  449MPD2    C5 6690   1.503   1.920  14.124  0.3085  0.3178 -0.1686
  449MPD2     H 6691   1.380   2.197  13.907 -0.4570  0.3400 -1.0236
  449MPD2    H1 6692   1.300   1.864  14.146  1.1183 -0.0730 -0.2782
  449MPD2    H2 6693   1.697   1.993  14.093  0.3570  0.0374 -1.0832
  449MPD2    H3 6694   1.545   1.838  14.181 -2.5652 -1.3611 -0.4839
  449MPD2     N 6695   1.183   2.044  13.983  0.2165 -0.1713 -0.0783
  449MPD2    H5 6696   1.167   2.116  13.914  0.2321  0.2777  0.3893
  449MPD2    N1 6697   1.625   2.204  13.934  0.4291 -0.3861  0.0903
  449MPD2    H7 6698   1.570   2.277  13.890 -1.9854 -1.7789  0.7963
  450TMC3    C1 6699   1.806   2.305  13.823  0.0493  0.4469  0.8462
  450TMC3    C2 6700   1.864   2.275  13.706 -0.0713  0.0593  0.5382
  450TMC3    C3 6701   1.824   2.342  13.595  0.0326 -0.1529 -0.4721
  450TMC3    C4 6702   1.717   2.406  13.834 -0.9389 -1.0403  0.1550
  450TMC3    C5 6703   1.670   2.472  13.724 -0.3286 -0.2677  0.1768
  450TMC3    C6 6704   1.721   2.433  13.600  0.2776  0.0392  0.4407
  450TMC3     C 6705   1.759   2.195  13.901  0.0659 -0.2725  0.3361
  450TMC3     O 6706   1.844   2.105  13.918  0.3267  0.0590  0.1129
  450TMC3     H 6707   1.915   2.180  13.705 -3.6259 -1.8019 -1.3754
  450TMC3    H1 6708   1.680   2.432  13.933  0.1270 -0.0278  0.2962
  450TMC3    H2 6709   1.688   2.494  13.517 -1.2188  1.2257  1.8937
  450TMC3    C7 6710   1.525   2.481  13.744 -0.0559  1.5596  0.2650
  450TMC3    C8 6711   1.872   2.291  13.469  0.0776  0.1264  0.2357
  450TMC3    O1 6712   1.486   2.413  13.837  0.3764 -0.7235  0.5610
  450TMC3    O2 6713   1.786   2.299  13.381  0.4414 -0.0281 -0.3396
  451MPD2     C 6714   3.412   0.724   0.936 -0.1794  0.4694  0.6154
  451MPD2    C1 6715   3.285   0.728   0.995  0.9023  0.3169 -0.1382
  451MPD2    C2 6716   3.206   0.613   0.992 -0.3942  0.2425 -0.0242
  451MPD2    C3 6717   3.252   0.497   0.942  0.0895 -0.0304  0.5483
  451MPD2    C4 6718   3.384   0.489   0.903 -0.6466  0.8830 -0.5625
  451MPD2    C5 6719   3.459   0.602   0.908  0.6894  0.0233  0.2483
  451MPD2     H 6720   3.099   0.620   1.012 -0.5852  0.7013 -1.1721
  451MPD2    H1 6721   3.422   0.393   0.870 -1.1537  1.2601 -2.2499
  451MPD2    H2 6722   3.483   0.806   0.935  0.4021 -0.0444 -1.1131
  451MPD2    H3 6723   3.565   0.595   0.887  0.5310  0.9444 -0.8476
  451MPD2     N 6724   3.173   0.380   0.925  0.2143  0.1125 -0.0615
  451MPD2    H5 6725   3.225   0.300   0.891 -1.3688 -0.3261 -1.4693
  451MPD2    N1 6726   3.237   0.851   1.046  0.2890  0.6551  0.7099
  451MPD2    H7 6727   3.303   0.929   1.046 -1.0052  1.7590 -0.0886
  452TMC3    C1 6728   2.981   0.243   0.936  0.2161 -0.7222  0.2061
  452TMC3    C2 6729   2.894   0.191   1.027  0.2322 -0.2105 -1.2565
  452TMC3    C3 6730   2.811   0.093   0.987  0.0177  0.8373 -0.2292
  452TMC3    C4 6731   2.993   0.189   0.818  0.4375 -0.2723  0.3928
  452TMC3    C5 6732   2.911   0.090   0.781  0.2891  0.3739 -0.4580
  452TMC3    C6 6733   2.817   0.042   0.860  0.3677  0.5577 -0.4624
  452TMC3     C 6734   3.042   0.371   0.956  0.6884  0.3509  0.3720
  452TMC3     O 6735   2.974   0.446   1.021  0.0103 -0.4430 -0.2980
  452TMC3     H 6736   2.882   0.238   1.124 -0.6204 -1.2693 -0.8512
  452TMC3    H1 6737   3.053   0.245   0.747  1.5012  1.6219  2.7923
  452TMC3    H2 6738   2.740   4.700   0.821  0.4091  0.2289  0.0038
  452TMC3    C7 6739   2.943   0.043   0.646 -0.0030 -0.2403 -0.1650
  452TMC3    C8 6740   2.709   0.041   1.082  0.1425 -0.0364 -0.4069
  452TMC3    O1 6741   3.017   0.111   0.573 -0.1668 -0.2614  0.0684
  452TMC3    O2 6742   2.682   0.113   1.179  0.2436  0.3635 -0.4507
  453TMC3    C1 6743   4.070   3.257  11.589 -0.0783 -0.3517 -0.1939
  453TMC3    C2 6744   4.003   3.138  11.615 -0.1773 -0.0584  0.2760
  453TMC3    C3 6745   3.934   3.074  11.512  0.3544 -0.3861  0.1458
  453TMC3    C4 6746   4.070   3.320  11.466 -0.4265  0.0063  0.0059
  453TMC3    C5 6747   3.996   3.254  11.370 -0.8547 -0.3044 -0.0447
  453TMC3    C6 6748   3.919   3.139  11.393 -0.4053 -0.2721 -0.0768
  453TMC3     C 6749   4.153   3.308  11.693  0.5395  0.5990 -1.5093
  453TMC3     O 6750   4.255   3.373  11.670  0.3077  0.0482 -0.0496
  453TMC3     H 6751   4.023   3.089  11.710 -2.6078 -0.1765  0.7331
  453TMC3    H1 6752   4.105   3.423  11.460  1.4180 -0.7959 -2.7774
  453TMC3    H2 6753   3.882   3.082  11.308  0.9968 -0.0798 -0.8182
  453TMC3    C7 6754   4.061   3.260  11.238 -0.4889 -0.2088 -0.0144
  453TMC3    C8 6755   3.890   2.938  11.524  1.4631  0.2428  1.2109
  453TMC3    O1 6756   4.065   3.149  11.180 -0.0558 -0.1736  0.6231
  453TMC3    O2 6757   3.820   2.894  11.433  0.5666 -0.0506  0.8084
  454MPD2     C 6758   2.856   2.370  16.276  0.9946 -0.8881 -0.4747
  454MPD2    C1 6759   2.813   2.498  16.281  0.7649  0.2367 -0.0211
  454MPD2    C2 6760   2.677   2.519  16.270 -1.0239  0.0315  0.3548
  454MPD2    C3 6761   2.587   2.411  16.250 -0.4275  0.8179  0.4403
  454MPD2    C4 6762   2.631   2.284  16.243  1.1568 -0.1531 -0.7009
  454MPD2    C5 6763   2.765   2.267  16.258 -0.5540  0.1749  0.0111
  454MPD2     H 6764   2.635   2.618  16.286  1.0051  0.7649  1.1379
  454MPD2    H1 6765   2.565   2.199  16.255  4.0788 -2.2578  0.5761
  454MPD2    H2 6766   2.959   2.346  16.300  1.5023 -1.1347 -2.9090
  454MPD2    H3 6767   2.787   2.161  16.265  2.8251  0.6284 -3.6061
  454MPD2     N 6768   2.451   2.435  16.235  0.0975  0.0726 -0.9399
  454MPD2    H5 6769   2.419   2.531  16.231 -2.8214 -0.8190  1.4218
  454MPD2    N1 6770   2.912   2.600  16.274  0.4065 -0.3183  0.3282
  454MPD2    H7 6771   3.009   2.576  16.261  0.2443 -0.9058  0.2238
  455TMC3    C1 6772   2.227   2.396  16.154 -0.1155  0.0430 -0.3617
  455TMC3    C2 6773   2.185   2.511  16.222 -0.3379  0.8698 -1.2769
  455TMC3    C3 6774   2.061   2.555  16.182 -0.3020 -0.9743 -0.5072
  455TMC3    C4 6775   2.149   2.347  16.057  0.4218 -0.2936 -0.2923
  455TMC3    C5 6776   2.026   2.385  16.026  0.7005 -0.3113  0.0727
  455TMC3    C6 6777   1.975   2.488  16.097  0.3706  0.4336  0.2039
  455TMC3     C 6778   2.359   2.349  16.169  0.5373  0.1385 -0.2603
  455TMC3     O 6779   2.382   2.239  16.119  0.1935 -0.0487 -0.3238
  455TMC3     H 6780   2.240   2.557  16.303 -0.4268  1.2574 -1.4339
  455TMC3    H1 6781   2.191   2.272  15.991  2.4835  3.0984 -2.8324
  455TMC3    H2 6782   1.882   2.533  16.064  0.2898 -0.7293 -1.1353
  455TMC3    C7 6783   1.954   2.331  15.917  0.0895 -0.3260  0.2294
  455TMC3    C8 6784   2.012   2.684  16.238 -0.0680  0.2196  0.2883
  455TMC3    O1 6785   1.838   2.306  15.936 -0.3083 -0.5218 -0.0945
  455TMC3    O2 6786   1.889   2.691  16.241 -0.3145 -0.2978 -0.4818
  456MPD2     C 6787   0.762   2.882  15.901 -0.4181 -0.3933  0.6568
  456MPD2    C1 6788   0.867   2.822  15.966  0.3136  0.2706 -0.4167
  456MPD2    C2 6789   0.902   2.859  16.095  0.2049  0.3781  0.2730
  456MPD2    C3 6790   0.841   2.973  16.146 -0.2965  0.1976  0.2677
  456MPD2    C4 6791   0.737   3.043  16.076  0.0958 -0.7761 -0.1349
  456MPD2    C5 6792   0.699   2.995  15.954 -0.2446 -1.1431 -0.0631
  456MPD2     H 6793   0.981   2.811  16.151 -1.3205 -1.1064  1.1380
  456MPD2    H1 6794   0.706   3.143  16.105  1.2616 -1.0884  2.2409
  456MPD2    H2 6795   0.729   2.848  15.804  1.4706  1.3658 -0.5805
  456MPD2    H3 6796   0.624   3.053  15.901  0.2292  1.5530  2.1971
  456MPD2     N 6797   0.878   3.019  16.272 -0.0968  0.1637  0.7910
  456MPD2    H5 6798   0.934   2.951  16.323  0.7348  1.0969  1.1305
  456MPD2    N1 6799   0.916   2.708  15.899  0.0504  0.6165  0.2503
  456MPD2    H7 6800   0.904   2.701  15.799 -0.2191 -0.2171  0.3435
  457TMC3    C1 6801   0.869   3.148  16.477 -0.5106  0.0668 -0.3887
  457TMC3    C2 6802   0.865   3.273  16.534  0.4488 -0.2994 -0.6648
  457TMC3    C3 6803   0.831   3.290  16.668 -0.1364 -0.7932  0.5771
  457TMC3    C4 6804   0.851   3.031  16.558  0.9915  0.0129 -0.1386
  457TMC3    C5 6805   0.841   3.055  16.693 -0.0039  0.0756  0.0498
  457TMC3    C6 6806   0.822   3.180  16.748  0.2214  0.4861  0.4856
  457TMC3     C 6807   0.849   3.144  16.332 -1.0462  0.6428 -0.1311
  457TMC3     O 6808   0.770   3.231  16.298  0.0287  0.1884  0.0987
  457TMC3     H 6809   0.877   3.359  16.468 -2.3651  1.5930  1.2747
  457TMC3    H1 6810   0.853   2.931  16.517  0.9130 -0.2423  0.4757
  457TMC3    H2 6811   0.813   3.193  16.855 -0.5305 -1.1824  0.6305
  457TMC3    C7 6812   0.821   2.945  16.793  0.2551  0.5950  0.5389
  457TMC3    C8 6813   0.832   3.425  16.735  0.2473 -0.0159  0.1957
  457TMC3    O1 6814   0.820   2.982  16.909  0.4032  0.4288  0.1301
  457TMC3    O2 6815   0.806   3.423  16.859  0.1906 -0.4646 -0.0337
  458MPD2     C 6816   3.005   2.262  12.257 -0.6086  0.0244 -0.8634
  458MPD2    C1 6817   3.075   2.176  12.341  0.2367 -1.2503 -0.4074
  458MPD2    C2 6818   3.008   2.089  12.425  0.2564  1.1337 -0.0672
  458MPD2    C3 6819   2.875   2.094  12.438 -0.8285  0.6145  0.1655
  458MPD2    C4 6820   2.802   2.186  12.357  0.0127 -0.3092 -0.1256
  458MPD2    C5 6821   2.867   2.262  12.263 -0.2084 -0.8475 -0.5574
  458MPD2     H 6822   3.062   2.023  12.492 -2.1558 -0.3937  0.3865
  458MPD2    H1 6823   2.694   2.186  12.370  0.4695 -0.5219  3.8020
  458MPD2    H2 6824   3.052   2.331  12.189  0.1475 -0.4108 -0.7821
  458MPD2    H3 6825   2.810   2.330  12.199  1.3272  0.7176 -0.2474
  458MPD2     N 6826   2.820   2.021  12.545  0.2261  0.0559 -0.4634
  458MPD2    H5 6827   2.891   1.959  12.585  0.3646 -0.2495 -1.1825
  458MPD2    N1 6828   3.220   2.192  12.334  0.4703 -0.5034 -0.8559
  458MPD2    H7 6829   3.254   2.278  12.294 -0.9265  0.1019 -0.7695
  459TMC3    C1 6830   3.423   2.140  12.448 -0.1236  0.4377 -1.1059
  459TMC3    C2 6831   3.459   2.263  12.419 -0.4190  0.6322  0.1245
  459TMC3    C3 6832   3.577   2.304  12.472  0.4168  0.2435  0.1052
  459TMC3    C4 6833   3.475   2.065  12.553 -0.2562  0.0558  0.0041
  459TMC3    C5 6834   3.582   2.122  12.619  0.3222 -0.5231 -0.7888
  459TMC3    C6 6835   3.639   2.246  12.584  0.2001 -0.3164 -0.3255
  459TMC3     C 6836   3.292   2.098  12.401  0.6558 -0.0524 -0.4953
  459TMC3     O 6837   3.268   1.979  12.422  0.0312 -0.3276  0.1088
  459TMC3     H 6838   3.417   2.325  12.341  1.4478  0.4544 -1.0061
  459TMC3    H1 6839   3.430   1.972  12.584 -0.0781  0.5566  1.7259
  459TMC3    H2 6840   3.732   2.277  12.630  1.1247 -2.2798 -0.8892
  459TMC3    C7 6841   3.628   2.043  12.733 -0.2175 -1.2610  0.0031
  459TMC3    C8 6842   3.660   2.409  12.411  0.8791 -0.3704 -0.0444
  459TMC3    O1 6843   3.593   1.926  12.739 -0.2367 -0.2009  0.0488
  459TMC3    O2 6844   3.755   2.448  12.477 -0.6366 -0.2154  0.5680
  460MPD2     C 6845   2.526   3.964  10.488 -0.1876 -0.3081  0.9294
  460MPD2    C1 6846   2.408   4.034  10.501  0.3750 -0.3660 -0.2800
  460MPD2    C2 6847   2.311   4.030  10.397 -0.5429 -0.2451  0.6529
  460MPD2    C3 6848   2.327   3.955  10.282  0.1045  0.1418  0.7704
  460MPD2    C4 6849   2.448   3.883  10.269 -0.0696 -0.2005  0.1723
  460MPD2    C5 6850   2.546   3.895  10.371  0.7057 -0.5393 -0.6268
  460MPD2     H 6851   2.220   4.086  10.415 -1.1920 -0.7684 -0.9654
  460MPD2    H1 6852   2.463   3.830  10.176  1.5749 -0.2840  0.4871
  460MPD2    H2 6853   2.596   3.955  10.570  0.4225 -0.5747  0.3769
  460MPD2    H3 6854   2.640   3.843  10.356  0.6176 -0.4734 -1.4106
  460MPD2     N 6855   2.221   3.943  10.183  0.5189  0.0205  0.3451
  460MPD2    H5 6856   2.146   4.011  10.182  1.2656  0.8224 -2.9817
  460MPD2    N1 6857   2.386   4.114  10.617  0.7401  0.1714 -0.2521
  460MPD2    H7 6858   2.459   4.100  10.687 -0.0215  0.8793  0.6889
  461TMC3    C1 6859   2.108   3.865   9.990  0.4022 -0.3121  0.3661
  461TMC3    C2 6860   2.127   3.790   9.879  0.7508 -1.0163  0.1440
  461TMC3    C3 6861   2.019   3.798   9.795  1.0214 -0.1869 -0.2481
  461TMC3    C4 6862   1.994   3.934  10.023 -0.2205  0.2549  0.1575
  461TMC3    C5 6863   1.896   3.940   9.928  0.6646  0.7125 -0.1307
  461TMC3    C6 6864   1.909   3.865   9.816 -0.0489 -0.7200  0.3217
  461TMC3     C 6865   2.219   3.842  10.082 -0.3097  0.2261  0.3649
  461TMC3     O 6866   2.273   3.734  10.075 -0.3135 -0.7080  0.3310
  461TMC3     H 6867   2.222   3.743   9.856 -0.6867 -3.5856 -0.5051
  461TMC3    H1 6868   1.998   4.000  10.109  0.7531  1.3744 -0.7480
  461TMC3    H2 6869   1.834   3.879   9.739  0.8172  0.9342 -0.2188
  461TMC3    C7 6870   1.806   4.055   9.923 -0.1305  0.2574  0.1496
  461TMC3    C8 6871   2.013   3.712   9.680  0.1038  0.1358  0.2750
  461TMC3    O1 6872   1.750   4.073   9.816  0.7675 -0.1605 -0.5044
  461TMC3    O2 6873   1.949   3.759   9.581  0.2043 -0.0927 -0.0906
  462TMC3    C1 6874   2.301   0.733  17.555 -0.1398 -0.0207  0.9577
  462TMC3    C2 6875   2.257   0.680  17.441  0.3530  0.3720  0.6671
  462TMC3    C3 6876   2.270   0.546  17.422  0.3577  0.0487  0.5502
  462TMC3    C4 6877   2.357   0.647  17.654 -1.3833 -0.2872  0.0810
  462TMC3    C5 6878   2.375   0.517  17.626  0.0427 -0.4600 -0.3215
  462TMC3    C6 6879   2.343   0.464  17.502  0.8234  0.1062 -0.6768
  462TMC3     C 6880   2.268   0.870  17.587 -0.1090 -0.4171 -0.0006
  462TMC3     O 6881   2.249   0.901   0.007 -0.2714  0.2423 -0.0806
  462TMC3     H 6882   2.202   0.737  17.368  0.4201 -0.2467  0.1338
  462TMC3    H1 6883   2.376   0.680   0.059  0.5341  0.6907 -0.5894
  462TMC3    H2 6884   2.341   0.357  17.486 -1.5495 -0.0753  0.8530
  462TMC3    C7 6885   2.417   0.418   0.022  0.1623  0.3580  0.1297
  462TMC3    C8 6886   2.236   0.499  17.285  0.2788 -0.0192 -0.0501
  462TMC3    O1 6887   2.412   0.300  17.687  0.0910 -0.5144  0.4895
  462TMC3    O2 6888   2.142   0.549  17.228 -0.2260 -0.5143 -0.5713
  463MPD2     C 6889   3.493   3.497   1.801  0.5831 -0.4947  0.0550
  463MPD2    C1 6890   3.375   3.523   1.738  0.4029 -0.3270 -0.1203
  463MPD2    C2 6891   3.338   3.659   1.731  0.1057 -0.2451  0.2987
  463MPD2    C3 6892   3.421   3.765   1.780 -0.2403  0.5294 -0.0941
  463MPD2    C4 6893   3.542   3.730   1.849 -0.3397  0.0668  0.1648
  463MPD2    C5 6894   3.567   3.596   1.860  0.2373  0.4498  0.0088
  463MPD2     H 6895   3.240   3.683   1.692  0.3418 -0.2488 -0.2839
  463MPD2    H1 6896   3.605   3.804   1.897  0.1713 -0.7304  0.7167
  463MPD2    H2 6897   3.525   3.395   1.816 -0.1727 -1.0825 -2.1851
  463MPD2    H3 6898   3.653   3.573   1.921 -1.0214 -2.2949  0.7198
  463MPD2     N 6899   3.395   3.900   1.761 -0.1496  0.3138  0.2683
  463MPD2    H5 6900   3.475   3.962   1.769  0.8030 -0.5008 -2.5123
  463MPD2    N1 6901   3.282   3.422   1.687  0.4550  0.4230  0.2002
  463MPD2    H7 6902   3.197   3.467   1.654  1.3344  0.8780 -1.4623
  464TMC3    C1 6903   3.227   3.200   1.598 -0.4199  0.3487 -0.1344
  464TMC3    C2 6904   3.102   3.240   1.554  0.0894  0.6578  0.2388
  464TMC3    C3 6905   3.029   3.157   1.478 -0.2132 -0.6393 -0.1007
  464TMC3    C4 6906   3.279   3.074   1.567 -0.4392 -0.5894  0.4793
  464TMC3    C5 6907   3.197   2.994   1.489  0.9298  0.6535  0.2982
  464TMC3    C6 6908   3.075   3.037   1.444 -0.2879  0.3099  0.2146
  464TMC3     C 6909   3.303   3.284   1.691  0.0870 -0.1184 -0.3441
  464TMC3     O 6910   3.398   3.221   1.750 -0.4238 -0.4185  0.5117
  464TMC3     H 6911   3.059   3.338   1.569  0.0966  0.6163  0.5322
  464TMC3    H1 6912   3.369   3.033   1.611 -0.6854 -1.5016  0.1361
  464TMC3    H2 6913   3.003   2.971   1.397  0.5946  1.1593 -2.3177
  464TMC3    C7 6914   3.236   2.854   1.471  0.1075 -0.2015 -0.4866
  464TMC3    C8 6915   2.908   3.213   1.422  0.2290 -0.7687 -0.0157
  464TMC3    O1 6916   3.313   2.807   1.555  0.8366 -0.6521  0.5534
  464TMC3    O2 6917   2.879   3.176   1.310  0.2828  0.3741  0.5200
  465MPD2     C 6918   4.363   2.530  16.552 -0.3394 -0.3552  0.2604
  465MPD2    C1 6919   4.286   2.576  16.656 -0.5612  0.5994 -0.3117
  465MPD2    C2 6920   4.151   2.606  16.627  0.9671 -1.1080 -0.1768
  465MPD2    C3 6921   4.092   2.588  16.506 -0.0225 -0.5144  0.8297
  465MPD2    C4 6922   4.172   2.555  16.400  0.2395  0.1646  0.0686
  465MPD2    C5 6923   4.306   2.521  16.426 -0.0093 -0.1465 -0.2458
  465MPD2     H 6924   4.084   2.655  16.698 -2.9156 -2.5094 -2.8541
  465MPD2    H1 6925   4.138   2.543  16.298  0.2491 -2.8246  0.4354
  465MPD2    H2 6926   4.470   2.512  16.560 -0.2333 -0.5734 -1.6689
  465MPD2    H3 6927   4.365   2.499  16.337  1.7850 -1.6651  1.2996
  465MPD2     N 6928   3.958   2.622  16.493  0.2868 -0.3650 -0.2812
  465MPD2    H5 6929   3.912   2.639  16.582  0.0695  2.9585 -1.0378
  465MPD2    N1 6930   4.336   2.601  16.786  0.0527 -1.0557 -0.2449
  465MPD2    H7 6931   4.267   2.623  16.857 -0.7120 -0.2959 -1.2273
  466TMC3    C1 6932   3.632   2.828  16.553 -0.5071 -0.0562 -0.0632
  466TMC3    C2 6933   3.602   2.940  16.475  0.1305 -0.0824  0.0771
  466TMC3    C3 6934   3.663   2.933  16.352  0.5961 -0.1957 -0.7149
  466TMC3    C4 6935   3.714   2.724  16.514 -0.0492 -0.2747  0.2309
  466TMC3    C5 6936   3.767   2.726  16.391 -0.6864 -0.0366 -0.2448
  466TMC3    C6 6937   3.745   2.832  16.305 -0.4416 -0.5133 -0.5090
  466TMC3     C 6938   3.625   2.849  16.692 -0.9651 -0.1389  0.5640
  466TMC3     O 6939   3.705   2.785  16.758  0.3470  0.1108  0.1270
  466TMC3     H 6940   3.530   3.016  16.504  0.5028  0.1077  0.4956
  466TMC3    H1 6941   3.723   2.631  16.569 -2.6855  0.3466  1.6767
  466TMC3    H2 6942   3.773   2.840  16.201 -0.5097 -1.8504 -0.6195
  466TMC3    C7 6943   3.898   2.655  16.369  0.6047  0.2421 -0.4093
  466TMC3    C8 6944   3.651   3.052  16.269  0.7966  0.0887 -0.1710
  466TMC3    O1 6945   3.942   2.687  16.259  0.0830 -0.4235 -0.0321
  466TMC3    O2 6946   3.655   3.043  16.144 -0.5241 -0.4193  0.0468
  467TMC3    C1 6947   0.915   1.188  13.736  0.0622 -0.0666 -0.4530
  467TMC3    C2 6948   0.886   1.315  13.703  0.1610 -0.0753 -0.1320
  467TMC3    C3 6949   0.794   1.332  13.604  0.6105 -0.0788  0.3432
  467TMC3    C4 6950   0.842   1.080  13.690  0.4740 -0.3685  0.1355
  467TMC3    C5 6951   0.735   1.105  13.608  0.2666 -0.3079  0.3322
  467TMC3    C6 6952   0.711   1.238  13.566  0.6254  0.0619 -0.2698
  467TMC3     C 6953   1.052   1.167  13.787  0.0601  0.4834  0.2406
  467TMC3     O 6954   1.107   1.273  13.823 -0.6855 -0.6284 -0.8480
  467TMC3     H 6955   0.952   1.396  13.729 -0.4911  0.0124  1.2189
  467TMC3    H1 6956   0.857   0.979  13.725  2.4102 -0.3620 -0.6793
  467TMC3    H2 6957   0.627   1.269  13.505  1.1968  1.8042 -0.1750
  467TMC3    C7 6958   0.628   1.005  13.625 -0.3583  0.5760  0.2763
  467TMC3    C8 6959   0.832   1.438  13.510 -0.2101 -1.0767 -0.5468
  467TMC3    O1 6960   0.658   0.884  13.646 -0.2113 -0.5533  0.5237
  467TMC3    O2 6961   0.948   1.484  13.526 -0.4057 -0.3735  0.3286
  468MPD2     C 6962   4.202   4.151  10.490  0.1521  0.1439  0.2379
  468MPD2    C1 6963   4.299   4.114  10.587 -0.0542 -0.5572  0.3546
  468MPD2    C2 6964   4.300   3.981  10.624  0.9727 -0.9009 -0.1221
  468MPD2    C3 6965   4.205   3.888  10.578 -0.2460 -0.5673 -0.3679
  468MPD2    C4 6966   4.114   3.931  10.485  0.0311 -0.2788  0.5501
  468MPD2    C5 6967   4.120   4.060  10.437 -0.3546 -0.3964  0.2019
  468MPD2     H 6968   4.376   3.950  10.694 -0.2039  1.5170  2.2540
  468MPD2    H1 6969   4.052   3.857  10.436 -1.0087  0.3866  0.8425
  468MPD2    H2 6970   4.177   4.252  10.461 -0.1221  0.5776  2.0200
  468MPD2    H3 6971   4.043   4.096  10.370  0.5311  0.4599 -0.3462
  468MPD2     N 6972   4.191   3.754  10.623 -0.4032 -0.2305 -0.1397
  468MPD2    H5 6973   4.121   3.703  10.571  0.4027 -0.8907 -0.5750
  468MPD2    N1 6974   4.382   4.207  10.652 -0.0774  0.0607  0.2106
  468MPD2    H7 6975   4.426   4.180  10.739  1.1565  1.7384  0.1076
  469TMC3    C1 6976   4.459   4.422  10.719 -1.1068  0.0230  0.1245
  469TMC3    C2 6977   4.552   4.360  10.801  0.3762 -0.0398 -0.5119
  469TMC3    C3 6978   4.549   4.390  10.935  0.3322  0.3207 -0.5069
  469TMC3    C4 6979   4.392   4.531  10.765  0.3673 -0.8671 -0.6914
  469TMC3    C5 6980   4.381   4.557  10.900  0.0500 -0.3280  0.2857
  469TMC3    C6 6981   4.462   4.479  10.985 -0.0924 -0.9249 -0.4654
  469TMC3     C 6982   4.391   4.342  10.617 -0.0632 -0.4302  0.6797
  469TMC3     O 6983   4.345   4.404  10.524 -0.6221  0.4346  0.0997
  469TMC3     H 6984   4.617   4.287  10.755 -3.2726 -1.6793 -3.0512
  469TMC3    H1 6985   4.325   4.589  10.703  1.5211 -1.3657 -2.3839
  469TMC3    H2 6986   4.473   4.512  11.087 -0.8030  2.2188 -1.4170
  469TMC3    C7 6987   4.300   4.669  10.954 -0.1444  0.6682 -0.1992
  469TMC3    C8 6988   4.654   4.335  11.011 -0.3392 -0.0739 -0.1324
  469TMC3    O1 6989   4.246   0.015  10.871  0.1855 -0.1381  0.2213
  469TMC3    O2 6990   0.030   4.300  10.948  0.1678  0.1525 -0.1101
  470TMC3    C1 6991   2.175   4.533   0.783 -0.6773 -0.2765  0.0188
  470TMC3    C2 6992   2.278   4.624   0.794  0.3978 -0.4216 -0.2849
  470TMC3    C3 6993   2.344   4.653   0.917 -0.8590  0.0159  0.7928
  470TMC3    C4 6994   2.134   4.465   0.895  0.4278  0.2512 -0.1646
  470TMC3    C5 6995   2.203   4.489   1.012 -0.2504  0.6085  0.1330
  470TMC3    C6 6996   2.306   4.576   1.025 -0.1009 -0.3912  0.6021
  470TMC3     C 6997   2.094   4.528   0.666  0.4612  0.2924 -0.0831
  470TMC3     O 6998   2.152   4.556   0.567 -0.3717 -0.6044 -0.2361
  470TMC3     H 6999   2.294   4.693   0.712 -0.7362  1.0212  0.7173
  470TMC3    H1 7000   2.045   4.403   0.891  0.4582  0.1917  0.0550
  470TMC3    H2 7001   2.348   4.602   1.121  0.6850 -1.6809  0.6157
  470TMC3    C7 7002   2.144   4.438   1.134  0.0889  0.0931  0.2895
  470TMC3    C8 7003   2.337   0.066   0.933  0.6482 -0.3004  0.1873
  470TMC3    O1 7004   2.066   4.342   1.129 -0.2795  0.3412 -0.7572
  470TMC3    O2 7005   2.268   0.092   1.035  0.0248  0.2605  0.2378
  471MPD2     C 7006   2.089   1.736  17.010 -0.1672  0.5391 -0.2220
  471MPD2    C1 7007   2.150   1.660  16.908 -0.7215  0.2838 -0.5469
  471MPD2    C2 7008   2.238   1.559  16.944 -0.6425  0.6445 -0.1736
  471MPD2    C3 7009   2.267   1.542  17.081  0.2122  0.9814 -0.0219
  471MPD2    C4 7010   2.208   1.625  17.180 -0.0578 -0.1140 -0.4845
  471MPD2    C5 7011   2.106   1.717  17.147  0.4155 -0.0539  0.2375
  471MPD2     H 7012   2.291   1.495  16.874 -0.2630 -0.2545  0.9218
  471MPD2    H1 7013   2.230   1.622  17.286 -1.2750  0.9955 -0.1956
  471MPD2    H2 7014   2.014   1.810  16.984 -2.0978 -1.1137  0.6335
  471MPD2    H3 7015   2.055   1.766  17.229 -1.7063  1.5979 -2.0543
  471MPD2     N 7016   2.370   1.458  17.125 -0.5818 -0.0288  0.0247
  471MPD2    H5 7017   2.380   1.461  17.226 -0.0124  0.2543 -0.0400
  471MPD2    N1 7018   2.139   1.685  16.769  0.0099  0.5550  0.4986
  471MPD2    H7 7019   2.196   1.629  16.706  0.4128 -1.4324  2.6416
  472TMC3    C1 7020   2.088   1.773  16.570 -0.2879  0.1750  0.5507
  472TMC3    C2 7021   1.973   1.789  16.488  0.4680  0.9533 -0.5510
  472TMC3    C3 7022   1.973   1.735  16.365  0.2293  0.0942 -0.6575
  472TMC3    C4 7023   2.200   1.706  16.520  0.6045  0.4812 -0.0785
  472TMC3    C5 7024   2.179   1.633  16.410 -0.4863 -0.1249 -0.2378
  472TMC3    C6 7025   2.081   1.662  16.322  0.0867 -0.5096 -0.1849
  472TMC3     C 7026   2.055   1.771  16.707  0.3580 -0.0380  0.4547
  472TMC3     O 7027   1.983   1.858  16.755  0.2198 -0.8962 -0.1238
  472TMC3     H 7028   1.892   1.851  16.524 -1.9566 -2.8084  0.5772
  472TMC3    H1 7029   2.281   1.680  16.588  1.8156 -0.8753 -2.0415
  472TMC3    H2 7030   2.065   1.615  16.226  0.8198  0.0606 -0.5791
  472TMC3    C7 7031   2.192   1.494  16.438  0.5693  0.0784  0.2858
  472TMC3    C8 7032   1.856   1.689  16.298 -0.1626 -0.5858  0.1840
  472TMC3    O1 7033   2.254   1.471  16.541  0.7861  0.1570  0.1018
  472TMC3    O2 7034   1.803   1.752  16.210 -0.3816 -0.1679  0.3902
  473MPD2     C 7035   1.807   3.529  13.884  0.4639 -0.2574 -0.0213
  473MPD2    C1 7036   1.759   3.647  13.841 -0.3458  0.1806  0.0072
  473MPD2    C2 7037   1.777   3.753  13.925  0.2313 -0.4627  0.4570
  473MPD2    C3 7038   1.834   3.737  14.051 -0.2931  0.1638  0.3316
  473MPD2    C4 7039   1.883   3.613  14.092 -0.8593 -0.2279 -0.3666
  473MPD2    C5 7040   1.866   3.516  14.004 -0.4840  0.4467  0.9046
  473MPD2     H 7041   1.748   3.849  13.883  1.5121 -0.4424 -0.3600
  473MPD2    H1 7042   1.929   3.594  14.188 -1.2562  1.1039  0.0896
  473MPD2    H2 7043   1.797   3.443  13.819 -0.4858 -1.7488  2.1191
  473MPD2    H3 7044   1.891   3.415  14.032  1.1428  0.2947 -1.0411
  473MPD2     N 7045   1.851   3.842  14.147 -0.1985  0.4644  0.2166
  473MPD2    H5 7046   1.885   3.814  14.239 -0.2085  2.4723  0.8256
  473MPD2    N1 7047   1.681   3.661  13.722 -0.3142  0.4875 -0.4995
  473MPD2    H7 7048   1.657   3.756  13.696 -1.2679 -0.0098 -1.4374
  474TMC3    C1 7049   1.843   4.055  14.242  0.5247  0.0602 -0.8280
  474TMC3    C2 7050   1.760   4.160  14.269 -0.1011 -0.2325  0.2071
  474TMC3    C3 7051   1.807   4.264  14.347  0.1664 -0.4234  0.0467
  474TMC3    C4 7052   1.964   4.044  14.294 -0.0350 -0.5806 -0.2999
  474TMC3    C5 7053   2.016   4.150  14.364 -0.2288 -0.2629  0.5016
  474TMC3    C6 7054   1.939   4.260  14.391  0.1229  0.5819 -0.4662
  474TMC3     C 7055   1.807   3.969  14.129  0.2696 -0.4859 -0.2557
  474TMC3     O 7056   1.735   4.012  14.040  0.3623  0.2266  0.4753
  474TMC3     H 7057   1.675   4.169  14.203 -1.7243 -0.3420  2.2744
  474TMC3    H1 7058   2.030   3.959  14.280  0.3682 -0.6022  1.7972
  474TMC3    H2 7059   1.973   4.335  14.462  0.4908  1.4850 -1.5942
  474TMC3    C7 7060   2.152   4.136  14.417  0.0695 -0.0265  0.3264
  474TMC3    C8 7061   1.720   4.377  14.377 -0.4839  0.4935 -0.0979
  474TMC3    O1 7062   2.228   4.060  14.360 -0.1884 -0.5679  0.5699
  474TMC3    O2 7063   1.607   4.371  14.331  0.0134  0.6063  0.0653
  475MPD2     C 7064   0.736   1.554  10.219 -0.2938 -0.2552 -0.2407
  475MPD2    C1 7065   0.768   1.684  10.248 -0.2987  0.4890  0.1896
  475MPD2    C2 7066   0.748   1.730  10.379 -0.0842 -0.5728 -0.4971
  475MPD2    C3 7067   0.672   1.657  10.471 -0.5456  0.3466  0.0372
  475MPD2    C4 7068   0.636   1.527  10.446  0.4865 -0.2577 -0.3830
  475MPD2    C5 7069   0.677   1.482  10.319 -0.2798 -0.5650 -0.3931
  475MPD2     H 7070   0.787   1.828  10.406  1.3281 -1.6672  1.4426
  475MPD2    H1 7071   0.587   1.460  10.514 -0.9256  0.8270 -0.3294
  475MPD2    H2 7072   0.754   1.509  10.122 -3.3850 -0.8447 -0.5639
  475MPD2    H3 7073   0.653   1.380  10.294  0.7252 -1.2363  1.3340
  475MPD2     N 7074   0.645   1.733  10.586  0.4079 -0.3554 -0.4269
  475MPD2    H5 7075   0.671   1.831  10.581 -1.5714  0.1497 -0.5926
  475MPD2    N1 7076   0.839   1.751  10.150 -0.1206 -0.0658  0.6207
  475MPD2    H7 7077   0.856   1.692  10.070 -0.9450  0.2500  0.2120
  476TMC3    C1 7078   0.822   1.983  10.217  0.8129 -0.5132 -0.9376
  476TMC3    C2 7079   0.683   1.976  10.235  0.3879 -0.4299  0.0694
  476TMC3    C3 7080   0.633   2.072  10.326  0.0333  0.5611 -0.0404
  476TMC3    C4 7081   0.900   2.088  10.266  0.0965  0.5037 -0.8126
  476TMC3    C5 7082   0.843   2.164  10.366  0.6159  0.7228  0.2534
  476TMC3    C6 7083   0.713   2.149  10.400  0.0181  0.3295  0.4439
  476TMC3     C 7084   0.889   1.877  10.142 -0.4331  0.7140  0.1686
  476TMC3     O 7085   0.947   1.913  10.040 -0.2513  0.1133  0.0013
  476TMC3     H 7086   0.616   1.914  10.178  1.2800 -0.9946 -0.3580
  476TMC3    H1 7087   1.006   2.074  10.251  0.0683 -1.0605  0.3566
  476TMC3    H2 7088   0.670   2.217  10.472 -0.8549 -0.3206  0.5289
  476TMC3    C7 7089   0.942   2.223  10.459 -0.1232 -0.8710 -0.4392
  476TMC3    C8 7090   0.508   2.047  10.388  0.1512  0.2258  0.5721
  476TMC3    O1 7091   1.047   2.251  10.400 -0.0436 -0.1380 -0.0224
  476TMC3    O2 7092   0.456   2.136  10.454  0.5727  0.0350 -0.1746
  477MPD2     C 7093   3.268   3.622  11.531 -0.0814 -0.2525 -0.5993
  477MPD2    C1 7094   3.141   3.615  11.592 -0.2898 -0.8069  0.0313
  477MPD2    C2 7095   3.127   3.526  11.696  0.3515 -0.0201 -0.4159
  477MPD2    C3 7096   3.230   3.445  11.739 -0.0449  0.3204  0.1759
  477MPD2    C4 7097   3.354   3.449  11.672  0.1165 -0.0978 -0.1292
  477MPD2    C5 7098   3.371   3.542  11.571  0.2481  0.5869  0.8413
  477MPD2     H 7099   3.027   3.502  11.728  1.5155 -1.2569  2.3146
  477MPD2    H1 7100   3.438   3.384  11.691  0.0068 -0.0422  0.5702
  477MPD2    H2 7101   3.287   3.693  11.451 -0.8049 -0.0950 -0.6252
  477MPD2    H3 7102   3.461   3.548  11.510  1.0135 -0.7619  1.8337
  477MPD2     N 7103   3.204   3.355  11.840  0.8032  0.2196  0.3733
  477MPD2    H5 7104   3.106   3.351  11.863  1.0875  0.4053  1.6092
  477MPD2    N1 7105   3.036   3.688  11.534  0.1999  0.3981 -0.3386
  477MPD2    H7 7106   3.054   3.748  11.455 -2.2475  0.1632 -1.0713
  478TMC3    C1 7107   2.825   3.775  11.509  0.5755 -0.2195 -0.2864
  478TMC3    C2 7108   2.756   3.880  11.568  0.0420  0.6611  0.8679
  478TMC3    C3 7109   2.681   3.948  11.480  0.0037  0.0496 -0.0171
  478TMC3    C4 7110   2.823   3.747  11.374 -0.6993  0.4318  0.1927
  478TMC3    C5 7111   2.738   3.819  11.296 -0.5771  1.1718  0.7057
  478TMC3    C6 7112   2.657   3.916  11.347 -0.4365  0.6065 -0.3315
  478TMC3     C 7113   2.912   3.695  11.591  0.6841 -0.4222 -0.3298
  478TMC3     O 7114   2.865   3.658  11.697  0.3697  0.3994 -0.3053
  478TMC3     H 7115   2.786   3.912  11.667  2.2396  1.7752 -0.1609
  478TMC3    H1 7116   2.881   3.669  11.326 -0.1151  0.9402  0.0776
  478TMC3    H2 7117   2.600   3.980  11.281 -0.3599 -0.0963 -1.0844
  478TMC3    C7 7118   2.738   3.776  11.155  0.2387 -0.8693 -0.8298
  478TMC3    C8 7119   2.581   4.010  11.552 -0.4745 -0.0062 -0.0718
  478TMC3    O1 7120   2.827   3.693  11.125 -0.3060  0.5608  0.2176
  478TMC3    O2 7121   2.564   3.969  11.665  0.0300 -0.6968  0.7545
  479MPD2     C 7122   1.655   1.390  14.713  0.0048  0.0301 -0.2565
  479MPD2    C1 7123   1.651   1.298  14.816  0.2620 -0.1348 -0.1408
  479MPD2    C2 7124   1.777   1.272  14.881  0.2918  0.2988  0.0937
  479MPD2    C3 7125   1.886   1.353  14.857  0.5104  0.2411  0.2635
  479MPD2    C4 7126   1.880   1.450  14.766  0.2631  0.2709  0.9076
  479MPD2    C5 7127   1.774   1.456  14.680  0.3364 -0.1762  0.1873
  479MPD2     H 7128   1.783   1.188  14.950 -0.5241  0.3356  0.2097
  479MPD2    H1 7129   1.955   1.526  14.746 -1.0626  0.6648 -2.6440
  479MPD2    H2 7130   1.568   1.418  14.655 -0.0956  2.5305  1.0726
  479MPD2    H3 7131   1.777   1.531  14.601 -1.2872 -2.6985 -2.2755
  479MPD2     N 7132   2.005   1.359  14.934 -0.3404 -0.3669  0.3292
  479MPD2    H5 7133   2.085   1.410  14.898  1.1169 -3.4134 -0.7172
  479MPD2    N1 7134   1.525   1.245  14.849  0.4915  0.2566  0.5672
  479MPD2    H7 7135   1.448   1.281  14.795  1.8652  1.2328 -0.7321
  480TMC3    C1 7136   1.806   1.225  15.359  0.1585 -0.4454  0.4625
  480TMC3    C2 7137   1.704   1.319  15.354  0.8952 -0.4143  0.1933
  480TMC3    C3 7138   1.699   1.396  15.241 -1.1884 -0.2159 -0.2043
  480TMC3    C4 7139   1.892   1.211  15.255 -0.5116 -0.5239  1.0069
  480TMC3    C5 7140   1.896   1.302  15.153 -0.4328 -0.8620  0.4826
  480TMC3    C6 7141   1.803   1.405  15.157  0.1777  0.2152 -0.0730
  480TMC3     C 7142   1.825   1.145  15.477 -0.1336 -0.2142 -0.8578
  480TMC3     O 7143   1.878   1.035  15.459  0.2146  0.1099 -0.0204
  480TMC3     H 7144   1.631   1.330  15.433 -0.3812  0.5634 -1.1323
  480TMC3    H1 7145   1.967   1.132  15.262 -1.9126 -2.1283 -2.1555
  480TMC3    H2 7146   1.810   1.466  15.068 -1.7842  0.5938  0.0388
  480TMC3    C7 7147   2.017   1.306  15.063 -0.4575 -0.5371 -0.2552
  480TMC3    C8 7148   1.566   1.448  15.210 -0.1921 -0.7495 -0.2942
  480TMC3    O1 7149   2.125   1.297  15.120  0.6027 -0.6269  0.3895
  480TMC3    O2 7150   1.480   1.431  15.290  0.1009 -0.6636 -0.6247
  481MPD2     C 7151   3.424   0.605  14.069  0.3766 -0.3356  0.0509
  481MPD2    C1 7152   3.328   0.511  14.058 -0.8747 -0.0007 -1.2992
  481MPD2    C2 7153   3.298   0.432  14.168  0.4069 -0.3589 -0.1471
  481MPD2    C3 7154   3.360   0.452  14.292  0.6911  0.4499  0.3211
  481MPD2    C4 7155   3.457   0.547  14.298 -0.2256  1.2034  0.2775
  481MPD2    C5 7156   3.483   0.626  14.191  0.3913 -0.0450 -0.6448
  481MPD2     H 7157   3.220   0.357  14.162 -0.4165  0.5398 -0.6668
  481MPD2    H1 7158   3.521   0.563  14.384 -0.1453 -1.8853  0.7845
  481MPD2    H2 7159   3.445   0.669  13.984  0.2553 -0.3070  0.0414
  481MPD2    H3 7160   3.562   0.700  14.187 -1.2098  1.7469  1.6378
  481MPD2     N 7161   3.335   0.372  14.407  0.1424  0.0804  0.4786
  481MPD2    H5 7162   3.392   0.390  14.489  1.6654  0.2634 -0.6214
  481MPD2    N1 7163   3.270   0.504  13.937  0.0479  0.5911 -0.0637
  481MPD2    H7 7164   3.299   0.575  13.871 -0.8574  0.7358 -0.3137
  482TMC3    C1 7165   3.139   0.428  13.755 -0.6112 -0.4653 -0.5563
  482TMC3    C2 7166   3.030   0.366  13.721  0.1937 -0.9371 -0.3494
  482TMC3    C3 7167   2.977   0.399  13.596  0.0923 -0.0124 -0.0764
  482TMC3    C4 7168   3.200   0.519  13.673 -0.8803  0.3410 -0.3505
  482TMC3    C5 7169   3.144   0.546  13.553  0.4190 -0.0150  0.0791
  482TMC3    C6 7170   3.029   0.486  13.511  0.7336  0.0318 -0.0308
  482TMC3     C 7171   3.173   0.419  13.896 -0.4719 -0.0827  0.4399
  482TMC3     O 7172   3.120   0.326  13.956 -0.4474 -0.0074  0.1326
  482TMC3     H 7173   2.979   0.294  13.784  1.0362 -1.5104 -0.3242
  482TMC3    H1 7174   3.296   0.559  13.702 -0.7669  0.4290 -0.8574
  482TMC3    H2 7175   2.983   0.504  13.414  2.0805 -0.6911 -0.8035
  482TMC3    C7 7176   3.200   0.645  13.460 -0.5002 -0.4206 -0.3841
  482TMC3    C8 7177   2.887   0.306  13.538  0.4671 -0.1664 -0.4977
  482TMC3    O1 7178   3.137   0.665  13.357  0.7573  0.3753 -0.3252
  482TMC3    O2 7179   2.881   0.204  13.604 -0.2772 -0.6912 -0.8933
  483TMC3    C1 7180   1.696   3.661   0.738 -0.2915  0.2583 -0.9661
  483TMC3    C2 7181   1.809   3.743   0.728  0.0694  0.1592  0.3162
  483TMC3    C3 7182   1.911   3.712   0.817 -0.8602  0.7112 -0.2854
  483TMC3    C4 7183   1.684   3.577   0.845 -0.0963 -0.6699 -0.7373
  483TMC3    C5 7184   1.786   3.544   0.933 -0.0061  0.8324 -0.0108
  483TMC3    C6 7185   1.908   3.613   0.923 -0.3503  0.7090  0.0870
  483TMC3     C 7186   1.646   3.603   0.614 -0.1612  0.5104  0.8436
  483TMC3     O 7187   1.591   3.675   0.532  0.0245 -0.1456 -0.5737
  483TMC3     H 7188   1.837   3.787   0.633  1.8705 -0.8109  0.3896
  483TMC3    H1 7189   1.585   3.531   0.850 -0.9060  1.1457 -0.2391
  483TMC3    H2 7190   1.999   3.590   0.977 -1.1892  1.4207  1.7856
  483TMC3    C7 7191   1.788   3.399   0.954  0.4116  0.1698 -0.2488
  483TMC3    C8 7192   2.026   3.796   0.810  0.0541 -0.6000  0.0980
  483TMC3    O1 7193   1.709   3.338   0.883  0.4633  0.1707  1.0516
  483TMC3    O2 7194   2.066   3.815   0.701 -0.7034  0.4193  0.4444
  484MPD2     C 7195   3.677   2.531  12.051 -0.0700  0.0851 -0.0165
  484MPD2    C1 7196   3.717   2.514  12.180 -0.0873  0.2940  0.3619
  484MPD2    C2 7197   3.841   2.562  12.219 -0.0429 -1.1173  0.5346
  484MPD2    C3 7198   3.914   2.637  12.129 -0.4061  0.0087 -1.0677
  484MPD2    C4 7199   3.864   2.676  12.008 -0.4153 -0.0995  0.0382
  484MPD2    C5 7200   3.749   2.614  11.966  0.6644 -0.2455 -0.2503
  484MPD2     H 7201   3.871   2.549  12.322  0.6652  0.1157  0.4897
  484MPD2    H1 7202   3.910   2.743  11.937 -2.1419  0.2181 -0.7691
  484MPD2    H2 7203   3.581   2.493  12.018  1.3220 -4.1248  0.7838
  484MPD2    H3 7204   3.691   2.645  11.880 -0.7027 -1.5569  0.1930
  484MPD2     N 7205   4.044   2.685  12.163 -0.1024  0.4938  0.5927
  484MPD2    H5 7206   4.085   2.725  12.080 -2.4737  1.2500 -0.1982
  484MPD2    N1 7207   3.629   2.447  12.276  0.2558 -0.1818 -0.2132
  484MPD2    H7 7208   3.550   2.406  12.228  0.5142 -0.4834 -0.3872
  485TMC3    C1 7209   4.258   2.696  12.289  0.1751  0.6206  0.9033
  485TMC3    C2 7210   4.315   2.667  12.407 -0.3095  0.2873 -0.5055
  485TMC3    C3 7211   4.448   2.705  12.413 -0.5811 -0.1517 -0.3199
  485TMC3    C4 7212   4.319   2.739  12.179  0.0730  1.0390 -1.0305
  485TMC3    C5 7213   4.460   2.762  12.186  0.6310 -0.2756 -0.3511
  485TMC3    C6 7214   4.518   2.757  12.309  0.0680 -0.7380 -0.0711
  485TMC3     C 7215   4.115   2.673  12.282  0.1740 -1.0487 -1.1113
  485TMC3     O 7216   4.068   2.636  12.390  0.0287  0.2804  0.1016
  485TMC3     H 7217   4.264   2.611  12.484 -0.7510 -0.3146 -1.2325
  485TMC3    H1 7218   4.269   2.759  12.085  0.5170 -0.1568 -1.5231
  485TMC3    H2 7219   4.626   2.766  12.305 -0.0548  0.9375  0.2576
  485TMC3    C7 7220   4.539   2.736  12.072 -0.2913 -0.1693 -0.2761
  485TMC3    C8 7221   4.533   2.647  12.511  0.5401 -1.0049  0.3275
  485TMC3    O1 7222   4.659   2.754  12.091  0.3540 -0.3878  0.3109
  485TMC3    O2 7223   4.644   2.701  12.521 -0.3992  0.5240  0.2910
  486MPD2     C 7224   1.527   1.315  13.208  0.0716  0.4058  0.3780
  486MPD2    C1 7225   1.514   1.272  13.078 -0.9896 -0.0564 -0.9422
  486MPD2    C2 7226   1.515   1.369  12.976  0.3065 -0.1731 -0.0574
  486MPD2    C3 7227   1.533   1.501  13.008 -0.2014  0.3728 -0.3111
  486MPD2    C4 7228   1.531   1.543  13.139 -0.0337 -0.2542  0.1943
  486MPD2    C5 7229   1.537   1.447  13.235  0.1717 -0.4046 -0.3760
  486MPD2     H 7230   1.508   1.339  12.872  1.0220  0.9534 -0.4292
  486MPD2    H1 7231   1.541   1.650  13.157  1.1570 -0.5031  1.0277
  486MPD2    H2 7232   1.527   1.246  13.292 -0.3244  2.3545  1.9749
  486MPD2    H3 7233   1.536   1.480  13.339  4.8377  2.1545 -1.1324
  486MPD2     N 7234   1.538   1.585  12.893 -0.0001  0.0124  0.0838
  486MPD2    H5 7235   1.538   1.541  12.802  2.9936 -0.7606  0.4612
  486MPD2    N1 7236   1.479   1.134  13.054  0.1615  0.2116  0.1305
  486MPD2    H7 7237   1.462   1.073  13.133 -1.9029  3.1016  1.9314
  487TMC3    C1 7238   1.431   0.931  12.936 -0.1841  0.0261 -0.2764
  487TMC3    C2 7239   1.350   0.891  12.834 -0.8121  1.1530 -0.3935
  487TMC3    C3 7240   1.336   0.760  12.814  0.3801  0.6380 -0.4375
  487TMC3    C4 7241   1.503   0.843  13.009  0.0213  0.2293 -0.5651
  487TMC3    C5 7242   1.497   0.715  12.983  0.3603  0.0194 -0.4465
  487TMC3    C6 7243   1.419   0.670  12.877 -0.6798 -0.0127  0.0412
  487TMC3     C 7244   1.461   1.075  12.928 -0.6562 -0.0512 -0.3203
  487TMC3     O 7245   1.451   1.127  12.817 -0.4837  0.2218 -0.1295
  487TMC3     H 7246   1.280   0.963  12.794 -0.7870 -0.2777 -3.0192
  487TMC3    H1 7247   1.574   0.881  13.082 -1.9672 -0.7046  1.8446
  487TMC3    H2 7248   1.390   0.566  12.887 -0.5632 -0.0295  0.2138
  487TMC3    C7 7249   1.588   0.626  13.052  0.3401 -0.1756  0.3624
  487TMC3    C8 7250   1.207   0.727  12.760  0.2653 -0.1171  0.3235
  487TMC3    O1 7251   1.653   0.658  13.149  0.0634 -0.3687 -0.4970
  487TMC3    O2 7252   1.118   0.810  12.753  0.1982 -0.3513  0.2006
  488MPD2     C 7253   1.309   2.606  16.219 -0.0920 -0.3316 -0.4562
  488MPD2    C1 7254   1.266   2.726  16.267  0.4921 -0.1776  0.4932
  488MPD2    C2 7255   1.224   2.726  16.397 -1.0258 -0.9437 -0.0352
  488MPD2    C3 7256   1.225   2.617  16.471 -0.1463 -0.1474  0.4962
  488MPD2    C4 7257   1.255   2.495  16.419  0.5383 -0.1797  0.0766
  488MPD2    C5 7258   1.293   2.489  16.290  0.1053  0.0828 -0.5846
  488MPD2     H 7259   1.192   2.816  16.449  2.6203  0.5540 -0.3677
  488MPD2    H1 7260   1.258   2.409  16.485  3.3049 -0.5814 -0.5750
  488MPD2    H2 7261   1.346   2.589  16.118 -2.2937  2.5358 -1.7192
  488MPD2    H3 7262   1.329   2.397  16.245  0.3915  0.2683 -0.7355
  488MPD2     N 7263   1.180   2.637  16.603  0.3973  0.1869 -0.1584
  488MPD2    H5 7264   1.162   2.733  16.632 -4.4484  0.1150 -2.9864
  488MPD2    N1 7265   1.258   2.842  16.183 -0.0325 -0.2365  0.3961
  488MPD2    H7 7266   1.227   2.920  16.239  1.1295  0.7677 -0.3814
  489TMC3    C1 7267   1.103   2.613  16.814 -0.3230  0.3502  0.3618
  489TMC3    C2 7268   1.151   2.737  16.844 -0.4667  0.2214  0.3265
  489TMC3    C3 7269   1.121   2.781  16.970 -0.4816 -0.2000 -0.6660
  489TMC3    C4 7270   1.033   2.532  16.899  0.5090 -0.0030 -0.1390
  489TMC3    C5 7271   1.009   2.581  17.026  1.1801 -0.0797 -0.1250
  489TMC3    C6 7272   1.056   2.705  17.068 -0.1484 -0.1048 -0.1551
  489TMC3     C 7273   1.154   2.545  16.699 -0.2366 -0.2756 -0.6679
  489TMC3     O 7274   1.142   2.426  16.688 -0.7725  0.0516 -0.6138
  489TMC3     H 7275   1.210   2.795  16.774  2.4732  0.6246  3.1675
  489TMC3    H1 7276   1.032   2.424  16.891 -0.2982 -0.0557  0.7043
  489TMC3    H2 7277   1.019   2.749  17.160 -1.9172 -2.1542  0.1212
  489TMC3    C7 7278   0.969   2.490  17.132  0.3212  0.3890  0.2843
  489TMC3    C8 7279   1.151   2.920  16.993 -0.6814 -0.1777 -1.2742
  489TMC3    O1 7280   0.996   2.532  17.243  0.3867  0.0830 -0.3157
  489TMC3    O2 7281   1.155   2.982  16.891 -0.3199  0.0511  0.0784
  490MPD2     C 7282   2.600   2.400  16.931  0.4172 -0.0174 -0.7514
  490MPD2    C1 7283   2.485   2.321  16.935 -0.5004  0.0578  0.8970
  490MPD2    C2 7284   2.495   2.181  16.949 -0.3828 -0.2497 -0.4020
  490MPD2    C3 7285   2.618   2.118  16.969  0.4630 -0.0216  0.2760
  490MPD2    C4 7286   2.723   2.202  16.959  0.1631 -0.6309  0.1185
  490MPD2    C5 7287   2.720   2.338  16.943  0.3983  0.1016  0.2777
  490MPD2     H 7288   2.404   2.122  16.956 -1.2839  0.9507 -1.9110
  490MPD2    H1 7289   2.818   2.153  16.978  0.1272  0.1087  2.2142
  490MPD2    H2 7290   2.598   2.508  16.924  1.1655  0.1613  1.5936
  490MPD2    H3 7291   2.816   2.387  16.951 -0.5034  1.8154  0.5003
  490MPD2     N 7292   2.634   1.985  17.015 -0.1314  0.0304 -0.2749
  490MPD2    H5 7293   2.707   1.977  17.086  0.3212  1.8333 -0.5264
  490MPD2    N1 7294   2.352   2.375  16.930 -1.2964  0.8833 -0.1285
  490MPD2    H7 7295   2.278   2.305  16.931  1.9721 -2.6269 -0.6182
  491TMC3    C1 7296   2.168   2.511  16.912  0.1400 -0.1323 -0.3403
  491TMC3    C2 7297   2.109   2.629  16.962  0.4746  0.3977 -0.3597
  491TMC3    C3 7298   1.972   2.634  16.950 -0.2721  0.0918  0.1727
  491TMC3    C4 7299   2.094   2.417  16.853 -0.3300  0.4009 -0.0042
  491TMC3    C5 7300   1.958   2.424  16.859  0.4828  0.5084 -0.2286
  491TMC3    C6 7301   1.894   2.535  16.906 -0.1197 -0.1360 -0.8101
  491TMC3     C 7302   2.310   2.507  16.934  0.6513  0.0816  0.4629
  491TMC3     O 7303   2.369   2.611  16.962  0.1959 -0.0710 -0.4732
  491TMC3     H 7304   2.174   2.707  16.998 -0.4125  1.0192 -0.0914
  491TMC3    H1 7305   2.135   2.327  16.808 -0.1505  1.6118 -2.2645
  491TMC3    H2 7306   1.785   2.539  16.907 -0.2187 -2.6070 -2.9831
  491TMC3    C7 7307   1.893   2.300  16.821 -0.4874  0.0876  0.0189
  491TMC3    C8 7308   1.921   2.703  17.060  0.2762 -0.1893 -0.8234
  491TMC3    O1 7309   1.915   2.256  16.710 -0.1040 -0.2051 -0.1601
  491TMC3    O2 7310   1.824   2.653  17.115 -0.0183 -0.2526 -0.0386
  492MPD2     C 7311   2.469   2.308  11.228  0.0842 -1.0488 -0.2443
  492MPD2    C1 7312   2.386   2.211  11.171  0.4571 -0.3289 -0.1821
  492MPD2    C2 7313   2.314   2.115  11.248 -0.3526  0.6198 -0.2136
  492MPD2    C3 7314   2.327   2.115  11.385 -0.6554  0.1902  0.1086
  492MPD2    C4 7315   2.398   2.223  11.441 -0.3999  0.4066  0.0421
  492MPD2    C5 7316   2.463   2.315  11.366 -0.0621  0.1401 -0.3715
  492MPD2     H 7317   2.253   2.044  11.193  2.5325 -1.7973 -0.3029
  492MPD2    H1 7318   2.409   2.226  11.549 -1.4648 -0.0595  0.1619
  492MPD2    H2 7319   2.517   2.385  11.169  1.2196 -1.1592  0.5314
  492MPD2    H3 7320   2.513   2.390  11.426 -2.0902  3.2103 -2.5262
  492MPD2     N 7321   2.270   2.016  11.467  0.5362  0.7872 -0.5197
  492MPD2    H5 7322   2.277   2.025  11.567 -0.6153 -0.8228 -0.2904
  492MPD2    N1 7323   2.371   2.218  11.035  0.8323  0.0097  0.3144
  492MPD2    H7 7324   2.440   2.275  10.988  0.5511 -0.0482 -0.1655
  493TMC3    C1 7325   2.302   2.199  10.817 -1.2338 -0.2475 -0.4809
  493TMC3    C2 7326   2.359   2.326  10.796  0.4740 -0.0420 -0.3509
  493TMC3    C3 7327   2.361   2.379  10.675  0.1759 -0.0002  0.4963
  493TMC3    C4 7328   2.236   2.131  10.712 -0.3646  0.1547 -0.2504
  493TMC3    C5 7329   2.243   2.197  10.591 -0.1660 -0.3784  0.2800
  493TMC3    C6 7330   2.284   2.323  10.572  0.0513 -0.2104 -0.0534
  493TMC3     C 7331   2.286   2.148  10.952 -0.1381 -0.0496 -0.6515
  493TMC3     O 7332   2.198   2.067  10.983 -0.6276  0.0751  0.4631
  493TMC3     H 7333   2.416   2.377  10.874  0.9154  0.7883 -1.2215
  493TMC3    H1 7334   2.170   2.048  10.731 -2.2768  1.2253 -2.1637
  493TMC3    H2 7335   2.263   2.376  10.480 -3.2003  0.1054  0.8845
  493TMC3    C7 7336   2.165   2.137  10.485 -1.1068  0.8186 -0.2134
  493TMC3    C8 7337   2.442   2.494  10.642 -0.4854  0.7391  0.8023
  493TMC3    O1 7338   2.057   2.081  10.507  0.7789  0.2298 -0.1743
  493TMC3    O2 7339   2.478   2.572  10.726  0.2225 -0.6949  0.3722
  494TMC3    C1 7340   2.967   3.955   0.435 -0.0551 -0.4205 -0.0812
  494TMC3    C2 7341   3.029   3.832   0.430  0.1685  0.6450  0.2452
  494TMC3    C3 7342   3.089   3.783   0.320 -0.5584 -0.0536  0.3269
  494TMC3    C4 7343   2.973   4.038   0.326  0.4244  0.2355  0.4056
  494TMC3    C5 7344   3.026   3.983   0.209  0.2030  0.1874  0.6855
  494TMC3    C6 7345   3.085   3.861   0.205  0.0858 -0.0481  0.1592
  494TMC3     C 7346   2.846   3.953   0.517  0.0312 -0.2899  0.5068
  494TMC3     O 7347   2.836   3.869   0.609  0.7057  0.0312  0.4762
  494TMC3     H 7348   3.015   3.765   0.514 -0.3217 -1.2829 -1.3687
  494TMC3    H1 7349   2.933   4.139   0.331 -0.1737  0.0191 -0.0543
  494TMC3    H2 7350   3.117   3.821   0.110 -1.0132 -0.5472 -0.0087
  494TMC3    C7 7351   3.058   4.067   0.096 -0.4332 -0.0511  0.3208
  494TMC3    C8 7352   3.089   3.640   0.313 -0.3208  0.0006 -0.3685
  494TMC3    O1 7353   3.102   4.006   0.000 -0.0483 -0.2307 -0.6349
  494TMC3    O2 7354   3.128   3.582   0.413  0.1972  0.3596  0.5257
  495TMC3    C1 7355   1.533   1.537  14.250 -0.0071  0.0829 -0.8081
  495TMC3    C2 7356   1.407   1.540  14.192 -0.8865 -0.3514  0.6020
  495TMC3    C3 7357   1.302   1.569  14.271  0.0473  0.2529  0.2087
  495TMC3    C4 7358   1.547   1.579  14.382  0.6270 -0.3624 -0.7234
  495TMC3    C5 7359   1.436   1.618  14.456 -0.3110 -0.4923  0.0912
  495TMC3    C6 7360   1.315   1.611  14.399  0.2410 -0.0238 -0.2026
  495TMC3     C 7361   1.582   1.406  14.220  0.4269 -0.0083 -0.6072
  495TMC3     O 7362   1.506   1.335  14.157  0.1688  0.2958  0.1524
  495TMC3     H 7363   1.385   1.513  14.089  0.3567  3.0326 -0.5822
  495TMC3    H1 7364   1.639   1.591  14.438 -0.4703  0.7264  0.8398
  495TMC3    H2 7365   1.224   1.610  14.459  1.1934 -1.2765  1.2251
  495TMC3    C7 7366   1.456   1.645  14.602 -0.0311 -0.6803 -0.2830
  495TMC3    C8 7367   1.185   1.484  14.249 -0.2245  0.1179 -0.5809
  495TMC3    O1 7368   1.566   1.686  14.638 -0.1676  0.2764  0.3081
  495TMC3    O2 7369   1.077   1.508  14.294  0.0037  0.7413  0.0130
  496MPD2     C 7370   3.620   1.191  14.976 -0.3591  0.2609  0.1940
  496MPD2    C1 7371   3.720   1.143  15.062  0.1448  0.1206  0.1959
  496MPD2    C2 7372   3.708   1.177  15.195 -0.0909  0.0600 -0.3141
  496MPD2    C3 7373   3.597   1.252  15.243 -0.1312  0.4854 -0.0724
  496MPD2    C4 7374   3.504   1.299  15.156  0.3395 -0.1693  0.6324
  496MPD2    C5 7375   3.524   1.274  15.019  0.2713 -0.2107  0.0856
  496MPD2     H 7376   3.801   1.161  15.249 -1.3920  0.5109  2.0954
  496MPD2    H1 7377   3.417   1.353  15.192  0.4061  0.8719 -0.7969
  496MPD2    H2 7378   3.619   1.154  14.874 -1.2598 -0.0620  0.3183
  496MPD2    H3 7379   3.463   1.323  14.944 -0.5186  1.8086  2.0685
  496MPD2     N 7380   3.577   1.272  15.383 -0.0694  0.0581  0.7168
  496MPD2    H5 7381   3.495   1.325  15.409 -0.3425  1.3245 -2.8282
  496MPD2    N1 7382   3.824   1.061  15.011 -0.1705 -0.3717  0.2870
  496MPD2    H7 7383   3.837   1.045  14.912 -0.6793 -0.5938  0.2534
  497TMC3    C1 7384   3.544   1.150  15.585 -0.8603 -0.0858  0.0790
  497TMC3    C2 7385   3.563   1.029  15.640 -0.5590  0.9612 -0.1481
  497TMC3    C3 7386   3.539   1.008  15.770 -0.1556 -0.3831 -0.5965
  497TMC3    C4 7387   3.482   1.249  15.653 -0.5634 -0.0972 -0.6215
  497TMC3    C5 7388   3.446   1.216  15.783 -0.6962  0.8199  0.7021
  497TMC3    C6 7389   3.481   1.106  15.847 -0.1237  0.8147 -0.0159
  497TMC3     C 7390   3.637   1.191  15.480  0.0665 -0.6443  0.4978
  497TMC3     O 7391   3.733   1.120  15.461 -0.3414  0.9912  0.1257
  497TMC3     H 7392   3.595   0.952  15.571  1.1126  0.5640  1.0638
  497TMC3    H1 7393   3.463   1.351  15.622  0.1414 -0.0632 -0.9405
  497TMC3    H2 7394   3.450   1.088  15.949  0.6301  0.8691  0.2211
  497TMC3    C7 7395   3.454   1.328  15.877 -0.7041  0.2133 -0.5007
  497TMC3    C8 7396   3.588   0.888  15.834 -0.6255 -0.1554 -0.1072
  497TMC3    O1 7397   3.388   1.428  15.855  0.7949  0.5490 -1.0613
  497TMC3    O2 7398   3.578   0.879  15.955 -0.3505 -0.1136 -0.3488
  498MPD2     C 7399   0.191   2.064  10.109  0.1990 -0.7145 -0.0350
  498MPD2    C1 7400   0.120   2.003  10.007  0.0767  0.6295  0.3410
  498MPD2    C2 7401   0.006   1.930  10.032 -0.3460 -0.1069  0.0429
  498MPD2    C3 7402   4.675   1.916  10.158  0.3061 -0.2533  0.5547
  498MPD2    C4 7403   0.025   1.984  10.260  0.2848 -0.1500 -0.7097
  498MPD2    C5 7404   0.139   2.063  10.234  0.0715 -0.2219 -0.5818
  498MPD2     H 7405   4.677   1.880   9.952 -1.6732  0.1791  0.7341
  498MPD2    H1 7406   4.721   1.976  10.365 -1.0413  0.6092 -1.0056
  498MPD2    H2 7407   0.283   2.121  10.096 -1.2234  1.5152 -0.3131
  498MPD2    H3 7408   0.191   2.110  10.316 -1.1455 -1.4420  0.8880
  498MPD2     N 7409   4.564   1.836  10.181 -0.1222  0.4199  0.0601
  498MPD2    H5 7410   4.517   1.788  10.105 -0.1852  0.8747 -0.1895
  498MPD2    N1 7411   0.159   2.015   9.870 -0.5965 -0.1996 -0.1404
  498MPD2    H7 7412   0.098   1.974   9.801  0.6526  1.3847 -2.1845
  499TMC3    C1 7413   0.291   2.045   9.682 -0.0513 -0.3432  0.8267
  499TMC3    C2 7414   0.221   1.949   9.614  0.0123  0.0400  0.2289
  499TMC3    C3 7415   0.257   1.909   9.490 -0.3417  0.4544 -0.5552
  499TMC3    C4 7416   0.412   2.090   9.627  1.1947 -1.2065  0.9200
  499TMC3    C5 7417   0.445   2.052   9.494  0.3789  0.5763  0.1430
  499TMC3    C6 7418   0.367   1.959   9.426  0.5066 -0.2051 -0.3078
  499TMC3     C 7419   0.282   2.056   9.824 -0.2976 -0.0818  0.0299
  499TMC3     O 7420   0.387   2.064   9.887 -0.2891  0.4122  0.8696
  499TMC3     H 7421   0.143   1.902   9.673 -1.1759  0.1812 -1.2184
  499TMC3    H1 7422   0.474   2.162   9.679 -0.7737  0.7007  0.6042
  499TMC3    H2 7423   0.395   1.921   9.329 -0.2110  0.1124 -0.6418
  499TMC3    C7 7424   0.583   2.088   9.453 -0.2808 -0.1064  0.5732
  499TMC3    C8 7425   0.218   1.771   9.455  0.4576  0.3253 -0.4386
  499TMC3    O1 7426   0.657   2.146   9.533 -0.3078  0.4290  0.0729
  499TMC3    O2 7427   0.307   1.702   9.409  0.2090 -0.3186 -0.4809
  500MPD2     C 7428   1.669   3.146  10.806  0.0732 -0.3686 -0.7249
  500MPD2    C1 7429   1.720   3.091  10.688  0.1147 -0.0830 -0.1203
  500MPD2    C2 7430   1.626   3.036  10.599  0.5533 -0.4229 -0.1468
  500MPD2    C3 7431   1.490   3.041  10.624  0.5994  0.0582 -0.0116
  500MPD2    C4 7432   1.444   3.097  10.743  0.7100  0.0162 -0.8066
  500MPD2    C5 7433   1.536   3.142  10.833 -0.3804  0.5594  0.4831
  500MPD2     H 7434   1.670   3.005  10.504  0.5052  0.2602 -0.3937
  500MPD2    H1 7435   1.339   3.107  10.768  0.6456  1.9815 -1.8245
  500MPD2    H2 7436   1.727   3.212  10.869 -0.2718  0.2536 -1.0486
  500MPD2    H3 7437   1.505   3.178  10.930  1.0342  0.0071  1.1432
  500MPD2     N 7438   1.391   3.001  10.538 -0.1635  0.4206 -0.3073
  500MPD2    H5 7439   1.297   3.016  10.572  0.0484 -0.1268  0.5351
  500MPD2    N1 7440   1.855   3.106  10.648 -0.4539  0.3043 -0.4555
  500MPD2    H7 7441   1.876   3.072  10.554 -1.8713 -1.3342 -0.1640
  501TMC3    C1 7442   2.067   3.202  10.611 -0.3155 -0.0755  0.1126
  501TMC3    C2 7443   2.033   3.216  10.474  0.1589 -0.5005 -0.3578
  501TMC3    C3 7444   2.134   3.256  10.393  0.4593  0.2610 -0.0749
  501TMC3    C4 7445   2.182   3.252  10.663 -0.1584 -0.2174 -0.0409
  501TMC3    C5 7446   2.279   3.300  10.573 -0.0160 -0.0633 -0.2405
  501TMC3    C6 7447   2.257   3.298  10.436  0.0484 -0.1418  0.1784
  501TMC3     C 7448   1.959   3.169  10.708 -0.4543 -0.1500  0.0267
  501TMC3     O 7449   1.967   3.213  10.823  0.1673  0.9172  0.5188
  501TMC3     H 7450   1.936   3.189  10.436  0.0024 -0.8870  0.3212
  501TMC3    H1 7451   2.201   3.253  10.770 -0.5073 -0.1287  0.0200
  501TMC3    H2 7452   2.324   3.347  10.366 -0.4517  1.6805  0.9679
  501TMC3    C7 7453   2.416   3.302  10.619 -0.0377  0.2472  0.1187
  501TMC3    C8 7454   2.138   3.208  10.252 -0.4343 -0.4334  0.2145
  501TMC3    O1 7455   2.508   3.265  10.546 -0.2228  0.4155 -0.5218
  501TMC3    O2 7456   2.178   3.096  10.236  0.1338  0.1691 -0.3975
  502TMC3    C1 7457   1.065   2.457  14.620  0.3040  0.2704  0.3979
  502TMC3    C2 7458   1.007   2.576  14.619 -0.3786  0.4609 -1.5424
  502TMC3    C3 7459   0.868   2.590  14.618 -0.0425 -0.6854  0.3903
  502TMC3    C4 7460   0.982   2.348  14.622  0.2100 -0.2311 -0.0171
  502TMC3    C5 7461   0.848   2.362  14.611 -0.1979 -0.2669 -0.5550
  502TMC3    C6 7462   0.784   2.481  14.620  0.2462  0.0792  0.7025
  502TMC3     C 7463   1.174   2.450  14.716 -0.1454 -0.5002 -0.3669
  502TMC3     O 7464   1.283   2.499  14.688 -0.4437  0.9954 -0.2370
  502TMC3     H 7465   1.062   2.670  14.611  2.0754 -1.1140 -3.1039
  502TMC3    H1 7466   1.027   2.251  14.638 -2.2553 -1.3128  0.3895
  502TMC3    H2 7467   0.678   2.482  14.601  0.5336 -0.5600 -0.9136
  502TMC3    C7 7468   0.774   2.239  14.646  0.2121 -0.1998 -0.5248
  502TMC3    C8 7469   0.816   2.719  14.666 -0.0145  0.7135 -1.0074
  502TMC3    O1 7470   0.795   2.143  14.579 -0.3708 -0.0287 -0.5570
  502TMC3    O2 7471   0.895   2.812  14.662 -0.1171 -0.2014 -0.6749
  503MPD2     C 7472   3.260   2.745  16.852 -1.0109  0.1567  0.3433
  503MPD2    C1 7473   3.314   2.802  16.965 -0.6399  0.4019 -0.1694
  503MPD2    C2 7474   3.408   2.738  17.038  0.0628  0.0113  0.5327
  503MPD2    C3 7475   3.464   2.623  16.997 -0.6943  0.8832  0.5673
  503MPD2    C4 7476   3.429   2.577  16.867 -0.0772 -0.1018  0.3138
  503MPD2    C5 7477   3.324   2.641  16.796  0.7255  0.0798  0.4542
  503MPD2     H 7478   3.449   2.788  17.125  0.0433 -0.7155  0.9628
  503MPD2    H1 7479   3.483   2.489  16.831  0.3317  1.0359 -1.8476
  503MPD2    H2 7480   3.180   2.787  16.792 -1.3153  0.0778  0.6910
  503MPD2    H3 7481   3.294   2.626  16.693  4.1869 -0.3715 -0.4860
  503MPD2     N 7482   3.572   2.564  17.071 -0.0996 -0.2488  0.3672
  503MPD2    H5 7483   3.598   2.607  17.160 -0.4614 -0.4891  0.5899
  503MPD2    N1 7484   3.267   2.924  17.019 -0.0719 -0.8046  0.1341
  503MPD2    H7 7485   3.295   2.952  17.112 -0.6579  0.3100 -0.0111
  504TMC3    C1 7486   3.746   2.432  17.144 -0.7068  0.4704  0.0209
  504TMC3    C2 7487   3.712   2.441  17.277 -0.3118 -0.0820  0.5131
  504TMC3    C3 7488   3.789   2.376  17.365  0.0547 -0.7738  0.7043
  504TMC3    C4 7489   3.854   2.362  17.103  0.5150 -0.1540  0.2748
  504TMC3    C5 7490   3.929   2.290  17.195  0.4481  0.0084 -0.4064
  504TMC3    C6 7491   3.898   2.293  17.327  0.0072  0.1038 -0.5581
  504TMC3     C 7492   3.648   2.452  17.040  0.1994  0.5440 -0.8167
  504TMC3     O 7493   3.643   2.372  16.949  0.2805  0.4492  0.1555
  504TMC3     H 7494   3.621   2.493  17.307 -0.6559  0.8493 -2.1011
  504TMC3    H1 7495   3.859   2.340  16.997 -2.8224 -0.4679  0.1702
  504TMC3    H2 7496   3.947   2.233  17.402 -1.2550  1.2585  1.1995
  504TMC3    C7 7497   4.049   2.223  17.139  0.1803 -0.6215 -0.5297
  504TMC3    C8 7498   3.748   2.385  17.505  0.1231 -0.8250 -0.2981
  504TMC3    O1 7499   4.039   2.194  17.019  0.3988 -0.1092  0.7061
  504TMC3    O2 7500   3.642   2.439  17.528 -0.1866 -0.0644 -0.1160
  505MPD2     C 7501   3.692   1.158  10.114 -0.0874 -0.1611  0.6454
  505MPD2    C1 7502   3.706   1.033  10.169  0.3271 -0.6725  0.5908
  505MPD2    C2 7503   3.686   1.018  10.307  1.6378 -0.4145  0.3972
  505MPD2    C3 7504   3.646   1.127  10.385  0.8896  0.4877  0.6145
  505MPD2    C4 7505   3.645   1.252  10.335 -0.0038 -0.5469  0.0357
  505MPD2    C5 7506   3.661   1.272  10.196  0.2880  0.1736  0.1753
  505MPD2     H 7507   3.680   0.921  10.355 -3.0052 -0.8673 -1.0355
  505MPD2    H1 7508   3.607   1.336  10.393 -0.8809  0.9309 -2.6825
  505MPD2    H2 7509   3.706   1.166  10.007  2.3364  1.9554  1.1394
  505MPD2    H3 7510   3.652   1.372  10.157 -0.7874 -0.4016 -1.0567
  505MPD2     N 7511   3.602   1.108  10.520  0.6511  0.1886 -0.5989
  505MPD2    H5 7512   3.589   1.196  10.569  3.0407 -0.7226  1.6647
  505MPD2    N1 7513   3.758   0.926  10.096 -0.4082 -0.3353 -0.2123
  505MPD2    H7 7514   3.784   0.939   9.999  0.8463  0.5453  0.2395
  506TMC3    C1 7515   3.815   0.702  10.030 -0.2765  0.1200 -0.0025
  506TMC3    C2 7516   3.925   0.748   9.963  0.1124 -0.0578 -0.2521
  506TMC3    C3 7517   4.033   0.663   9.953 -0.1841  0.0451  0.7239
  506TMC3    C4 7518   3.803   0.572  10.070 -0.5350 -0.2691  0.1648
  506TMC3    C5 7519   3.917   0.497  10.057  0.1941 -0.1553 -0.1531
  506TMC3    C6 7520   4.030   0.538   9.989  0.2930  0.0284  0.6448
  506TMC3     C 7521   3.771   0.795  10.138  1.0715 -0.2545 -0.8661
  506TMC3     O 7522   3.719   0.736  10.230 -0.1224  0.8648 -0.5895
  506TMC3     H 7523   3.921   0.845   9.914  0.2923  0.0345 -0.0849
  506TMC3    H1 7524   3.719   0.527  10.122 -2.0786  0.1029 -1.9859
  506TMC3    H2 7525   4.106   0.470   9.952 -1.2357 -1.4494  0.2218
  506TMC3    C7 7526   3.964   0.467  10.195 -0.3189  0.3176  0.1177
  506TMC3    C8 7527   4.164   0.718   9.913  0.3218  0.0503 -0.1400
  506TMC3    O1 7528   4.060   0.395  10.206 -0.4000  0.0565 -0.1502
  506TMC3    O2 7529   4.244   0.631   9.875 -0.4099  0.0852  0.8467
  507TMC3    C1 7530   4.168   2.412  14.690  0.0451  0.6464  0.4696
  507TMC3    C2 7531   4.124   2.309  14.609  0.7134  0.0726 -0.1773
  507TMC3    C3 7532   4.153   2.311  14.479  0.6025  0.1515 -1.0401
  507TMC3    C4 7533   4.253   2.515  14.650 -0.9945 -0.0232 -0.0274
  507TMC3    C5 7534   4.288   2.510  14.515 -0.2897  0.7338 -0.0766
  507TMC3    C6 7535   4.233   2.413  14.435 -0.9565  0.4244  0.0703
  507TMC3     C 7536   4.117   2.430  14.822 -0.2988  0.1615  0.6465
  507TMC3     O 7537   4.196   2.474  14.907 -0.2393 -0.2044  0.0375
  507TMC3     H 7538   4.050   2.238  14.644 -0.3335  2.2012  1.9680
  507TMC3    H1 7539   4.291   2.586  14.722  0.7228 -0.6650 -0.3087
  507TMC3    H2 7540   4.248   2.423  14.328 -2.3025  0.7039 -0.0938
  507TMC3    C7 7541   4.271   2.642  14.452  0.5437  0.2838  0.3123
  507TMC3    C8 7542   4.036   2.290  14.396 -0.4566 -0.2273 -0.8330
  507TMC3    O1 7543   4.201   2.630  14.351  0.3673  0.5993 -0.1415
  507TMC3    O2 7544   3.953   2.209  14.436  0.0456 -0.3569 -0.0468
  508MPD2     C 7545   0.876   4.655  15.419 -0.0792  0.3080  0.1624
  508MPD2    C1 7546   0.787   0.011  15.490  0.1756  0.0142  0.3046
  508MPD2    C2 7547   0.677   0.062  15.421 -0.2503  0.2144  0.6876
  508MPD2    C3 7548   0.655   0.030  15.286 -0.5108 -0.0569 -0.2834
  508MPD2    C4 7549   0.738   4.669  15.228  0.0970  0.0713  0.0914
  508MPD2    C5 7550   0.844   4.617  15.295 -0.3421  0.3632 -0.2633
  508MPD2     H 7551   0.593   0.108  15.471  0.9575  2.2801  0.8056
  508MPD2    H1 7552   0.729   4.637  15.125  1.1394 -2.0024  0.6341
  508MPD2    H2 7553   0.965   4.617  15.466  0.0749  3.0432  2.1223
  508MPD2    H3 7554   0.902   4.546  15.237  1.2716  0.6447  1.0008
  508MPD2     N 7555   0.547   0.087  15.222 -0.5892  1.0234  0.2202
  508MPD2    H5 7556   0.502   0.166  15.268 -0.9304  0.9856 -0.0571
  508MPD2    N1 7557   0.802   0.031  15.627 -0.3144 -0.5330 -0.1226
  508MPD2    H7 7558   0.889   0.001  15.670  1.3115  0.6181 -2.5800
  509TMC3    C1 7559   0.301   0.359  15.187 -0.8705  1.2131  0.0312
  509TMC3    C2 7560   0.307   0.441  15.084 -0.4884 -0.9899 -0.2557
  509TMC3    C3 7561   0.385   0.400  14.981 -0.9147  0.6966 -0.0981
  509TMC3    C4 7562   0.348   0.230  15.179  0.0035  0.0061  0.4749
  509TMC3    C5 7563   0.409   0.188  15.068 -0.1193  0.0652  0.5265
  509TMC3    C6 7564   0.438   0.272  14.964 -0.5523 -1.0134 -0.0371
  509TMC3     C 7565   0.292   0.415  15.324  0.4586 -0.3232  0.1866
  509TMC3     O 7566   0.351   0.360  15.417  0.2255 -0.0235 -0.3351
  509TMC3     H 7567   0.296   0.549  15.088  2.0820 -0.6611 -1.5477
  509TMC3    H1 7568   0.341   0.177  15.274  0.0901 -0.4771  0.2089
  509TMC3    H2 7569   0.496   0.242  14.877  2.2111  1.1455  1.0465
  509TMC3    C7 7570   0.510   0.083  15.094  0.9878 -0.1099 -0.4967
  509TMC3    C8 7571   0.469   0.502  14.920 -0.2791 -0.3103  0.2170
  509TMC3    O1 7572   0.564   0.025  15.002  0.4178 -0.0119 -0.1777
  509TMC3    O2 7573   0.512   0.472  14.812  0.4184  0.9282 -0.3567
  510MPD2     C 7574   3.255   1.677  13.931 -0.4894  0.4341 -0.8861
  510MPD2    C1 7575   3.338   1.689  14.046  0.0090  0.2027 -0.5756
  510MPD2    C2 7576   3.474   1.688  14.028  0.2134  1.3946 -0.1465
  510MPD2    C3 7577   3.531   1.663  13.906  0.1514  0.0143  0.3237
  510MPD2    C4 7578   3.446   1.651  13.798 -0.6396 -0.5264 -0.2633
  510MPD2    C5 7579   3.312   1.662  13.813 -0.2010 -0.4012 -0.5468
  510MPD2     H 7580   3.538   1.706  14.114 -1.6864 -1.7167  1.9121
  510MPD2    H1 7581   3.491   1.637  13.701  0.2896  0.2438  0.0593
  510MPD2    H2 7582   3.148   1.663  13.943 -0.2826 -0.5545 -0.1869
  510MPD2    H3 7583   3.254   1.658  13.722  0.7930 -3.2866 -1.0484
  510MPD2     N 7584   3.673   1.653  13.891  0.1459 -0.0636 -0.1341
  510MPD2    H5 7585   3.716   1.646  13.983  1.6856 -1.9983 -1.0000
  510MPD2    N1 7586   3.271   1.685  14.168  0.6882  0.5751  0.0782
  510MPD2    H7 7587   3.170   1.677  14.163  0.6398  1.5134 -0.5902
  511TMC3    C1 7588   3.242   1.654  14.392  0.9309 -0.4048 -0.0758
  511TMC3    C2 7589   3.140   1.741  14.426  0.2685  0.0895 -0.9712
  511TMC3    C3 7590   3.027   1.683  14.468  0.2031  0.3868 -0.0457
  511TMC3    C4 7591   3.221   1.518  14.380  0.2316 -0.2711  0.5735
  511TMC3    C5 7592   3.101   1.470  14.419  0.0731 -0.1709 -0.3370
  511TMC3    C6 7593   3.005   1.552  14.468 -0.0808  0.3254 -0.4139
  511TMC3     C 7594   3.334   1.692  14.291 -0.2941  0.7880  0.9004
  511TMC3     O 7595   3.451   1.688  14.322  0.1985  0.1421  0.5157
  511TMC3     H 7596   3.171   1.845  14.433 -0.2251  0.1664 -0.0324
  511TMC3    H1 7597   3.298   1.452  14.342  1.5133  0.4626  1.8836
  511TMC3    H2 7598   2.917   1.514  14.518  1.3095 -2.0612  0.2061
  511TMC3    C7 7599   3.055   1.351  14.353 -0.3868 -0.4541 -0.5428
  511TMC3    C8 7600   2.967   1.749  14.585  0.1149 -0.3697  0.4452
  511TMC3    O1 7601   3.119   1.324  14.253  0.5778 -0.9141 -0.1588
  511TMC3    O2 7602   2.926   1.864  14.583 -0.5225  0.7001 -0.3285
  512TMC3    C1 7603   2.006   0.893  13.111  0.5228 -0.3534  0.7301
  512TMC3    C2 7604   2.138   0.874  13.144 -0.5288 -0.6581  0.0003
  512TMC3    C3 7605   2.205   0.776  13.082  0.5286 -0.2904 -0.0276
  512TMC3    C4 7606   1.934   0.814  13.028  0.1846  0.1059  0.1237
  512TMC3    C5 7607   2.002   0.711  12.976 -0.3186 -0.3041  0.4627
  512TMC3    C6 7608   2.138   0.689  13.006  0.4930 -0.0313 -0.3156
  512TMC3     C 7609   1.930   0.958  13.217 -0.2508 -0.2631  0.0755
  512TMC3     O 7610   1.989   1.057  13.259 -0.2589 -0.1035  0.8749
  512TMC3     H 7611   2.194   0.934  13.214 -1.6979  2.1673 -1.4633
  512TMC3    H1 7612   1.829   0.834  13.011 -0.1921 -0.5764  1.6580
  512TMC3    H2 7613   2.183   0.603  12.957 -3.1470 -0.4933 -2.9108
  512TMC3    C7 7614   1.942   0.617  12.880  0.0267 -0.0704  0.4649
  512TMC3    C8 7615   2.343   0.732  13.117 -0.6502 -0.1127 -0.7174
  512TMC3    O1 7616   1.855   0.664  12.805  0.3560 -0.6308 -0.7995
  512TMC3    O2 7617   2.385   0.628  13.073  0.6384  0.0072  0.1574
  513MPD2     C 7618   3.696   0.386  13.016 -0.2511  0.3831  0.2084
  513MPD2    C1 7619   3.771   0.498  12.985 -0.5876 -0.3145 -0.1165
  513MPD2    C2 7620   3.808   0.582  13.090 -0.3806 -0.1931  0.6387
  513MPD2    C3 7621   3.757   0.578  13.219  0.9059  0.2143  0.7800
  513MPD2    C4 7622   3.675   0.467  13.252  0.2277 -0.8119 -0.5589
  513MPD2    C5 7623   3.640   0.380  13.152  0.1297  0.1469 -0.4289
  513MPD2     H 7624   3.890   0.651  13.072  0.0043 -0.6647  0.5801
  513MPD2    H1 7625   3.613   0.474  13.341 -2.4046  0.2466 -2.4735
  513MPD2    H2 7626   3.683   0.300  12.952 -0.3954  1.0696 -0.6763
  513MPD2    H3 7627   3.569   0.300  13.172 -0.0042  0.5639  0.7618
  513MPD2     N 7628   3.798   0.683  13.308  0.1621 -0.5631 -0.4336
  513MPD2    H5 7629   3.860   0.754  13.268  0.8389 -1.2355 -0.5781
  513MPD2    N1 7630   3.812   0.519  12.853 -0.7479  0.2530  0.3090
  513MPD2    H7 7631   3.782   0.449  12.786 -0.6442  1.3528 -0.8740
  514TMC3    C1 7632   3.920   0.612  12.678  0.1519  0.6043 -0.0339
  514TMC3    C2 7633   3.912   0.719  12.596 -0.2248  0.4342 -0.6498
  514TMC3    C3 7634   4.025   0.757  12.521 -0.6803  0.2770  0.0423
  514TMC3    C4 7635   4.046   0.555  12.703 -0.2448 -1.0054 -0.2523
  514TMC3    C5 7636   4.156   0.593  12.633 -1.1812  0.6856 -0.0364
  514TMC3    C6 7637   4.141   0.692  12.545  0.4169 -0.3212 -0.2244
  514TMC3     C 7638   3.853   0.635  12.800  0.6880  0.5462 -0.2362
  514TMC3     O 7639   3.888   0.739  12.852  0.0005  0.0302 -0.3675
  514TMC3     H 7640   3.821   0.772  12.570 -1.9628 -2.5994 -0.7269
  514TMC3    H1 7641   4.051   0.477  12.779 -1.3281 -0.4839  0.3598
  514TMC3    H2 7642   4.229   0.741  12.505 -0.1944  0.4392 -0.6393
  514TMC3    C7 7643   4.267   0.616  12.728 -0.0339  0.2874 -0.2806
  514TMC3    C8 7644   4.009   0.868  12.428  0.0992  0.6811 -0.4322
  514TMC3    O1 7645   4.382   0.629  12.683 -0.3884 -0.2592 -0.6037
  514TMC3    O2 7646   3.918   0.948  12.435  0.7041 -0.0621  0.3571
  515MPD2     C 7647   1.922   3.006  14.229 -0.5204  0.3378  0.7456
  515MPD2    C1 7648   1.910   2.879  14.273  0.5654 -0.1522 -0.3354
  515MPD2    C2 7649   1.983   2.842  14.380 -0.1170 -0.5737  0.3023
  515MPD2    C3 7650   2.052   2.937  14.455 -0.0178  0.9065 -0.1568
  515MPD2    C4 7651   2.049   3.070  14.414  0.5705 -0.0421 -0.2130
  515MPD2    C5 7652   1.988   3.100  14.299 -0.7456 -0.4897 -0.1465
  515MPD2     H 7653   1.983   2.739  14.416 -0.7824 -1.1873 -1.4553
  515MPD2    H1 7654   2.102   3.149  14.467  1.6575  0.1960 -1.6524
  515MPD2    H2 7655   1.874   3.033  14.136  0.4169  0.7188  0.3727
  515MPD2    H3 7656   1.991   3.202  14.263  0.2245 -0.8840 -1.1750
  515MPD2     N 7657   2.135   2.907  14.572 -0.7073 -0.1082 -0.4414
  515MPD2    H5 7658   2.180   2.988  14.614 -0.7168 -0.6789  0.6634
  515MPD2    N1 7659   1.818   2.793  14.211 -0.5332 -0.5509  0.5861
  515MPD2    H7 7660   1.751   2.825  14.141 -1.4208 -1.0677  1.2071
  516TMC3    C1 7661   1.700   2.598  14.169 -0.4666 -0.1189 -0.9922
  516TMC3    C2 7662   1.589   2.669  14.134  0.2707  0.4160  0.6345
  516TMC3    C3 7663   1.472   2.602  14.108  0.4345  0.0356  0.0119
  516TMC3    C4 7664   1.688   2.465  14.205  0.5109  0.1275  0.1280
  516TMC3    C5 7665   1.566   2.409  14.196 -1.0164 -0.0039 -1.1872
  516TMC3    C6 7666   1.457   2.473  14.142 -0.3225  0.6464 -0.7473
  516TMC3     C 7667   1.821   2.656  14.227 -0.1493  0.3854 -0.1864
  516TMC3     O 7668   1.898   2.581  14.280  0.0663  0.2627  0.6310
  516TMC3     H 7669   1.590   2.777  14.144  0.6816  0.4556  0.1247
  516TMC3    H1 7670   1.772   2.399  14.226  2.0670  2.3745  1.0300
  516TMC3    H2 7671   1.368   2.425  14.102  0.0861 -0.6209 -0.1256
  516TMC3    C7 7672   1.551   2.294  14.281 -0.0189  0.2322 -0.4401
  516TMC3    C8 7673   1.362   2.658  14.031  0.0824  0.7817  0.7710
  516TMC3    O1 7674   1.640   2.244  14.349  0.4614  0.1113 -0.1328
  516TMC3    O2 7675   1.245   2.612  14.040  0.0879  0.0129 -0.1559
  517MPD2     C 7676   1.869   4.200   0.055 -0.5376  0.0484 -0.4356
  517MPD2    C1 7677   1.997   4.206  17.695 -0.5026  0.0315 -0.1195
  517MPD2    C2 7678   2.096   4.245   0.082 -0.0287 -0.0006  0.8022
  517MPD2    C3 7679   2.074   4.266   0.220 -0.2391 -0.0932  0.2213
  517MPD2    C4 7680   1.952   4.236   0.270 -0.0404  0.2970 -0.7664
  517MPD2    C5 7681   1.849   4.207   0.193  0.3205  0.1108  0.4510
  517MPD2     H 7682   2.201   4.249   0.053 -0.6595 -1.6372 -1.6685
  517MPD2    H1 7683   1.939   4.244   0.378 -0.6050 -2.9180 -0.5880
  517MPD2    H2 7684   1.784   4.157   0.004 -0.8527  1.8463 -1.4218
  517MPD2    H3 7685   1.751   4.186   0.234  0.7232 -2.7742 -0.0624
  517MPD2     N 7686   2.185   4.311   0.301  0.4591  0.1766 -0.1902
  517MPD2    H5 7687   2.176   4.305   0.402  0.8096  2.4723 -0.0180
  517MPD2    N1 7688   2.023   4.157  17.565 -0.2852  1.0534  0.4092
  517MPD2    H7 7689   2.120   4.138  17.546 -0.6312 -1.5797  1.2828
  518TMC3    C1 7690   1.987   4.040  17.364 -0.2327  0.3693 -0.5119
  518TMC3    C2 7691   1.907   3.935  17.322 -0.0045  0.0898 -0.9753
  518TMC3    C3 7692   1.960   3.849  17.224 -0.2404  0.1169 -0.0857
  518TMC3    C4 7693   2.119   4.048  17.333 -0.0847 -0.2096 -0.2252
  518TMC3    C5 7694   2.155   3.977  17.216 -0.5832 -0.4722 -0.8754
  518TMC3    C6 7695   2.078   3.879  17.165 -0.0032  0.0745  0.8187
  518TMC3     C 7696   1.928   4.122  17.469 -0.0784 -0.6915 -0.2520
  518TMC3     O 7697   1.807   4.140  17.459  0.2020  0.0993 -0.1111
  518TMC3     H 7698   1.810   3.914  17.364  0.8523  1.5056  1.7226
  518TMC3    H1 7699   2.164   4.141  17.365  1.8891 -1.8262  1.7666
  518TMC3    H2 7700   2.109   3.823  17.077 -0.9922  1.8104 -0.6390
  518TMC3    C7 7701   2.305   3.960  17.204  0.5342 -0.6842 -0.2251
  518TMC3    C8 7702   1.879   3.728  17.172  0.2813 -0.1436  0.1519
  518TMC3    O1 7703   2.374   3.993  17.299 -0.4134 -0.3965 -0.1100
  518TMC3    O2 7704   1.905   3.686  17.063 -0.0580  0.1311  0.5020
  519MPD2     C 7705   3.216   2.708  14.209 -0.1324 -0.4464  0.1121
  519MPD2    C1 7706   3.102   2.669  14.142  0.2100  0.5849 -0.5271
  519MPD2    C2 7707   3.102   2.539  14.093  0.0525 -0.4902  0.7551
  519MPD2    C3 7708   3.202   2.453  14.125  0.1145 -0.7498 -0.6465
  519MPD2    C4 7709   3.307   2.491  14.202 -0.1140  0.2858  0.3755
  519MPD2    C5 7710   3.307   2.618  14.249  0.2169  0.1827 -0.1563
  519MPD2     H 7711   3.019   2.488  14.045 -1.2940  1.3103  1.1776
  519MPD2    H1 7712   3.386   2.419  14.221  0.2262  0.0438 -1.9514
  519MPD2    H2 7713   3.230   2.807  14.252 -0.6428  0.8713 -2.7817
  519MPD2    H3 7714   3.391   2.658  14.306 -0.0692 -1.4760  1.4127
  519MPD2     N 7715   3.207   2.320  14.077  0.1182 -0.0349 -0.2135
  519MPD2    H5 7716   3.296   2.273  14.094 -0.0331 -0.6463 -1.0896
  519MPD2    N1 7717   3.013   2.766  14.094  0.1594 -0.4196 -0.3404
  519MPD2    H7 7718   3.042   2.863  14.086 -1.1172 -0.1452 -1.6286
  520TMC3    C1 7719   3.165   2.137  13.945 -0.5682 -0.0785  0.2389
  520TMC3    C2 7720   3.129   2.122  13.816  0.1852  0.6468  0.1129
  520TMC3    C3 7721   3.226   2.060  13.742  0.1496  0.1097 -0.0749
  520TMC3    C4 7722   3.275   2.079  13.999 -0.8326  0.8878 -0.1071
  520TMC3    C5 7723   3.368   2.027  13.915  0.5499  0.1330 -0.3493
  520TMC3    C6 7724   3.351   2.017  13.783  0.2156  0.5034 -0.3138
  520TMC3     C 7725   3.110   2.254  14.006  0.3157  0.4058  0.5872
  520TMC3     O 7726   2.996   2.287  13.965  0.1590  0.4330  0.5251
  520TMC3     H 7727   3.029   2.148  13.783  1.2857 -0.3733 -4.0034
  520TMC3    H1 7728   3.288   2.096  14.106 -0.1168 -0.9691  0.1041
  520TMC3    H2 7729   3.412   1.957  13.717  0.0087 -2.3446  2.1180
  520TMC3    C7 7730   3.500   2.021  13.974  0.0906 -0.4559  0.7511
  520TMC3    C8 7731   3.222   2.070  13.601  0.4384 -0.4972 -0.1524
  520TMC3    O1 7732   3.514   2.056  14.091  0.3954 -0.1293  0.2837
  520TMC3    O2 7733   3.322   2.041  13.535  0.2142 -0.1446 -0.5364
  521MPD2     C 7734   4.457   0.629  17.373  0.2213 -0.2651  0.5208
  521MPD2    C1 7735   4.385   0.639  17.253 -0.3172 -0.3634  1.1147
  521MPD2    C2 7736   4.457   0.660  17.131  0.0555 -0.1404  0.3534
  521MPD2    C3 7737   4.597   0.663  17.136  0.0975 -0.4166  0.6307
  521MPD2    C4 7738   4.660   0.654  17.257 -0.7009  0.2857 -0.4817
  521MPD2    C5 7739   4.595   0.639  17.375 -0.3880  0.1548 -0.7293
  521MPD2     H 7740   4.399   0.670  17.040 -0.0777  1.4119  0.6089
  521MPD2    H1 7741   0.044   0.652  17.267 -0.8811  1.0809  1.6419
  521MPD2    H2 7742   4.415   0.615  17.472  1.4060 -1.7666  0.8151
  521MPD2    H3 7743   4.649   0.622  17.468 -1.1068 -0.9095 -0.5091
  521MPD2     N 7744   4.664   0.659  17.015 -0.3317  0.1940 -0.1615
  521MPD2    H5 7745   4.600   0.653  16.936 -1.3968  0.7220  0.6561
  521MPD2    N1 7746   4.254   0.603  17.261 -0.2225  0.2470 -0.5806
  521MPD2    H7 7747   4.211   0.590  17.352 -0.3639 -0.3049 -0.7250
  522TMC3    C1 7748   0.115   0.596  16.866 -0.1182 -0.2907  0.0165
  522TMC3    C2 7749   0.233   0.627  16.816 -0.6427  0.6766 -0.1547
  522TMC3    C3 7750   0.277   0.553  16.710  0.1947 -0.0816 -0.8560
  522TMC3    C4 7751   0.032   0.504  16.813  0.8304  0.2801  0.3155
  522TMC3    C5 7752   0.071   0.444  16.693  0.5779 -0.1127  0.3916
  522TMC3    C6 7753   0.199   0.466  16.645  0.2540 -0.4345  0.2197
  522TMC3     C 7754   0.078   0.653  16.998  0.3536  0.7065 -0.3845
  522TMC3     O 7755   0.169   0.672  17.076  0.2721 -0.0610  0.0065
  522TMC3     H 7756   0.292   0.706  16.862  0.5310 -1.3811  1.9384
  522TMC3    H1 7757   4.667   0.474  16.866  0.8668  0.6356  0.5754
  522TMC3    H2 7758   0.236   0.430  16.549  0.1885  0.3906 -0.1159
  522TMC3    C7 7759   4.704   0.359  16.619  0.2357  1.1239  0.4612
  522TMC3    C8 7760   0.415   0.594  16.658 -0.1803  0.2047 -0.0126
  522TMC3    O1 7761   0.028   0.252  16.580  0.6504  0.0405  0.6472
  522TMC3    O2 7762   0.477   0.674  16.729  0.1701 -0.5625  0.4414
  523MPD2     C 7763   1.710   4.266  10.214  0.4692  0.3759 -0.3140
  523MPD2    C1 7764   1.727   4.235  10.085  0.8981  0.2008 -0.6467
  523MPD2    C2 7765   1.693   4.330   9.986 -0.2069 -0.1853 -0.1007
  523MPD2    C3 7766   1.625   4.447  10.034 -0.1006  0.1621 -0.3995
  523MPD2    C4 7767   1.610   4.469  10.170  0.2812 -0.2534 -0.3379
  523MPD2    C5 7768   1.663   4.382  10.264 -0.2983 -0.6655  0.8036
  523MPD2     H 7769   1.715   4.309   9.882 -1.8799  2.9581 -1.1081
  523MPD2    H1 7770   1.562   4.562  10.199 -1.6906 -1.7594  1.2293
  523MPD2    H2 7771   1.749   4.204  10.294 -0.0820  1.9330  1.1662
  523MPD2    H3 7772   1.651   4.409  10.368 -0.7073  2.6344 -0.0840
  523MPD2     N 7773   1.579   4.541   9.945 -0.2204  0.1099  0.4562
  523MPD2    H5 7774   1.563   4.634   9.983 -1.0343  0.3785 -0.5268
  523MPD2    N1 7775   1.786   4.111  10.048 -0.1309 -0.3390  0.1297
  523MPD2    H7 7776   1.817   4.052  10.125  0.2414 -1.2359 -0.7160
  524TMC3    C1 7777   1.501   4.633   9.743 -0.2345  0.6429  0.7790
  524TMC3    C2 7778   1.477   4.612   9.608 -0.0735 -0.0077 -0.1019
  524TMC3    C3 7779   1.386   4.695   9.550 -0.5952  1.0835 -0.0540
  524TMC3    C4 7780   1.472   0.028   9.808  0.2967  0.2033  0.3545
  524TMC3    C5 7781   1.391   0.109   9.742 -0.0455  0.3098  0.5976
  524TMC3    C6 7782   1.344   0.087   9.613  0.3702 -0.1022  0.0476
  524TMC3     C 7783   1.563   4.522   9.811 -0.0522  0.7655 -0.0168
  524TMC3     O 7784   1.579   4.421   9.741 -0.0255  0.5353  0.2015
  524TMC3     H 7785   1.473   4.513   9.563  2.1591 -0.5296  0.8252
  524TMC3    H1 7786   1.500   0.057   9.909  0.4981 -0.8436  0.5916
  524TMC3    H2 7787   1.290   0.164   9.560  2.0707  0.9718 -0.1117
  524TMC3    C7 7788   1.360   0.235   9.806 -0.0241  0.0009 -0.8798
  524TMC3    C8 7789   1.377   4.698   9.406  0.1573 -0.0601 -0.1052
  524TMC3    O1 7790   1.424   0.273   9.903  0.1264  0.0227  0.4481
  524TMC3    O2 7791   1.330   0.074   9.351  0.1236  0.2978  0.2941
  525MPD2     C 7792   4.462   2.077  14.385  0.8251  0.3657 -0.4216
  525MPD2    C1 7793   4.578   2.104  14.456 -0.0518  0.3960 -0.1423
  525MPD2    C2 7794   4.657   2.211  14.428  0.6127 -0.6713  0.9364
  525MPD2    C3 7795   4.616   2.299  14.331 -0.5499  0.1117 -0.4833
  525MPD2    C4 7796   4.509   2.269  14.252 -0.1995 -0.1860  0.4427
  525MPD2    C5 7797   4.431   2.158  14.274  0.2017  0.5664 -0.0311
  525MPD2     H 7798   0.014   2.228  14.498  1.4816 -1.6991  0.1682
  525MPD2    H1 7799   4.479   2.326  14.165  0.9054  0.4712  0.4962
  525MPD2    H2 7800   4.400   1.990  14.406  0.4275  1.4038  2.7558
  525MPD2    H3 7801   4.341   2.134  14.217 -1.3518  3.1947  1.2861
  525MPD2     N 7802   4.674   2.427  14.300  0.1526  0.2237  0.6753
  525MPD2    H5 7803   4.614   2.496  14.256 -0.0486  0.3571  1.1588
  525MPD2    N1 7804   4.613   2.024  14.571 -0.2636 -0.0063  0.0718
  525MPD2    H7 7805   4.708   2.045  14.600  0.3008 -1.3440 -0.8182
  526TMC3    C1 7806   4.610   1.848  14.731  0.7517 -0.2092 -0.1787
  526TMC3    C2 7807   4.543   1.802  14.840  0.1766  0.0833 -0.3324
  526TMC3    C3 7808   4.613   1.744  14.941  0.4349 -0.0414  0.1903
  526TMC3    C4 7809   0.018   1.821  14.712 -0.0932 -1.0073 -0.1246
  526TMC3    C5 7810   0.086   1.756  14.811 -0.0348  0.0495  0.0723
  526TMC3    C6 7811   0.025   1.725  14.931 -0.6795 -0.0178  0.4837
  526TMC3     C 7812   4.536   1.932  14.638  0.4998  0.0474  0.3407
  526TMC3     O 7813   4.414   1.927  14.637  0.2292 -0.3587 -0.5091
  526TMC3     H 7814   4.435   1.809  14.849  0.0939 -0.2964 -1.0452
  526TMC3    H1 7815   0.060   1.842  14.614  0.9728  0.5814  0.6594
  526TMC3    H2 7816   0.074   1.669  15.011 -1.8364 -0.4656  0.8800
  526TMC3    C7 7817   0.209   1.697  14.781 -0.6825 -0.7431 -0.3963
  526TMC3    C8 7818   4.585   1.774  15.081 -0.6411 -0.2050  0.1777
  526TMC3    O1 7819   0.243   1.607  14.857  0.2590  0.2091 -0.2666
  526TMC3    O2 7820   4.685   1.801  15.140 -0.1106  0.1190  0.3289
  527MPD2     C 7821   2.559   3.930   0.982  0.2627 -0.0670  0.0477
  527MPD2    C1 7822   2.606   3.922   1.111 -0.2118 -0.0869 -0.4655
  527MPD2    C2 7823   2.722   3.985   1.140 -0.8911 -0.5082 -0.0269
  527MPD2    C3 7824   2.797   4.048   1.034  0.2859 -0.6205 -0.1670
  527MPD2    C4 7825   2.737   4.076   0.911 -0.5185 -0.1225 -0.2535
  527MPD2    C5 7826   2.622   4.004   0.888 -0.4770  0.0973 -0.0387
  527MPD2     H 7827   2.768   3.968   1.236 -0.2616  2.4740  0.1977
  527MPD2    H1 7828   2.781   4.137   0.833  0.1072 -1.0879 -0.6682
  527MPD2    H2 7829   2.466   3.887   0.948  1.9120 -0.4708 -4.0099
  527MPD2    H3 7830   2.574   4.019   0.792 -2.4484 -1.2165  0.7278
  527MPD2     N 7831   2.927   4.105   1.060  0.1866  0.1974 -0.4748
  527MPD2    H5 7832   2.969   4.080   1.149  1.6408  1.1451 -0.8933
  527MPD2    N1 7833   2.536   3.848   1.215 -0.6070  0.2572  1.1348
  527MPD2    H7 7834   2.585   3.848   1.303 -1.5240  0.5189  1.6429
  528TMC3    C1 7835   2.354   3.743   1.321  0.7470 -0.2910  0.4704
  528TMC3    C2 7836   2.378   3.818   1.437  0.0009  0.1296  1.0341
  528TMC3    C3 7837   2.284   3.795   1.534 -0.3605 -0.8044 -0.2766
  528TMC3    C4 7838   2.251   3.654   1.308  0.0201 -0.5659 -0.2436
  528TMC3    C5 7839   2.169   3.633   1.411  0.6817  0.3088  0.3361
  528TMC3    C6 7840   2.180   3.706   1.524  0.3437 -0.2350 -0.3196
  528TMC3     C 7841   2.424   3.775   1.198 -0.3194  0.4697 -0.1127
  528TMC3     O 7842   2.373   3.739   1.093 -0.1122  0.2928  0.5178
  528TMC3     H 7843   2.446   3.902   1.445 -0.3421  0.5294 -0.1073
  528TMC3    H1 7844   2.226   3.604   1.215 -2.5445 -1.5912  1.0083
  528TMC3    H2 7845   2.106   3.695   1.603  0.3898  1.5097 -0.0303
  528TMC3    C7 7846   2.045   3.565   1.375  0.7096  0.7945  0.1940
  528TMC3    C8 7847   2.283   3.908   1.631  0.2972 -0.2480  0.7749
  528TMC3    O1 7848   2.002   3.571   1.261 -1.1476  0.1729  0.1302
  528TMC3    O2 7849   2.376   3.989   1.635 -0.3498 -0.4557 -0.0665
  529MPD2     C 7850   1.226   3.043   0.932 -0.1752  0.2796 -0.3763
  529MPD2    C1 7851   1.152   2.942   0.877  0.6070  0.1444 -0.3834
  529MPD2    C2 7852   1.105   2.957   0.749  0.0291  0.0603 -0.1420
  529MPD2    C3 7853   1.125   3.065   0.673 -0.0534 -0.3268 -0.4136
  529MPD2    C4 7854   1.180   3.170   0.742 -0.3013 -0.3175  0.7879
  529MPD2    C5 7855   1.243   3.157   0.863 -0.1084  0.0112  0.4570
  529MPD2     H 7856   1.052   2.874   0.704  1.3003 -0.2206 -1.1322
  529MPD2    H1 7857   1.189   3.267   0.695 -0.3425 -1.9917 -2.6690
  529MPD2    H2 7858   1.278   3.039   1.028  1.9848 -0.9026 -1.5997
  529MPD2    H3 7859   1.297   3.242   0.905  1.1523 -0.2606 -0.6034
  529MPD2     N 7860   1.085   3.092   0.539  0.3205 -0.2752  0.5483
  529MPD2    H5 7861   1.126   3.176   0.500  0.1654 -0.8778 -0.9189
  529MPD2    N1 7862   1.123   2.817   0.940 -0.7659  0.3401  0.4025
  529MPD2    H7 7863   1.070   2.748   0.886 -0.9133  0.9353 -0.2102
  530TMC3    C1 7864   1.116   2.652   1.122 -0.4646  0.5498 -0.6469
  530TMC3    C2 7865   1.190   2.610   1.229  0.3009  0.0860 -0.3166
  530TMC3    C3 7866   1.145   2.491   1.281  0.1245  0.9573  0.1304
  530TMC3    C4 7867   0.993   2.600   1.087  0.8884 -0.2049 -0.3645
  530TMC3    C5 7868   0.954   2.484   1.155  0.4401  0.0226  0.0890
  530TMC3    C6 7869   1.031   2.420   1.245  0.1005  0.3492 -0.0703
  530TMC3     C 7870   1.168   2.778   1.065 -0.1030 -0.3958  0.0420
  530TMC3     O 7871   1.225   2.854   1.142 -0.1471  0.0229  0.2750
  530TMC3     H 7872   1.285   2.654   1.258 -0.2920  1.0493  0.1842
  530TMC3    H1 7873   0.935   2.645   1.007 -1.7423  0.4541  1.8967
  530TMC3    H2 7874   0.997   2.330   1.295  0.8874 -0.2810 -0.6813
  530TMC3    C7 7875   0.824   2.424   1.122 -0.4058 -0.3921 -0.2834
  530TMC3    C8 7876   1.230   2.438   1.386  0.0555 -0.2261  0.0277
  530TMC3    O1 7877   0.799   2.325   1.192  0.0488 -0.2202  0.0458
  530TMC3    O2 7878   1.326   2.511   1.410  0.1278 -0.2140  0.0091
  531MPD2     C 7879   4.405   0.836  13.175  0.2188  0.4708 -0.4621
  531MPD2    C1 7880   4.267   0.823  13.175 -0.0301  0.5111  0.1933
  531MPD2    C2 7881   4.204   0.760  13.069  0.1701  0.5659 -0.0418
  531MPD2    C3 7882   4.283   0.716  12.962 -0.0377 -0.3491  0.6549
  531MPD2    C4 7883   4.416   0.718  12.970  0.3635  0.3489  0.3028
  531MPD2    C5 7884   4.483   0.785  13.074 -0.1671 -0.1856 -0.5812
  531MPD2     H 7885   4.098   0.738  13.067  0.0400  0.9984  1.4171
  531MPD2    H1 7886   4.469   0.668  12.890  0.5794  2.2449 -0.7388
  531MPD2    H2 7887   4.460   0.888  13.252  3.2014  0.2011 -2.3806
  531MPD2    H3 7888   4.591   0.787  13.083 -0.0882 -2.6876 -1.0129
  531MPD2     N 7889   4.217   0.658  12.853 -0.3517  0.0288  0.0878
  531MPD2    H5 7890   4.115   0.658  12.858 -0.4333 -1.3509 -1.6148
  531MPD2    N1 7891   4.191   0.870  13.287 -0.4718 -0.6053 -0.0509
  531MPD2    H7 7892   4.244   0.887  13.371  1.2231  0.0936 -1.2755
  532TMC3    C1 7893   3.997   0.923  13.417  0.2721  0.3228  0.1441
  532TMC3    C2 7894   3.863   0.902  13.423 -0.7341 -0.1532  0.0861
  532TMC3    C3 7895   3.809   0.819  13.504 -0.5908 -0.2267  0.4074
  532TMC3    C4 7896   4.068   0.880  13.524 -0.2901  0.5552 -0.4126
  532TMC3    C5 7897   4.010   0.814  13.629  0.5765  0.4325 -0.2940
  532TMC3    C6 7898   3.872   0.777  13.614  0.3730 -0.4474 -0.1337
  532TMC3     C 7899   4.057   0.896  13.283  0.2729 -0.5769 -0.2269
  532TMC3     O 7900   3.974   0.900  13.189  0.0791 -0.1050  0.4275
  532TMC3     H 7901   3.806   0.937  13.338 -0.0080 -2.0509 -1.1773
  532TMC3    H1 7902   4.169   0.919  13.535 -0.5637  0.6886  1.4892
  532TMC3    H2 7903   3.826   0.706  13.682  1.4663 -1.7930 -0.8027
  532TMC3    C7 7904   4.090   0.736  13.718  0.3955 -0.0869 -0.4320
  532TMC3    C8 7905   3.756   0.700  13.439 -0.0976 -0.1622 -0.1520
  532TMC3    O1 7906   4.046   0.703  13.826  0.3116 -0.2740  0.3066
  532TMC3    O2 7907   3.677   0.638  13.508  0.1241  0.0657  0.1544
  533TMC3    C1 7908   0.071   2.614  14.352  0.6834  0.0617  0.3586
  533TMC3    C2 7909   0.193   2.665  14.346  0.0823 -0.9757  0.4823
  533TMC3    C3 7910   0.204   2.793  14.401 -0.1897 -0.2213  0.1199
  533TMC3    C4 7911   4.688   2.684  14.404 -0.4673 -0.5088 -0.2312
  533TMC3    C5 7912   4.704   2.807  14.461 -0.5051  0.9669  1.2411
  533TMC3    C6 7913   0.102   2.865  14.458  0.3355 -0.4511  0.2273
  533TMC3     C 7914   0.058   2.473  14.365  0.1521  0.0209 -0.3028
  533TMC3     O 7915   0.144   2.409  14.425  0.2021  0.3959 -0.2387
  533TMC3     H 7916   0.271   2.605  14.301 -0.0507  0.6669 -1.9283
  533TMC3    H1 7917   4.588   2.643  14.402 -0.2826 -0.9852  0.2448
  533TMC3    H2 7918   0.142   2.941  14.524  0.9516 -0.1986 -0.4353
  533TMC3    C7 7919   4.649   2.789  14.600 -0.6786  0.1803 -0.9367
  533TMC3    C8 7920   0.339   2.862  14.395 -0.3300 -0.2479 -0.3637
  533TMC3    O1 7921   4.584   2.688  14.621  0.2950 -0.0647 -0.2117
  533TMC3    O2 7922   0.342   2.985  14.409 -0.3478 -0.3458  0.7326
  534MPD2     C 7923   3.234   2.557   1.420 -0.2784 -0.1064  0.4876
  534MPD2    C1 7924   3.147   2.649   1.359  0.6411  0.1236 -0.1479
  534MPD2    C2 7925   3.027   2.608   1.302 -0.0262 -0.3903  0.0833
  534MPD2    C3 7926   2.997   2.473   1.294  0.3033  0.2888 -0.1890
  534MPD2    C4 7927   3.081   2.378   1.348  0.4275 -0.6903  0.4241
  534MPD2    C5 7928   3.195   2.424   1.409  0.6975 -0.0914  0.5679
  534MPD2     H 7929   2.954   2.682   1.269  0.3300  0.4707  1.2115
  534MPD2    H1 7930   3.055   2.274   1.360  1.0330 -1.1362 -2.0248
  534MPD2    H2 7931   3.318   2.582   1.483 -1.0489  2.3551  0.5584
  534MPD2    H3 7932   3.254   2.349   1.461  0.9540 -0.0666  0.3125
  534MPD2     N 7933   2.874   2.432   1.250  0.3321  0.3337  0.0034
  534MPD2    H5 7934   2.846   2.338   1.277 -1.2066  0.9064  0.4452
  534MPD2    N1 7935   3.159   2.787   1.375 -0.1795 -0.3224 -0.1908
  534MPD2    H7 7936   3.108   2.844   1.309 -1.7930 -2.9388 -1.2049
  535TMC3    C1 7937   2.685   2.447   1.116  0.3344 -0.0007  0.0911
  535TMC3    C2 7938   2.592   2.430   1.219 -0.4704 -0.0048  0.6708
  535TMC3    C3 7939   2.462   2.453   1.199  0.7513 -0.1782  0.0693
  535TMC3    C4 7940   2.637   2.480   0.993  0.0705  0.0193  0.2704
  535TMC3    C5 7941   2.501   2.497   0.975 -0.0253 -0.2408 -1.6927
  535TMC3    C6 7942   2.410   2.479   1.074  0.1837 -0.1218 -0.4628
  535TMC3     C 7943   2.807   2.507   1.152 -0.1342 -0.3603  0.4777
  535TMC3     O 7944   2.856   2.596   1.086 -0.0344  0.4989 -0.0385
  535TMC3     H 7945   2.630   2.414   1.320 -2.4588  2.4980  1.8176
  535TMC3    H1 7946   2.713   2.493   0.916 -2.5521  1.0191 -2.1663
  535TMC3    H2 7947   2.305   2.507   1.066  0.1798 -0.5315 -1.8763
  535TMC3    C7 7948   2.458   2.559   0.847  0.0818  0.0455  0.0849
  535TMC3    C8 7949   2.360   2.431   1.297  0.3869  0.7426 -0.1182
  535TMC3    O1 7950   2.540   2.551   0.757 -0.0373 -0.0183 -0.0034
  535TMC3    O2 7951   2.244   2.458   1.275 -0.7839  0.1263  0.7648
  536MPD2     C 7952   1.684   1.896  15.895  0.1934  0.8372  0.1615
  536MPD2    C1 7953   1.564   1.867  15.949 -0.2083 -0.6296 -0.2575
  536MPD2    C2 7954   1.448   1.893  15.874  0.8407  0.5370 -0.2207
  536MPD2    C3 7955   1.455   1.946  15.743  0.4541  0.1071  0.2814
  536MPD2    C4 7956   1.587   1.958  15.686  0.1194 -0.0294 -0.0020
  536MPD2    C5 7957   1.694   1.926  15.763  0.6593 -0.7614 -0.1848
  536MPD2     H 7958   1.352   1.893  15.924  1.2882 -1.2541  0.6120
  536MPD2    H1 7959   1.595   2.007  15.590  1.0029  0.7990  0.4981
  536MPD2    H2 7960   1.776   1.869  15.945  0.6039  0.1877 -0.9265
  536MPD2    H3 7961   1.790   1.952  15.720  0.5204  2.1381  1.3009
  536MPD2     N 7962   1.339   1.979  15.670 -0.0869 -0.3964 -0.6158
  536MPD2    H5 7963   1.355   2.028  15.583 -0.9597 -1.0897 -1.1629
  536MPD2    N1 7964   1.559   1.818  16.076  0.2568 -0.8413  0.0325
  536MPD2    H7 7965   1.645   1.815  16.130 -2.3984 -1.1800  4.2616
  537TMC3    C1 7966   1.473   1.727  16.277 -0.4525  0.0039 -0.0634
  537TMC3    C2 7967   1.537   1.814  16.363 -0.2863  0.1382 -0.2368
  537TMC3    C3 7968   1.538   1.794  16.498 -0.7910  0.8066 -0.0700
  537TMC3    C4 7969   1.405   1.620  16.329  0.3493 -0.2344 -0.1144
  537TMC3    C5 7970   1.419   1.590  16.460 -0.1260  0.5575 -0.3821
  537TMC3    C6 7971   1.481   1.678  16.543  0.3872 -0.7005  0.5855
  537TMC3     C 7972   1.454   1.751  16.139 -0.0045 -0.9180 -0.0586
  537TMC3     O 7973   1.336   1.744  16.107  0.1625 -0.2420 -0.0411
  537TMC3     H 7974   1.573   1.909  16.327  0.9131  0.1365  0.9872
  537TMC3    H1 7975   1.361   1.550  16.259  0.2688  2.2079 -2.5003
  537TMC3    H2 7976   1.521   1.654  16.641  1.2044  1.0035  0.6784
  537TMC3    C7 7977   1.329   1.481  16.509  0.2548  0.5622 -0.8033
  537TMC3    C8 7978   1.590   1.902  16.579  0.0327 -0.0462 -0.2163
  537TMC3    O1 7979   1.247   1.446  16.426 -0.0765  0.2340  0.3753
  537TMC3    O2 7980   1.677   1.969  16.527  0.4592  0.4944  0.4113
  538TMC3    C1 7981   2.429   0.026  10.729  0.1529 -0.2810 -0.6744
  538TMC3    C2 7982   2.483   4.650  10.659 -0.3245  0.0971  0.1626
  538TMC3    C3 7983   2.420   4.633  10.543 -0.0092 -0.2456  0.6068
  538TMC3    C4 7984   2.329   0.106  10.692  0.0899 -0.4877  0.4001
  538TMC3    C5 7985   2.278   0.089  10.567  0.6336  0.4788  0.8975
  538TMC3    C6 7986   2.316   4.702  10.499 -0.5465  0.4661 -0.3140
  538TMC3     C 7987   2.478   0.045  10.864 -0.1962  0.3126 -0.2193
  538TMC3     O 7988   2.404   0.119  10.928 -0.3123 -0.6810  0.5143
  538TMC3     H 7989   2.557   4.585  10.705 -2.9830 -1.2000  2.5988
  538TMC3    H1 7990   2.278   0.179  10.753 -0.5194 -0.9139  0.4017
  538TMC3    H2 7991   2.275   4.682  10.400 -2.8857 -0.5423  0.8772
  538TMC3    C7 7992   2.150   0.146  10.530  0.1659 -0.0349 -0.0034
  538TMC3    C8 7993   2.456   4.513  10.464  0.2797 -0.4965 -0.1924
  538TMC3    O1 7994   2.079   0.064  10.471 -0.0076 -0.2315 -0.9842
  538TMC3    O2 7995   2.367   4.470  10.393 -0.0373 -0.2766 -0.0145
  539MPD2     C 7996   2.370   4.194  11.657 -0.6990 -0.1384  0.9500
  539MPD2    C1 7997   2.425   4.211  11.533 -1.8326  1.0628  0.5394
  539MPD2    C2 7998   2.396   4.326  11.464  0.7974  0.6444 -0.5520
  539MPD2    C3 7999   2.303   4.420  11.508 -0.5972  0.1936  0.1941
  539MPD2    C4 8000   2.246   4.405  11.631 -0.0948 -0.1648  0.1246
  539MPD2    C5 8001   2.283   4.293  11.702 -0.0435  1.1310 -0.3767
  539MPD2     H 8002   2.451   4.354  11.375 -0.0357  2.3299 -0.5463
  539MPD2    H1 8003   2.168   4.471  11.667  1.0484  1.0924  0.3002
  539MPD2    H2 8004   2.405   4.116  11.724  1.3664  0.1560  0.2126
  539MPD2    H3 8005   2.241   4.277  11.801 -0.2745 -0.5537 -0.7363
  539MPD2     N 8006   2.261   4.531  11.438  0.5670 -0.0088 -0.6994
  539MPD2    H5 8007   2.200   4.597  11.486 -1.0874 -1.8096 -0.3557
  539MPD2    N1 8008   2.532   4.128  11.495 -0.2853  0.2638  0.2663
  539MPD2    H7 8009   2.585   4.142  11.410 -1.1145 -1.2565 -0.4874
  540TMC3    C1 8010   2.217   4.681  11.270 -0.0221 -0.0007  0.2358
  540TMC3    C2 8011   2.164   4.652  11.150  0.6290  0.0616  0.3612
  540TMC3    C3 8012   2.104   0.037  11.096 -0.2553  0.2298 -0.0767
  540TMC3    C4 8013   2.205   0.077  11.338 -0.0231  0.0807  0.4127
  540TMC3    C5 8014   2.154   0.188  11.270 -0.7156  0.6631 -0.0982
  540TMC3    C6 8015   2.095   0.165  11.148 -0.0951 -0.6358 -0.2405
  540TMC3     C 8016   2.297   4.570  11.313  0.2236  0.2589 -0.8179
  540TMC3     O 8017   2.399   4.530  11.251 -0.0675 -0.3787 -0.0495
  540TMC3     H 8018   2.183   4.551  11.113 -0.7937 -0.4609  1.0951
  540TMC3    H1 8019   2.246   0.093  11.437  0.5052 -1.7731  0.4777
  540TMC3    H2 8020   2.024   0.233  11.101  0.1050  0.4916  1.0749
  540TMC3    C7 8021   2.077   0.261  11.360 -0.3952 -0.4028  0.3364
  540TMC3    C8 8022   2.047   0.020  10.958 -0.0925 -0.3728  0.8071
  540TMC3    O1 8023   2.059   0.202  11.465  0.0158 -0.2360 -0.1800
  540TMC3    O2 8024   2.068   0.111  10.882  0.2804 -0.3160  0.4006
  541MPD2     C 8025   1.078   1.115  13.439 -0.4683 -0.6394  0.0844
  541MPD2    C1 8026   1.004   1.047  13.342 -0.2813  0.3899  0.1769
  541MPD2    C2 8027   0.988   1.105  13.223  0.0489 -0.4243 -0.2146
  541MPD2    C3 8028   1.044   1.222  13.185 -0.3707 -0.0081  0.2673
  541MPD2    C4 8029   1.114   1.295  13.283 -0.1816  0.0198 -0.2811
  541MPD2    C5 8030   1.122   1.240  13.411 -0.2359  0.1885 -0.3180
  541MPD2     H 8031   0.915   1.057  13.159 -1.8327  2.0083  0.0973
  541MPD2    H1 8032   1.158   1.391  13.261  0.5611  0.1072  1.5893
  541MPD2    H2 8033   1.093   1.080  13.541  1.1143  1.4252  0.5551
  541MPD2    H3 8034   1.178   1.299  13.484 -0.1302 -0.1979 -0.0879
  541MPD2     N 8035   1.062   1.265  13.052  0.2847 -0.7584  0.4629
  541MPD2    H5 8036   1.102   1.357  13.037 -1.5025 -0.1458 -0.4743
  541MPD2    N1 8037   0.958   0.908  13.352 -0.5171  0.8556 -0.5041
  541MPD2    H7 8038   0.909   0.868  13.271 -0.6312  0.3179 -0.1720
  542TMC3    C1 8039   1.048   1.249  12.812 -0.0577  1.4172  0.1125
  542TMC3    C2 8040   1.068   1.161  12.706  0.1415  0.1417  0.0718
  542TMC3    C3 8041   1.018   1.194  12.579  0.1358  0.0603 -0.0809
  542TMC3    C4 8042   0.977   1.363  12.792  0.9676  0.2751  0.1808
  542TMC3    C5 8043   0.926   1.387  12.666  0.4378 -0.0852 -0.1061
  542TMC3    C6 8044   0.941   1.306  12.558 -0.3132 -0.1169  0.0446
  542TMC3     C 8045   1.045   1.181  12.946  0.5924  0.4300  0.1055
  542TMC3     O 8046   1.032   1.058  12.941  0.7575  0.2222  0.1504
  542TMC3     H 8047   1.107   1.063  12.732 -0.0687 -0.3600 -1.4843
  542TMC3    H1 8048   0.941   1.428  12.871  0.4673 -0.6405  0.7102
  542TMC3    H2 8049   0.910   1.339  12.459 -0.1692  2.1677  0.7478
  542TMC3    C7 8050   0.854   1.514  12.649  0.2496  0.5633  0.4277
  542TMC3    C8 8051   1.050   1.113  12.464 -0.5516 -0.1068  0.1907
  542TMC3    O1 8052   0.878   1.602  12.733  1.0194 -0.0488 -0.0647
  542TMC3    O2 8053   0.981   1.130  12.367  0.6387 -0.0424  0.3699
  543TMC3    C1 8054   0.365   2.122  17.259  0.0994 -0.2289  0.1016
  543TMC3    C2 8055   0.364   1.983  17.261  0.0463 -1.3958  0.2357
  543TMC3    C3 8056   0.281   1.919  17.356  0.5777 -0.1258 -0.5545
  543TMC3    C4 8057   0.282   2.191  17.348  0.3416 -0.6281 -1.1741
  543TMC3    C5 8058   0.208   2.123  17.443 -0.0674  0.6339  0.7832
  543TMC3    C6 8059   0.210   1.989  17.456  0.2940 -0.3246  0.4508
  543TMC3     C 8060   0.352   2.166  17.120 -0.0480 -0.7431 -0.6969
  543TMC3     O 8061   0.434   2.120  17.045 -0.3263 -0.2743 -0.3780
  543TMC3     H 8062   0.414   1.926  17.184 -1.2255 -1.8986 -0.2089
  543TMC3    H1 8063   0.273   2.299  17.345 -0.4474 -0.5995  3.0992
  543TMC3    H2 8064   0.155   1.934  17.531 -1.3054  0.0403 -0.4356
  543TMC3    C7 8065   0.124   2.201  17.518  0.1846 -0.1488 -0.3346
  543TMC3    C8 8066   0.257   1.775  17.340 -0.0697 -0.4563 -0.5945
  543TMC3    O1 8067   0.141   2.317  17.525 -0.0004 -0.1368  0.3945
  543TMC3    O2 8068   0.342   1.708  17.283 -0.0323 -0.3157  0.5170
  544MPD2     C 8069   4.722   1.362  17.518  0.3219 -0.3502 -0.0155
  544MPD2    C1 8070   0.098   1.366  17.420  0.5026  0.0258  0.3000
  544MPD2    C2 8071   0.157   1.487  17.384  0.1742  0.3337 -0.2700
  544MPD2    C3 8072   0.095   1.600  17.432 -0.0016  0.2003  0.7111
  544MPD2    C4 8073   4.710   1.597  17.515 -0.4450 -0.4848 -0.5621
  544MPD2    C5 8074   4.673   1.483  17.575 -0.2262 -0.0381 -0.3657
  544MPD2     H 8075   0.231   1.493  17.305 -0.3643 -1.6938 -0.9307
  544MPD2    H1 8076   4.661   1.688  17.549 -0.1907 -0.9139  0.9429
  544MPD2    H2 8077   4.692   1.267  17.560  0.9567  0.0493  1.3446
  544MPD2    H3 8078   4.591   1.472  17.646 -0.7032 -0.8296 -1.0403
  544MPD2     N 8079   0.135   1.734  17.391 -0.6884 -0.9956  0.6757
  544MPD2    H5 8080   0.072   1.808  17.421 -0.3810 -1.3214  2.1610
  544MPD2    N1 8081   0.141   1.237  17.367 -0.4615  1.0069 -0.1968
  544MPD2    H7 8082   0.081   1.157  17.384  0.0787  0.5978 -0.2180
  545TMC3    C1 8083   0.274   1.117  17.212  0.2548 -0.2996  0.2861
  545TMC3    C2 8084   0.160   1.075  17.158 -1.1849  0.8415  0.0791
  545TMC3    C3 8085   0.156   1.036  17.025  0.0353 -0.0373 -0.0929
  545TMC3    C4 8086   0.395   1.112  17.146 -0.3896  0.1930  0.5331
  545TMC3    C5 8087   0.394   1.068  17.013  0.0457  0.6364  0.0988
  545TMC3    C6 8088   0.274   1.033  16.955 -0.0942 -0.0881 -0.2319
  545TMC3     C 8089   0.259   1.225  17.297  0.1447 -0.1860 -0.1665
  545TMC3     O 8090   0.357   1.296  17.287  0.1123 -0.0848 -0.5261
  545TMC3     H 8091   0.068   1.086  17.213 -0.7034 -1.3899  1.3770
  545TMC3    H1 8092   0.487   1.140  17.195  0.2546 -1.4128  0.2427
  545TMC3    H2 8093   0.274   0.997  16.852  1.1075 -0.2670 -0.1671
  545TMC3    C7 8094   0.495   1.110  16.919 -0.2718 -0.2260  0.3489
  545TMC3    C8 8095   0.027   1.036  16.960 -0.2227 -0.2643 -1.2797
  545TMC3    O1 8096   0.463   1.123  16.806  0.3307  0.0451 -0.3334
  545TMC3    O2 8097   4.657   1.017  17.030  0.4860  0.2434  0.2807
  546MPD2     C 8098   1.365   2.564  17.321  0.3790  0.2201  0.4754
  546MPD2    C1 8099   1.357   2.514  17.192 -0.3776  0.4173 -1.0153
  546MPD2    C2 8100   1.406   2.582  17.082 -0.3322 -0.4605  0.5125
  546MPD2    C3 8101   1.475   2.705  17.102  0.2448 -0.8829 -0.3576
  546MPD2    C4 8102   1.470   2.758  17.226  0.1702  0.7132 -0.2519
  546MPD2    C5 8103   1.420   2.689  17.336 -0.5042 -0.3231  0.6110
  546MPD2     H 8104   1.389   2.543  16.982 -0.7682  1.5659 -0.2020
  546MPD2    H1 8105   1.531   2.845  17.251  0.4468  0.7991 -1.2168
  546MPD2    H2 8106   1.330   2.511  17.408 -0.7254  1.0703  0.5450
  546MPD2    H3 8107   1.432   2.732  17.435  0.0710  1.4101 -0.2176
  546MPD2     N 8108   1.532   2.791  16.999 -0.1648 -0.0634 -0.3516
  546MPD2    H5 8109   1.555   2.887  17.026 -0.8685 -0.5999  2.1352
  546MPD2    N1 8110   1.297   2.385  17.184  0.5275 -0.0048  0.2610
  546MPD2    H7 8111   1.281   2.337  17.272 -1.8193  2.7289  1.3114
  547TMC3    C1 8112   1.184   2.201  17.076  0.2481  0.0014 -0.1298
  547TMC3    C2 8113   1.152   2.146  16.955  0.0564  0.2809  0.3063
  547TMC3    C3 8114   1.103   2.017  16.948 -0.1720  0.8540  0.4462
  547TMC3    C4 8115   1.151   2.128  17.191  0.2947  0.1848  0.3532
  547TMC3    C5 8116   1.092   2.005  17.180  0.1889  0.7574  0.0505
  547TMC3    C6 8117   1.076   1.941  17.056  0.4636 -0.3638 -0.1862
  547TMC3     C 8118   1.272   2.314  17.067  0.2543 -0.0425 -0.3216
  547TMC3     O 8119   1.294   2.351  16.955 -0.4181 -0.3039  0.1249
  547TMC3     H 8120   1.150   2.202  16.862 -0.5789  2.0502  1.3846
  547TMC3    H1 8121   1.171   2.183  17.282 -3.2548  0.1783  1.1302
  547TMC3    H2 8122   1.035   1.844  17.032 -0.3436  0.3243 -1.6160
  547TMC3    C7 8123   1.053   1.927  17.296 -0.1273 -0.4857 -0.0900
  547TMC3    C8 8124   1.030   1.992  16.829  0.4872  0.4040  0.2064
  547TMC3    O1 8125   1.074   1.976  17.407 -0.0115 -0.5372  0.0279
  547TMC3    O2 8126   0.963   2.083  16.782 -0.0219 -0.1722  0.4127
  548MPD2     C 8127   1.420   2.848  12.122 -0.0360 -0.4252  0.5429
  548MPD2    C1 8128   1.327   2.749  12.165 -0.2200  0.1720  0.2268
  548MPD2    C2 8129   1.386   2.618  12.183  0.2824 -0.7441  0.6613
  548MPD2    C3 8130   1.514   2.589  12.134 -0.7581  0.3807 -0.5157
  548MPD2    C4 8131   1.595   2.691  12.086  0.3387 -0.5626 -0.1854
  548MPD2    C5 8132   1.553   2.816  12.088 -0.5063  0.5773 -0.5702
  548MPD2     H 8133   1.328   2.541  12.231  0.9481 -3.1411 -2.3963
  548MPD2    H1 8134   1.692   2.674  12.042  0.6226  1.9379 -0.5510
  548MPD2    H2 8135   1.386   2.950  12.115  1.3196 -0.1432 -1.9283
  548MPD2    H3 8136   1.625   2.891  12.057 -0.1266  0.0696 -0.9110
  548MPD2     N 8137   1.568   2.465  12.166  0.3687 -0.0339  0.5758
  548MPD2    H5 8138   1.526   2.415  12.243  1.5865 -0.8044  0.7338
  548MPD2    N1 8139   1.193   2.781  12.190 -0.7744  0.6540  0.1854
  548MPD2    H7 8140   1.173   2.879  12.202  0.3510  0.7100  1.6523
  549TMC3    C1 8141   0.995   2.718  12.298  0.3270 -0.2336  0.5271
  549TMC3    C2 8142   0.940   2.844  12.308 -1.0598 -0.1799 -0.6580
  549TMC3    C3 8143   0.849   2.865  12.408  0.0749 -0.2620 -0.2545
  549TMC3    C4 8144   0.968   2.621  12.391  0.1696 -0.5833 -0.1371
  549TMC3    C5 8145   0.884   2.650  12.493  0.2342  0.0924 -0.5266
  549TMC3    C6 8146   0.823   2.768  12.504  0.1569  0.2291 -0.0358
  549TMC3     C 8147   1.102   2.683  12.214 -0.1292  0.2137 -0.3067
  549TMC3     O 8148   1.107   2.563  12.192  0.1678 -0.4907 -0.0866
  549TMC3     H 8149   0.968   2.926  12.244  2.2560 -1.6649 -1.1314
  549TMC3    H1 8150   1.029   2.532  12.394 -1.0811 -1.4484 -0.6146
  549TMC3    H2 8151   0.756   2.788  12.587 -0.9530  2.0814 -1.3849
  549TMC3    C7 8152   0.837   2.531  12.561  0.4126  0.0998  0.3841
  549TMC3    C8 8153   0.771   2.989  12.401 -1.1859  1.2746  1.2763
  549TMC3    O1 8154   0.718   2.530  12.600  0.1694 -0.4802  0.5863
  549TMC3    O2 8155   0.760   3.043  12.292 -0.0790 -0.3561  0.4511
  550TMC3    C1 8156   0.143   0.449  12.326  0.6077  0.3339  0.6359
  550TMC3    C2 8157   0.102   0.547  12.408  0.6776 -2.0079 -0.0268
  550TMC3    C3 8158   4.692   0.579  12.418 -0.8432  0.2477 -0.1651
  550TMC3    C4 8159   0.055   0.375  12.253  0.3633 -0.2371  0.7147
  550TMC3    C5 8160   4.643   0.411  12.262 -0.6506  0.3189 -0.3803
  550TMC3    C6 8161   4.595   0.505  12.347  0.7900  1.6577  0.2914
  550TMC3     C 8162   0.279   0.444  12.277 -0.2758 -0.7070  0.4762
  550TMC3     O 8163   0.370   0.486  12.348 -0.1907  0.0971 -0.3473
  550TMC3     H 8164   0.185   0.595  12.459 -1.4789  1.5123  0.1506
  550TMC3    H1 8165   0.091   0.283  12.207 -0.9491 -0.4115  0.0538
  550TMC3    H2 8166   4.490   0.532  12.350  0.3075 -0.0831 -0.9150
  550TMC3    C7 8167   4.581   0.422  12.139  0.2215 -0.3846  0.3459
  550TMC3    C8 8168   4.667   0.725  12.419  0.2042 -0.2941  0.0309
  550TMC3    O1 8169   4.500   0.516  12.127  0.3801  0.0995  0.6020
  550TMC3    O2 8170   0.010   0.791  12.499 -0.1440 -0.7517 -0.0714
  551TMC3    C1 8171   2.302   3.181  13.199 -0.0023  0.1900  0.6177
  551TMC3    C2 8172   2.383   3.241  13.108  0.2623 -0.0325  0.1869
  551TMC3    C3 8173   2.434   3.363  13.146  0.1558  0.1571 -0.2563
  551TMC3    C4 8174   2.275   3.227  13.328  0.2063  0.3636  0.3785
  551TMC3    C5 8175   2.322   3.349  13.354  0.0194 -0.5261 -0.0945
  551TMC3    C6 8176   2.414   3.409  13.272  0.4201 -0.7089 -0.6728
  551TMC3     C 8177   2.226   3.068  13.148  0.4310  0.2828 -0.0955
  551TMC3     O 8178   2.220   3.064  13.028 -0.1019  0.4873 -0.3284
  551TMC3     H 8179   2.403   3.189  13.015 -3.3132  1.1879 -1.2540
  551TMC3    H1 8180   2.203   3.175  13.390  0.0970 -1.2699 -1.0977
  551TMC3    H2 8181   2.460   3.505  13.292  1.0020 -1.4091  1.3000
  551TMC3    C7 8182   2.294   3.407  13.484  0.1222 -0.3416 -0.7268
  551TMC3    C8 8183   2.519   3.426  13.050  0.2373  0.5993  0.2064
  551TMC3    O1 8184   2.235   3.347  13.574 -0.2000 -0.0696  0.0885
  551TMC3    O2 8185   2.577   3.361  12.966  0.4647  1.4763  0.4035
  552MPD2     C 8186   3.799   0.387  14.136  0.0153  0.7063  0.0031
  552MPD2    C1 8187   3.929   0.427  14.110 -0.1040 -0.1349  1.1652
  552MPD2    C2 8188   4.013   0.465  14.211 -0.5122 -0.8049  0.0944
  552MPD2    C3 8189   3.968   0.451  14.343 -0.8723  0.0596 -0.9491
  552MPD2    C4 8190   3.837   0.405  14.367 -0.5150 -0.1233  0.1346
  552MPD2    C5 8191   3.749   0.382  14.265 -1.0265 -0.3541  0.1751
  552MPD2     H 8192   4.105   0.513  14.180 -1.3155  0.5346 -0.1939
  552MPD2    H1 8193   3.813   0.394  14.472  1.9996  0.9553  0.8192
  552MPD2    H2 8194   3.733   0.351  14.058  2.1884  1.2004 -2.0749
  552MPD2    H3 8195   3.647   0.350  14.285 -1.4608  0.5389 -0.5981
  552MPD2     N 8196   4.041   0.479  14.459 -0.2902 -0.3973  0.3503
  552MPD2    H5 8197   4.008   0.454  14.552  0.0110  2.7056  1.2949
  552MPD2    N1 8198   3.984   0.425  13.977  0.9523  0.0780  0.4387
  552MPD2    H7 8199   4.082   0.446  13.961  1.1317  0.1601  1.6290
  553TMC3    C1 8200   4.005   0.389  13.741 -0.0535  0.0678 -0.2083
  553TMC3    C2 8201   3.953   0.422  13.625 -0.2372 -0.4684  0.6347
  553TMC3    C3 8202   3.980   0.353  13.514  0.0731  0.0583  0.2844
  553TMC3    C4 8203   4.082   0.278  13.758  0.5227 -0.1209  0.6018
  553TMC3    C5 8204   4.107   0.205  13.641  0.1562  0.7531 -0.6340
  553TMC3    C6 8205   4.057   0.239  13.519 -0.2170 -0.3926 -0.7975
  553TMC3     C 8206   3.916   0.408  13.861 -0.1004 -0.0458  0.4342
  553TMC3     O 8207   3.796   0.421  13.838 -0.9605  0.3311 -0.4840
  553TMC3     H 8208   3.907   0.520  13.627  0.2124 -0.2741  1.3821
  553TMC3    H1 8209   4.105   0.242  13.857  0.5510 -1.5817  0.0667
  553TMC3    H2 8210   4.104   0.198  13.430  1.3233 -2.0827  0.7877
  553TMC3    C7 8211   4.228   0.122  13.627  1.2993  0.3948 -0.7179
  553TMC3    C8 8212   4.020   0.435  13.408  0.5597  0.1201 -0.8312
  553TMC3    O1 8213   4.244   0.052  13.527  0.4111 -0.6095 -0.2269
  553TMC3    O2 8214   4.055   0.552  13.432  0.1985  0.0635 -0.3508
  554TMC3    C1 8215   1.741   4.284  11.558  0.2937 -0.0715 -0.6680
  554TMC3    C2 8216   1.661   4.194  11.494  0.6048  0.6347  0.2905
  554TMC3    C3 8217   1.690   4.155  11.366 -0.1645  0.7956  0.3478
  554TMC3    C4 8218   1.830   4.363  11.484  0.0023  1.3261  0.4431
  554TMC3    C5 8219   1.839   4.337  11.351  0.3631  0.7263 -0.6116
  554TMC3    C6 8220   1.780   4.228  11.289  0.4335  0.6161 -0.0084
  554TMC3     C 8221   1.744   4.308  11.702  0.4660  0.9346 -0.1707
  554TMC3     O 8222   1.771   4.419  11.743 -0.2154  0.1272  0.5292
  554TMC3     H 8223   1.587   4.139  11.552  2.6448 -0.7678  1.5605
  554TMC3    H1 8224   1.899   4.430  11.536  0.2996  1.6774 -0.4059
  554TMC3    H2 8225   1.808   4.194  11.190 -2.2268 -0.7568 -0.2964
  554TMC3    C7 8226   1.884   4.451  11.270 -0.4492  0.3940 -0.5867
  554TMC3    C8 8227   1.601   4.074  11.276 -0.4521  0.1153  0.1398
  554TMC3    O1 8228   1.897   4.441  11.147 -0.0737 -0.1631  1.0468
  554TMC3    O2 8229   1.620   4.068  11.156 -0.0051  0.0704  0.9800
  555TMC3    C1 8230   0.292   3.963  14.771 -0.6494  0.1517  0.0958
  555TMC3    C2 8231   0.213   4.056  14.834 -0.5189 -0.3817 -0.9020
  555TMC3    C3 8232   0.210   4.050  14.973  0.2393 -0.1082 -0.4973
  555TMC3    C4 8233   0.347   3.859  14.835 -0.1231  0.4079  0.2493
  555TMC3    C5 8234   0.327   3.858  14.972  0.0934  0.5121 -0.7200
  555TMC3    C6 8235   0.264   3.952  15.045  0.1777  0.8320 -0.2277
  555TMC3     C 8236   0.305   3.973  14.625 -0.1186  0.2653 -0.0029
  555TMC3     O 8237   0.408   3.938  14.571  0.1239 -0.2435 -0.2513
  555TMC3     H 8238   0.180   4.148  14.787 -0.5451  0.9078  1.6412
  555TMC3    H1 8239   0.397   3.785  14.773  1.2693  2.3742 -0.9961
  555TMC3    H2 8240   0.249   3.931  15.151  0.6191 -0.3786 -0.4003
  555TMC3    C7 8241   0.361   3.744  15.051 -0.2857 -0.8559  0.4820
  555TMC3    C8 8242   0.124   4.145  15.045 -0.4475  0.0319 -0.7186
  555TMC3    O1 8243   0.281   3.701  15.137 -0.0408 -0.0825 -0.2812
  555TMC3    O2 8244   0.035   4.203  14.984  0.5918  0.3201 -0.2781
  556MPD2     C 8245   3.589   0.205  10.636 -0.4179  0.8956 -0.2589
  556MPD2    C1 8246   3.479   0.131  10.673  0.3319  0.3182  0.1835
  556MPD2    C2 8247   3.448   0.008  10.618 -0.2414  0.4114 -0.8969
  556MPD2    C3 8248   3.512   4.702  10.498 -0.5117  0.0383  0.2072
  556MPD2    C4 8249   3.621   0.061  10.455  0.0300 -0.3036  0.2000
  556MPD2    C5 8250   3.660   0.174  10.525  0.3522 -0.3007 -0.0759
  556MPD2     H 8251   3.357   4.677  10.640 -0.4514  1.4226  0.7787
  556MPD2    H1 8252   3.670   0.046  10.359 -0.3432  0.0427 -0.0444
  556MPD2    H2 8253   3.604   0.299  10.688  0.1797 -0.4061  1.9203
  556MPD2    H3 8254   3.740   0.235  10.484 -0.9144  0.4761 -1.3513
  556MPD2     N 8255   3.457   4.597  10.417  0.7208  0.1349  0.4399
  556MPD2    H5 8256   3.395   4.531  10.463  1.1210 -2.2623 -2.4509
  556MPD2    N1 8257   3.418   0.185  10.791  0.5609 -0.1308 -0.1956
  556MPD2    H7 8258   3.458   0.269  10.831  1.2591 -1.1395  1.2539
  557TMC3    C1 8259   3.415   4.469  10.234  1.2419 -0.3369 -0.3958
  557TMC3    C2 8260   3.455   4.416  10.115  0.4102 -0.0473 -0.7454
  557TMC3    C3 8261   3.360   4.351  10.036  0.4890  0.3423 -0.0337
  557TMC3    C4 8262   3.293   4.438  10.283  1.1610 -0.1899  0.4662
  557TMC3    C5 8263   3.204   4.376  10.198  0.4681  0.0228 -0.4392
  557TMC3    C6 8264   3.230   4.328  10.077  0.5167 -0.4042  0.2073
  557TMC3     C 8265   3.489   4.579  10.287 -0.1094 -0.1204 -0.0739
  557TMC3     O 8266   3.571   4.631  10.213 -0.2287 -0.0301 -0.7707
  557TMC3     H 8267   3.560   4.423  10.093  0.3301  0.3117 -1.0148
  557TMC3    H1 8268   3.259   4.473  10.379  1.6515  0.6728  0.3194
  557TMC3    H2 8269   3.153   4.281  10.017 -0.2908  0.2549  0.7421
  557TMC3    C7 8270   3.068   4.407  10.232 -0.5177 -0.0078  0.5057
  557TMC3    C8 8271   3.378   4.366   9.898 -0.2938  0.1481 -0.2494
  557TMC3    O1 8272   3.045   4.527  10.260 -0.6984 -0.7640  0.4951
  557TMC3    O2 8273   3.440   4.465   9.865  0.5542 -0.3748 -0.3236
  558TMC3    C1 8274   1.305   2.947  10.334 -0.0562  0.2740 -0.5014
  558TMC3    C2 8275   1.181   2.965  10.399 -0.5745  0.0972 -0.6711
  558TMC3    C3 8276   1.087   3.046  10.340 -0.4494 -0.0663  0.4988
  558TMC3    C4 8277   1.326   3.002  10.214  0.4184  0.5658  0.8365
  558TMC3    C5 8278   1.233   3.082  10.158  1.2232 -0.2756 -0.9380
  558TMC3    C6 8279   1.113   3.107  10.216 -0.7157  0.2734  0.8220
  558TMC3     C 8280   1.417   2.946  10.419 -0.1761  1.0546  0.2361
  558TMC3     O 8281   1.528   2.923  10.365  0.1804  0.0422 -0.3173
  558TMC3     H 8282   1.173   2.921  10.498 -1.6352 -2.0896 -1.7249
  558TMC3    H1 8283   1.423   3.007  10.164  0.4124  2.1376  0.9876
  558TMC3    H2 8284   1.050   3.182  10.170 -1.4064 -0.5266  0.4607
  558TMC3    C7 8285   1.245   3.103  10.019 -0.1184  0.6377  0.6400
  558TMC3    C8 8286   0.953   3.043  10.390  0.6558  0.0710  0.1697
  558TMC3    O1 8287   1.179   3.189   9.962  0.5381  0.3697 -0.2048
  558TMC3    O2 8288   0.884   3.138  10.358  0.3477  0.0855 -0.3000
  559MPD2     C 8289   1.112   3.417  10.509  0.0918  0.3442  0.0967
  559MPD2    C1 8290   1.072   3.356  10.626 -0.0196 -0.2596 -0.0060
  559MPD2    C2 8291   1.158   3.348  10.733  0.4197  0.5524  0.2995
  559MPD2    C3 8292   1.284   3.412  10.732  0.0298  0.2711 -0.0168
  559MPD2    C4 8293   1.324   3.467  10.612 -0.2209 -0.6008 -0.0590
  559MPD2    C5 8294   1.240   3.466  10.502  0.5256 -0.0013  0.5659
  559MPD2     H 8295   1.121   3.316  10.830  0.3886 -0.6959 -0.1231
  559MPD2    H1 8296   1.424   3.507  10.614  0.2213 -1.8169  1.7804
  559MPD2    H2 8297   1.043   3.438  10.428 -0.7540  0.0178  0.7335
  559MPD2    H3 8298   1.269   3.513  10.409 -3.0302  2.5928  0.7790
  559MPD2     N 8299   1.350   3.423  10.856 -0.0702  0.6266  0.6944
  559MPD2    H5 8300   1.323   3.357  10.929  1.8966 -0.1914  0.6715
  559MPD2    N1 8301   0.935   3.334  10.631  0.5742 -0.7824  0.8272
  559MPD2    H7 8302   0.876   3.383  10.565  2.0643  0.7819  0.6416
  560TMC3    C1 8303   1.420   3.551  11.033 -0.0146  0.5921  0.7834
  560TMC3    C2 8304   1.337   3.476  11.114 -0.2374 -0.5418  0.5143
  560TMC3    C3 8305   1.356   3.476  11.252  0.6758  1.1093  0.0279
  560TMC3    C4 8306   1.532   3.610  11.083 -0.1558  0.1654 -0.0352
  560TMC3    C5 8307   1.552   3.604  11.219  0.1006 -1.0514 -0.3290
  560TMC3    C6 8308   1.468   3.538  11.306  0.3942  0.5633  0.8128
  560TMC3     C 8309   1.423   3.532  10.888  0.0608 -0.3700 -0.1680
  560TMC3     O 8310   1.454   3.628  10.822  0.0995  0.4965 -0.4872
  560TMC3     H 8311   1.257   3.413  11.076  0.7630 -2.0836  1.0203
  560TMC3    H1 8312   1.594   3.675  11.021 -1.0554 -1.3261 -2.5144
  560TMC3    H2 8313   1.489   3.547  11.412  0.7228  0.3651  0.7648
  560TMC3    C7 8314   1.674   3.649  11.277  0.4562  0.4948  0.0434
  560TMC3    C8 8315   1.293   3.355  11.304 -0.3461  0.1524 -0.6233
  560TMC3    O1 8316   1.711   3.596  11.380 -0.1402  0.2203 -0.0004
  560TMC3    O2 8317   1.179   3.339  11.268  0.1578  0.0814 -0.2932
  561TMC3    C1 8318   3.789   2.597  11.213 -0.1328 -0.8321 -0.2946
  561TMC3    C2 8319   3.686   2.518  11.264  0.2659 -0.2380  0.7400
  561TMC3    C3 8320   3.565   2.577  11.296 -0.3187 -0.2367  0.2443
  561TMC3    C4 8321   3.770   2.725  11.162 -0.0773 -0.0497 -0.5173
  561TMC3    C5 8322   3.650   2.773  11.189 -0.0722  1.4635 -0.0745
  561TMC3    C6 8323   3.547   2.708  11.260 -0.1483  0.1412 -0.6447
  561TMC3     C 8324   3.926   2.550  11.242  0.6552 -0.1113 -0.9087
  561TMC3     O 8325   3.933   2.432  11.269 -0.0960  0.0115  0.4939
  561TMC3     H 8326   3.711   2.422  11.308 -1.3258 -1.1472 -0.3465
  561TMC3    H1 8327   3.851   2.787  11.125  0.6335 -0.4091  0.4293
  561TMC3    H2 8328   3.462   2.765  11.294  0.9126  0.0202  2.1897
  561TMC3    C7 8329   3.608   2.902  11.143  0.6813  0.3298 -0.3953
  561TMC3    C8 8330   3.517   2.531  11.430 -0.0353 -0.2321 -0.6508
  561TMC3    O1 8331   3.493   2.934  11.157  0.2972 -0.1161 -0.0290
  561TMC3    O2 8332   3.510   2.407  11.452 -0.3328 -0.0656  0.1198
  562TMC3    C1 8333   0.471   4.555  16.220 -0.3038  0.0954 -0.3816
  562TMC3    C2 8334   0.350   4.617  16.219 -0.5044 -0.6843 -0.6813
  562TMC3    C3 8335   0.242   4.556  16.282  0.3443 -0.1652 -0.5524
  562TMC3    C4 8336   0.486   4.430  16.279 -0.4472 -0.0134  0.3644
  562TMC3    C5 8337   0.379   4.375  16.346  0.1653  0.9800 -0.1204
  562TMC3    C6 8338   0.258   4.431  16.338 -0.4861  0.5600  0.8323
  562TMC3     C 8339   0.570   4.576  16.121 -0.4012  0.1215  0.1631
  562TMC3     O 8340   0.533   4.620  16.013  0.2697  0.0745 -0.6352
  562TMC3     H 8341   0.335   4.719  16.185  0.7572 -0.1502  0.3791
  562TMC3    H1 8342   0.584   4.391  16.306 -0.0286 -0.1369 -1.3549
  562TMC3    H2 8343   0.171   4.391  16.389  0.7476  1.0364  3.3112
  562TMC3    C7 8344   0.391   4.245  16.410  0.4450 -0.4847  0.8421
  562TMC3    C8 8345   0.129   4.633  16.325 -0.7840 -0.6378  0.1490
  562TMC3    O1 8346   0.298   4.207  16.479 -0.4639  0.7351 -0.7847
  562TMC3    O2 8347   0.109   4.651  16.447  0.6719  0.2432  0.3882
  563MPD2     C 8348   2.609   1.036  15.396  0.3985  0.4595  0.0047
  563MPD2    C1 8349   2.594   1.077  15.531  0.0455  0.1093  0.5515
  563MPD2    C2 8350   2.691   1.014  15.614 -0.3725 -0.0418  0.1285
  563MPD2    C3 8351   2.782   0.920  15.575  0.4485 -0.1554 -0.0149
  563MPD2    C4 8352   2.782   0.880  15.442 -0.1284  0.2243  0.3497
  563MPD2    C5 8353   2.699   0.945  15.349  0.6264  0.5380  0.0165
  563MPD2     H 8354   2.691   1.041  15.719  1.9119 -1.7822  0.5827
  563MPD2    H1 8355   2.857   0.809  15.409  0.9061  0.6865  1.7095
  563MPD2    H2 8356   2.532   1.069  15.326  0.5079 -0.9431 -0.7611
  563MPD2    H3 8357   2.691   0.903  15.250 -1.8080  0.9185  0.0555
  563MPD2     N 8358   2.877   0.869  15.666  0.3970  0.0468  0.2468
  563MPD2    H5 8359   2.863   0.909  15.759 -0.4903  1.7487 -0.6155
  563MPD2    N1 8360   2.490   1.160  15.580 -0.0756 -0.3756  0.2294
  563MPD2    H7 8361   2.488   1.175  15.680  1.3467  2.0520 -0.1122
  564TMC3    C1 8362   2.292   1.262  15.597 -0.0188 -0.4894 -0.3264
  564TMC3    C2 8363   2.183   1.180  15.609  0.1473 -0.0626 -0.4071
  564TMC3    C3 8364   2.154   1.139  15.736  0.7634 -0.2096  0.1508
  564TMC3    C4 8365   2.352   1.319  15.709 -0.1794 -0.3217  0.0751
  564TMC3    C5 8366   2.303   1.290  15.832  0.3093  0.3810 -0.0356
  564TMC3    C6 8367   2.199   1.205  15.846 -0.7064  0.0144 -0.0566
  564TMC3     C 8368   2.386   1.213  15.505 -0.1922  0.4670 -0.3718
  564TMC3     O 8369   2.350   1.181  15.393 -0.2660  0.3261 -0.2235
  564TMC3     H 8370   2.146   1.131  15.519 -0.5513  0.8301 -0.6095
  564TMC3    H1 8371   2.438   1.385  15.704 -0.4136  0.1311  2.1440
  564TMC3    H2 8372   2.165   1.169  15.942 -0.1328  0.0025  0.1391
  564TMC3    C7 8373   2.409   1.253  15.915 -1.0800  0.2790  0.3352
  564TMC3    C8 8374   2.156   0.991  15.759 -0.3623 -0.1188 -0.1163
  564TMC3    O1 8375   2.510   1.222  15.850  0.1922  0.6029 -0.0065
  564TMC3    O2 8376   2.198   0.958  15.869 -0.2593  0.4430  0.5763
  565TMC3    C1 8377   2.407   1.815  10.201 -0.0258 -1.0033 -0.2481
  565TMC3    C2 8378   2.415   1.790  10.331 -0.0835  0.0686 -0.8312
  565TMC3    C3 8379   2.297   1.751  10.387 -0.0730 -0.1837 -0.0848
  565TMC3    C4 8380   2.296   1.798  10.125 -0.0113  1.2095  0.3995
  565TMC3    C5 8381   2.189   1.746  10.190  0.3563  0.4915  1.0212
  565TMC3    C6 8382   2.179   1.740  10.325 -0.6381 -0.2296  0.6194
  565TMC3     C 8383   2.529   1.842  10.121 -0.1057 -0.0699  0.4830
  565TMC3     O 8384   2.517   1.816  10.001  0.8447 -0.8305  1.0360
  565TMC3     H 8385   2.512   1.800  10.379  0.9476 -0.7113 -2.7343
  565TMC3    H1 8386   2.306   1.793  10.017  0.5396 -0.6064  0.5373
  565TMC3    H2 8387   2.103   1.673  10.363 -1.9508  0.6707 -0.4408
  565TMC3    C7 8388   2.087   1.692  10.102  0.0559  0.7920  0.1808
  565TMC3    C8 8389   2.306   1.761  10.528 -0.2605 -0.4248  0.6396
  565TMC3    O1 8390   2.125   1.673   9.985 -0.7331  0.0434  0.6674
  565TMC3    O2 8391   2.416   1.775  10.579  0.0450 -0.8523  0.1658
  566MPD2     C 8392   4.067   3.911  13.916 -0.2406  0.3950  0.0530
  566MPD2    C1 8393   4.168   3.940  13.829  0.3496  0.1734 -0.7988
  566MPD2    C2 8394   4.176   3.867  13.711 -0.0648  0.2159 -0.2130
  566MPD2    C3 8395   4.092   3.762  13.686  0.4309  0.1560 -0.5016
  566MPD2    C4 8396   4.000   3.731  13.781 -0.3482 -0.0488  0.0148
  566MPD2    C5 8397   3.987   3.806  13.889  0.7092 -0.6970 -0.6050
  566MPD2     H 8398   4.245   3.898  13.633  1.3144  0.3206  1.0375
  566MPD2    H1 8399   3.930   3.650  13.762 -0.1586 -0.4066  0.8410
  566MPD2    H2 8400   4.043   3.980  13.996 -0.5558 -0.0445  0.3351
  566MPD2    H3 8401   3.906   3.788  13.959 -1.3797 -1.5933 -3.2399
  566MPD2     N 8402   4.100   3.680  13.573  0.3815 -0.1609  0.4887
  566MPD2    H5 8403   4.038   3.600  13.565  1.5580 -0.9844 -0.5840
  566MPD2    N1 8404   4.258   4.048  13.853 -0.5760 -0.1406  0.2841
  566MPD2    H7 8405   4.259   4.086  13.947 -1.6498 -0.4352  0.4187
  567TMC3    C1 8406   4.481   4.120  13.811  0.5523 -0.7380  0.2600
  567TMC3    C2 8407   4.568   4.162  13.715 -0.2918  0.2316 -0.0243
  567TMC3    C3 8408   4.702   4.124  13.723  0.5849 -0.3011  0.8386
  567TMC3    C4 8409   4.526   4.041  13.908 -0.2464 -0.4168 -0.1414
  567TMC3    C5 8410   4.656   4.002  13.910 -0.5606 -0.0441 -0.1670
  567TMC3    C6 8411   0.023   4.045  13.820  0.0123  0.1933  0.2667
  567TMC3     C 8412   4.350   4.088  13.759  1.2481 -0.1709 -0.5951
  567TMC3     O 8413   4.333   4.095  13.638 -0.2588  0.3381 -0.1155
  567TMC3     H 8414   4.527   4.234  13.645  0.4965 -1.0522 -1.8201
  567TMC3    H1 8415   4.452   3.992  13.971 -1.0891 -1.0184 -1.6148
  567TMC3    H2 8416   0.127   4.019  13.836 -0.1099 -0.1096  0.5746
  567TMC3    C7 8417   4.715   3.926  14.019  0.4117  0.5980 -0.0127
  567TMC3    C8 8418   0.051   4.117  13.600 -0.4081 -0.0368  0.3596
  567TMC3    O1 8419   0.096   3.865  14.004 -0.0380 -0.1234  0.1106
  567TMC3    O2 8420   4.709   4.094  13.495 -0.3356 -0.0911  0.2131
  568MPD2     C 8421   2.268   4.206  16.228 -0.2133  0.3806 -0.2418
  568MPD2    C1 8422   2.293   4.286  16.336 -0.1807  0.7485  0.3927
  568MPD2    C2 8423   2.311   4.421  16.327 -0.1016 -0.4126 -0.1624
  568MPD2    C3 8424   2.322   4.477  16.204  0.2961  0.2751 -0.3317
  568MPD2    C4 8425   2.295   4.397  16.095 -0.4414 -0.2113  0.5848
  568MPD2    C5 8426   2.264   4.261  16.107  0.5335  0.5207  0.4333
  568MPD2     H 8427   2.345   4.482  16.410  0.6275 -0.3009 -0.5412
  568MPD2    H1 8428   2.304   4.437  15.995 -1.5787 -1.8393 -0.1679
  568MPD2    H2 8429   2.251   4.099  16.229 -2.1572  0.6952 -0.1262
  568MPD2    H3 8430   2.260   4.204  16.014 -1.6388  1.0504  0.1947
  568MPD2     N 8431   2.327   4.619  16.188 -0.1544 -0.7113 -0.6680
  568MPD2    H5 8432   2.313   4.673  16.273  0.8051 -1.0863 -0.2669
  568MPD2    N1 8433   2.319   4.216  16.451  0.5513  0.7985 -0.5349
  568MPD2    H7 8434   2.302   4.116  16.450 -1.4332  1.1398  0.1378
  569TMC3    C1 8435   2.343   0.097  16.063 -0.0415  0.7359  0.1469
  569TMC3    C2 8436   2.331   0.172  16.180 -0.5101  0.1945  0.1966
  569TMC3    C3 8437   2.290   0.306  16.176 -0.2605  0.7943  0.1651
  569TMC3    C4 8438   2.311   0.152  15.944  0.6400 -0.9830 -0.3371
  569TMC3    C5 8439   2.259   0.283  15.940  0.5369 -0.2738 -0.1227
  569TMC3    C6 8440   2.253   0.358  16.046 -0.4918  0.9000  0.0033
  569TMC3     C 8441   2.359   4.684  16.071 -0.1325 -0.3989 -0.8289
  569TMC3     O 8442   2.421   4.642  15.974 -0.6687 -0.0851  0.0339
  569TMC3     H 8443   2.366   0.131  16.274  0.0020  4.4177  1.8331
  569TMC3    H1 8444   2.304   0.090  15.854 -1.6916 -0.5026 -0.5016
  569TMC3    H2 8445   2.203   0.454  16.052 -2.9184 -0.2403 -2.1087
  569TMC3    C7 8446   2.214   0.335  15.817  0.2439 -0.2890  0.3697
  569TMC3    C8 8447   2.319   0.403  16.282 -0.3221 -0.0349  0.4342
  569TMC3    O1 8448   2.164   0.256  15.741  0.0320 -0.0168  0.1764
  569TMC3    O2 8449   2.267   0.515  16.273 -0.0729  0.3077  0.2441
  570TMC3    C1 8450   1.296   2.976  16.007  0.3616 -0.4980 -0.1123
  570TMC3    C2 8451   1.402   3.007  15.926  0.0680 -0.2224  0.0857
  570TMC3    C3 8452   1.408   3.127  15.875  0.0982 -0.0798  0.3808
  570TMC3    C4 8453   1.188   3.052  16.025 -0.7128 -0.1220 -1.0493
  570TMC3    C5 8454   1.197   3.189  15.974 -0.5342  0.0891  0.0542
  570TMC3    C6 8455   1.313   3.224  15.905 -0.1996  0.0041 -0.5713
  570TMC3     C 8456   1.295   2.848  16.056  0.2201  0.0494 -0.3086
  570TMC3     O 8457   1.346   2.772  15.979 -0.7034  0.1985 -0.1105
  570TMC3     H 8458   1.485   2.939  15.911  1.4523  0.8667  2.7249
  570TMC3    H1 8459   1.104   3.043  16.093 -1.5896  0.6242 -2.0303
  570TMC3    H2 8460   1.336   3.326  15.874 -2.3322 -0.4133 -3.5077
  570TMC3    C7 8461   1.159   3.301  16.062 -0.2358  0.3350 -0.9461
  570TMC3    C8 8462   1.527   3.176  15.825  0.4053 -0.2038 -0.3176
  570TMC3    O1 8463   1.141   3.269  16.181  0.0551  0.3767  0.1941
  570TMC3    O2 8464   1.559   3.287  15.866 -0.5415 -0.0971  0.7273
  571MPD2     C 8465   4.723   0.176  17.034  0.1993  0.0162  0.3548
  571MPD2    C1 8466   4.638   0.067  17.053  0.8152 -0.3284 -0.2641
  571MPD2    C2 8467   4.533   0.079  17.154  0.4861 -0.5169  0.2195
  571MPD2    C3 8468   4.532   0.194  17.232 -0.3271  0.2984 -0.5464
  571MPD2    C4 8469   4.617   0.299  17.208 -0.5106  0.7282 -0.6924
  571MPD2    C5 8470   4.703   0.295  17.101  0.0552 -0.9098 -0.1798
  571MPD2     H 8471   4.461   4.722  17.162 -1.0453  0.7911 -0.4530
  571MPD2    H1 8472   4.586   0.392  17.254 -2.3399 -0.9898  1.5716
  571MPD2    H2 8473   0.073   0.168  16.955 -0.9011  0.3718 -0.7085
  571MPD2    H3 8474   0.035   0.385  17.077 -0.4609 -0.7640 -0.8368
  571MPD2     N 8475   4.440   0.217  17.334  0.6430  0.7957 -0.8801
  571MPD2    H5 8476   4.470   0.293  17.394  3.0919 -2.1316  1.6036
  571MPD2    N1 8477   4.670   4.678  16.969 -0.5424 -0.6588 -0.0007
  571MPD2    H7 8478   0.017   4.697  16.899 -0.6589 -2.2133 -0.5467
  572TMC3    C1 8479   4.242   0.189  17.474 -0.5346  0.3084  0.4068
  572TMC3    C2 8480   4.144   0.103  17.525  0.4610  0.5877  0.6872
  572TMC3    C3 8481   4.056   0.157  17.614  0.0873  0.0430  0.0092
  572TMC3    C4 8482   4.268   0.310  17.524 -0.3337  0.3240 -0.1754
  572TMC3    C5 8483   4.180   0.354  17.618  0.5345  0.3387 -0.1472
  572TMC3    C6 8484   4.076   0.279  17.670 -0.2388 -0.0444 -0.8802
  572TMC3     C 8485   4.329   0.138  17.369 -0.2104 -0.1969  0.5615
  572TMC3     O 8486   4.289   0.036  17.316  0.1620  0.2443 -0.2907
  572TMC3     H 8487   4.106   0.014  17.476 -1.6091  0.7603  1.9941
  572TMC3    H1 8488   4.322   0.385  17.468  0.6211  0.2179  0.6096
  572TMC3    H2 8489   3.997   0.323   0.033  1.2403 -0.7632  1.6204
  572TMC3    C7 8490   4.169   0.502  17.627  0.6795 -0.1388 -0.5766
  572TMC3    C8 8491   3.931   0.091  17.633 -0.7420  0.1425  0.3431
  572TMC3    O1 8492   4.192   0.573  17.528 -0.4227  0.0906  0.1842
  572TMC3    O2 8493   3.876   0.045  17.533  0.0455 -0.0704  0.0981
  573MPD2     C 8494   1.325   1.235   0.285  0.5652 -0.0607 -0.0342
  573MPD2    C1 8495   1.206   1.213   0.225  0.0616 -0.3235 -0.4327
  573MPD2    C2 8496   1.182   1.291   0.107 -0.3734  0.8238 -0.4153
  573MPD2    C3 8497   1.279   1.381   0.055  0.0456  0.1085  0.2079
  573MPD2    C4 8498   1.397   1.406   0.133 -0.1675 -0.6267 -0.3091
  573MPD2    C5 8499   1.417   1.326   0.239  0.3925 -0.3425 -0.1513
  573MPD2     H 8500   1.092   1.263   0.053 -1.5880  3.2926  0.3272
  573MPD2    H1 8501   1.482   1.463   0.097 -0.1995 -0.6116 -0.3620
  573MPD2    H2 8502   1.357   1.171   0.367  0.0656  0.9220  0.9380
  573MPD2    H3 8503   1.515   1.314   0.284 -1.1224  1.6439  3.6962
  573MPD2     N 8504   1.277   1.439  17.621 -0.5922 -0.0350 -0.4336
  573MPD2    H5 8505   1.360   1.494  17.599 -0.3024 -0.3408 -0.1056
  573MPD2    N1 8506   1.124   1.112   0.286  0.5609  0.4899  0.2781
  573MPD2    H7 8507   1.165   1.054   0.358 -0.5183  0.9383  1.2557
  574TMC3    C1 8508   1.227   1.489  17.397 -0.4418  0.7833  0.3111
  574TMC3    C2 8509   1.168   1.447  17.277  0.1622 -0.3584 -0.4335
  574TMC3    C3 8510   1.175   1.530  17.172 -0.8401  0.8094 -0.0534
  574TMC3    C4 8511   1.286   1.608  17.410 -0.2722 -0.0607 -0.7534
  574TMC3    C5 8512   1.295   1.689  17.294 -1.0312 -0.5866  0.0617
  574TMC3    C6 8513   1.248   1.650  17.177  0.1364  1.0430 -0.3702
  574TMC3     C 8514   1.186   1.418  17.522 -0.1199 -0.2240  0.4539
  574TMC3     O 8515   1.093   1.337  17.515  0.7905 -0.4492 -0.8042
  574TMC3     H 8516   1.121   1.349  17.273  2.7901 -1.6846  0.9215
  574TMC3    H1 8517   1.334   1.638  17.503 -3.3236 -2.2686  1.5629
  574TMC3    H2 8518   1.258   1.719  17.094  1.5532 -3.5490 -4.0448
  574TMC3    C7 8519   1.386   1.802  17.308  0.3350 -0.7473 -1.1196
  574TMC3    C8 8520   1.094   1.514  17.054  1.0308 -0.4899  0.4712
  574TMC3    O1 8521   1.448   1.839  17.209 -0.1739  0.1706  0.4291
  574TMC3    O2 8522   1.122   1.586  16.958 -0.0514  0.2688 -0.2085
  575TMC3    C1 8523   2.694   1.677  11.293  0.2259  0.3427  0.0850
  575TMC3    C2 8524   2.626   1.602  11.395 -0.1117  0.8997  0.7814
  575TMC3    C3 8525   2.493   1.590  11.376 -0.1574 -0.2178  0.1046
  575TMC3    C4 8526   2.632   1.701  11.167 -0.2427  0.1078 -0.1492
  575TMC3    C5 8527   2.494   1.687  11.161 -0.2725 -0.7050  0.1430
  575TMC3    C6 8528   2.430   1.637  11.270 -0.5927 -0.7744 -0.2828
  575TMC3     C 8529   2.844   1.680  11.301  0.6425  0.2344  0.2536
  575TMC3     O 8530   2.895   1.647  11.407 -0.5260  0.0504  0.0673
  575TMC3     H 8531   2.681   1.582  11.487 -1.1569 -0.0546  1.1961
  575TMC3    H1 8532   2.694   1.726  11.081 -0.7664 -2.0455 -1.1473
  575TMC3    H2 8533   2.322   1.627  11.266 -0.7049  0.1629  0.3316
  575TMC3    C7 8534   2.427   1.715  11.038  0.7358 -0.0237 -0.4807
  575TMC3    C8 8535   2.417   1.538  11.489  0.2547 -0.8608 -0.6957
  575TMC3    O1 8536   2.505   1.725  10.942 -0.4603 -0.2416 -0.1369
  575TMC3    O2 8537   2.304   1.501  11.465 -0.7067  0.1031 -0.2191
  576MPD2     C 8538   2.714   3.074  12.369 -0.2009  0.2694 -0.0765
  576MPD2    C1 8539   2.798   3.187  12.385  0.4375  0.3678 -0.1775
  576MPD2    C2 8540   2.747   3.300  12.453 -0.1859  0.3583  0.5579
  576MPD2    C3 8541   2.613   3.291  12.496 -1.1264  0.5003  0.4620
  576MPD2    C4 8542   2.532   3.184  12.467  0.0850 -0.3704 -0.2092
  576MPD2    C5 8543   2.583   3.075  12.405  0.2109 -0.9416 -0.9327
  576MPD2     H 8544   2.810   3.387  12.464  0.6141  0.0702 -1.7467
  576MPD2    H1 8545   2.425   3.189  12.479  0.4354  1.5314  2.1676
  576MPD2    H2 8546   2.745   2.985  12.317 -0.5139  1.1453 -1.7644
  576MPD2    H3 8547   2.512   2.994  12.394  0.0769 -1.1618  1.4495
  576MPD2     N 8548   2.549   3.407  12.549 -0.4029 -0.4862  0.1178
  576MPD2    H5 8549   2.600   3.495  12.550 -1.2982  0.0452 -0.6002
  576MPD2    N1 8550   2.926   3.196  12.316  0.2642  0.2777  0.0254
  576MPD2    H7 8551   2.970   3.286  12.325 -1.7805  1.0110  2.7054
  577TMC3    C1 8552   3.109   3.123  12.178  0.1947 -0.0884  0.1728
  577TMC3    C2 8553   3.174   3.002  12.179 -0.1526  0.0267  1.0060
  577TMC3    C3 8554   3.268   2.974  12.084  0.1948 -0.3750  0.3346
  577TMC3    C4 8555   3.130   3.217  12.079  0.9178 -0.2865 -0.5151
  577TMC3    C5 8556   3.229   3.188  11.990 -0.2851 -0.2090  0.1609
  577TMC3    C6 8557   3.306   3.073  11.994  0.5630 -0.4319 -0.9343
  577TMC3     C 8558   2.972   3.107  12.214 -0.8915 -0.5875  0.8057
  577TMC3     O 8559   2.908   3.014  12.162 -0.3171 -0.4832 -0.2675
  577TMC3     H 8560   3.142   2.927  12.251  1.4701 -0.5735  1.1042
  577TMC3    H1 8561   3.074   3.309  12.064 -0.8962 -1.5787 -1.6146
  577TMC3    H2 8562   3.385   3.061  11.922 -2.2450  0.8535 -4.2238
  577TMC3    C7 8563   3.295   3.285  11.911 -0.5415 -0.8452  0.0414
  577TMC3    C8 8564   3.295   2.835  12.047 -0.4197  0.8031  0.0038
  577TMC3    O1 8565   3.414   3.304  11.920 -0.5463  0.5872 -0.1467
  577TMC3    O2 8566   3.271   2.750  12.131  0.2976 -0.2966 -0.0437
  578MPD2     C 8567   1.613   2.960   1.163  0.3011  0.0783  0.0377
  578MPD2    C1 8568   1.568   2.833   1.130 -0.2087 -0.4608 -0.2468
  578MPD2    C2 8569   1.567   2.734   1.230  0.2223 -0.3185  0.2267
  578MPD2    C3 8570   1.601   2.769   1.355 -0.1812  0.5833 -0.0558
  578MPD2    C4 8571   1.630   2.900   1.394  0.5418 -0.3623 -0.1229
  578MPD2    C5 8572   1.630   2.994   1.292 -0.0376  0.3021 -0.7007
  578MPD2     H 8573   1.558   2.628   1.207 -1.0041 -0.2307  0.3048
  578MPD2    H1 8574   1.649   2.925   1.497  0.9374  0.2451 -0.3433
  578MPD2    H2 8575   1.625   3.029   1.080  0.2264 -0.1764 -0.1878
  578MPD2    H3 8576   1.652   3.096   1.319 -2.4708  0.6022  0.1573
  578MPD2     N 8577   1.618   2.662   1.447  0.4903 -0.3945  0.2377
  578MPD2    H5 8578   1.615   2.572   1.401  1.8953 -0.2094 -0.2389
  578MPD2    N1 8579   1.529   2.814   0.994 -0.9810  0.0656  0.5685
  578MPD2    H7 8580   1.522   2.895   0.933  1.8886  0.8644  1.3330
  579TMC3    C1 8581   1.663   2.533   1.641  0.1303 -0.1538 -0.4396
  579TMC3    C2 8582   1.768   2.513   1.735 -0.3926  0.2214 -0.0919
  579TMC3    C3 8583   1.790   2.384   1.783 -0.1935  0.1009 -0.1712
  579TMC3    C4 8584   1.599   2.428   1.589  0.1755 -0.6951 -0.0112
  579TMC3    C5 8585   1.643   2.297   1.613  0.6541 -0.1661 -0.6038
  579TMC3    C6 8586   1.728   2.279   1.723  0.1986 -0.4070 -0.8409
  579TMC3     C 8587   1.647   2.667   1.584  0.0464 -0.5258  0.6539
  579TMC3     O 8588   1.680   2.765   1.654 -0.0206  0.0003 -0.2805
  579TMC3     H 8589   1.823   2.599   1.770 -0.8252 -1.0040  3.6269
  579TMC3    H1 8590   1.516   2.449   1.522 -0.0633  0.2304  0.5837
  579TMC3    H2 8591   1.787   2.189   1.732  4.2147  2.1130 -1.6617
  579TMC3    C7 8592   1.601   2.179   1.539  0.3437 -0.3739  0.1178
  579TMC3    C8 8593   1.936   2.370   1.817  0.0800 -0.1388  0.6092
  579TMC3    O1 8594   1.658   2.075   1.576  0.1387 -0.6514  0.1455
  579TMC3    O2 8595   1.966   2.343   1.930 -0.3532  0.2139 -0.0659
  580TMC3    C1 8596   0.515   2.015  12.148  0.1468 -0.5411  0.1829
  580TMC3    C2 8597   0.478   2.018  12.020  0.5528  0.5982  0.1616
  580TMC3    C3 8598   0.534   1.931  11.937  0.6087 -0.9257  0.4565
  580TMC3    C4 8599   0.573   1.906  12.201 -0.0260  0.0371  0.2273
  580TMC3    C5 8600   0.612   1.800  12.119  0.0520  0.0346  0.7588
  580TMC3    C6 8601   0.600   1.812  11.982  0.2325 -0.3388  0.1687
  580TMC3     C 8602   0.564   2.131  12.215 -0.0921  0.6331 -0.1144
  580TMC3     O 8603   0.551   2.134  12.338  0.1912 -0.3023  0.1618
  580TMC3     H 8604   0.443   2.111  11.978  0.5378  0.3993 -0.2632
  580TMC3    H1 8605   0.617   1.916  12.300  0.7813 -0.2402 -0.1067
  580TMC3    H2 8606   0.654   1.753  11.910  2.6403  1.9760  0.0753
  580TMC3    C7 8607   0.746   1.768  12.163  0.3834 -0.3701 -0.3308
  580TMC3    C8 8608   0.617   1.994  11.842 -0.3594  0.5003 -0.2997
  580TMC3    O1 8609   0.810   1.862  12.206  0.1250 -0.9070 -0.3117
  580TMC3    O2 8610   0.555   2.067  11.767  0.2057 -0.2395  0.0100
  581MPD2     C 8611   3.663   2.066  14.527  0.3996 -0.0910 -1.4485
  581MPD2    C1 8612   3.604   2.082  14.651  0.5571 -0.1848 -0.3140
  581MPD2    C2 8613   3.477   2.130  14.660  0.0928  0.2505  0.5249
  581MPD2    C3 8614   3.399   2.151  14.548  0.2009  0.3793 -0.1569
  581MPD2    C4 8615   3.456   2.136  14.425  0.7020 -0.1751 -0.2677
  581MPD2    C5 8616   3.588   2.093  14.417 -0.2070  0.2359 -0.0183
  581MPD2     H 8617   3.427   2.150  14.755 -1.6457 -1.4947 -0.0213
  581MPD2    H1 8618   3.416   2.163  14.328  0.2819 -0.2906 -0.1289
  581MPD2    H2 8619   3.766   2.040  14.510  0.5883 -0.5376  0.3575
  581MPD2    H3 8620   3.640   2.088  14.322  0.9392 -3.6328  0.8384
  581MPD2     N 8621   3.265   2.189  14.558  0.6130 -0.7985  0.6042
  581MPD2    H5 8622   3.240   2.234  14.645  2.0445  2.3856 -0.6329
  581MPD2    N1 8623   3.680   2.037  14.760 -0.7419  0.7956  0.5472
  581MPD2    H7 8624   3.771   2.000  14.737 -2.1660 -3.0095  1.0367
  582TMC3    C1 8625   3.735   1.993  14.990 -0.2481  0.2910 -0.1765
  582TMC3    C2 8626   3.752   2.036  15.118  0.3127 -0.8029  0.3513
  582TMC3    C3 8627   3.791   1.949  15.209  0.0699  0.1036 -1.1045
  582TMC3    C4 8628   3.766   1.864  14.953  0.2156 -0.5370  0.2024
  582TMC3    C5 8629   3.802   1.779  15.049  0.0087 -0.0893 -0.4568
  582TMC3    C6 8630   3.830   1.824  15.177 -0.1724 -0.3236  0.3445
  582TMC3     C 8631   3.647   2.061  14.896 -0.4956 -0.7175  0.5792
  582TMC3     O 8632   3.567   2.144  14.943  0.2500  0.7679  0.5198
  582TMC3     H 8633   3.727   2.141  15.132  0.0920 -1.3505  3.9499
  582TMC3    H1 8634   3.743   1.827  14.853  1.8587  2.3439 -1.2417
  582TMC3    H2 8635   3.855   1.748  15.249 -2.7882 -2.1142 -0.6278
  582TMC3    C7 8636   3.855   1.651  15.017 -0.1156 -0.2057  0.7399
  582TMC3    C8 8637   3.795   2.000  15.348 -1.3705 -0.3890 -0.3880
  582TMC3    O1 8638   3.957   1.621  15.079  0.3269 -0.2083 -0.0443
  582TMC3    O2 8639   3.745   2.108  15.369  0.2863 -0.3087  0.1535
  583MPD2     C 8640   3.259   3.733  16.501  0.2396 -0.1322 -0.7045
  583MPD2    C1 8641   3.281   3.862  16.457  0.8156  0.6156  0.4884
  583MPD2    C2 8642   3.270   3.968  16.548  0.2724  0.3857  0.7134
  583MPD2    C3 8643   3.244   3.952  16.682 -0.4448  0.1417  0.0527
  583MPD2    C4 8644   3.228   3.819  16.722 -0.3562  0.9580  0.4683
  583MPD2    C5 8645   3.241   3.714  16.637 -0.1090  0.0693  0.1452
  583MPD2     H 8646   3.296   4.069  16.517 -0.6960  0.9788  1.8063
  583MPD2    H1 8647   3.225   3.790  16.827  1.3088 -0.5486  0.1021
  583MPD2    H2 8648   3.270   3.647  16.436  1.1891 -0.3274 -0.2825
  583MPD2    H3 8649   3.241   3.612  16.673  0.3912  0.2382  0.6295
  583MPD2     N 8650   3.230   4.069  16.763 -0.0776 -0.7304  0.2242
  583MPD2    H5 8651   3.248   4.156  16.713 -3.5920 -0.1625 -0.0640
  583MPD2    N1 8652   3.311   3.894  16.322  0.1982 -0.4096 -0.4241
  583MPD2    H7 8653   3.326   3.995  16.317  1.7584 -0.7011 -1.3934
  584TMC3    C1 8654   3.197   4.189  16.968 -0.2121  1.0421 -0.0722
  584TMC3    C2 8655   3.243   4.305  16.909  0.4209  0.3035  0.7539
  584TMC3    C3 8656   3.266   4.410  16.990 -0.4986  0.4710 -0.4692
  584TMC3    C4 8657   3.185   4.178  17.101 -0.0946 -0.1855 -0.0721
  584TMC3    C5 8658   3.233   4.284  17.177  0.6796  0.1622 -0.3737
  584TMC3    C6 8659   3.275   4.398  17.119 -1.3164 -0.1101  0.3588
  584TMC3     C 8660   3.185   4.060  16.894 -0.2170 -0.6843  0.6042
  584TMC3     O 8661   3.149   3.969  16.968 -0.1503 -0.3286 -0.4531
  584TMC3     H 8662   3.238   4.319  16.802 -1.1879  2.5368  1.1306
  584TMC3    H1 8663   3.166   4.082  17.148 -0.4060  0.4920  1.2084
  584TMC3    H2 8664   3.269   4.487  17.181  1.7119 -0.1283  0.6631
  584TMC3    C7 8665   3.195   4.284  17.321 -0.0012 -0.2621  0.5066
  584TMC3    C8 8666   3.310   4.532  16.921 -0.4210  0.0570 -0.1556
  584TMC3    O1 8667   3.143   4.180  17.354 -0.0229 -0.0258 -0.5293
  584TMC3    O2 8668   3.290   4.544  16.803 -0.8109 -0.0557 -0.1330
  585MPD2     C 8669   2.445   2.078   0.215 -0.6171 -0.1923 -0.1611
  585MPD2    C1 8670   2.463   2.145   0.094  0.4669  0.2051  0.1065
  585MPD2    C2 8671   2.474   2.071  17.675  0.0221  0.2589 -0.9273
  585MPD2    C3 8672   2.452   1.935  17.682  0.0154 -0.2302 -0.6380
  585MPD2    C4 8673   2.427   1.869   0.101 -0.2755  0.4850 -0.4653
  585MPD2    C5 8674   2.411   1.942   0.222  0.2893 -0.0326 -0.3532
  585MPD2     H 8675   2.483   2.136  17.589  2.3653  1.2281  0.0602
  585MPD2    H1 8676   2.403   1.763   0.098 -2.2485  0.9587 -0.9647
  585MPD2    H2 8677   2.453   2.147   0.298 -1.5943  0.1539 -0.3495
  585MPD2    H3 8678   2.371   1.892   0.310  0.1020 -0.1437 -0.5019
  585MPD2     N 8679   2.473   1.857  17.564  0.3484 -0.6486 -0.1130
  585MPD2    H5 8680   2.475   1.756  17.572  1.8082 -0.6671 -0.6333
  585MPD2    N1 8681   2.461   2.285   0.098  0.6767  0.1192  0.4431
  585MPD2    H7 8682   2.445   2.331   0.187  3.5428  0.0843  0.9587
  586TMC3    C1 8683   2.517   1.788  17.346  0.3043  0.4526  0.0410
  586TMC3    C2 8684   2.641   1.748  17.361 -0.1350 -0.1604 -0.1859
  586TMC3    C3 8685   2.728   1.723  17.254 -0.2883  0.1076  0.1422
  586TMC3    C4 8686   2.473   1.814  17.220 -0.4032 -0.6644 -0.5285
  586TMC3    C5 8687   2.558   1.793  17.113 -0.0328 -0.8565 -0.3744
  586TMC3    C6 8688   2.683   1.749  17.128 -0.1762  0.1484 -0.1524
  586TMC3     C 8689   2.492   1.904  17.432 -0.4292 -0.1328  0.2756
  586TMC3     O 8690   2.493   2.019  17.384  0.0395  0.0008  0.4450
  586TMC3     H 8691   2.679   1.726  17.460  2.1945 -0.3859 -1.1315
  586TMC3    H1 8692   2.390   1.880  17.197  1.2147  1.4792 -0.2935
  586TMC3    H2 8693   2.748   1.735  17.042  2.7153 -2.2897  2.4130
  586TMC3    C7 8694   2.544   1.887  17.016 -0.4109  0.2698  0.2987
  586TMC3    C8 8695   2.864   1.688  17.283 -0.2663  0.6502  0.4944
  586TMC3    O1 8696   2.436   1.888  16.948 -0.0646  0.2087  0.0887
  586TMC3    O2 8697   2.902   1.693  17.398 -0.1214 -0.3180  0.7920
  587TMC3    C1 8698   0.336   1.182  15.992 -0.4090  0.3408  0.3196
  587TMC3    C2 8699   0.359   1.244  16.109  0.4112 -0.3161  0.1616
  587TMC3    C3 8700   0.487   1.278  16.148  0.0196 -0.0345  0.5667
  587TMC3    C4 8701   0.438   1.148  15.911 -0.0207 -0.5274 -0.3180
  587TMC3    C5 8702   0.561   1.174  15.958 -0.5327 -0.0947 -0.2098
  587TMC3    C6 8703   0.595   1.239  16.075  0.3907 -0.0541 -1.0337
  587TMC3     C 8704   0.210   1.130  15.961  0.4294  0.1056 -0.1338
  587TMC3     O 8705   0.203   1.028  15.895 -0.2087 -0.6639  0.1414
  587TMC3     H 8706   0.281   1.259  16.182  1.6635  2.0396  1.0260
  587TMC3    H1 8707   0.415   1.107  15.814 -0.4789 -1.8544  0.3637
  587TMC3    H2 8708   0.695   1.259  16.111  0.3171 -1.9858  0.2630
  587TMC3    C7 8709   0.680   1.157  15.869 -0.5506 -0.4997  0.6622
  587TMC3    C8 8710   0.506   1.347  16.273 -0.1159 -0.2718  0.1793
  587TMC3    O1 8711   0.781   1.227  15.882 -0.5626  0.2118 -0.3693
  587TMC3    O2 8712   0.618   1.330  16.322  0.5144  0.9126  0.3580
  588TMC3    C1 8713   2.348   3.611   9.437  0.6456 -0.1323 -0.0388
  588TMC3    C2 8714   2.374   3.490   9.367 -0.4573 -0.3219 -0.3064
  588TMC3    C3 8715   2.447   3.390   9.429  0.1196 -0.1736  0.0333
  588TMC3    C4 8716   2.392   3.624   9.563 -0.3883  0.1893  0.6804
  588TMC3    C5 8717   2.462   3.522   9.623  0.8597 -0.1988  0.7608
  588TMC3    C6 8718   2.489   3.403   9.560 -0.2062 -0.6060  0.1899
  588TMC3     C 8719   2.367   3.725   9.347  0.0673 -0.4627 -0.6245
  588TMC3     O 8720   2.341   3.704   9.225 -0.3328  0.2188  0.0193
  588TMC3     H 8721   2.362   3.488   9.259 -1.2730  1.3389 -0.2417
  588TMC3    H1 8722   2.349   3.699   9.628  1.6954  1.9506  0.0424
  588TMC3    H2 8723   2.553   3.326   9.602  0.8406 -0.9140 -1.9236
  588TMC3    C7 8724   2.536   3.553   9.743  0.1102  0.8926 -0.4842
  588TMC3    C8 8725   2.515   3.291   9.343  0.1650  1.0400  0.0327
  588TMC3    O1 8726   2.599   3.454   9.791  0.7585  0.3066  0.0268
  588TMC3    O2 8727   2.536   3.336   9.235  0.0052  0.3853 -0.4718
  589TMC3    C1 8728   1.886   0.814   1.100 -0.0519  0.0189  0.2724
  589TMC3    C2 8729   1.959   0.918   1.149  0.2265  0.3652 -0.3731
  589TMC3    C3 8730   2.092   0.897   1.171 -0.7189  0.3805 -0.2075
  589TMC3    C4 8731   1.948   0.707   1.042  0.1184 -0.5316 -0.2793
  589TMC3    C5 8732   2.078   0.691   1.056 -0.6150  0.1275  1.1823
  589TMC3    C6 8733   2.152   0.785   1.123  0.2037 -0.2853  0.1009
  589TMC3     C 8734   1.750   0.831   1.051 -0.7996 -1.3092  0.0958
  589TMC3     O 8735   1.730   0.784   0.941  0.6844 -0.2135  0.1904
  589TMC3     H 8736   1.908   1.005   1.189 -0.0074 -0.0854  0.3048
  589TMC3    H1 8737   1.896   0.622   0.998 -0.0606  0.7948 -2.5923
  589TMC3    H2 8738   2.258   0.763   1.129  0.3619  0.2093 -0.7880
  589TMC3    C7 8739   2.135   0.567   1.000 -0.0518  0.0213  0.2464
  589TMC3    C8 8740   2.153   0.971   1.279 -0.0370  0.7729 -0.1675
  589TMC3    O1 8741   2.068   0.467   0.989  0.1248 -0.1135  0.0883
  589TMC3    O2 8742   2.085   1.044   1.349 -0.5846 -0.0653  0.7098
  590MPD2     C 8743   1.223   0.177  16.369 -0.3646 -0.6479  0.0154
  590MPD2    C1 8744   1.222   0.193  16.228  0.4758 -0.6029 -0.4126
  590MPD2    C2 8745   1.339   0.240  16.172  0.1413 -0.3129  0.9188
  590MPD2    C3 8746   1.450   0.271  16.247 -0.6565  0.1494 -0.0098
  590MPD2    C4 8747   1.442   0.266  16.385 -0.6640 -0.7326  0.5307
  590MPD2    C5 8748   1.329   0.219  16.445 -0.2753  0.6534 -0.2687
  590MPD2     H 8749   1.353   0.254  16.066  1.1679 -0.9954  0.9620
  590MPD2    H1 8750   1.518   0.296  16.456  2.4046 -0.0527 -3.0856
  590MPD2    H2 8751   1.138   0.137  16.424  1.6622 -2.8209  1.5485
  590MPD2    H3 8752   1.317   0.207  16.552  2.4766  4.9510  0.5057
  590MPD2     N 8753   1.562   0.332  16.181 -0.1138  0.0036  0.6129
  590MPD2    H5 8754   1.556   0.342  16.080 -0.0139 -2.1276  0.4108
  590MPD2    N1 8755   1.101   0.168  16.155  0.4455 -0.1968 -0.2497
  590MPD2    H7 8756   1.017   0.176  16.212 -1.4762 -0.3001 -3.0438
  591TMC3    C1 8757   1.750   0.441  16.133  0.1968 -0.6058  0.8719
  591TMC3    C2 8758   1.745   0.360  16.024 -0.4656 -0.5825 -0.1862
  591TMC3    C3 8759   1.774   0.406  15.898 -0.2937  0.3037 -0.2004
  591TMC3    C4 8760   1.777   0.571  16.124 -0.0448 -0.5604  0.6071
  591TMC3    C5 8761   1.808   0.609  16.001 -0.8242  0.6515  0.2196
  591TMC3    C6 8762   1.806   0.533  15.883  0.3670  0.1205 -0.4285
  591TMC3     C 8763   1.660   0.400  16.237 -0.5082  0.2087  0.8145
  591TMC3     O 8764   1.673   0.443  16.351  0.3575  0.0719  0.2526
  591TMC3     H 8765   1.729   0.253  16.033  0.6563 -0.7909 -0.6478
  591TMC3    H1 8766   1.776   0.641  16.207  0.3546  1.9721 -1.5269
  591TMC3    H2 8767   1.852   0.564  15.791  0.2973 -0.0366 -0.5164
  591TMC3    C7 8768   1.859   0.740  15.989 -0.2905 -0.1880 -0.1367
  591TMC3    C8 8769   1.777   0.321  15.788  0.6168 -0.2249 -0.5942
  591TMC3    O1 8770   1.919   0.780  16.083  0.2621  0.4976 -0.1765
  591TMC3    O2 8771   1.787   0.202  15.817  0.8625  0.0536 -0.1597
  592MPD2     C 8772   1.690   1.942  11.279  0.1655  0.6902  0.8039
  592MPD2    C1 8773   1.734   1.935  11.404  0.0280 -0.8297  0.0976
  592MPD2    C2 8774   1.682   1.840  11.493  0.6739  0.8353  0.2380
  592MPD2    C3 8775   1.587   1.747  11.457 -0.2833 -0.4227  0.4568
  592MPD2    C4 8776   1.557   1.746  11.318 -0.5639  0.7374 -0.6452
  592MPD2    C5 8777   1.607   1.842  11.234  0.5205 -0.3255 -0.2079
  592MPD2     H 8778   1.703   1.847  11.599 -0.6440 -0.3518  0.5800
  592MPD2    H1 8779   1.495   1.667  11.277 -0.3548 -0.4247  1.2793
  592MPD2    H2 8780   1.710   2.032  11.221  2.7347  0.2877  1.0618
  592MPD2    H3 8781   1.571   1.833  11.132 -1.0454  0.3316  0.2937
  592MPD2     N 8782   1.516   1.665  11.552 -0.1078 -0.4098  0.0714
  592MPD2    H5 8783   1.523   1.695  11.649 -0.1521 -0.3737  0.0633
  592MPD2    N1 8784   1.834   2.030  11.439  0.3683  0.7135  0.1164
  592MPD2    H7 8785   1.854   2.094  11.362  0.4597  0.5212 -0.0202
  593TMC3    C1 8786   1.988   2.149  11.585 -0.6659 -0.0420 -0.6666
  593TMC3    C2 8787   2.040   2.169  11.710  0.3065 -0.7489  0.1393
  593TMC3    C3 8788   2.122   2.276  11.730  0.7305  0.7004  0.3124
  593TMC3    C4 8789   2.022   2.241  11.488  0.0611 -0.1496  0.9082
  593TMC3    C5 8790   2.087   2.359  11.513 -0.0217 -0.1622 -0.0293
  593TMC3    C6 8791   2.136   2.376  11.640  0.2466 -0.5490  0.0542
  593TMC3     C 8792   1.891   2.040  11.563 -0.4811 -0.1929 -0.2823
  593TMC3     O 8793   1.874   1.969  11.664 -0.3592 -0.9606  0.3252
  593TMC3     H 8794   2.039   2.101  11.795 -0.9893 -0.0598  0.6738
  593TMC3    H1 8795   1.994   2.214  11.387  1.3544 -0.2091  0.5619
  593TMC3    H2 8796   2.166   2.478  11.664 -0.4041 -0.1830 -0.6743
  593TMC3    C7 8797   2.106   2.462  11.411  0.0433  0.7487 -0.3674
  593TMC3    C8 8798   2.136   2.322  11.864 -0.1105  0.1751  0.1842
  593TMC3    O1 8799   2.176   2.560  11.435 -0.0682  0.3352  0.3846
  593TMC3    O2 8800   2.053   2.277  11.942 -0.1843 -0.3314 -0.4786
  594MPD2     C 8801   4.647   0.762  14.273  0.3860 -0.0791 -0.0654
  594MPD2    C1 8802   4.672   0.738  14.405 -0.0514 -0.1441 -0.3437
  594MPD2    C2 8803   0.067   0.778  14.457  0.2008 -0.1027  0.0565
  594MPD2    C3 8804   0.174   0.823  14.380  0.6283 -0.0366 -0.4634
  594MPD2    C4 8805   0.144   0.858  14.246  0.0232 -0.1144  0.2097
  594MPD2    C5 8806   0.018   0.827  14.193 -0.8876  0.2143 -0.4411
  594MPD2     H 8807   0.092   0.760  14.561  0.4608  1.9239  0.3534
  594MPD2    H1 8808   0.221   0.909  14.190 -2.0834  1.2363 -1.4166
  594MPD2    H2 8809   4.545   0.755  14.237 -0.7776 -0.2786  3.2106
  594MPD2    H3 8810   4.706   0.862  14.097  2.8940  3.8132 -0.5034
  594MPD2     N 8811   0.289   0.859  14.451  0.1168 -0.1688 -0.5890
  594MPD2    H5 8812   0.297   0.840  14.551  0.1167 -1.5592 -0.8437
  594MPD2    N1 8813   4.566   0.682  14.479  0.7936  0.6753  0.0390
  594MPD2    H7 8814   4.483   0.648  14.431  0.9416 -0.3362  0.5077
  595TMC3    C1 8815   0.696   1.059  14.508  0.0686  0.7502  0.6709
  595TMC3    C2 8816   0.620   0.966  14.453 -0.4061  0.0227 -0.4909
  595TMC3    C3 8817   0.496   0.955  14.496 -0.1137 -0.9543 -1.0121
  595TMC3    C4 8818   0.655   1.142  14.611 -0.1554  0.0079  0.2110
  595TMC3    C5 8819   0.526   1.126  14.651 -0.2523 -0.3856  0.3254
  595TMC3    C6 8820   0.451   1.033  14.591  0.6328 -0.5065  0.4851
  595TMC3     C 8821   0.786   1.133  14.422 -0.5123 -0.2972 -0.1254
  595TMC3     O 8822   0.805   1.248  14.452 -0.3650 -0.7681 -0.0077
  595TMC3     H 8823   0.642   0.944  14.349 -1.8533 -1.0253 -0.5732
  595TMC3    H1 8824   0.725   1.206  14.664 -0.5347 -1.3440  2.3630
  595TMC3    H2 8825   0.349   1.015  14.624  0.3655 -1.7913 -1.0389
  595TMC3    C7 8826   0.458   1.250  14.658  0.5695  1.0089 -0.3373
  595TMC3    C8 8827   0.406   0.903  14.398 -0.5223 -0.4578  0.1304
  595TMC3    O1 8828   0.339   1.240  14.685  0.2761 -1.0948 -0.0665
  595TMC3    O2 8829   0.421   0.924  14.282 -0.1900  0.1440  0.0185
  596MPD2     C 8830   3.991   3.527  16.516 -0.0299 -0.1697 -0.9252
  596MPD2    C1 8831   4.075   3.634  16.482  0.4326  0.4523 -0.6517
  596MPD2    C2 8832   4.108   3.656  16.349 -0.7233 -0.5329 -0.1282
  596MPD2    C3 8833   4.076   3.568  16.243  0.0724 -0.2419  0.4362
  596MPD2    C4 8834   4.003   3.454  16.284 -0.5199 -0.1520 -0.3365
  596MPD2    C5 8835   3.955   3.440  16.414 -0.1708  0.1824 -0.0673
  596MPD2     H 8836   4.158   3.749  16.324 -2.5762 -0.1094 -2.1421
  596MPD2    H1 8837   3.958   3.390  16.209  2.6026  1.0622 -3.2672
  596MPD2    H2 8838   3.952   3.520  16.617 -0.1521  0.6486 -0.9203
  596MPD2    H3 8839   3.890   3.356  16.432  0.8763 -0.4163  0.9005
  596MPD2     N 8840   4.093   3.589  16.104 -0.2945  0.2216  0.5573
  596MPD2    H5 8841   4.058   3.521  16.038 -2.3835  1.7147  0.0969
  596MPD2    N1 8842   4.106   3.740  16.574 -0.0681  0.4947  0.4690
  596MPD2    H7 8843   4.142   3.824  16.529  0.0444  0.4668  0.5061
  597TMC3    C1 8844   4.103   3.875  16.770  0.2731  0.3457  0.0201
  597TMC3    C2 8845   4.209   3.949  16.729  0.3850  0.2585 -0.1721
  597TMC3    C3 8846   4.236   4.062  16.803 -0.2818 -0.6738 -0.2839
  597TMC3    C4 8847   4.037   3.900  16.887  0.1574 -0.1904  0.1704
  597TMC3    C5 8848   4.069   4.010  16.964  0.0876 -0.1433  0.3011
  597TMC3    C6 8849   4.170   4.090  16.923  0.2219 -0.6923  0.4719
  597TMC3     C 8850   4.059   3.752  16.702  0.4404 -0.6317 -0.9176
  597TMC3     O 8851   4.003   3.667  16.775 -0.2193  0.0281  0.0044
  597TMC3     H 8852   4.271   3.921  16.646  0.7959 -0.6289  0.4450
  597TMC3    H1 8853   3.950   3.842  16.913 -0.9084  1.5546  0.5341
  597TMC3    H2 8854   4.185   4.185  16.973 -1.0625 -0.3396  0.1835
  597TMC3    C7 8855   3.973   4.053  17.053 -0.9422  0.5395  0.2025
  597TMC3    C8 8856   4.318   4.167  16.751  1.0049 -0.3133  0.3782
  597TMC3    O1 8857   3.905   3.971  17.113  0.3003  0.0132  0.2321
  597TMC3    O2 8858   4.326   4.271  16.816  0.2534  0.4956  0.2308
  598TMC3    C1 8859   2.487   0.743  14.888  0.0531  0.5962  0.9216
  598TMC3    C2 8860   2.352   0.737  14.885 -0.0483 -0.3990 -0.5584
  598TMC3    C3 8861   2.289   0.757  14.764 -0.2042  0.0768 -0.2923
  598TMC3    C4 8862   2.569   0.775  14.781  0.6163 -0.6867  0.0974
  598TMC3    C5 8863   2.508   0.793  14.662  0.0310  1.0815  0.1934
  598TMC3    C6 8864   2.370   0.783  14.652 -0.2325 -0.0056 -0.7166
  598TMC3     C 8865   2.560   0.713  15.014  0.2414 -0.3962 -0.2082
  598TMC3     O 8866   2.671   0.758  15.026 -0.4244  0.2735 -0.1536
  598TMC3     H 8867   2.295   0.720  14.976  0.2144 -0.1166 -0.3404
  598TMC3    H1 8868   2.677   0.769  14.795  0.7666 -1.1840 -1.3023
  598TMC3    H2 8869   2.325   0.805  14.556  0.6924  0.0281 -1.1460
  598TMC3    C7 8870   2.579   0.833  14.546 -0.4944 -0.6146 -0.7546
  598TMC3    C8 8871   2.146   0.731  14.737  0.1782  0.4101 -0.3646
  598TMC3    O1 8872   2.518   0.848  14.439  0.3958  0.7232 -0.1188
  598TMC3    O2 8873   2.112   0.760  14.625  0.0633  0.2238  1.0832
  599MPD2     C 8874   2.731   3.366  16.190 -0.1605  0.0928  0.4612
  599MPD2    C1 8875   2.714   3.261  16.101  0.0673  0.0461 -0.1257
  599MPD2    C2 8876   2.594   3.252  16.040 -0.1810  0.2782  0.2002
  599MPD2    C3 8877   2.483   3.327  16.083 -0.0120  0.2273  0.3266
  599MPD2    C4 8878   2.496   3.412  16.184 -0.1382  0.1713 -0.3748
  599MPD2    C5 8879   2.621   3.444  16.227  0.0845 -0.3665  0.3176
  599MPD2     H 8880   2.580   3.163  15.979  0.1595  2.7646 -3.4966
  599MPD2    H1 8881   2.420   3.476  16.226  0.5375  0.0118  1.1150
  599MPD2    H2 8882   2.821   3.375  16.250  0.6081 -1.9698 -0.3724
  599MPD2    H3 8883   2.627   3.513  16.311 -1.4199 -0.5295  0.5541
  599MPD2     N 8884   2.348   3.304  16.039  0.7097  0.2802  0.0721
  599MPD2    H5 8885   2.280   3.365  16.083 -0.5880 -1.4310  0.4301
  599MPD2    N1 8886   2.820   3.171  16.088  0.0089 -0.4773  0.0497
  599MPD2    H7 8887   2.905   3.180  16.142  0.8169 -1.1501 -1.1111
  600TMC3    C1 8888   2.173   3.194  15.929  0.1299 -0.7528  0.2753
  600TMC3    C2 8889   2.132   3.071  15.882  0.6042 -0.2678 -0.5145
  600TMC3    C3 8890   2.008   3.020  15.921 -0.3449 -0.4804  0.0796
  600TMC3    C4 8891   2.085   3.271  16.004  0.4413  0.2881  0.2074
  600TMC3    C5 8892   1.965   3.224  16.042  0.3744 -0.2656  0.6791
  600TMC3    C6 8893   1.927   3.091  16.009  0.1625  0.5027 -0.6097
  600TMC3     C 8894   2.316   3.211  15.943 -0.2804 -1.0920  0.1489
  600TMC3     O 8895   2.388   3.132  15.880  0.4399  0.1719 -0.0857
  600TMC3     H 8896   2.197   3.017  15.813 -0.6960 -0.2804 -1.7390
  600TMC3    H1 8897   2.114   3.376  16.011  0.0545  0.2857  1.7239
  600TMC3    H2 8898   1.826   3.059  16.026 -0.0371  0.0246 -2.6490
  600TMC3    C7 8899   1.888   3.292  16.142  0.0358 -0.3405  0.1180
  600TMC3    C8 8900   1.984   2.885  15.871  1.0972 -0.1241  0.2912
  600TMC3    O1 8901   1.776   3.250  16.176  0.1889 -0.1064 -0.4614
  600TMC3    O2 8902   2.078   2.834  15.816  0.2016  0.1440 -0.6470
  601MPD2     C 8903   4.162   0.950   0.186 -0.1907 -0.3904  0.1395
  601MPD2    C1 8904   4.132   0.929   0.057  0.4129 -0.4232 -0.3380
  601MPD2    C2 8905   4.129   0.793   0.011  0.4545 -0.0597  0.0859
  601MPD2    C3 8906   4.159   0.689   0.099  0.3399 -0.1650  0.1448
  601MPD2    C4 8907   4.187   0.723   0.228  0.0837  0.5300  0.1374
  601MPD2    C5 8908   4.188   0.853   0.276 -0.3611  0.3131 -0.3735
  601MPD2     H 8909   4.097   0.776  17.606 -1.1418  1.4527  0.3314
  601MPD2    H1 8910   4.224   0.653   0.303  2.4988  0.1739 -1.3770
  601MPD2    H2 8911   4.152   1.047   0.233 -2.9536 -0.6760  0.1384
  601MPD2    H3 8912   4.209   0.869   0.381 -0.1813  0.6591 -0.4609
  601MPD2     N 8913   4.152   0.546   0.058 -0.5072 -0.1174  0.5154
  601MPD2    H5 8914   4.150   0.469   0.125 -1.5506 -0.3198  0.2442
  601MPD2    N1 8915   4.093   1.031  17.668  0.8481  0.0864 -0.2810
  601MPD2    H7 8916   4.050   1.007  17.579  1.3983  0.2772 -0.5979
  602TMC3    C1 8917   4.097   1.244  17.560  0.1565 -0.0460  0.9452
  602TMC3    C2 8918   4.189   1.338  17.517 -0.2043  1.5189  0.3833
  602TMC3    C3 8919   4.166   1.405  17.401 -0.6637  0.6471  0.1235
  602TMC3    C4 8920   3.980   1.213  17.487 -0.3005  0.2125 -0.2133
  602TMC3    C5 8921   3.974   1.279  17.366 -0.3519  0.2142 -0.6205
  602TMC3    C6 8922   4.066   1.373  17.314  0.2182  0.4363 -0.7681
  602TMC3     C 8923   4.134   1.161  17.676 -0.5826 -0.6653 -0.3033
  602TMC3     O 8924   4.222   1.202   0.052  0.3843 -0.0139  0.0991
  602TMC3     H 8925   4.274   1.372  17.575  0.3836 -1.3638  1.2048
  602TMC3    H1 8926   3.900   1.150  17.523 -2.2342  1.6528 -1.9771
  602TMC3    H2 8927   4.061   1.406  17.211 -1.0177  1.4383 -0.3861
  602TMC3    C7 8928   3.841   1.297  17.315 -0.8780  0.9370 -1.0239
  602TMC3    C8 8929   4.267   1.503  17.360  0.1471 -0.3579 -0.2835
  602TMC3    O1 8930   3.757   1.215  17.349 -0.1562  0.1884 -0.0620
  602TMC3    O2 8931   4.382   1.501  17.396  0.1480 -0.0514 -0.1458
  603TMC3    C1 8932   2.595   1.038  10.914 -0.0403  0.2933  0.6948
  603TMC3    C2 8933   2.673   0.987  11.021 -0.0012 -0.0670 -0.5468
  603TMC3    C3 8934   2.667   1.065  11.130 -0.0164 -0.2762 -0.2803
  603TMC3    C4 8935   2.498   1.135  10.931  0.2283  0.5181 -0.2970
  603TMC3    C5 8936   2.490   1.186  11.058  0.8661 -0.0348  1.0438
  603TMC3    C6 8937   2.575   1.156  11.159  0.0822  0.2622  0.1133
  603TMC3     C 8938   2.597   0.964  10.790  0.0546  0.3843 -0.0352
  603TMC3     O 8939   2.553   1.010  10.685  0.1622 -0.4697 -0.0135
  603TMC3     H 8940   2.751   0.915  11.002  1.1341  0.5445  1.7506
  603TMC3    H1 8941   2.447   1.175  10.844 -0.7440 -1.4304 -0.6284
  603TMC3    H2 8942   2.547   1.192  11.257  1.2536  1.4708  0.0098
  603TMC3    C7 8943   2.376   1.265  11.099 -0.1091  0.3860 -0.4488
  603TMC3    C8 8944   2.729   1.002  11.246 -0.4130  0.0489 -0.3324
  603TMC3    O1 8945   2.384   1.325  11.207  0.2970 -0.1188  0.2203
  603TMC3    O2 8946   2.753   0.883  11.245  0.0494 -0.1636 -0.2906
  604MPD2     C 8947   2.973   0.099  16.120  0.2031  0.2244  0.2406
  604MPD2    C1 8948   2.977   0.214  16.045 -0.2316  0.4009 -0.0953
  604MPD2    C2 8949   3.026   0.214  15.914  0.0188 -0.2535 -0.0943
  604MPD2    C3 8950   3.090   0.098  15.862  0.0227  0.7563 -0.8927
  604MPD2    C4 8951   3.084   4.710  15.937  0.1139  0.8405 -0.0616
  604MPD2    C5 8952   3.028   4.712  16.066 -0.2154  0.4138  0.2112
  604MPD2     H 8953   3.029   0.304  15.854  1.0293 -1.0531 -1.2556
  604MPD2    H1 8954   3.120   4.615  15.900  3.4413  1.8984  0.4446
  604MPD2    H2 8955   2.935   0.094  16.222  1.7146 -0.1456  0.8031
  604MPD2    H3 8956   3.033   4.628  16.134 -2.0753  0.4551  0.4005
  604MPD2     N 8957   3.167   0.100  15.746  0.3607 -0.1761 -0.1993
  604MPD2    H5 8958   3.172   0.190  15.699 -0.5789  0.7142  1.3910
  604MPD2    N1 8959   2.929   0.337  16.099 -0.0201  0.7603  0.9131
  604MPD2    H7 8960   2.912   0.335  16.199 -0.9634  0.4131  0.7465
  605TMC3    C1 8961   2.895   0.570  16.117  0.5998  0.4583 -0.2030
  605TMC3    C2 8962   2.976   0.578  16.224 -0.0133  0.6311  0.3832
  605TMC3    C3 8963   2.992   0.704  16.282 -0.4296  0.0840 -0.4448
  605TMC3    C4 8964   2.839   0.673  16.057  0.8823  0.6044  0.0328
  605TMC3    C5 8965   2.859   0.792  16.112  0.4737  0.7111  0.2046
  605TMC3    C6 8966   2.937   0.813  16.220 -0.2210 -0.3082 -0.1937
  605TMC3     C 8967   2.913   0.455  16.031 -0.5518  0.7172 -0.5729
  605TMC3     O 8968   2.911   0.484  15.911 -0.2578  0.1328 -0.4455
  605TMC3     H 8969   3.040   0.494  16.249 -0.6382 -0.2807 -1.0825
  605TMC3    H1 8970   2.760   0.651  15.986  1.7138 -0.6728 -0.4929
  605TMC3    H2 8971   2.967   0.913  16.248 -1.8334  0.3845 -0.9318
  605TMC3    C7 8972   2.753   0.889  16.082  0.5094 -0.4726 -0.2147
  605TMC3    C8 8973   3.091   0.718  16.385  0.3593  0.6103  0.3377
  605TMC3    O1 8974   2.728   0.907  15.965  0.0643 -0.5123  0.5382
  605TMC3    O2 8975   3.133   0.612  16.420  0.6327  0.7992 -0.3566
  606TMC3    C1 8976   0.262   3.507  17.208  0.0260 -0.1879  0.4440
  606TMC3    C2 8977   0.278   3.472  17.340  0.0643  0.1911 -1.2972
  606TMC3    C3 8978   0.263   3.342  17.377 -0.1835  0.3105  0.0241
  606TMC3    C4 8979   0.245   3.421  17.111 -0.5601  0.1226 -0.4700
  606TMC3    C5 8980   0.242   3.292  17.147  0.3965  0.1727 -0.6550
  606TMC3    C6 8981   0.249   3.244  17.280 -0.7848  0.1361  0.5228
  606TMC3     C 8982   0.228   3.643  17.172  0.3524 -0.0495  0.1782
  606TMC3     O 8983   0.257   3.671  17.056  0.0036  0.3298 -0.2618
  606TMC3     H 8984   0.300   3.547  17.415 -2.8512  1.0747 -1.3185
  606TMC3    H1 8985   0.216   3.438  17.008 -2.0551  0.8804  0.0757
  606TMC3    H2 8986   0.240   3.136  17.292 -2.0318  0.1365 -0.3920
  606TMC3    C7 8987   0.155   3.213  17.068  0.1474 -0.0006  0.1697
  606TMC3    C8 8988   0.301   3.298  17.512 -0.7170 -0.5530 -0.4092
  606TMC3    O1 8989   0.164   3.227  16.944 -0.2144  0.6029 -0.0603
  606TMC3    O2 8990   0.385   3.365  17.574  0.0227  0.3107 -0.3903
  607MPD2     C 8991   1.732   1.323  11.640  0.4845  0.2162 -0.4468
  607MPD2    C1 8992   1.770   1.420  11.725  0.2331 -0.2985  0.0804
  607MPD2    C2 8993   1.743   1.396  11.864  0.0629  0.3000 -0.0278
  607MPD2    C3 8994   1.682   1.287  11.918 -0.7545 -0.3137  0.1258
  607MPD2    C4 8995   1.618   1.203  11.825 -0.1041  0.1796 -0.5146
  607MPD2    C5 8996   1.646   1.221  11.687 -0.4782 -0.5879  0.2788
  607MPD2     H 8997   1.778   1.474  11.931 -1.5688  2.6722 -1.9131
  607MPD2    H1 8998   1.561   1.115  11.854  0.1706 -0.1960 -1.1048
  607MPD2    H2 8999   1.746   1.316  11.533  1.2019 -0.2191 -0.3232
  607MPD2    H3 9000   1.610   1.153  11.612  0.7472 -0.3914 -0.4897
  607MPD2     N 9001   1.664   1.267  12.056  0.4850 -0.3530  0.2163
  607MPD2    H5 9002   1.693   1.343  12.115  1.4189 -0.5477  0.0164
  607MPD2    N1 9003   1.833   1.541  11.691  0.0619 -0.0825  0.7924
  607MPD2    H7 9004   1.836   1.616  11.759 -0.2540 -0.1666  0.8993
  608TMC3    C1 9005   2.008   1.657  11.607 -0.3798 -0.6828  0.0844
  608TMC3    C2 9006   2.042   1.691  11.737  0.2068  0.0167  0.2378
  608TMC3    C3 9007   2.128   1.801  11.759  0.3555 -0.3779  0.0471
  608TMC3    C4 9008   2.063   1.728  11.500  0.1705 -0.6094 -0.2079
  608TMC3    C5 9009   2.152   1.823  11.535 -0.1075 -0.6529  0.3430
  608TMC3    C6 9010   2.184   1.873  11.657  0.0296 -0.7084 -0.5576
  608TMC3     C 9011   1.904   1.560  11.577 -0.0991  0.3253  0.1339
  608TMC3     O 9012   1.906   1.493  11.473 -0.0323 -0.1988  0.5366
  608TMC3     H 9013   2.013   1.626  11.818 -0.8660  0.4657  0.2199
  608TMC3    H1 9014   2.052   1.696  11.397  0.8181 -0.2113 -0.3982
  608TMC3    H2 9015   2.270   1.935  11.680 -2.5919  1.9436  2.0466
  608TMC3    C7 9016   2.200   1.901  11.427 -0.4183 -0.0612  0.2582
  608TMC3    C8 9017   2.157   1.837  11.899 -0.2110 -0.0775  0.2397
  608TMC3    O1 9018   2.178   1.863  11.315 -0.2676 -0.0139  0.0879
  608TMC3    O2 9019   2.257   1.905  11.916  0.2931 -0.1441 -0.4774
  609TMC3    C1 9020   0.461   4.596   8.897  0.1354  0.7166  0.2869
  609TMC3    C2 9021   0.483   4.633   8.769 -0.2672  0.0978  0.6770
  609TMC3    C3 9022   0.612   4.649   8.722  0.4652  0.6457 -0.0268
  609TMC3    C4 9023   0.566   4.556   8.975  0.1410  0.2999  0.2698
  609TMC3    C5 9024   0.690   4.556   8.918 -0.3986 -0.1827  0.0829
  609TMC3    C6 9025   0.720   4.603   8.797 -0.7156  0.1714 -0.5846
  609TMC3     C 9026   0.328   4.554   8.943  0.3385 -0.3002  0.9293
  609TMC3     O 9027   0.325   4.480   9.040  0.3870 -0.2226  0.1269
  609TMC3     H 9028   0.407   4.656   8.695 -0.2797  0.2038  0.7228
  609TMC3    H1 9029   0.550   4.530   9.079 -0.4379 -1.8588 -0.3613
  609TMC3    H2 9030   0.817   4.606   8.750  0.0152 -0.4909  0.8671
  609TMC3    C7 9031   0.797   4.519   9.000  0.6472 -0.6068  0.1161
  609TMC3    C8 9032   0.653   0.005   8.603 -0.2188 -0.4163  0.0222
  609TMC3    O1 9033   0.786   4.565   9.114 -0.0911  0.8065  0.5170
  609TMC3    O2 9034   0.769   0.044   8.609 -0.5841 -0.0927  0.0422
  610TMC3    C1 9035   2.647   1.396  12.452 -0.3632 -0.3149  0.1750
  610TMC3    C2 9036   2.603   1.353  12.326 -0.1566 -0.2498  0.1948
  610TMC3    C3 9037   2.702   1.320  12.239 -0.0637 -0.0850 -0.4200
  610TMC3    C4 9038   2.769   1.388  12.501  0.0963  0.4898 -0.5049
  610TMC3    C5 9039   2.856   1.343  12.408 -0.3888 -0.3339 -0.0134
  610TMC3    C6 9040   2.829   1.309  12.278  0.1009 -0.8295 -0.2999
  610TMC3     C 9041   2.545   1.407  12.555 -0.2243  0.0799  0.2035
  610TMC3     O 9042   2.441   1.463  12.521  0.6779  0.6880  0.2869
  610TMC3     H 9043   2.503   1.377  12.294  0.1877  2.0270  0.7992
  610TMC3    H1 9044   2.797   1.413  12.603 -0.5247  0.7757 -0.4011
  610TMC3    H2 9045   2.907   1.289  12.205  1.7526  2.1106  0.6953
  610TMC3    C7 9046   2.980   1.294  12.460 -0.4588 -0.7589 -0.0489
  610TMC3    C8 9047   2.667   1.259  12.115  0.1487  0.2392  0.7723
  610TMC3    O1 9048   3.006   1.181  12.417 -0.3056 -0.1042 -0.0091
  610TMC3    O2 9049   2.755   1.250  12.033  0.2701  0.3938 -0.1608
  611MPD2     C 9050   0.842   1.226  10.642 -0.3126  0.1510 -0.3157
  611MPD2    C1 9051   0.916   1.153  10.550 -0.4390  0.0843 -0.8475
  611MPD2    C2 9052   1.048   1.184  10.541  0.2471 -0.0606  0.2086
  611MPD2    C3 9053   1.109   1.289  10.615  0.2436  0.1286 -0.7305
  611MPD2    C4 9054   1.028   1.354  10.701  0.1537  0.7647 -0.5213
  611MPD2    C5 9055   0.901   1.323  10.714 -0.2250 -0.0868 -0.5687
  611MPD2     H 9056   1.112   1.120  10.482 -0.3155 -0.9754  0.5844
  611MPD2    H1 9057   1.070   1.421  10.775 -2.1720 -1.7170  3.0816
  611MPD2    H2 9058   0.737   1.202  10.660  0.0839 -1.4457 -0.1134
  611MPD2    H3 9059   0.851   1.372  10.796  0.8471 -2.7207  1.6526
  611MPD2     N 9060   1.249   1.326  10.609  0.4477 -0.0486  0.2614
  611MPD2    H5 9061   1.285   1.391  10.678 -0.4684  1.4269 -0.6621
  611MPD2    N1 9062   0.854   1.050  10.480  0.0690  0.2402 -0.1127
  611MPD2    H7 9063   0.756   1.032  10.498 -0.0045 -0.2813 -1.0096
  612TMC3    C1 9064   1.475   1.314  10.532  0.4492  0.0167 -0.1390
  612TMC3    C2 9065   1.517   1.335  10.660 -0.5028  0.1095  0.4155
  612TMC3    C3 9066   1.649   1.334  10.674  0.8337 -0.5339 -0.3442
  612TMC3    C4 9067   1.552   1.303  10.420 -0.4584 -0.5306  0.2504
  612TMC3    C5 9068   1.685   1.314  10.443  0.4372 -0.0481 -1.0231
  612TMC3    C6 9069   1.736   1.330  10.568 -0.5996 -0.3602 -0.6160
  612TMC3     C 9070   1.337   1.271  10.519  0.6683 -0.2527  0.5348
  612TMC3     O 9071   1.309   1.225  10.412  0.0299 -0.4236 -0.1101
  612TMC3     H 9072   1.458   1.334  10.751  2.0398 -2.2023  2.0367
  612TMC3    H1 9073   1.518   1.277  10.321 -1.1255  1.6437 -0.1047
  612TMC3    H2 9074   1.842   1.324  10.590 -0.9502 -0.6912  1.0089
  612TMC3    C7 9075   1.774   1.292  10.333  0.2886  0.2156 -0.4981
  612TMC3    C8 9076   1.709   1.382  10.803 -0.6689  0.1147  0.1080
  612TMC3    O1 9077   1.736   1.213  10.251  0.2171 -0.0023 -0.1154
  612TMC3    O2 9078   1.651   1.477  10.847  0.2354 -0.0870 -0.1559
  613MPD2     C 9079   0.722   4.236  15.613 -0.0858  0.1973 -0.4083
  613MPD2    C1 9080   0.686   4.216  15.744  0.5121 -0.0018  1.1520
  613MPD2    C2 9081   0.760   4.116  15.804  0.9595 -0.3703  0.0178
  613MPD2    C3 9082   0.828   4.021  15.734  0.0583  0.4506 -0.1164
  613MPD2    C4 9083   0.862   4.040  15.609 -0.0422  0.0575  0.3606
  613MPD2    C5 9084   0.811   4.156  15.548  0.1848  0.0089 -0.1948
  613MPD2     H 9085   0.756   4.097  15.911 -1.8513  0.9205  0.1226
  613MPD2    H1 9086   0.925   3.972  15.553 -2.5293 -0.2342 -2.0899
  613MPD2    H2 9087   0.690   4.327  15.563 -1.9916  0.8532  2.0538
  613MPD2    H3 9088   0.839   4.189  15.448  1.0149 -3.7363 -1.2077
  613MPD2     N 9089   0.887   3.904  15.799 -0.7567  0.1767  0.1651
  613MPD2    H5 9090   0.948   3.847  15.742 -1.4817 -0.5551  0.1213
  613MPD2    N1 9091   0.589   4.301  15.806 -0.3667 -0.1028 -0.0073
  613MPD2    H7 9092   0.550   4.367  15.740 -1.7202 -2.1442 -1.2339
  614TMC3    C1 9093   0.402   4.299  15.951  0.0757  0.0025  0.6001
  614TMC3    C2 9094   0.353   4.202  16.026  0.4803  0.1643  1.2458
  614TMC3    C3 9095   0.221   4.169  16.013  0.0502 -0.3975  0.7356
  614TMC3    C4 9096   0.332   4.364  15.856  0.4699 -0.4345 -0.5089
  614TMC3    C5 9097   0.198   4.340  15.853  0.4566 -0.2689 -0.0422
  614TMC3    C6 9098   0.142   4.237  15.921  0.2367 -0.3211  0.0276
  614TMC3     C 9099   0.550   4.289  15.937 -0.3521 -0.6698 -0.0801
  614TMC3     O 9100   0.607   4.232  16.028  0.0910 -0.8446  0.2177
  614TMC3     H 9101   0.415   4.152  16.099  1.3868 -0.5451 -0.0066
  614TMC3    H1 9102   0.369   4.456  15.812 -2.1170  0.8650  0.0336
  614TMC3    H2 9103   0.048   4.187  15.898  0.3766 -0.2696 -0.6597
  614TMC3    C7 9104   0.125   4.386  15.731  0.2478  0.3136 -0.3531
  614TMC3    C8 9105   0.179   4.028  16.033 -0.6809 -0.0963  0.1924
  614TMC3    O1 9106   0.066   4.494  15.742 -0.4384  0.3964  0.3397
  614TMC3    O2 9107   0.065   4.000  16.074 -0.1354  0.4579 -1.1060
  615MPD2     C 9108   0.598   0.636  15.858  0.7261 -0.6302  0.4634
  615MPD2    C1 9109   0.494   0.630  15.946  0.0524  0.6841 -0.2136
  615MPD2    C2 9110   0.401   0.523  15.932 -0.3261  0.3061 -0.5337
  615MPD2    C3 9111   0.406   0.438  15.821 -0.3930 -0.1710  0.3162
  615MPD2    C4 9112   0.512   0.457  15.733  0.5231 -0.0555 -0.5263
  615MPD2    C5 9113   0.612   0.546  15.757 -0.9436  0.1372 -0.6393
  615MPD2     H 9114   0.323   0.507  16.006 -0.7028  0.6955 -0.8509
  615MPD2    H1 9115   0.527   0.392  15.648  2.1975  0.4609 -0.6452
  615MPD2    H2 9116   0.673   0.713  15.871 -0.6035  0.4661  1.7664
  615MPD2    H3 9117   0.698   0.556  15.693 -0.7313 -1.2331 -0.5624
  615MPD2     N 9118   0.304   0.354  15.781 -0.0603  0.6328 -0.2970
  615MPD2    H5 9119   0.315   0.318  15.687 -2.2663  1.3885 -0.8515
  615MPD2    N1 9120   0.472   0.719  16.056 -0.5074  0.3995 -0.5904
  615MPD2    H7 9121   0.383   0.711  16.103  0.6906  0.1917  1.6225
  616TMC3    C1 9122   0.509   0.871  16.229  0.0107  0.5950  0.6121
  616TMC3    C2 9123   0.599   0.963  16.286  0.1975 -0.0907  0.4027
  616TMC3    C3 9124   0.567   1.009  16.411 -0.1253  0.2151 -0.7267
  616TMC3    C4 9125   0.390   0.837  16.292 -0.0606  0.2271 -0.0004
  616TMC3    C5 9126   0.359   0.903  16.416 -0.1242 -0.4122  0.1464
  616TMC3    C6 9127   0.450   0.987  16.474  0.5877  0.3240  0.5984
  616TMC3     C 9128   0.555   0.817  16.103  0.1461  0.4528 -0.7384
  616TMC3     O 9129   0.664   0.852  16.060 -0.3892  0.1121  0.1868
  616TMC3     H 9130   0.699   0.973  16.245  0.0807  2.9806  0.8102
  616TMC3    H1 9131   0.326   0.755  16.261  2.7048 -2.4311  1.3081
  616TMC3    H2 9132   0.434   1.038  16.568 -0.9264  1.4983 -0.2700
  616TMC3    C7 9133   0.243   0.860  16.483 -0.2309  0.3715  0.6481
  616TMC3    C8 9134   0.681   1.017  16.497  0.5019 -0.3474  0.2623
  616TMC3    O1 9135   0.240   0.894  16.602  0.0152  0.0309 -0.1641
  616TMC3    O2 9136   0.785   1.055  16.447 -0.0564  0.1141  0.4614
  617MPD2     C 9137   3.182   3.722  14.186  0.7008 -0.3138 -0.0769
  617MPD2    C1 9138   3.174   3.662  14.062  0.3523  0.1344 -0.6539
  617MPD2    C2 9139   3.049   3.606  14.038 -0.3717 -0.0709  0.3067
  617MPD2    C3 9140   2.935   3.623  14.119  0.4810 -0.7390  0.7449
  617MPD2    C4 9141   2.957   3.681  14.244 -0.4656  0.1823  0.3880
  617MPD2    C5 9142   3.077   3.736  14.270 -0.0761 -0.1459  0.6419
  617MPD2     H 9143   3.038   3.551  13.945 -0.2414 -2.4360  1.6900
  617MPD2    H1 9144   2.879   3.706  14.315 -0.7199  0.8813 -0.1315
  617MPD2    H2 9145   3.280   3.753  14.220  0.4330 -0.8726  1.1858
  617MPD2    H3 9146   3.092   3.786  14.365  1.2342  0.1291  0.2888
  617MPD2     N 9147   2.804   3.566  14.098 -0.3887  0.1706  0.0498
  617MPD2    H5 9148   2.728   3.574  14.166 -0.3943  0.6931 -0.0153
  617MPD2    N1 9149   3.287   3.655  13.975  0.9221  0.3379 -0.3835
  617MPD2    H7 9150   3.376   3.685  14.014  0.1059  0.3265  1.5004
  618TMC3    C1 9151   3.422   3.564  13.800  0.3286 -0.9334  0.0644
  618TMC3    C2 9152   3.526   3.523  13.882 -0.1362 -0.0567 -0.6360
  618TMC3    C3 9153   3.638   3.470  13.818 -0.3098  0.8376 -0.7958
  618TMC3    C4 9154   3.422   3.542  13.662 -0.5883  0.0542  0.6178
  618TMC3    C5 9155   3.542   3.506  13.611  0.4447  0.8290 -0.4412
  618TMC3    C6 9156   3.649   3.460  13.686  0.9696  0.2595  0.1166
  618TMC3     C 9157   3.286   3.584  13.857  0.7302  0.1228  0.1243
  618TMC3     O 9158   3.193   3.574  13.779  0.0435  0.0655  0.2227
  618TMC3     H 9159   3.528   3.533  13.990  1.2456  0.5321 -0.7104
  618TMC3    H1 9160   3.352   3.593  13.597 -0.3749  1.6165  1.6093
  618TMC3    H2 9161   3.734   3.415  13.637  0.4757 -0.9232  0.3296
  618TMC3    C7 9162   3.548   3.513  13.461 -0.5829  0.4729 -0.0211
  618TMC3    C8 9163   3.761   3.474  13.904  0.8277  0.1835 -0.1340
  618TMC3    O1 9164   3.444   3.521  13.398 -0.1507 -0.3203 -0.0415
  618TMC3    O2 9165   3.764   3.543  14.005  0.1725 -0.3636  0.4447
  619MPD2     C 9166   4.696   4.566  13.388  0.0778 -0.0303  0.0459
  619MPD2    C1 9167   4.617   4.652  13.321 -0.3634  0.0113 -0.1029
  619MPD2    C2 9168   4.488   4.627  13.269 -0.5515  0.8211 -0.0666
  619MPD2    C3 9169   4.431   4.509  13.296 -0.8673 -0.6813  0.2803
  619MPD2    C4 9170   4.515   4.413  13.343  0.7648 -0.0236  0.6486
  619MPD2    C5 9171   4.642   4.439  13.393 -0.4252  0.5319  0.8353
  619MPD2     H 9172   4.434   4.704  13.214 -0.1310  0.6830 -0.6762
  619MPD2    H1 9173   4.471   4.316  13.362  2.7041 -0.8503  0.8824
  619MPD2    H2 9174   0.072   4.590  13.421 -0.2783 -0.1214  1.1665
  619MPD2    H3 9175   4.695   4.369  13.457  0.1486  0.1868 -0.0203
  619MPD2     N 9176   4.291   4.488  13.276 -0.3389 -0.1252  0.1728
  619MPD2    H5 9177   4.256   4.399  13.309  0.8875 -1.0690 -1.0833
  619MPD2    N1 9178   4.670   0.058  13.289  0.1473 -0.4715  0.4949
  619MPD2    H7 9179   4.617   0.115  13.224  1.4164 -0.7719 -0.7981
  620TMC3    C1 9180   0.044   0.262  13.292 -0.3964 -0.1836 -0.1803
  620TMC3    C2 9181   4.723   0.282  13.162  1.1823 -0.6849  0.2610
  620TMC3    C3 9182   4.676   0.407  13.135 -0.2468 -0.0959  0.6731
  620TMC3    C4 9183   0.040   0.353  13.385  0.6061 -0.0011 -0.2205
  620TMC3    C5 9184   4.713   0.473  13.359  0.4456  0.2729  0.3709
  620TMC3    C6 9185   4.671   0.510  13.235  0.2049 -0.1061  0.2368
  620TMC3     C 9186   0.049   0.126  13.342  0.0017  0.1533  0.6011
  620TMC3     O 9187   0.138   0.090  13.414  0.1636  0.5665  0.5146
  620TMC3     H 9188   4.718   0.207  13.084 -1.0984 -1.2075  0.8935
  620TMC3    H1 9189   0.087   0.328  13.479  0.0588 -0.6662 -0.1247
  620TMC3    H2 9190   4.620   0.603  13.216  0.7207 -0.3474 -2.3876
  620TMC3    C7 9191   4.661   0.551  13.474  0.3652 -0.9583  0.2871
  620TMC3    C8 9192   4.558   0.396  13.059  0.7199 -0.0111  0.3854
  620TMC3    O1 9193   4.615   0.661  13.447 -0.1760  0.2787 -0.2606
  620TMC3    O2 9194   4.564   0.337  12.953 -1.1156 -0.2048 -0.5218
  621MPD2     C 9195   0.445   4.029   9.727  1.0152 -0.4429 -0.1564
  621MPD2    C1 9196   0.446   4.018   9.864  0.0320 -0.3155 -0.5597
  621MPD2    C2 9197   0.479   4.130   9.938  0.6091  0.7859 -0.3256
  621MPD2    C3 9198   0.505   4.248   9.871  1.0859 -0.1322  0.0749
  621MPD2    C4 9199   0.500   4.257   9.737  0.1376  0.3868 -0.1721
  621MPD2    C5 9200   0.470   4.149   9.665  0.5861 -0.1453  0.4697
  621MPD2     H 9201   0.482   4.128  10.046 -1.3264  0.0526 -0.2716
  621MPD2    H1 9202   0.510   4.354   9.689  0.2407  0.3137 -0.2962
  621MPD2    H2 9203   0.408   3.953   9.659 -1.2310  0.7657 -0.3130
  621MPD2    H3 9204   0.459   4.158   9.558 -1.7345 -1.0084  0.6276
  621MPD2     N 9205   0.527   4.367   9.950  0.4843 -0.7187  0.2854
  621MPD2    H5 9206   0.524   4.349  10.050 -0.6373 -1.9311  0.0324
  621MPD2    N1 9207   0.416   3.901   9.942 -0.2199  0.0697 -0.4280
  621MPD2    H7 9208   0.439   3.891  10.040  1.9690  1.1424 -0.8346
  622TMC3    C1 9209   0.354   3.676   9.976 -0.2212 -0.0444  0.6510
  622TMC3    C2 9210   0.330   3.708  10.110 -0.4014  0.0577 -0.5605
  622TMC3    C3 9211   0.329   3.607  10.202 -0.0105  0.5440  0.4910
  622TMC3    C4 9212   0.374   3.550   9.932 -0.2218  0.2362 -0.1765
  622TMC3    C5 9213   0.371   3.453  10.027 -0.1032 -0.4497 -1.0284
  622TMC3    C6 9214   0.349   3.476  10.157 -0.8777  0.0149 -0.1504
  622TMC3     C 9215   0.369   3.783   9.882  0.8176  0.7260 -0.2342
  622TMC3     O 9216   0.333   3.765   9.764 -0.5669  0.3944  0.1489
  622TMC3     H 9217   0.278   3.797  10.143 -0.2804 -0.4884  1.1145
  622TMC3    H1 9218   0.385   3.532   9.826  3.9226 -1.2112  0.5067
  622TMC3    H2 9219   0.332   3.391  10.223 -0.0499  0.4269  0.5889
  622TMC3    C7 9220   0.349   3.318   9.985 -0.2401  0.5627 -0.0490
  622TMC3    C8 9221   0.228   3.625  10.306  0.3823 -0.3572 -0.0038
  622TMC3    O1 9222   0.349   3.234  10.072  0.2547 -0.2792  0.4146
  622TMC3    O2 9223   0.238   3.713  10.393 -0.0271  0.3547  0.3058
  623MPD2     C 9224   3.373   0.274  16.016 -0.4139 -0.4323 -0.0420
  623MPD2    C1 9225   3.407   0.403  16.045  0.5534  0.3934  0.0084
  623MPD2    C2 9226   3.489   0.432  16.158 -0.0343  0.6572  0.2378
  623MPD2    C3 9227   3.541   0.330  16.236  0.1323 -0.6440 -0.1617
  623MPD2    C4 9228   3.511   0.197  16.198 -0.1947  0.3923 -0.0145
  623MPD2    C5 9229   3.422   0.177  16.098  0.0087  0.2638 -0.1417
  623MPD2     H 9230   3.514   0.535  16.179  0.9934 -0.0599  2.5556
  623MPD2    H1 9231   3.543   0.112  16.257  1.4554 -0.4584 -2.1543
  623MPD2    H2 9232   3.309   0.251  15.931 -0.9244  0.7385  0.0189
  623MPD2    H3 9233   3.386   0.075  16.085  0.0988  0.2123  0.0150
  623MPD2     N 9234   3.616   0.363  16.348  0.7020  0.2317  0.2307
  623MPD2    H5 9235   3.625   0.463  16.358  1.1360  0.4071 -1.9354
  623MPD2    N1 9236   3.363   0.510  15.968 -0.6197 -0.0505 -0.0713
  623MPD2    H7 9237   3.377   0.606  15.999 -0.0299  0.1043 -0.8307
  624TMC3    C1 9238   3.925   0.456  16.641 -0.1534 -0.1174  0.5378
  624TMC3    C2 9239   3.861   0.570  16.672 -0.0251 -0.4330  0.1445
  624TMC3    C3 9240   3.733   0.581  16.639 -0.9653 -0.4063  0.0886
  624TMC3    C4 9241   3.870   0.355  16.569 -0.3279 -0.4089  0.1561
  624TMC3    C5 9242   3.730   0.360  16.552 -0.6037 -0.4734 -0.2087
  624TMC3    C6 9243   3.661   0.474  16.589  0.4933 -0.0999 -0.2507
  624TMC3     C 9244   4.062   0.437  16.674 -1.2463  0.8186  1.0709
  624TMC3     O 9245   4.133   0.540  16.679  0.2683 -0.1226  0.2328
  624TMC3     H 9246   3.913   0.657  16.710 -3.0767  0.5852  1.9929
  624TMC3    H1 9247   3.910   0.262  16.530 -1.1251 -0.5851 -0.2476
  624TMC3    H2 9248   3.553   0.473  16.595  0.4627  1.1425 -0.5401
  624TMC3    C7 9249   3.676   0.279  16.439 -0.8383 -0.7830  0.4998
  624TMC3    C8 9250   3.671   0.712  16.652  0.7160  0.1278 -0.0485
  624TMC3    O1 9251   3.668   0.155  16.450 -0.1519  0.1869  0.2132
  624TMC3    O2 9252   3.736   0.803  16.699  0.6150 -0.1707 -0.5966
  625MPD2     C 9253   3.969   1.405   0.614 -0.0489  0.3521 -0.2119
  625MPD2    C1 9254   4.055   1.486   0.685 -0.2080  0.1840  0.4308
  625MPD2    C2 9255   4.102   1.447   0.805  0.7292  0.0551 -0.2729
  625MPD2    C3 9256   4.080   1.310   0.839  0.1161  0.3797 -0.2740
  625MPD2    C4 9257   4.002   1.225   0.763  0.2568  0.0735 -0.3906
  625MPD2    C5 9258   3.933   1.277   0.655  0.2811  0.3205 -0.2879
  625MPD2     H 9259   4.163   1.513   0.866 -0.0572  0.0047  0.5648
  625MPD2    H1 9260   3.979   1.125   0.796 -0.8084  0.0237 -1.2921
  625MPD2    H2 9261   3.945   1.436   0.513 -0.0508 -2.2108 -0.9906
  625MPD2    H3 9262   3.858   1.219   0.603  0.1187  1.3752 -1.2511
  625MPD2     N 9263   4.153   1.264   0.956  0.1356  0.3626 -0.4978
  625MPD2    H5 9264   4.193   1.322   1.030 -1.1318  0.0619  0.4264
  625MPD2    N1 9265   4.092   1.616   0.648 -0.3116  0.3118 -0.8304
  625MPD2    H7 9266   4.147   1.679   0.706  0.3712  0.5959 -1.7978
  626TMC3    C1 9267   4.123   1.802   0.528  0.1262  0.0513 -0.1889
  626TMC3    C2 9268   4.101   1.872   0.415  0.7542 -0.9211  0.0501
  626TMC3    C3 9269   4.120   2.010   0.428 -0.3918  0.0497  0.0847
  626TMC3    C4 9270   4.177   1.861   0.647  0.0902  0.4496  0.2490
  626TMC3    C5 9271   4.175   1.997   0.656 -0.4610 -0.1984 -0.4255
  626TMC3    C6 9272   4.135   2.072   0.550  0.1761  0.8468  0.3455
  626TMC3     C 9273   4.062   1.674   0.530  0.0020  0.2227  0.1293
  626TMC3     O 9274   4.019   1.624   0.426 -0.6684  0.0687 -0.6051
  626TMC3     H 9275   4.066   1.831   0.321  0.6581 -0.0195 -0.3025
  626TMC3    H1 9276   4.203   1.806   0.737 -1.2829 -0.7691 -0.1020
  626TMC3    H2 9277   4.129   2.179   0.566  1.8463  0.9285  0.4240
  626TMC3    C7 9278   4.156   2.064   0.789  0.0738  0.1167  0.3268
  626TMC3    C8 9279   4.065   2.081   0.314  0.5634  0.1190  0.2380
  626TMC3    O1 9280   4.233   2.031   0.879 -0.1867  0.2080 -0.4805
  626TMC3    O2 9281   4.098   2.054   0.201  0.2291  0.1172  0.4555
  627MPD2     C 9282   2.508   2.137  14.141 -0.6470 -0.0739  0.6506
  627MPD2    C1 9283   2.586   2.084  14.240 -0.3941 -0.0991  1.0073
  627MPD2    C2 9284   2.562   1.958  14.296  0.1344  0.2779 -0.8788
  627MPD2    C3 9285   2.459   1.881  14.257  0.8905 -0.1312  0.5547
  627MPD2    C4 9286   2.378   1.934  14.156 -0.2645  0.6994  0.5993
  627MPD2    C5 9287   2.399   2.061  14.107 -0.0511 -0.2760  0.5877
  627MPD2     H 9288   2.632   1.910  14.364 -3.3650 -1.4634  1.4805
  627MPD2    H1 9289   2.286   1.888  14.125 -0.5553  1.9744 -0.4662
  627MPD2    H2 9290   2.527   2.231  14.089  0.0970 -0.5894 -0.0061
  627MPD2    H3 9291   2.329   2.109  14.039  0.6878 -0.7144 -0.4657
  627MPD2     N 9292   2.428   1.757  14.320  0.4481 -0.5638  0.0770
  627MPD2    H5 9293   2.491   1.744  14.398  1.6885 -1.2272 -1.0340
  627MPD2    N1 9294   2.700   2.148  14.291 -0.0460  0.0624 -0.0440
  627MPD2    H7 9295   2.751   2.085  14.352  0.6876  0.4703 -0.2328
  628TMC3    C1 9296   2.836   2.303  14.381  0.3941 -0.1494 -0.1795
  628TMC3    C2 9297   2.937   2.218  14.398 -0.5924  0.2729 -0.1952
  628TMC3    C3 9298   3.049   2.250  14.479  0.1966  1.1671 -0.2102
  628TMC3    C4 9299   2.843   2.431  14.430 -0.3316 -0.3261 -0.1403
  628TMC3    C5 9300   2.958   2.464  14.499  0.2609  0.5973 -1.2961
  628TMC3    C6 9301   3.051   2.371  14.535 -0.0462  0.1705  0.5549
  628TMC3     C 9302   2.728   2.280  14.291 -0.5593 -0.3510  0.2145
  628TMC3     O 9303   2.665   2.377  14.247  0.4631  0.2499 -0.3060
  628TMC3     H 9304   2.941   2.119  14.353 -0.5890  0.0910  0.1972
  628TMC3    H1 9305   2.774   2.513  14.412  0.1025  0.4265  1.7063
  628TMC3    H2 9306   3.140   2.405  14.587  1.3528 -1.2534 -0.9103
  628TMC3    C7 9307   2.999   2.600  14.507 -0.4439 -0.4127 -0.3506
  628TMC3    C8 9308   3.176   2.187  14.445  0.0998 -0.1430 -0.4911
  628TMC3    O1 9309   3.091   2.626  14.588  0.1142 -0.4219 -0.4175
  628TMC3    O2 9310   3.185   2.125  14.342  0.6938  0.3065 -0.1986
  629MPD2     C 9311   0.941   0.830  16.890  0.5534 -0.5944 -0.9270
  629MPD2    C1 9312   0.986   0.874  16.770 -0.3596  0.6504  0.1011
  629MPD2    C2 9313   0.897   0.923  16.678  0.7846 -0.0397  0.0113
  629MPD2    C3 9314   0.762   0.921  16.709  0.7658  0.2537 -0.5092
  629MPD2    C4 9315   0.726   0.861  16.828 -0.5843  0.5440 -0.0504
  629MPD2    C5 9316   0.809   0.818  16.919  0.3800 -0.4417  0.0481
  629MPD2     H 9317   0.933   0.969  16.587  1.2495  1.4703  0.9704
  629MPD2    H1 9318   0.619   0.853  16.841 -0.8542  0.0870 -2.5181
  629MPD2    H2 9319   1.017   0.798  16.960  0.7031  1.3423 -0.2101
  629MPD2    H3 9320   0.778   0.773  17.013  2.9026  0.2623  1.2229
  629MPD2     N 9321   0.658   0.970  16.623  0.3267  0.8878 -0.2768
  629MPD2    H5 9322   0.563   0.954  16.656  0.7341 -0.3305  0.2861
  629MPD2    N1 9323   1.125   0.885  16.748 -0.1975 -0.6113  0.1958
  629MPD2    H7 9324   1.182   0.869  16.830 -1.3750  0.6774  1.2573
  630TMC3    C1 9325   1.322   0.974  16.645  0.4344  0.3519  0.0407
  630TMC3    C2 9326   1.377   1.014  16.527  0.2173 -0.0200  0.1137
  630TMC3    C3 9327   1.516   1.015  16.512  0.4929 -0.7286 -0.3384
  630TMC3    C4 9328   1.399   0.930  16.751 -0.5412  0.9936 -0.7050
  630TMC3    C5 9329   1.535   0.933  16.739 -0.3566  0.4076 -0.4710
  630TMC3    C6 9330   1.592   0.969  16.614 -0.9307  0.8164  0.1236
  630TMC3     C 9331   1.186   0.930  16.632 -0.5029 -0.5226  0.3477
  630TMC3     O 9332   1.144   0.950  16.523 -0.0945 -0.7032  0.1327
  630TMC3     H 9333   1.321   1.049  16.442  0.9754  1.4904  0.2277
  630TMC3    H1 9334   1.373   0.938  16.856 -1.6540  1.4156 -1.0109
  630TMC3    H2 9335   1.701   0.969  16.609 -0.9228 -1.6138  0.1233
  630TMC3    C7 9336   1.592   0.999  16.856 -0.3434 -0.2810  0.4740
  630TMC3    C8 9337   1.577   1.139  16.477 -0.3977  0.5226 -0.5047
  630TMC3    O1 9338   1.576   0.944  16.963  0.1598 -0.6876  0.0005
  630TMC3    O2 9339   1.667   1.177  16.547 -0.3624  0.0800 -0.8889
  631MPD2     C 9340   4.055   0.467  15.480  0.1701  0.1709 -0.2099
  631MPD2    C1 9341   4.153   0.474  15.384 -0.1943  0.2514 -0.1733
  631MPD2    C2 9342   4.274   0.405  15.403 -1.0268  0.3704  0.3549
  631MPD2    C3 9343   4.297   0.354  15.532 -0.6974 -0.5667  0.3193
  631MPD2    C4 9344   4.202   0.351  15.629  0.7143 -0.1578 -1.0173
  631MPD2    C5 9345   4.079   0.402  15.599  0.3313  0.2792  0.0993
  631MPD2     H 9346   4.356   0.407  15.333 -1.0108  0.8083  0.3880
  631MPD2    H1 9347   4.212   0.302  15.725  2.0484 -0.6419 -1.4018
  631MPD2    H2 9348   3.959   0.514  15.463  0.5074  1.0306  0.2504
  631MPD2    H3 9349   3.993   0.388  15.663 -0.2640 -2.0061 -1.2184
  631MPD2     N 9350   4.423   0.290  15.554 -0.1522 -0.4800 -0.5468
  631MPD2    H5 9351   4.492   0.291  15.479  0.1479 -0.6820 -0.2706
  631MPD2    N1 9352   4.128   0.569  15.281 -0.1770 -0.3385 -0.4710
  631MPD2    H7 9353   4.035   0.609  15.286  0.4912  1.2437 -0.7632
  632TMC3    C1 9354   4.163   0.733  15.115 -0.3846 -0.1452  0.1701
  632TMC3    C2 9355   4.037   0.796  15.130  0.0718 -0.6403  0.5866
  632TMC3    C3 9356   3.987   0.889  15.037 -0.4373  0.4202  0.0831
  632TMC3    C4 9357   4.248   0.779  15.014 -0.4377 -0.4079 -0.8373
  632TMC3    C5 9358   4.197   0.874  14.932 -0.3585 -0.0747 -0.4838
  632TMC3    C6 9359   4.068   0.929  14.936 -0.1194  0.4289 -0.4605
  632TMC3     C 9360   4.219   0.619  15.188 -0.0292  0.5806  0.4684
  632TMC3     O 9361   4.329   0.575  15.160  0.1393 -0.4730  0.0471
  632TMC3     H 9362   3.985   0.777  15.223  0.4539 -1.4362  0.6425
  632TMC3    H1 9363   4.348   0.738  15.001  0.1554  0.4302  1.1237
  632TMC3    H2 9364   4.039   1.004  14.864  3.1959  0.4267 -1.8160
  632TMC3    C7 9365   4.291   0.936  14.834 -0.7886 -0.8212  0.1361
  632TMC3    C8 9366   3.904   0.991  15.100 -0.4215 -0.2416  1.0466
  632TMC3    O1 9367   4.238   0.977  14.732  0.2924 -0.0850  0.3469
  632TMC3    O2 9368   3.925   1.001  15.221 -0.5241 -0.1902 -0.0713
  633MPD2     C 9369   3.671   3.647  17.348 -0.3636 -0.2454 -0.1850
  633MPD2    C1 9370   3.744   3.597  17.245  0.0124 -0.0261 -0.5308
  633MPD2    C2 9371   3.824   3.483  17.277 -0.0956 -0.7454 -0.3957
  633MPD2    C3 9372   3.843   3.441  17.406  0.2222 -0.2901 -0.1754
  633MPD2    C4 9373   3.777   3.504  17.506  0.2141 -0.4320  0.2179
  633MPD2    C5 9374   3.691   3.604  17.470  0.3678  0.0226  1.0752
  633MPD2     H 9375   3.877   3.435  17.196 -0.2568  0.7770 -1.4007
  633MPD2    H1 9376   3.772   3.460  17.605  0.9906 -1.4021 -0.1729
  633MPD2    H2 9377   3.589   3.716  17.334 -1.0588 -0.5903  2.3378
  633MPD2    H3 9378   3.627   3.635  17.552  2.3291  0.0915  2.5857
  633MPD2     N 9379   3.927   3.325  17.438  0.4344 -0.2892 -0.5466
  633MPD2    H5 9380   3.918   3.291  17.534  0.8185 -3.1030 -1.5140
  633MPD2    N1 9381   3.736   3.639  17.109 -0.3353  0.3389  0.0767
  633MPD2    H7 9382   3.797   3.592  17.042 -0.7928 -0.9195  0.5483
  634TMC3    C1 9383   3.673   3.786  16.919 -0.9175 -0.1101 -0.3941
  634TMC3    C2 9384   3.683   3.680  16.834 -0.4306  0.1564  0.1441
  634TMC3    C3 9385   3.677   3.712  16.693  0.1262 -0.1565 -0.4000
  634TMC3    C4 9386   3.661   3.916  16.882  0.2852  0.6172 -0.0328
  634TMC3    C5 9387   3.647   3.944  16.744 -0.1745  0.2705  0.7323
  634TMC3    C6 9388   3.651   3.843  16.654  0.1027  0.0534  0.7464
  634TMC3     C 9389   3.664   3.754  17.063 -0.9476 -0.4796  0.0036
  634TMC3     O 9390   3.611   3.840  17.133 -0.3933 -0.3592 -0.1999
  634TMC3     H 9391   3.695   3.579  16.871  2.1409 -0.1420 -1.5272
  634TMC3    H1 9392   3.658   3.994  16.957 -1.9755 -1.1255  1.7172
  634TMC3    H2 9393   3.641   3.858  16.547 -0.8422  2.2645  1.1337
  634TMC3    C7 9394   3.656   4.081  16.685  0.5185 -0.3156 -0.0328
  634TMC3    C8 9395   3.634   3.602  16.605 -0.6672  0.5222  0.3566
  634TMC3    O1 9396   3.653   4.081  16.561  0.0409 -0.1159 -0.7722
  634TMC3    O2 9397   3.595   3.501  16.663  0.6454  0.3455 -0.0874
  635TMC3    C1 9398   0.003   4.452  16.924  0.8002  0.6423  0.6643
  635TMC3    C2 9399   0.122   4.497  16.865 -0.5382  0.2557  0.4876
  635TMC3    C3 9400   0.191   4.410  16.793 -0.4610  0.3270  0.2294
  635TMC3    C4 9401   4.689   4.322  16.927 -0.0778 -0.4122 -0.8117
  635TMC3    C5 9402   0.054   4.231  16.877  0.5315 -0.3424  0.5796
  635TMC3    C6 9403   0.163   4.276  16.810 -0.6705  0.3458 -0.0992
  635TMC3     C 9404   4.643   4.547  16.997 -0.7181  0.1931  0.7228
  635TMC3     O 9405   4.563   4.508  17.077  0.1611  0.1101 -0.4557
  635TMC3     H 9406   0.161   4.594  16.893 -1.9342  0.4953  1.6147
  635TMC3    H1 9407   4.587   4.308  16.962  0.5753 -0.0279  1.2811
  635TMC3    H2 9408   0.211   4.197  16.754 -2.1467 -0.0646 -0.7793
  635TMC3    C7 9409   4.722   4.096  16.848  0.2162  0.1097 -0.1548
  635TMC3    C8 9410   0.307   4.461  16.743 -0.1371  0.1778  0.1567
  635TMC3    O1 9411   0.047   4.033  16.756  0.1569  0.0955  0.0254
  635TMC3    O2 9412   0.305   4.580  16.720  0.1233 -0.1561 -0.1651
  636MPD2     C 9413   0.487   3.975  16.520  0.1407  0.3239 -0.1950
  636MPD2    C1 9414   0.545   4.041  16.415 -1.1776  0.3127  0.6866
  636MPD2    C2 9415   0.645   3.976  16.345  0.9160  0.2879 -0.0891
  636MPD2    C3 9416   0.673   3.839  16.367  0.4772  0.3987  0.3148
  636MPD2    C4 9417   0.611   3.775  16.470 -0.2351  0.5485  0.5786
  636MPD2    C5 9418   0.514   3.843  16.541  0.2807 -0.0594  0.7592
  636MPD2     H 9419   0.702   4.026  16.267  0.4489  1.5320  0.3529
  636MPD2    H1 9420   0.630   3.672  16.495  3.0004  0.8172 -0.7870
  636MPD2    H2 9421   0.413   4.030  16.577  0.6736  1.4424 -0.5822
  636MPD2    H3 9422   0.463   3.781  16.615  0.3474 -0.1599  0.7214
  636MPD2     N 9423   0.761   3.774  16.277 -0.2031  0.0073 -0.2843
  636MPD2    H5 9424   0.789   3.831  16.197  1.4483  1.3722  1.2675
  636MPD2    N1 9425   0.501   4.170  16.366  0.1312 -0.6818  0.2685
  636MPD2    H7 9426   0.549   4.211  16.287 -2.0858  0.5473 -0.4542
  637TMC3    C1 9427   0.864   3.614  16.152 -0.1716  0.3341 -0.1453
  637TMC3    C2 9428   0.924   3.727  16.099 -0.0906  0.7690 -0.1327
  637TMC3    C3 9429   0.923   3.744  15.965 -0.3271  0.3504  0.3412
  637TMC3    C4 9430   0.793   3.525  16.071 -0.4128 -0.4339 -0.4330
  637TMC3    C5 9431   0.787   3.553  15.936  0.7084 -0.3673  0.1696
  637TMC3    C6 9432   0.867   3.651  15.883  1.0885 -0.1508 -0.1675
  637TMC3     C 9433   0.798   3.643  16.281  0.0541  0.0018  0.2433
  637TMC3     O 9434   0.745   3.548  16.339  0.7279  0.0844  0.3763
  637TMC3     H 9435   0.975   3.802  16.159 -1.1163 -0.3555  2.1467
  637TMC3    H1 9436   0.735   3.447  16.119 -0.9880  1.0626  1.2970
  637TMC3    H2 9437   0.873   3.668  15.777  2.5413 -1.6161 -0.3145
  637TMC3    C7 9438   0.651   3.594  15.905 -0.3271  0.3878 -0.4379
  637TMC3    C8 9439   0.895   3.885  15.936  0.0040 -0.8440  0.3952
  637TMC3    O1 9440   0.649   3.684  15.819  0.5818 -0.0552 -0.3934
  637TMC3    O2 9441   0.878   3.961  16.035  1.0569  0.5172  0.0269
  638MPD2     C 9442   0.045   2.968  14.889  0.3311 -0.1014  0.2790
  638MPD2    C1 9443   4.707   2.864  14.822 -0.2851  0.1784 -0.1776
  638MPD2    C2 9444   4.688   2.743  14.887  0.1522  1.0287  1.0844
  638MPD2    C3 9445   4.719   2.727  15.023 -0.1639  0.2593  0.1975
  638MPD2    C4 9446   0.040   2.837  15.090  0.4162  0.6495 -0.5166
  638MPD2    C5 9447   0.074   2.945  15.023  0.2784  1.0668  0.4379
  638MPD2     H 9448   4.657   2.656  14.829 -2.2749  0.6246  3.0103
  638MPD2    H1 9449   0.050   2.833  15.198  1.1047 -0.2830 -0.6126
  638MPD2    H2 9450   0.062   3.068  14.852 -0.5149 -0.3718 -0.8231
  638MPD2    H3 9451   0.113   3.030  15.078  3.0261 -0.2442  0.4980
  638MPD2     N 9452   4.701   2.604  15.088 -0.5842 -0.2389 -0.4012
  638MPD2    H5 9453   4.639   2.544  15.034 -1.1146  0.4726 -0.5936
  638MPD2    N1 9454   4.688   2.885  14.680  0.0284 -0.6934  0.5237
  638MPD2    H7 9455   0.001   2.973  14.645  0.5680 -0.6529  1.1873
  639TMC3    C1 9456   0.023   2.425  15.228 -0.3674 -0.2252 -0.6804
  639TMC3    C2 9457   4.645   2.370  15.163 -0.2724  0.2561 -0.2738
  639TMC3    C3 9458   4.664   2.245  15.094  0.3411  0.3769  0.1051
  639TMC3    C4 9459   0.141   2.359  15.239 -0.1760  0.1124 -0.3655
  639TMC3    C5 9460   0.163   2.247  15.174 -0.1816  0.4079 -0.0695
  639TMC3    C6 9461   0.063   2.180  15.098 -0.1577  0.0384  0.3971
  639TMC3     C 9462   0.044   2.566  15.204  0.3382  0.3396  0.1630
  639TMC3     O 9463   0.130   2.621  15.268 -0.1068 -0.1335 -0.4005
  639TMC3     H 9464   4.550   2.423  15.161 -0.6786 -0.4155  1.2666
  639TMC3    H1 9465   0.218   2.400  15.303 -0.0934 -0.5015 -0.0763
  639TMC3    H2 9466   0.078   2.085  15.048  0.9620 -0.6145  1.9804
  639TMC3    C7 9467   0.296   2.244  15.121 -0.6413  0.7507  0.7756
  639TMC3    C8 9468   4.570   2.195  15.002 -0.3668 -0.5793 -0.4496
  639TMC3    O1 9469   0.353   2.354  15.110 -0.2133 -0.6150 -0.6347
  639TMC3    O2 9470   4.605   2.123  14.910  0.3951  0.1110 -0.0023
  640MPD2     C 9471   0.641   0.930  10.010  0.1432  0.1120 -0.4933
  640MPD2    C1 9472   0.524   0.889   9.950 -0.1487  0.3520 -0.5127
  640MPD2    C2 9473   0.410   0.971   9.965  0.9974 -0.5092 -0.5811
  640MPD2    C3 9474   0.415   1.082  10.044 -1.1478 -0.1520  0.5362
  640MPD2    C4 9475   0.533   1.115  10.102  0.1656  0.2135 -0.4144
  640MPD2    C5 9476   0.650   1.045  10.079 -0.3956 -1.0791 -0.4358
  640MPD2     H 9477   0.316   0.937   9.922  1.1909 -0.2696 -1.1835
  640MPD2    H1 9478   0.538   1.215  10.143 -1.3424  0.3300 -0.5005
  640MPD2    H2 9479   0.733   0.872  10.006 -1.0340 -1.8538  0.7931
  640MPD2    H3 9480   0.746   1.087  10.108 -1.6321  0.9769  0.6310
  640MPD2     N 9481   0.300   1.164  10.075 -0.3861  0.6002 -0.1235
  640MPD2    H5 9482   0.324   1.219  10.157  1.3185 -1.4181  0.7416
  640MPD2    N1 9483   0.527   0.764   9.883 -0.5147 -0.5811  0.6663
  640MPD2    H7 9484   0.610   0.709   9.903  1.0222  1.2190 -0.7623
  641TMC3    C1 9485   0.454   0.585   9.744 -0.4980  0.0333  0.3438
  641TMC3    C2 9486   0.547   0.496   9.799  0.1208  0.0135  0.1136
  641TMC3    C3 9487   0.549   0.369   9.742  0.1256  0.3499 -0.6077
  641TMC3    C4 9488   0.385   0.560   9.628 -0.1459  0.0745  0.1852
  641TMC3    C5 9489   0.390   0.432   9.575 -0.1700  0.5479  0.0331
  641TMC3    C6 9490   0.468   0.341   9.634  0.1570 -0.0590  0.4594
  641TMC3     C 9491   0.430   0.713   9.808 -0.1767 -0.3339  0.3365
  641TMC3     O 9492   0.324   0.767   9.780  0.1574  0.3994 -0.0300
  641TMC3     H 9493   0.584   0.515   9.899 -1.6639  1.6763  0.4542
  641TMC3    H1 9494   0.317   0.628   9.577  0.4396  0.8368  0.4287
  641TMC3    H2 9495   0.474   0.239   9.598  0.8898  0.7940 -1.8320
  641TMC3    C7 9496   0.289   0.395   9.482 -0.4541 -0.0756  0.7437
  641TMC3    C8 9497   0.663   0.278   9.768 -0.2907 -0.3357 -0.0687
  641TMC3    O1 9498   0.220   0.486   9.433 -0.3244  0.1408 -0.0703
  641TMC3    O2 9499   0.697   0.198   9.680 -0.1618 -0.1536  1.1361
  642TMC3    C1 9500   1.753   2.301  12.175 -0.8246  0.6535  0.0096
  642TMC3    C2 9501   1.772   2.321  12.312 -0.5167  0.0573  0.1983
  642TMC3    C3 9502   1.837   2.219  12.377 -0.2453 -0.1793 -0.8970
  642TMC3    C4 9503   1.783   2.186  12.107 -0.4667 -0.3282 -0.1496
  642TMC3    C5 9504   1.823   2.081  12.185 -0.7886 -0.4575  0.7542
  642TMC3    C6 9505   1.864   2.102  12.313 -0.2657  0.2659 -0.3391
  642TMC3     C 9506   1.676   2.408  12.104 -0.3976  0.0025 -0.7419
  642TMC3     O 9507   1.718   2.425  11.989 -0.3808 -0.6040  0.0908
  642TMC3     H 9508   1.730   2.407  12.363 -1.7650 -0.7073  0.4426
  642TMC3    H1 9509   1.797   2.186  11.999  0.1950 -2.3117 -0.0529
  642TMC3    H2 9510   1.923   2.029  12.369 -0.6216  0.6991  0.6042
  642TMC3    C7 9511   1.772   1.954  12.133  0.7293  0.9463 -0.1757
  642TMC3    C8 9512   1.905   2.245  12.501 -1.1763  0.3570 -0.1802
  642TMC3    O1 9513   1.715   1.962  12.031  0.1092  0.6160 -0.3533
  642TMC3    O2 9514   1.963   2.150  12.551  1.2693  0.0743 -0.2516
  643TMC3    C1 9515   0.759   1.495   0.357 -0.1219 -0.3444  0.6425
  643TMC3    C2 9516   0.659   1.591   0.371  0.3056  0.3304 -0.5322
  643TMC3    C3 9517   0.679   1.717   0.324 -0.0134 -1.3003 -0.1881
  643TMC3    C4 9518   0.871   1.516   0.284 -0.4221  0.3423 -0.8223
  643TMC3    C5 9519   0.885   1.638   0.227 -0.1815  0.5152 -0.4222
  643TMC3    C6 9520   0.789   1.744   0.251  0.5648  0.1201  0.4394
  643TMC3     C 9521   0.780   1.422   0.479  0.1777  0.9304 -0.0934
  643TMC3     O 9522   0.681   1.404   0.545  0.2017  0.2778  0.4124
  643TMC3     H 9523   0.568   1.571   0.427 -1.5258  0.6020 -3.3868
  643TMC3    H1 9524   0.939   1.437   0.257 -1.1573  0.0251 -1.7320
  643TMC3    H2 9525   0.810   1.846   0.222  2.0951 -0.3512 -0.1156
  643TMC3    C7 9526   0.977   1.661   0.112  0.3656  0.3704  0.2196
  643TMC3    C8 9527   0.558   1.799   0.315 -0.0916  0.1480  0.2844
  643TMC3    O1 9528   1.021   1.776   0.100  0.0936 -0.0276 -0.2651
  643TMC3    O2 9529   0.455   1.765   0.365  0.1011 -0.0152  0.0324
  644MPD2     C 9530   0.592   1.341   9.803  0.1510 -0.0412  0.4229
  644MPD2    C1 9531   0.510   1.254   9.734  0.6842 -0.2571  0.4521
  644MPD2    C2 9532   0.379   1.281   9.716  0.0586 -0.6613 -0.2486
  644MPD2    C3 9533   0.321   1.402   9.752  0.8466 -0.4329 -1.0494
  644MPD2    C4 9534   0.406   1.493   9.814 -0.1502 -0.4216  0.1152
  644MPD2    C5 9535   0.535   1.467   9.840 -0.0495 -0.2400  0.1269
  644MPD2     H 9536   0.317   1.217   9.653  1.6116 -1.5801 -0.8644
  644MPD2    H1 9537   0.376   1.586   9.860 -1.5918 -0.7036 -0.2570
  644MPD2    H2 9538   0.698   1.323   9.816 -0.1846 -1.6788  0.9118
  644MPD2    H3 9539   0.591   1.546   9.889 -1.1939  0.9286 -0.4585
  644MPD2     N 9540   0.182   1.413   9.739  0.1199 -0.4394  0.7680
  644MPD2    H5 9541   0.127   1.331   9.717  0.8400 -0.7275  0.0456
  644MPD2    N1 9542   0.573   1.152   9.670 -0.1479  0.3282  0.1514
  644MPD2    H7 9543   0.674   1.154   9.677 -0.3162 -0.4039  2.6886
  645TMC3    C1 9544   4.700   1.512   9.738 -0.4087 -0.0601 -0.3182
  645TMC3    C2 9545   4.612   1.603   9.795  0.1952 -0.6502  0.0980
  645TMC3    C3 9546   4.481   1.588   9.788 -0.4382 -0.7484  0.1384
  645TMC3    C4 9547   4.650   1.403   9.669  0.3998  0.1654  0.4574
  645TMC3    C5 9548   4.513   1.396   9.659  0.0444  0.2957  0.0388
  645TMC3    C6 9549   4.428   1.492   9.705 -0.0342  0.1786  0.1469
  645TMC3     C 9550   0.116   1.537   9.742  0.0828 -0.2137 -0.1698
  645TMC3     O 9551   0.159   1.645   9.776  0.4257  0.1507  0.1834
  645TMC3     H 9552   4.654   1.691   9.842 -3.1239  0.7412  0.4088
  645TMC3    H1 9553   4.714   1.341   9.607 -0.3168  2.1001 -2.2192
  645TMC3    H2 9554   4.321   1.491   9.695 -0.1470  2.6842  1.1108
  645TMC3    C7 9555   4.453   1.283   9.587 -0.0132  0.5832  0.2059
  645TMC3    C8 9556   4.398   1.686   9.857  0.2386 -0.7026 -0.2806
  645TMC3    O1 9557   4.337   1.304   9.558  0.2062  0.5601 -0.9248
  645TMC3    O2 9558   4.457   1.763   9.929 -0.4497 -0.3395  0.1091
  646MPD2     C 9559   0.065   1.432  14.624  0.1685  0.4978  0.7895
  646MPD2    C1 9560   4.707   1.434  14.731 -0.0814 -0.4418  0.4834
  646MPD2    C2 9561   4.581   1.487  14.722 -0.0371 -0.1054  0.9703
  646MPD2    C3 9562   4.544   1.536  14.594 -0.3150 -0.4664  0.7130
  646MPD2    C4 9563   4.624   1.528  14.488 -0.0707 -0.2500 -0.0244
  646MPD2    C5 9564   0.029   1.493  14.505 -0.6071  0.3486 -0.0012
  646MPD2     H 9565   4.508   1.490  14.802 -0.5363 -0.8869  0.5362
  646MPD2    H1 9566   4.593   1.555  14.388  0.4568  0.7813  0.0927
  646MPD2    H2 9567   0.157   1.376  14.635 -0.3507 -1.0521 -2.8853
  646MPD2    H3 9568   0.093   1.476  14.420 -2.0435  1.3156 -1.2782
  646MPD2     N 9569   4.416   1.596  14.585 -0.4733  0.1970 -0.7889
  646MPD2    H5 9570   4.348   1.578  14.659 -0.0178 -1.1007 -0.6990
  646MPD2    N1 9571   0.038   1.383  14.848 -0.5156  0.1262 -0.1434
  646MPD2    H7 9572   0.123   1.329  14.840 -0.5429  0.4967 -2.8968
  647TMC3    C1 9573   0.063   1.312  15.061 -0.7155 -0.7317 -0.6026
  647TMC3    C2 9574   0.022   1.220  15.151 -0.6338 -0.6378 -0.2757
  647TMC3    C3 9575   0.113   1.181  15.244 -0.1010  0.0967 -0.2813
  647TMC3    C4 9576   0.198   1.345  15.052 -0.4055  0.4354  0.0232
  647TMC3    C5 9577   0.284   1.306  15.147 -0.1192 -0.3538 -0.3112
  647TMC3    C6 9578   0.243   1.223  15.252 -0.2490 -0.4928 -1.1957
  647TMC3     C 9579   4.696   1.369  14.969 -0.1052  0.5349  0.2154
  647TMC3     O 9580   4.581   1.392  15.000  0.0169 -0.1730 -0.1330
  647TMC3     H 9581   4.645   1.180  15.145  0.0837 -2.5093 -0.0474
  647TMC3    H1 9582   0.234   1.408  14.972  1.4202  0.9238  1.2202
  647TMC3    H2 9583   0.318   1.181  15.317 -0.6385  1.6234  0.6155
  647TMC3    C7 9584   0.419   1.284  15.104  0.3888  1.3703 -0.6409
  647TMC3    C8 9585   0.100   1.042  15.285 -0.4960 -0.5025 -0.2307
  647TMC3    O1 9586   0.484   1.188  15.137  0.3802 -0.0482  0.0842
  647TMC3    O2 9587   0.027   0.971  15.214  0.2916  0.2781  0.2901
  648TMC3    C1 9588   4.155   3.683  15.905  0.1943  0.3165 -0.4464
  648TMC3    C2 9589   4.178   3.557  15.846 -0.7612 -0.5320 -0.3350
  648TMC3    C3 9590   4.116   3.535  15.728 -0.4082 -0.6292 -0.6239
  648TMC3    C4 9591   4.077   3.777  15.842 -0.3203  0.1619  0.2108
  648TMC3    C5 9592   4.023   3.748  15.720 -0.1667 -0.1987  0.0322
  648TMC3    C6 9593   4.042   3.627  15.658 -0.4225 -0.2546  0.4315
  648TMC3     C 9594   4.154   3.695  16.046  0.0132  0.5612  0.0351
  648TMC3     O 9595   4.182   3.802  16.101 -0.3976  0.2212 -0.5904
  648TMC3     H 9596   4.237   3.477  15.890 -1.5741 -1.3643 -0.7856
  648TMC3    H1 9597   4.047   3.864  15.899 -0.1951  1.1390 -1.2054
  648TMC3    H2 9598   4.003   3.599  15.561  0.3765  1.4892 -0.3795
  648TMC3    C7 9599   3.930   3.843  15.657  0.2966 -0.3818  0.2337
  648TMC3    C8 9600   4.134   3.407  15.664  0.0459  0.2867  0.0680
  648TMC3    O1 9601   3.856   3.792  15.577  0.0999  0.3200  0.5963
  648TMC3    O2 9602   4.027   3.344  15.638 -0.1500 -0.1013 -0.1310
  649TMC3    C1 9603   3.202   4.444  12.735 -0.2765  0.1323 -0.1712
  649TMC3    C2 9604   3.302   4.535  12.765  0.1908 -0.5244 -0.4564
  649TMC3    C3 9605   3.350   4.552  12.894  0.2205  0.5339 -0.7146
  649TMC3    C4 9606   3.139   4.373  12.837 -0.1129  0.9229  0.6364
  649TMC3    C5 9607   3.182   4.395  12.966  0.3938 -0.2758  0.6848
  649TMC3    C6 9608   3.285   4.480  12.995  0.6316  0.2031 -0.2570
  649TMC3     C 9609   3.123   4.452  12.606 -0.3653 -0.0320 -0.6912
  649TMC3     O 9610   3.009   4.412  12.601  0.2495  0.0405  0.2914
  649TMC3     H 9611   3.354   4.579  12.680  2.2387 -0.0530  1.0279
  649TMC3    H1 9612   3.038   4.333  12.831  0.9757 -1.6284 -0.6262
  649TMC3    H2 9613   3.323   4.490  13.096 -0.0356  3.6122 -0.3458
  649TMC3    C7 9614   3.113   4.351  13.082  0.2875 -0.3287  0.4552
  649TMC3    C8 9615   3.479   4.601  12.918  0.3836  0.2312 -0.0756
  649TMC3    O1 9616   3.145   4.395  13.192 -0.3542 -0.7615 -0.2505
  649TMC3    O2 9617   3.527   4.575  13.028 -0.4544 -0.4749  0.1279
  650TMC3    C1 9618   1.473   1.758  12.761 -0.4385 -0.4280  0.2094
  650TMC3    C2 9619   1.438   1.890  12.742  0.2648  0.3076 -0.0446
  650TMC3    C3 9620   1.341   1.921  12.649  0.5273  0.5878  0.1362
  650TMC3    C4 9621   1.421   1.661  12.672 -0.6354 -0.0179  0.1037
  650TMC3    C5 9622   1.329   1.700  12.576 -1.2645 -0.3972 -0.0186
  650TMC3    C6 9623   1.283   1.829  12.566  0.0530 -0.1829 -0.9552
  650TMC3     C 9624   1.525   1.716  12.888 -0.2317  0.6312 -0.0417
  650TMC3     O 9625   1.536   1.797  12.979 -0.5622  0.3904  0.2767
  650TMC3     H 9626   1.450   1.964  12.821 -0.2573 -0.0015  0.3297
  650TMC3    H1 9627   1.442   1.556  12.689  2.5669  0.6176  0.1920
  650TMC3    H2 9628   1.218   1.859  12.485 -2.3284  0.2354  1.1274
  650TMC3    C7 9629   1.263   1.597  12.502  0.4831  0.9873  0.3536
  650TMC3    C8 9630   1.273   2.045  12.677  0.2055 -0.3616 -0.5750
  650TMC3    O1 9631   1.293   1.479  12.524 -0.1529 -0.3821 -0.0679
  650TMC3    O2 9632   1.347   2.141  12.696  0.7157 -0.2939  0.0804
  651MPD2     C 9633   4.695   3.202  10.406 -0.5836  0.1217  0.0312
  651MPD2    C1 9634   4.684   3.308  10.496  0.0835 -0.5685  1.3440
  651MPD2    C2 9635   0.082   3.360  10.548 -0.5122 -0.1318 -0.2056
  651MPD2    C3 9636   0.205   3.309  10.510 -0.1760 -0.1087 -0.6609
  651MPD2    C4 9637   0.211   3.204  10.420 -0.6053  0.1736 -0.0184
  651MPD2    C5 9638   0.094   3.147  10.375  0.6312 -0.0544  0.2637
  651MPD2     H 9639   0.077   3.437  10.625 -3.0017  0.2747 -0.7874
  651MPD2    H1 9640   0.304   3.153  10.397 -0.0485  2.2695 -2.4653
  651MPD2    H2 9641   4.609   3.165  10.351 -0.4451  3.5290 -2.5459
  651MPD2    H3 9642   0.098   3.070  10.300 -1.5016  0.6345 -0.5543
  651MPD2     N 9643   0.317   3.372  10.562  0.1662 -0.3615  0.1575
  651MPD2    H5 9644   0.295   3.420  10.648 -0.7981  1.1506 -0.9335
  651MPD2    N1 9645   4.566   3.349  10.549 -0.1569 -0.2496  0.4084
  651MPD2    H7 9646   4.574   3.420  10.622 -3.4188 -0.9745  1.4909
  652TMC3    C1 9647   0.736   3.281  10.730 -0.4311 -0.0017 -0.1587
  652TMC3    C2 9648   0.667   3.313  10.622  0.6551 -0.0590 -0.2333
  652TMC3    C3 9649   0.540   3.367  10.641 -0.1911 -1.0065  0.4037
  652TMC3    C4 9650   0.690   3.304  10.856 -0.5073 -0.5073  0.2989
  652TMC3    C5 9651   0.569   3.359  10.871 -0.1215 -0.3269 -0.2476
  652TMC3    C6 9652   0.489   3.399  10.764 -0.2449  0.0031 -1.0033
  652TMC3     C 9653   0.881   3.257  10.725 -0.3165  0.3160 -0.6798
  652TMC3     O 9654   0.927   3.192  10.818  0.7825  0.0686 -0.1109
  652TMC3     H 9655   0.712   3.311  10.523  1.2588  1.2838  0.0157
  652TMC3    H1 9656   0.746   3.280  10.945 -0.6379  0.3789  0.6166
  652TMC3    H2 9657   0.406   3.468  10.780  0.3337  0.4855 -0.0863
  652TMC3    C7 9658   0.561   3.437  10.986 -0.1177  0.5128  0.4781
  652TMC3    C8 9659   0.449   3.355  10.529 -0.6402  0.5922  0.0393
  652TMC3    O1 9660   0.524   3.380  11.091 -0.1108 -0.5884  0.2067
  652TMC3    O2 9661   0.506   3.313  10.430 -0.0989 -0.5044  0.4816
  653MPD2     C 9662   3.410   3.617   0.018  0.2940 -0.3565  0.8572
  653MPD2    C1 9663   3.363   3.694  17.614 -0.3811 -0.6678 -0.3660
  653MPD2    C2 9664   3.306   3.632  17.512 -0.3319 -0.1784 -0.3507
  653MPD2    C3 9665   3.321   3.493  17.487  0.5083 -0.6595  0.2504
  653MPD2    C4 9666   3.367   3.415  17.590  0.0540  0.2855 -1.0277
  653MPD2    C5 9667   3.405   3.481   0.009  0.0183 -0.0580 -0.1056
  653MPD2     H 9668   3.259   3.698  17.440 -2.4308  1.4606  2.5786
  653MPD2    H1 9669   3.362   3.307  17.584  1.6879  0.2129 -1.0619
  653MPD2    H2 9670   3.455   3.657   0.109  0.4255  3.0122 -0.6986
  653MPD2    H3 9671   3.432   3.427   0.099 -1.2156 -3.6192 -1.8923
  653MPD2     N 9672   3.287   3.440  17.365  0.6029 -0.3655 -0.3007
  653MPD2    H5 9673   3.254   3.503  17.291  0.1468  1.2268  1.2493
  653MPD2    N1 9674   3.362   3.827  17.625 -0.9343  0.4904  0.1294
  653MPD2    H7 9675   3.314   3.884  17.556 -0.1422 -0.1470 -0.9581
  654TMC3    C1 9676   3.207   3.290  17.203 -0.4196  0.1884 -0.3576
  654TMC3    C2 9677   3.109   3.376  17.163  0.1899 -0.0653 -0.4136
  654TMC3    C3 9678   3.066   3.353  17.037 -0.2916 -0.0077 -0.0202
  654TMC3    C4 9679   3.238   3.170  17.137  0.4532 -0.4294 -0.7657
  654TMC3    C5 9680   3.178   3.146  17.020 -0.0288 -0.2966  0.1707
  654TMC3    C6 9681   3.093   3.234  16.966  0.0428  0.0060  0.1223
  654TMC3     C 9682   3.275   3.310  17.329 -0.1030  0.7289 -0.0124
  654TMC3     O 9683   3.316   3.209  17.384 -0.2721 -0.5257  0.8771
  654TMC3     H 9684   3.092   3.472  17.211  0.2956  0.5223 -1.5565
  654TMC3    H1 9685   3.313   3.103  17.177  1.0326  0.2976 -0.6390
  654TMC3    H2 9686   3.039   3.215  16.873  1.2653 -1.1611 -0.3344
  654TMC3    C7 9687   3.205   3.020  16.948 -0.1916 -0.1740 -0.2116
  654TMC3    C8 9688   3.009   3.466  16.963  0.4755 -0.1109  0.3079
  654TMC3    O1 9689   3.166   3.027  16.832 -0.6589  0.3062 -0.5269
  654TMC3    O2 9690   2.993   3.571  17.018  0.1232 -0.2089  0.2829
  655MPD2     C 9691   4.680   3.938  15.424  0.5900 -0.3939 -0.0448
  655MPD2    C1 9692   4.563   4.002  15.404  0.0228 -0.2880 -0.3505
  655MPD2    C2 9693   4.496   3.993  15.284  0.2725  0.0124 -0.3327
  655MPD2    C3 9694   4.541   3.909  15.183  0.5446 -0.0728  0.0855
  655MPD2    C4 9695   4.660   3.845  15.205 -0.7957 -0.1719 -0.5159
  655MPD2    C5 9696   0.006   3.858  15.323 -0.1082  0.8288  0.1636
  655MPD2     H 9697   4.400   4.041  15.274  0.3799  0.7389  2.0989
  655MPD2    H1 9698   4.704   3.776  15.134  1.8365 -1.8061  2.7120
  655MPD2    H2 9699   0.009   3.944  15.519  1.3499 -4.0989 -0.2325
  655MPD2    H3 9700   0.086   3.786  15.335 -1.6319 -0.9243 -0.1057
  655MPD2     N 9701   4.467   3.872  15.072  0.0176  0.1763  0.0879
  655MPD2    H5 9702   4.512   3.815  15.002  1.6380  1.4260  0.1176
  655MPD2    N1 9703   4.512   4.081  15.507 -0.8448 -0.2919 -0.0611
  655MPD2    H7 9704   4.429   4.131  15.476 -2.4868 -0.7704  3.5351
  656TMC3    C1 9705   4.480   4.207  15.691  0.2881 -0.8581 -0.3227
  656TMC3    C2 9706   4.422   4.174  15.810  0.0875 -0.4200 -0.0993
  656TMC3    C3 9707   4.315   4.243  15.860 -0.6193  0.0695  0.3509
  656TMC3    C4 9708   4.423   4.298  15.614 -0.4840 -0.3495 -0.0514
  656TMC3    C5 9709   4.310   4.359  15.660  0.1065  0.4501 -0.3376
  656TMC3    C6 9710   4.258   4.331  15.784 -0.1258 -0.3215  1.2257
  656TMC3     C 9711   4.570   4.110  15.632  0.1233  0.8800  0.0783
  656TMC3     O 9712   4.651   4.044  15.695 -0.2604 -0.3274  0.2220
  656TMC3     H 9713   4.476   4.106  15.874  1.1163 -1.4623 -2.0801
  656TMC3    H1 9714   4.454   4.325  15.514 -0.3308  2.2223  0.6697
  656TMC3    H2 9715   4.161   4.371  15.812 -1.1352  0.1828 -2.9840
  656TMC3    C7 9716   4.216   4.387  15.553 -0.1718  1.1062  0.2454
  656TMC3    C8 9717   4.210   4.172  15.933  0.1223 -0.5618 -0.6728
  656TMC3    O1 9718   4.242   4.329  15.451  0.0193  0.3421  0.4052
  656TMC3    O2 9719   4.155   4.085  15.866 -0.0080  0.6594 -0.3111
  657TMC3    C1 9720   3.475   3.154  14.979  0.2902  0.8831 -0.3092
  657TMC3    C2 9721   3.513   3.049  15.063  0.2852  0.2427  1.0698
  657TMC3    C3 9722   3.472   3.049  15.187  0.0014 -0.2335  0.0815
  657TMC3    C4 9723   3.380   3.238  15.016 -0.3580 -0.1242 -0.3130
  657TMC3    C5 9724   3.334   3.229  15.142  0.3558  0.4683  0.5522
  657TMC3    C6 9725   3.382   3.143  15.235  0.1798 -0.3096  0.1182
  657TMC3     C 9726   3.556   3.183  14.858 -0.0301 -0.3319 -0.5447
  657TMC3     O 9727   3.518   3.283  14.795 -0.0729  0.1360  0.2072
  657TMC3     H 9728   3.560   2.957  15.029 -0.9149 -1.1268  3.0547
  657TMC3    H1 9729   3.339   3.319  14.957 -0.9119 -0.2842 -0.1468
  657TMC3    H2 9730   3.326   3.128  15.326 -1.8437  0.6217 -0.9796
  657TMC3    C7 9731   3.227   3.323  15.179 -0.5215  0.0831  0.2327
  657TMC3    C8 9732   3.510   2.941  15.284 -0.2013 -0.4763 -0.1410
  657TMC3    O1 9733   3.161   3.373  15.091 -0.2709  0.1831  0.3573
  657TMC3    O2 9734   3.442   2.939  15.388  0.1629 -0.1631  0.0509
  658MPD2     C 9735   4.701   3.753  14.499 -0.3184 -0.1069 -0.0538
  658MPD2    C1 9736   4.588   3.827  14.478 -0.3538 -0.2569  0.6636
  658MPD2    C2 9737   4.568   3.876  14.353 -0.6329  0.1938 -0.3635
  658MPD2    C3 9738   4.661   3.862  14.254  0.2071 -0.0615 -0.2229
  658MPD2    C4 9739   0.047   3.785  14.281 -0.7996 -0.0784 -0.8519
  658MPD2    C5 9740   0.071   3.725  14.401  0.3260 -0.7485  0.5236
  658MPD2     H 9741   4.486   3.945  14.340 -1.7838 -1.0103  0.6001
  658MPD2    H1 9742   0.125   3.768  14.208 -1.9635 -2.6982 -1.4672
  658MPD2    H2 9743   4.715   3.696  14.590 -2.1648 -0.8254 -0.2246
  658MPD2    H3 9744   0.154   3.656  14.410  0.3015 -0.9750 -0.8852
  658MPD2     N 9745   4.639   3.929  14.131  0.0808 -1.1781  0.1327
  658MPD2    H5 9746   4.566   4.000  14.131  0.1268 -1.1417  1.8642
  658MPD2    N1 9747   4.504   3.844  14.586 -0.2385 -0.3171 -0.2548
  658MPD2    H7 9748   4.536   3.787  14.664  1.5965 -1.0280 -1.5267
  659TMC3    C1 9749   4.302   3.905  14.698 -0.0658 -0.5368 -0.3333
  659TMC3    C2 9750   4.361   3.890  14.820 -0.5083  0.2250  0.7387
  659TMC3    C3 9751   4.280   3.853  14.929  0.4443 -0.5907  1.0027
  659TMC3    C4 9752   4.164   3.894  14.685  0.2370 -0.3547  0.4686
  659TMC3    C5 9753   4.087   3.864  14.795 -0.1279 -0.1115  0.1142
  659TMC3    C6 9754   4.143   3.833  14.922  0.2176  0.5375 -0.4023
  659TMC3     C 9755   4.375   3.899  14.579 -0.9648  0.1261 -0.3912
  659TMC3     O 9756   4.304   3.913  14.483  0.2780 -0.3087  0.4949
  659TMC3     H 9757   4.459   3.934  14.833 -1.0085  2.5415 -3.2326
  659TMC3    H1 9758   4.113   3.927  14.596 -0.1435 -0.2549  0.7253
  659TMC3    H2 9759   4.082   3.803  15.006  0.0885  1.0018 -0.3296
  659TMC3    C7 9760   3.963   3.791  14.770 -0.2673  0.0468 -0.0044
  659TMC3    C8 9761   4.330   3.874  15.067  0.2627  0.1496 -0.4341
  659TMC3    O1 9762   3.916   3.732  14.865  0.3167  0.1382 -0.1088
  659TMC3    O2 9763   4.247   3.884  15.153 -0.2220 -0.0984  0.4623
  660MPD2     C 9764   3.134   2.314  12.652  0.6543 -0.1157 -0.4307
  660MPD2    C1 9765   3.000   2.349  12.661  0.3334  0.3291 -0.4034
  660MPD2    C2 9766   2.924   2.291  12.765 -0.5654 -0.4816  0.0901
  660MPD2    C3 9767   2.981   2.190  12.845  0.4665 -0.7060  0.3001
  660MPD2    C4 9768   3.113   2.156  12.832 -0.5749  0.0516  0.4206
  660MPD2    C5 9769   3.184   2.220  12.735  0.4935 -0.2671  0.5542
  660MPD2     H 9770   2.828   2.338  12.789  0.1237  0.9934 -0.0336
  660MPD2    H1 9771   3.161   2.069  12.874 -1.6973  0.1487  1.8959
  660MPD2    H2 9772   3.195   2.348  12.569  0.6993 -0.2320 -0.4460
  660MPD2    H3 9773   3.287   2.186  12.726  1.1480  1.6720  0.9177
  660MPD2     N 9774   2.907   2.116  12.943 -0.1295 -0.1785 -0.2566
  660MPD2    H5 9775   2.965   2.049  12.992  1.1450 -0.4147 -2.0583
  660MPD2    N1 9776   2.938   2.452  12.587  0.0328 -0.0497 -0.2815
  660MPD2    H7 9777   2.837   2.453  12.588  0.0528  1.4335 -0.1144
  661TMC3    C1 9778   2.916   2.602  12.405  0.1322  0.0332 -0.1915
  661TMC3    C2 9779   2.978   2.635  12.285 -0.5741 -0.6234  0.5359
  661TMC3    C3 9780   2.915   2.712  12.193 -0.6555 -0.2919 -0.1589
  661TMC3    C4 9781   2.783   2.636  12.427 -0.6347 -0.2202 -0.1260
  661TMC3    C5 9782   2.719   2.701  12.327  0.2425  0.5160 -0.1770
  661TMC3    C6 9783   2.782   2.735  12.207  0.3745 -0.3949  0.0698
  661TMC3     C 9784   3.000   2.533  12.504 -0.5321 -0.1012  0.4593
  661TMC3     O 9785   3.124   2.542  12.486 -0.2631  0.5009 -0.3762
  661TMC3     H 9786   3.073   2.590  12.260  0.2309  1.1424  0.4390
  661TMC3    H1 9787   2.729   2.600  12.514 -2.8372  1.7533 -0.6654
  661TMC3    H2 9788   2.724   2.776  12.124  0.6418  0.9927  0.5736
  661TMC3    C7 9789   2.574   2.683  12.325 -0.5824  0.6651 -0.0331
  661TMC3    C8 9790   2.968   2.688  12.052 -0.2019 -0.4280  0.1573
  661TMC3    O1 9791   2.517   2.682  12.430 -0.7907 -0.1967 -0.5671
  661TMC3    O2 9792   3.028   2.584  12.034  0.2159  0.0868  0.3544
  662MPD2     C 9793   3.342   1.601  17.103  0.2587  0.5511 -0.3878
  662MPD2    C1 9794   3.296   1.632  17.226  0.0646 -0.7493  0.6171
  662MPD2    C2 9795   3.167   1.627  17.257 -0.3424  0.4827  0.2510
  662MPD2    C3 9796   3.072   1.619  17.156  0.1954  0.1608 -0.2200
  662MPD2    C4 9797   3.113   1.569  17.031  0.5516 -0.4218 -0.2752
  662MPD2    C5 9798   3.246   1.555  17.017 -0.0650  0.8151  0.0226
  662MPD2     H 9799   3.132   1.658  17.355 -0.9834  0.2330  0.1019
  662MPD2    H1 9800   3.044   1.550  16.950  2.3653  0.3307 -1.9976
  662MPD2    H2 9801   3.447   1.610  17.077 -0.2624  1.0399 -2.3317
  662MPD2    H3 9802   3.286   1.518  16.924  0.4141 -0.3405  0.6824
  662MPD2     N 9803   2.932   1.648  17.169 -0.5695  0.4407 -0.2690
  662MPD2    H5 9804   2.876   1.651  17.083 -1.7180 -1.1889  0.4252
  662MPD2    N1 9805   3.372   1.662  17.338  0.1425  0.5504  0.4092
  662MPD2    H7 9806   3.323   1.661  17.427  1.5828 -1.1896  1.1763
  663TMC3    C1 9807   3.560   1.724  17.462  1.0754 -0.2697  0.1520
  663TMC3    C2 9808   3.597   1.851  17.493  0.4990  0.0854 -0.0445
  663TMC3    C3 9809   3.583   1.909  17.617  0.4085 -0.5049  0.0830
  663TMC3    C4 9810   3.526   1.632  17.558  0.6794 -0.2575 -0.4674
  663TMC3    C5 9811   3.534   1.677  17.686  1.0673 -0.4155  0.0876
  663TMC3    C6 9812   3.567   1.814   0.017  0.3484 -0.7906 -0.2900
  663TMC3     C 9813   3.505   1.697  17.337 -0.2904  0.5912  0.0908
  663TMC3     O 9814   3.559   1.748  17.237  0.1054 -0.2225 -0.2618
  663TMC3     H 9815   3.582   1.913  17.405  1.5509  0.1475 -0.1837
  663TMC3    H1 9816   3.486   1.538  17.523 -0.7556  0.9075 -1.9977
  663TMC3    H2 9817   3.568   1.848   0.120  0.9199 -1.3657 -0.1110
  663TMC3    C7 9818   3.495   1.599   0.107  0.2225 -0.1210 -0.1243
  663TMC3    C8 9819   3.508   2.036  17.627  0.4876  0.4049  0.1182
  663TMC3    O1 9820   3.503   1.659   0.215  0.3808 -0.4191  0.2283
  663TMC3    O2 9821   3.468   2.090  17.523  0.1867 -0.0010  0.4725
  664MPD2     C 9822   1.480   0.516  17.389 -0.0552 -0.5624  0.4941
  664MPD2    C1 9823   1.546   0.620  17.449  0.5817 -0.0621 -0.5730
  664MPD2    C2 9824   1.639   0.583  17.548  0.4024 -0.5720  0.1114
  664MPD2    C3 9825   1.652   0.455  17.599 -0.9483  0.4824 -0.3062
  664MPD2    C4 9826   1.582   0.356  17.537  0.5211 -0.3938 -0.0627
  664MPD2    C5 9827   1.505   0.385  17.426 -0.2476  0.3095 -0.3767
  664MPD2     H 9828   1.691   0.663  17.600  0.4108 -0.9077  0.6122
  664MPD2    H1 9829   1.596   0.252  17.564 -0.7753 -1.2655 -2.7173
  664MPD2    H2 9830   1.405   0.539  17.314  1.1654 -0.1501 -0.6135
  664MPD2    H3 9831   1.452   0.302  17.379  0.9541  0.0072 -1.1794
  664MPD2     N 9832   1.723   0.433   0.021 -0.3433  0.2530 -0.1871
  664MPD2    H5 9833   1.786   0.503   0.059  0.8475 -1.1195  0.3697
  664MPD2    N1 9834   1.531   0.759  17.421  0.0529 -0.8772 -0.1318
  664MPD2    H7 9835   1.592   0.819  17.476 -0.8574  0.3067 -0.4195
  665TMC3    C1 9836   1.787   0.353   0.231 -0.4085  0.0270  0.2526
  665TMC3    C2 9837   1.780   0.248   0.319  0.1176 -0.0408  0.1072
  665TMC3    C3 9838   1.798   0.264   0.456 -0.6896  0.4886  0.0082
  665TMC3    C4 9839   1.778   0.484   0.271 -0.4820  0.0531  0.0506
  665TMC3    C5 9840   1.779   0.498   0.407  0.2625 -0.3059 -0.4667
  665TMC3    C6 9841   1.804   0.395   0.501 -0.2078 -0.5314  0.4044
  665TMC3     C 9842   1.723   0.322   0.107  0.2141  0.5214 -0.1145
  665TMC3     O 9843   1.661   0.220   0.102  0.2354 -0.5836  0.2748
  665TMC3     H 9844   1.761   0.149   0.279 -2.2529 -0.2341  1.7202
  665TMC3    H1 9845   1.759   0.573   0.213 -0.7103  0.7295  1.1571
  665TMC3    H2 9846   1.813   0.414   0.607  0.6918  0.1082  0.2086
  665TMC3    C7 9847   1.676   0.600   0.451 -1.1179  0.5963 -0.4770
  665TMC3    C8 9848   1.711   0.176   0.541  0.8790  0.3140 -0.6927
  665TMC3    O1 9849   1.644   0.686   0.373  0.0504  0.0107  0.2631
  665TMC3    O2 9850   1.724   0.198   0.662  0.4480  0.0387 -0.0732
  666TMC3    C1 9851   0.553   4.588  10.020  0.0623  0.4413  0.3782
  666TMC3    C2 9852   0.645   4.544  10.114  0.0594  0.0151  0.2834
  666TMC3    C3 9853   0.693   4.637  10.196 -0.1425 -0.5213  1.2815
  666TMC3    C4 9854   0.517   4.721  10.006 -0.2526  0.1066 -0.4756
  666TMC3    C5 9855   0.554   0.084  10.107 -0.2790 -0.7375  1.0153
  666TMC3    C6 9856   0.650   0.049  10.200  0.1367  0.6517  0.6895
  666TMC3     C 9857   0.512   4.496   9.915 -0.2223  0.3325 -0.0652
  666TMC3     O 9858   0.480   4.540   9.805 -0.0848 -0.1129  0.0442
  666TMC3     H 9859   0.673   4.439  10.127  1.5437  0.6096  1.9787
  666TMC3    H1 9860   0.444   0.022   9.930 -1.0933  2.7428  1.1872
  666TMC3    H2 9861   0.672   0.114  10.284 -1.2425  2.1627 -0.1428
  666TMC3    C7 9862   0.494   0.213  10.115  0.2371  0.6119 -0.1481
  666TMC3    C8 9863   0.790   4.597  10.301  0.3000  0.0077 -0.1929
  666TMC3    O1 9864   0.559   0.297  10.181 -0.0185  0.5184 -0.5303
  666TMC3    O2 9865   0.789   4.477  10.312 -0.0639  0.1348 -0.1050
  667MPD2     C 9866   1.456   0.962  14.611 -0.3230 -0.1179  0.2272
  667MPD2    C1 9867   1.443   0.863  14.715 -0.1039  0.0419  0.6795
  667MPD2    C2 9868   1.321   0.810  14.740  0.5386  0.1667 -0.1409
  667MPD2    C3 9869   1.209   0.854  14.667 -0.0978 -0.7260  0.3236
  667MPD2    C4 9870   1.226   0.951  14.566 -0.2477  0.1454 -0.1337
  667MPD2    C5 9871   1.351   0.999  14.539  0.7632  0.4047 -0.2527
  667MPD2     H 9872   1.303   0.735  14.817 -1.6021 -1.3064 -2.0786
  667MPD2    H1 9873   1.144   0.988  14.506 -0.2728  1.2574  0.6027
  667MPD2    H2 9874   1.554   0.998  14.582 -1.1317  1.3344 -0.7277
  667MPD2    H3 9875   1.355   1.070  14.458 -0.8374  1.3511  0.4859
  667MPD2     N 9876   1.080   0.790  14.691 -0.2398 -0.6638 -0.6097
  667MPD2    H5 9877   1.072   0.718  14.762  1.0897  0.1095  0.3086
  667MPD2    N1 9878   1.545   0.826  14.805 -0.3092  0.3332 -0.2304
  667MPD2    H7 9879   1.519   0.751  14.867  1.3836  1.0660  1.3724
  668TMC3    C1 9880   1.742   0.852  14.934  0.6920 -0.0166  0.3136
  668TMC3    C2 9881   1.877   0.884  14.938  0.0594  0.4820  0.1542
  668TMC3    C3 9882   1.940   0.870  15.060  0.0092 -0.1155  0.2878
  668TMC3    C4 9883   1.670   0.819  15.042 -0.5959  0.2608  0.1997
  668TMC3    C5 9884   1.733   0.803  15.165 -0.1513 -0.1065  0.2154
  668TMC3    C6 9885   1.869   0.832  15.171  0.0376  0.9166  0.4036
  668TMC3     C 9886   1.671   0.886  14.808  0.5755  0.0773  0.2233
  668TMC3     O 9887   1.729   0.956  14.724 -0.1402  0.0960  0.2651
  668TMC3     H 9888   1.931   0.883  14.844  2.1695  0.1456  1.3774
  668TMC3    H1 9889   1.564   0.802  15.033 -0.4453 -2.2279  3.0254
  668TMC3    H2 9890   1.916   0.847  15.268 -1.7632 -1.7325  1.6945
  668TMC3    C7 9891   1.664   0.810  15.285  0.4319  0.2406 -0.8007
  668TMC3    C8 9892   2.075   0.920  15.074 -0.3159  0.1432  0.2622
  668TMC3    O1 9893   1.701   0.740  15.377 -0.0434 -0.2059 -0.0707
  668TMC3    O2 9894   2.131   0.904  15.179 -0.5971  0.2296  0.6386
  669TMC3    C1 9895   4.315   0.435  14.750 -0.2503  0.0789 -0.0253
  669TMC3    C2 9896   4.211   0.463  14.669 -0.2905  0.1546  0.0560
  669TMC3    C3 9897   4.224   0.565  14.577 -1.2417 -1.2139  0.5510
  669TMC3    C4 9898   4.434   0.495  14.734 -0.4837 -0.0761 -0.5311
  669TMC3    C5 9899   4.440   0.609  14.660  0.0909  0.1344  0.0043
  669TMC3    C6 9900   4.335   0.643  14.574 -0.2624  0.4477  0.5181
  669TMC3     C 9901   4.293   0.341  14.861  0.2655 -0.1803  0.2577
  669TMC3     O 9902   4.178   0.322  14.904 -0.0023 -0.2203  0.2385
  669TMC3     H 9903   4.121   0.404  14.682  0.9976 -2.1801 -1.7409
  669TMC3    H1 9904   4.519   0.471  14.797 -0.3556  0.3657 -0.5341
  669TMC3    H2 9905   4.338   0.722  14.500  0.7470  0.4876  0.6033
  669TMC3    C7 9906   4.569   0.643  14.607  0.6474 -0.4843  0.0617
  669TMC3    C8 9907   4.160   0.543  14.450 -0.7201 -0.0533  0.2607
  669TMC3    O1 9908   4.667   0.627  14.674 -0.5051 -0.1136  0.2875
  669TMC3    O2 9909   4.208   0.610  14.358  0.6478 -0.0277 -0.3143
  670MPD2     C 9910   3.135   3.324  13.307  0.5063 -0.0251  0.9775
  670MPD2    C1 9911   3.125   3.193  13.271 -1.0131 -0.3041  0.9315
  670MPD2    C2 9912   3.099   3.094  13.370  0.1006  0.3792  0.2075
  670MPD2    C3 9913   3.058   3.141  13.495  0.3341 -0.3783 -0.1311
  670MPD2    C4 9914   3.052   3.276  13.522  0.4316 -0.1870 -0.8258
  670MPD2    C5 9915   3.103   3.360  13.430 -0.3482 -0.3579  0.2971
  670MPD2     H 9916   3.086   2.990  13.345  1.2687 -0.0889  1.5111
  670MPD2    H1 9917   3.017   3.315  13.617 -0.1211  1.2882 -1.6414
  670MPD2    H2 9918   3.161   3.411  13.247  0.8079 -1.3887 -0.8769
  670MPD2    H3 9919   3.108   3.465  13.459  0.0840 -0.4653  0.6146
  670MPD2     N 9920   3.014   3.043  13.579 -0.1673  0.3207  0.4243
  670MPD2    H5 9921   2.997   2.954  13.534  0.3058 -0.1538  1.1961
  670MPD2    N1 9922   3.157   3.151  13.136 -0.6474 -0.5731 -0.4258
  670MPD2    H7 9923   3.183   3.054  13.121  1.1643 -0.2250  0.3748
  671TMC3    C1 9924   2.904   2.968  13.757  0.2828 -0.3319  0.6378
  671TMC3    C2 9925   2.913   2.930  13.893  0.0348  0.0149  0.2414
  671TMC3    C3 9926   2.838   2.827  13.946  0.1916  0.3548 -0.1233
  671TMC3    C4 9927   2.799   2.921  13.683  0.3969  0.6346  0.6223
  671TMC3    C5 9928   2.718   2.831  13.738 -0.0264 -0.0518  0.2068
  671TMC3    C6 9929   2.743   2.774  13.862  0.0174  0.4660 -0.0566
  671TMC3     C 9930   2.983   3.070  13.707  0.0808 -0.4696 -0.2190
  671TMC3     O 9931   3.021   3.164  13.779 -0.0108  0.0095  0.6026
  671TMC3     H 9932   3.014   2.958  13.920  0.7594 -2.1252 -0.2613
  671TMC3    H1 9933   2.779   2.964  13.586  0.2432 -0.6429  0.0854
  671TMC3    H2 9934   2.688   2.684  13.888 -0.9964  1.2746  0.6176
  671TMC3    C7 9935   2.611   2.786  13.656  0.2843 -1.1023 -0.3743
  671TMC3    C8 9936   2.894   2.725  14.032 -0.1415 -0.1233 -0.1034
  671TMC3    O1 9937   2.619   2.786  13.532 -0.2023  0.2516 -0.5793
  671TMC3    O2 9938   2.839   2.616  14.017 -0.0259  0.2085 -0.2195
  672MPD2     C 9939   3.042   3.146   0.830 -0.5611  0.1729  0.3489
  672MPD2    C1 9940   3.168   3.083   0.834  0.1428  0.4522 -0.4082
  672MPD2    C2 9941   3.247   3.101   0.949  0.2939 -0.3977 -0.3847
  672MPD2    C3 9942   3.204   3.189   1.054  0.0789 -0.7518 -0.0141
  672MPD2    C4 9943   3.078   3.244   1.050 -0.2966 -0.4812 -0.3451
  672MPD2    C5 9944   3.000   3.214   0.945  1.0377 -0.1761 -0.0390
  672MPD2     H 9945   3.343   3.051   0.950  0.3798 -0.2580 -1.3411
  672MPD2    H1 9946   3.036   3.311   1.124 -1.0358 -0.5806 -0.6690
  672MPD2    H2 9947   2.970   3.148   0.750  1.1914 -0.2635 -1.2512
  672MPD2    H3 9948   2.902   3.262   0.945  1.5682  0.9140 -1.1278
  672MPD2     N 9949   3.285   3.230   1.166  0.2516 -0.2065 -0.0998
  672MPD2    H5 9950   3.245   3.297   1.230  1.5789  1.5171 -1.0914
  672MPD2    N1 9951   3.218   3.007   0.728  0.2120 -0.3299 -0.6935
  672MPD2    H7 9952   3.317   2.985   0.730  0.2000 -0.4581 -1.9290
  673TMC3    C1 9953   3.217   2.918   0.515  0.0810  0.7110  0.0099
  673TMC3    C2 9954   3.343   2.876   0.527 -0.0498  0.7143  0.2244
  673TMC3    C3 9955   3.420   2.861   0.411 -0.6352  0.2761  0.5874
  673TMC3    C4 9956   3.152   2.930   0.397 -0.8115 -0.7938  0.0534
  673TMC3    C5 9957   3.225   2.916   0.286  0.2568  0.0749 -0.0458
  673TMC3    C6 9958   3.355   2.868   0.290 -0.2466 -0.1925  0.5331
  673TMC3     C 9959   3.141   2.962   0.625 -0.0498 -0.1946 -0.5392
  673TMC3     O 9960   3.017   2.981   0.615  0.0203  0.1527  0.4803
  673TMC3     H 9961   3.389   2.844   0.620 -0.2201 -1.0595 -0.3144
  673TMC3    H1 9962   3.047   2.957   0.394 -1.0934 -2.0120 -1.1216
  673TMC3    H2 9963   3.420   2.884   0.205  0.9164 -0.4091  1.3906
  673TMC3    C7 9964   3.198   2.997   0.173  0.7483 -0.1240  0.3568
  673TMC3    C8 9965   3.524   2.765   0.412 -0.4418  0.1069  0.3605
  673TMC3    O1 9966   3.241   2.967   0.061  0.5181 -0.5330  0.1874
  673TMC3    O2 9967   3.533   2.697   0.311 -0.0892 -0.7917 -0.2944
  674MPD2     C 9968   3.032   2.953  17.353  0.7449  0.1848 -0.0120
  674MPD2    C1 9969   3.039   2.830  17.410 -0.0301 -0.8491  0.1174
  674MPD2    C2 9970   2.927   2.781  17.481 -0.5392 -0.6187  0.0939
  674MPD2    C3 9971   2.814   2.851  17.505 -0.1333 -0.7089  0.3921
  674MPD2    C4 9972   2.812   2.977  17.458  1.2364  0.2245  0.5076
  674MPD2    C5 9973   2.918   3.021  17.378 -0.3792 -0.4437 -0.0816
  674MPD2     H 9974   2.930   2.685  17.531  0.0666 -0.4559  0.3657
  674MPD2    H1 9975   2.733   3.050  17.471  1.5705  1.1450 -2.6136
  674MPD2    H2 9976   3.109   2.996  17.290  0.9378  0.8261  0.6622
  674MPD2    H3 9977   2.916   3.123  17.342 -1.2113 -0.4183  0.0429
  674MPD2     N 9978   2.707   2.785  17.572  0.0739 -0.4718 -0.3782
  674MPD2    H5 9979   2.723   2.685  17.584  0.1646 -0.3478  0.5196
  674MPD2    N1 9980   3.153   2.749  17.403 -0.2186 -0.0960  0.3033
  674MPD2    H7 9981   3.160   2.674  17.471 -2.1187 -0.0716  0.5097
  675TMC3    C1 9982   3.379   2.717  17.436  0.4434  0.2919  0.4441
  675TMC3    C2 9983   3.330   2.618  17.517 -0.4107  0.1769 -0.9981
  675TMC3    C3 9984   3.376   2.597  17.641  0.0028  0.0964 -0.3414
  675TMC3    C4 9985   3.490   2.785  17.478  0.4024  0.3047  0.3258
  675TMC3    C5 9986   3.550   2.750  17.599 -0.2830 -0.0018  0.6609
  675TMC3    C6 9987   3.485   2.664  17.689 -0.0377  0.2762 -0.8329
  675TMC3     C 9988   3.281   2.795  17.365 -0.4904 -0.1762  1.3196
  675TMC3     O 9989   3.313   2.896  17.306 -0.5212  0.7398 -0.5022
  675TMC3     H 9990   3.263   2.542  17.478 -0.8514  0.0023  0.0982
  675TMC3    H1 9991   3.541   2.862  17.422  1.5909 -1.0024 -0.3773
  675TMC3    H2 9992   3.531   2.620   0.079 -1.1246  0.4140 -0.1806
  675TMC3    C7 9993   3.673   2.815  17.633 -0.5361  0.0142  0.2295
  675TMC3    C8 9994   3.255   2.595   0.032 -0.4032  0.1647 -0.0373
  675TMC3    O1 9995   3.740   2.849  17.538  0.4023  0.3657  0.8925
  675TMC3    O2 9996   3.141   2.593  17.684 -0.1865 -0.0777 -0.4329
  676MPD2     C 9997   1.110   1.276  11.095  0.6806  0.1565  0.4452
  676MPD2    C1 9998   0.994   1.226  11.143 -0.3442  0.0404  0.4086
  676MPD2    C2 9999   0.952   1.099  11.098 -0.0441 -0.4283  0.1879
  676MPD2    C310000   1.028   1.017  11.013 -0.9021  0.3183 -0.2390
  676MPD2    C410001   1.150   1.066  10.978  0.2969 -0.8021 -0.0069
  676MPD2    C510002   1.186   1.198  11.011 -0.6507  0.0878 -0.1107
  676MPD2     H10003   0.858   1.058  11.134  0.6121 -1.2398  0.9702
  676MPD2    H110004   1.229   1.011  10.927  0.3383 -1.1605  0.4430
  676MPD2    H210005   1.156   1.367  11.130  2.2938 -1.3259  2.1889
  676MPD2    H310006   1.280   1.242  10.981 -0.3662  0.0913  0.7854
  676MPD2     N10007   0.999   0.882  10.967 -0.1818 -0.0256  0.2208
  676MPD2    H510008   1.061   0.836  10.901  0.6713  1.9632 -0.3714
  676MPD2    N110009   0.900   1.294  11.221 -0.4664 -0.7054 -0.0791
  676MPD2    H710010   0.816   1.240  11.238 -1.4115 -0.1628 -2.9432
  677TMC3    C110011   0.802   1.474  11.328 -0.0980 -0.6101  0.2268
  677TMC3    C210012   0.686   1.404  11.339 -0.3605 -0.5039  0.1668
  677TMC3    C310013   0.603   1.418  11.448  0.0790 -1.0498 -0.0879
  677TMC3    C410014   0.825   1.571  11.422  0.2327 -0.6287 -0.1501
  677TMC3    C510015   0.736   1.593  11.523 -0.2266  0.4450  0.4965
  677TMC3    C610016   0.626   1.519  11.537  0.6439  0.6346 -0.9122
  677TMC3     C10017   0.915   1.425  11.253  0.1405 -0.4945  0.0982
  677TMC3     O10018   1.008   1.500  11.238 -0.0024 -0.1662  0.5812
  677TMC3     H10019   0.665   1.340  11.254 -0.0520 -1.2736  0.6703
  677TMC3    H110020   0.920   1.623  11.416  0.7324 -1.2751  1.9357
  677TMC3    H210021   0.555   1.539  11.616  2.3326  0.4847  0.6301
  677TMC3    C710022   0.785   1.628  11.646 -0.0194 -0.1217  0.3299
  677TMC3    C810023   0.514   1.311  11.473 -0.8394  0.5281  0.9317
  677TMC3    O110024   0.740   1.568  11.742 -0.6496  0.1111  0.1632
  677TMC3    O210025   0.445   1.299  11.374  0.5665 -0.2789 -0.3782
  678MPD2     C10026   2.586   1.151   1.474  0.2637 -0.2243 -0.8274
  678MPD2    C110027   2.613   1.091   1.355 -0.4727  0.6717 -0.2202
  678MPD2    C210028   2.511   1.027   1.287 -0.6659  0.2519 -0.0798
  678MPD2    C310029   2.382   1.033   1.339  0.4660 -0.4436  0.4648
  678MPD2    C410030   2.349   1.103   1.454 -0.6001  0.0132 -0.6179
  678MPD2    C510031   2.454   1.152   1.524  0.0976 -0.8053  0.1834
  678MPD2     H10032   2.533   0.964   1.202  0.0870  1.3142 -0.6626
  678MPD2    H110033   2.255   1.090   1.505  1.5103  0.2686  3.3475
  678MPD2    H210034   2.671   1.182   1.533 -1.2431 -1.0487  1.8155
  678MPD2    H310035   2.441   1.188   1.625 -1.3986 -2.9741  0.7595
  678MPD2     N10036   2.290   0.959   1.266  0.1634  0.5441 -0.4201
  678MPD2    H510037   2.323   0.919   1.179 -0.9308 -0.8460 -0.2035
  678MPD2    N110038   2.748   1.088   1.310  0.8437 -0.2632  0.2517
  678MPD2    H710039   2.775   1.023   1.236 -0.1733  1.8657 -2.0068
  679TMC3    C110040   3.094   1.002   1.165  0.1086 -0.3726 -0.4882
  679TMC3    C210041   2.995   1.013   1.249  0.3968 -0.1252 -0.4460
  679TMC3    C310042   2.973   1.140   1.299 -0.1826 -0.2698  0.4141
  679TMC3    C410043   3.172   1.114   1.117  0.0353 -0.6925  0.4514
  679TMC3    C510044   3.150   1.233   1.173 -0.2681 -0.2329 -0.0753
  679TMC3    C610045   3.054   1.243   1.272 -0.6267 -0.3199 -0.1111
  679TMC3     C10046   3.126   0.867   1.126 -0.1599 -0.7281 -0.3254
  679TMC3     O10047   3.039   0.786   1.153 -0.1352 -0.2991 -0.0794
  679TMC3     H10048   2.926   0.930   1.263 -1.6455  1.5837 -0.4327
  679TMC3    H110049   3.242   1.115   1.035 -0.7276 -1.3935 -0.2003
  679TMC3    H210050   3.019   1.341   1.304 -0.8834  0.1222 -1.7107
  679TMC3    C710051   3.181   1.357   1.104  0.1510  0.0791 -0.2205
  679TMC3    C810052   2.845   1.177   1.349 -0.6459 -0.6276 -0.0387
  679TMC3    O110053   3.096   1.401   1.032  0.3849  0.2925  0.3598
  679TMC3    O210054   2.837   1.281   1.412 -0.4328 -0.1657  0.2301
  680MPD2     C10055   2.471   0.172  13.272  0.1234 -0.0859  0.1601
  680MPD2    C110056   2.555   0.099  13.356 -0.0197  0.2124  0.5604
  680MPD2    C210057   2.660   0.162  13.415 -0.0535  0.2376 -0.0946
  680MPD2    C310058   2.677   0.297  13.406  0.6286  0.4900  0.5714
  680MPD2    C410059   2.593   0.369  13.327  1.0996 -0.4200 -0.3873
  680MPD2    C510060   2.487   0.310  13.261  0.8903  0.0290 -0.8705
  680MPD2     H10061   2.737   0.112  13.473 -0.7985 -0.7585  0.0349
  680MPD2    H110062   2.603   0.477  13.327  1.7102 -0.4714  0.9375
  680MPD2    H210063   2.389   0.123  13.220  0.3518  0.5338 -0.7884
  680MPD2    H310064   2.427   0.369  13.192  1.9709  1.3952 -0.6341
  680MPD2     N10065   2.791   0.362  13.460  0.2528 -0.5236  0.2183
  680MPD2    H510066   2.806   0.461  13.446  1.0980 -0.6989 -0.0862
  680MPD2    N110067   2.531   4.685  13.387  0.2794  0.1754  0.3836
  680MPD2    H710068   2.595   4.627  13.440 -1.6990 -0.9271  1.5834
  681TMC3    C110069   2.407   4.491  13.417  0.3970  0.4217 -0.4062
  681TMC3    C210070   2.305   4.456  13.496 -0.7706 -0.0310  0.9826
  681TMC3    C310071   2.317   4.356  13.584 -0.1791  0.1244  0.2903
  681TMC3    C410072   2.531   4.429  13.425 -0.1647 -0.0984  0.0937
  681TMC3    C510073   2.541   4.327  13.516  0.6057  0.3406  0.5855
  681TMC3    C610074   2.438   4.291  13.602 -0.7364  0.4756 -0.3853
  681TMC3     C10075   2.412   4.620  13.361 -0.2584 -0.1539 -0.5444
  681TMC3     O10076   2.308   4.656  13.310 -0.3125  0.6881 -0.1630
  681TMC3     H10077   2.213   4.513  13.493 -1.0544 -0.6401 -2.0496
  681TMC3    H110078   2.601   4.435  13.343 -3.0938  1.3244 -2.2878
  681TMC3    H210079   2.451   4.212  13.675  0.1225  0.9422 -0.0252
  681TMC3    C710080   2.610   4.209  13.471 -0.4178  0.3756 -0.6712
  681TMC3    C810081   2.252   4.384  13.714 -0.4184 -0.2069 -0.5169
  681TMC3    O110082   2.538   4.115  13.441 -0.4579 -0.1308  0.2961
  681TMC3    O210083   2.142   4.441  13.709  0.7590  0.1250 -0.1540
  682MPD2     C10084   0.127   1.359  10.702  0.1697  0.0468 -0.5092
  682MPD2    C110085   0.035   1.267  10.734  0.2905  0.3378  0.2197
  682MPD2    C210086   4.669   1.291  10.840  0.7568 -0.0801 -0.3461
  682MPD2    C310087   4.691   1.407  10.915 -0.0986  0.2040  0.7001
  682MPD2    C410088   0.056   1.503  10.872  0.3073  0.2885  0.0380
  682MPD2    C510089   0.133   1.481  10.760  0.4522  0.2132 -0.1041
  682MPD2     H10090   4.590   1.221  10.866  2.4101 -1.2474  1.5556
  682MPD2    H110091   0.079   1.593  10.928 -0.1093  0.0829  0.5448
  682MPD2    H210092   0.194   1.345  10.618  2.1178  0.2399  1.0431
  682MPD2    H310093   0.204   1.553  10.722 -0.1404 -0.4861 -2.5591
  682MPD2     N10094   4.631   1.430  11.038 -0.3654  0.2557  0.2459
  682MPD2    H510095   4.630   1.527  11.068 -3.0158  0.6872 -1.2715
  682MPD2    N110096   0.021   1.151  10.660  0.8601  0.3996  0.2028
  682MPD2    H710097   4.671   1.092  10.696  1.6653  0.0954  1.3746
  683TMC3    C110098   4.571   1.538  11.421 -0.2231 -0.6906  0.5550
  683TMC3    C210099   4.475   1.478  11.494  0.7733  0.1037 -0.1102
  683TMC3    C310100   4.429   1.356  11.446  0.0988  0.3235 -0.1640
  683TMC3    C410101   4.611   1.497  11.298 -0.2345  0.6363 -0.0811
  683TMC3    C510102   4.549   1.384  11.249  0.6731 -0.2212 -0.7080
  683TMC3    C610103   4.455   1.313  11.320 -0.1912  0.3824  0.3955
  683TMC3     C10104   4.684   1.573  11.497  0.0901  0.0197 -0.0366
  683TMC3     O10105   0.065   1.528  11.455  0.0754  0.7090 -0.3873
  683TMC3     H10106   4.443   1.505  11.594 -0.2102 -0.4862 -0.2570
  683TMC3    H110107   4.698   1.542  11.251 -1.4511  3.3641  0.2815
  683TMC3    H210108   4.408   1.223  11.283 -0.4185 -0.3093  2.3239
  683TMC3    C710109   4.581   1.324  11.119 -0.2859 -0.6191  0.0092
  683TMC3    C810110   4.436   1.257  11.554  1.2352  0.2961 -0.3894
  683TMC3    O110111   4.579   1.201  11.102 -0.3301 -0.3000  0.4850
  683TMC3    O210112   4.457   1.298  11.663 -0.5278  0.3863 -0.2802
  684MPD2     C10113   3.193   1.149  16.230  0.1714  0.4260 -0.1685
  684MPD2    C110114   3.156   1.169  16.095 -0.1247 -0.4359 -0.0301
  684MPD2    C210115   3.110   1.293  16.059 -0.1598  0.4729 -0.4507
  684MPD2    C310116   3.113   1.400  16.143  0.1726 -0.1549 -0.6077
  684MPD2    C410117   3.146   1.385  16.280  0.3145 -0.4458  0.3087
  684MPD2    C510118   3.189   1.260  16.314  0.1872  0.1891  0.3918
  684MPD2     H10119   3.093   1.292  15.952  1.4156 -1.5191 -0.7007
  684MPD2    H110120   3.160   1.467  16.349 -0.4837  2.0616 -2.4907
  684MPD2    H210121   3.223   1.052  16.268  0.2714 -0.6652 -3.0328
  684MPD2    H310122   3.220   1.257  16.418  3.4385 -1.0209 -0.6291
  684MPD2     N10123   3.093   1.535  16.101 -0.8125 -0.0449  0.1042
  684MPD2    H510124   3.119   1.611  16.163  2.3708 -0.6364 -0.4976
  684MPD2    N110125   3.148   1.062  16.004  0.3906  0.1035  0.1021
  684MPD2    H710126   3.110   1.091  15.914 -0.2108 -0.3501  0.2118
  685TMC3    C110127   3.182   0.838  15.922  0.3760 -0.9775 -0.3965
  685TMC3    C210128   3.078   0.854  15.839 -0.3190 -0.6344 -0.6647
  685TMC3    C310129   3.070   0.758  15.743 -0.0126 -0.4563  0.4001
  685TMC3    C410130   3.264   0.727  15.924  0.2463  0.6341 -0.1776
  685TMC3    C510131   3.251   0.640  15.824  1.1906  0.1496  1.2110
  685TMC3    C610132   3.150   0.645  15.738 -0.6222 -0.8706 -0.4282
  685TMC3     C10133   3.206   0.937  16.024  0.2927  0.1998  0.3367
  685TMC3     O10134   3.271   0.892  16.118  0.1988  0.2146  0.0053
  685TMC3     H10135   3.020   0.945  15.837 -4.5517 -3.3016 -0.9508
  685TMC3    H110136   3.359   0.740  15.974  1.1275 -1.4938 -1.2842
  685TMC3    H210137   3.142   0.573  15.657  1.0345  0.7381 -2.0459
  685TMC3    C710138   3.301   0.504  15.847  0.1886 -0.1096 -0.2688
  685TMC3    C810139   2.961   0.762  15.642  0.8039  0.3739 -0.5120
  685TMC3    O110140   3.270   0.415  15.774 -0.1510 -0.3895 -0.7414
  685TMC3    O210141   2.957   0.675  15.553  0.0765  0.1745  0.3985
  686MPD2     C10142   4.599   0.470  15.167  0.2784  0.4161  0.1453
  686MPD2    C110143   4.619   0.455  15.306 -0.3874 -0.5976 -0.2175
  686MPD2    C210144   4.693   0.349  15.346 -0.0917 -1.3066 -0.1850
  686MPD2    C310145   0.007   0.243  15.269 -0.0743 -0.5996 -0.3209
  686MPD2    C410146   4.720   0.260  15.129  0.8114  0.2765 -0.2259
  686MPD2    C510147   4.656   0.375  15.083 -0.1166  0.6250  0.0903
  686MPD2     H10148   4.719   0.351  15.451 -4.8204 -0.6285  0.9933
  686MPD2    H110149   0.047   0.192  15.063  0.2705 -0.5946  0.2475
  686MPD2    H210150   4.549   0.557  15.128 -0.0802  0.9418  1.7876
  686MPD2    H310151   4.652   0.401  14.978 -0.7429  2.0615  0.4580
  686MPD2     N10152   0.084   0.135  15.311 -0.0672  0.3377 -0.1168
  686MPD2    H510153   0.114   0.070  15.239  0.4062 -0.7383  1.0346
  686MPD2    N110154   4.565   0.569  15.379 -0.1047 -0.0700 -0.4070
  686MPD2    H710155   4.504   0.637  15.335  0.4217 -0.0809 -1.1555
  687TMC3    C110156   0.059   0.152  15.558 -0.5498  0.0439 -0.9280
  687TMC3    C210157   4.649   0.152  15.574  0.9228  0.0930  0.0900
  687TMC3    C310158   4.596   0.197  15.695  0.7496 -0.1204 -0.2990
  687TMC3    C410159   0.145   0.196  15.657 -0.0712  0.3346 -0.4306
  687TMC3    C510160   0.091   0.243  15.774  0.3817  0.5485  0.1230
  687TMC3    C610161   4.674   0.237  15.805 -0.0366 -0.5863 -0.1057
  687TMC3     C10162   0.126   0.104  15.438 -0.2864 -0.8768 -0.3144
  687TMC3     O10163   0.217   0.029  15.470 -0.5369  0.3567 -0.2710
  687TMC3     H10164   4.591   0.121  15.488 -2.2114  1.2733  1.7612
  687TMC3    H110165   0.250   0.179  15.636 -0.0761 -0.5986  0.3091
  687TMC3    H210166   4.630   0.265  15.900  0.9673 -0.0785  0.2103
  687TMC3    C710167   0.181   0.330  15.843  0.1696  0.3443 -0.1984
  687TMC3    C810168   4.467   0.252  15.682 -0.4394 -0.6781 -0.0016
  687TMC3    O110169   0.132   0.371  15.942  0.9384  0.0210 -0.2623
  687TMC3    O210170   4.427   0.274  15.795 -0.2499  0.3842  0.4349
  688MPD2     C10171   3.697   4.440  17.262 -0.1983  0.3391 -0.0729
  688MPD2    C110172   3.706   4.309  17.302  0.1589  0.0059  0.0304
  688MPD2    C210173   3.782   4.217  17.232  0.0153  0.1453 -0.5512
  688MPD2    C310174   3.861   4.266  17.124  1.3032 -0.5973  0.4205
  688MPD2    C410175   3.850   4.398  17.083  0.1311 -0.0089  0.3617
  688MPD2    C510176   3.760   4.486  17.149 -0.0222  0.6766 -0.5621
  688MPD2     H10177   3.788   4.112  17.260 -1.2884  0.0945 -0.4231
  688MPD2    H110178   3.881   4.449  16.992 -1.1266  2.1542  1.1335
  688MPD2    H210179   3.639   4.513  17.318 -0.8488  0.5204 -0.9775
  688MPD2    H310180   3.755   4.589  17.118  1.6994  0.8219 -0.3081
  688MPD2     N10181   3.949   4.190  17.048  0.1253  0.2212  0.2681
  688MPD2    H510182   3.996   4.244  16.976  0.5488 -1.1778 -0.4969
  688MPD2    N110183   3.634   4.261  17.412  0.4259  0.1519  0.0493
  688MPD2    H710184   3.656   4.164  17.432  1.8628  0.4280 -0.2259
  689TMC3    C110185   3.504   4.252  17.618  0.2464 -0.1486  0.4189
  689TMC3    C210186   3.472   4.317   0.033  0.1592  0.2034  0.6642
  689TMC3    C310187   3.411   4.244   0.130  0.6170  0.0755 -0.2555
  689TMC3    C410188   3.468   4.116  17.606  0.6275  0.2635 -0.2206
  689TMC3    C510189   3.413   4.044   0.010 -0.3173 -0.0569  0.0523
  689TMC3    C610190   3.392   4.107   0.122  0.6845 -0.6970 -0.2091
  689TMC3     C10191   3.557   4.330  17.509  0.7889  0.2163 -0.4038
  689TMC3     O10192   3.548   4.453  17.518 -0.3871 -0.2809 -0.4546
  689TMC3     H10193   3.504   4.420   0.041 -0.0218  0.3158 -0.0415
  689TMC3    H110194   3.485   4.060  17.515 -2.0391  1.9519 -1.7489
  689TMC3    H210195   3.364   4.051   0.210 -0.4085  1.0139  0.5285
  689TMC3    C710196   3.437   3.899   0.026 -0.9473  0.7127 -0.3634
  689TMC3    C810197   3.398   4.306   0.259  0.5152  1.6221  0.7831
  689TMC3    O110198   3.480   3.876   0.137 -1.0306  0.0908 -0.5787
  689TMC3    O210199   3.296   4.276   0.317  0.0237  0.1471  0.9334
  690MPD2     C10200   1.180   1.568  15.579  0.2988  0.0323  0.9526
  690MPD2    C110201   1.117   1.567  15.457 -0.6120 -0.1660 -0.0357
  690MPD2    C210202   1.172   1.642  15.356  0.3346  0.2371  0.1729
  690MPD2    C310203   1.292   1.716  15.368 -0.3256 -0.2669  0.1479
  690MPD2    C410204   1.344   1.728  15.498 -0.0805 -0.3356  0.3151
  690MPD2    C510205   1.285   1.652  15.597  0.4417  0.6319 -0.5179
  690MPD2     H10206   1.130   1.638  15.256  0.3521  0.0131  0.1745
  690MPD2    H110207   1.441   1.767  15.526 -1.2349  1.7840  1.3233
  690MPD2    H210208   1.148   1.504  15.660 -0.1953 -0.3993  0.4172
  690MPD2    H310209   1.333   1.641  15.694  1.4436  0.9567 -0.9717
  690MPD2     N10210   1.352   1.770  15.250  0.6475  0.3131  0.4460
  690MPD2    H510211   1.301   1.779  15.163 -0.0926 -1.5467  0.6929
  690MPD2    N110212   1.012   1.479  15.423 -0.3176  0.4024 -0.5671
  690MPD2    H710213   0.987   1.474  15.325 -0.5179 -0.9263 -0.4392
  691TMC3    C110214   0.830   1.343  15.464 -0.1318 -0.6208  0.5463
  691TMC3    C210215   0.713   1.335  15.537  0.0001 -0.2936  0.0514
  691TMC3    C310216   0.622   1.245  15.498  1.1188  0.2631 -0.4080
  691TMC3    C410217   0.857   1.257  15.361 -0.4171  0.3050  0.2596
  691TMC3    C510218   0.763   1.164  15.331  0.4071 -0.2821  0.5518
  691TMC3    C610219   0.644   1.159  15.394  0.3526 -1.1692 -0.4011
  691TMC3     C10220   0.937   1.413  15.519  0.1696 -0.1021 -0.1284
  691TMC3     O10221   0.934   1.417  15.640  0.4322  0.2944  0.2173
  691TMC3     H10222   0.697   1.398  15.624  2.2900 -1.0303  1.0110
  691TMC3    H110223   0.951   1.271  15.309 -0.7506  0.5011 -0.2891
  691TMC3    H210224   0.571   1.082  15.372 -1.2653 -0.0905  1.1903
  691TMC3    C710225   0.793   1.076  15.223 -0.1346  0.4516  0.3520
  691TMC3    C810226   0.490   1.258  15.560  0.4998  0.4965  0.2947
  691TMC3    O110227   0.881   1.123  15.153  0.0042 -0.3061  0.0572
  691TMC3    O210228   0.421   1.160  15.542 -0.2330 -0.5975 -0.5185
  692TMC3    C110229   2.918   2.973  16.022  0.0009 -0.3079 -0.1589
  692TMC3    C210230   2.945   2.937  16.148  0.6027 -0.0990  0.7030
  692TMC3    C310231   2.985   2.808  16.170  0.3507 -0.0139  0.8401
  692TMC3    C410232   2.940   2.887  15.916  0.4128  0.2702  0.2042
  692TMC3    C510233   2.990   2.762  15.934 -0.6472  0.0715 -0.0591
  692TMC3    C610234   3.037   2.739  16.065  0.4484 -0.1217 -0.7077
  692TMC3     C10235   2.820   3.075  15.993  0.1868 -0.3410 -0.3869
  692TMC3     O10236   2.758   3.072  15.883 -0.1170 -0.2737 -0.2359
  692TMC3     H10237   2.900   2.989  16.232  2.7605 -1.0216  2.4243
  692TMC3    H110238   2.927   2.914  15.811 -2.5456  0.0041  0.5025
  692TMC3    H210239   3.062   2.635  16.086 -0.7877 -0.4728 -0.9911
  692TMC3    C710240   2.892   2.672  15.882  0.2770  0.6212 -0.4277
  692TMC3    C810241   2.875   2.728  16.239 -0.1905  0.2218  0.3180
  692TMC3    O110242   2.796   2.716  15.829  0.1427  0.6113 -0.2522
  692TMC3    O210243   2.770   2.786  16.227 -0.2282 -0.5593 -0.0614
  693MPD2     C10244   1.835   0.536  10.468 -0.4492  0.9315  0.6424
  693MPD2    C110245   1.812   0.407  10.496 -0.4746 -0.4345  0.1989
  693MPD2    C210246   1.915   0.315  10.512 -0.4905  0.4418 -0.1176
  693MPD2    C310247   2.044   0.366  10.511 -0.1172  0.0608 -0.3559
  693MPD2    C410248   2.072   0.498  10.485  0.6611 -0.1494  0.6943
  693MPD2    C510249   1.960   0.581  10.474 -0.2224 -0.1021  0.6412
  693MPD2     H10250   1.897   0.211  10.537  1.8143 -0.0444 -0.4989
  693MPD2    H110251   2.168   0.549  10.481  0.0745  0.7245 -2.1329
  693MPD2    H210252   1.752   0.604  10.450 -2.4947 -2.1206 -1.5604
  693MPD2    H310253   1.973   0.685  10.445 -1.2351 -0.4318 -1.0249
  693MPD2     N10254   2.145   0.283  10.547  0.1091 -0.3684 -0.1949
  693MPD2    H510255   2.229   0.334  10.569 -1.8407  2.0075  1.7278
  693MPD2    N110256   1.679   0.367  10.517 -0.9261 -0.0108 -0.1944
  693MPD2    H710257   1.613   0.437  10.547  0.2687  0.2045  1.9179
  694TMC3    C110258   1.522   0.194  10.568  0.8133  0.2438  0.2407
  694TMC3    C210259   1.496   0.060  10.531 -0.0699  0.4279 -0.1725
  694TMC3    C310260   1.487   4.686  10.627 -0.0500  0.4619  0.0555
  694TMC3    C410261   1.514   0.224  10.697  1.2201  0.5160  0.2395
  694TMC3    C510262   1.482   0.126  10.792  0.3751  0.1577  0.0875
  694TMC3    C610263   1.474   4.711  10.763  0.2122  0.0833 -0.1364
  694TMC3     C10264   1.643   0.236  10.492  0.0120 -0.2458  0.0205
  694TMC3     O10265   1.696   0.149  10.420  0.5016 -0.3266 -0.0705
  694TMC3     H10266   1.505   0.038  10.425  1.5841 -1.7642  0.4366
  694TMC3    H110267   1.530   0.328  10.725 -2.6811  1.3926 -0.8975
  694TMC3    H210268   1.450   4.640  10.841  4.7829 -0.7486  0.4766
  694TMC3    C710269   1.527   0.164  10.928 -0.1377 -0.6681 -1.1187
  694TMC3    C810270   1.423   4.557  10.593  0.7472  0.2041  0.0856
  694TMC3    O110271   1.522   0.283  10.950 -0.1882 -0.3352  0.1401
  694TMC3    O210272   1.426   4.473  10.682 -0.5731  0.7200 -0.2418
  695MPD2     C10273   3.195   2.184  13.318  0.2081 -0.3004  0.4042
  695MPD2    C110274   3.105   2.201  13.421  0.4794  0.4267 -0.4244
  695MPD2    C210275   2.986   2.268  13.392  0.9288  0.3414 -0.4568
  695MPD2    C310276   2.957   2.325  13.270 -1.5164 -0.8283 -0.1414
  695MPD2    C410277   3.044   2.305  13.175  0.2032 -0.1690  0.0159
  695MPD2    C510278   3.160   2.240  13.200 -0.1283 -0.2328  0.2602
  695MPD2     H10279   2.911   2.267  13.470  0.4183  1.2293 -0.9473
  695MPD2    H110280   3.018   2.332  13.073 -3.3098  1.0524  1.2392
  695MPD2    H210281   3.286   2.125  13.322 -0.3855 -1.2466 -0.1793
  695MPD2    H310282   3.218   2.225  13.110  0.2497 -0.1092  0.4855
  695MPD2     N10283   2.832   2.386  13.248  0.4441  0.2059  0.3668
  695MPD2    H510284   2.756   2.376  13.314  0.2321  0.9363  0.2353
  695MPD2    N110285   3.112   2.143  13.556  0.4387 -0.0928  0.4668
  695MPD2    H710286   3.027   2.157  13.608  1.1927 -0.7927  1.8708
  696TMC3    C110287   2.684   2.545  13.143 -0.0026 -0.3919 -0.2345
  696TMC3    C210288   2.585   2.483  13.217  0.4772  0.2808 -0.0637
  696TMC3    C310289   2.487   2.561  13.266 -0.1373  0.7517  0.0355
  696TMC3    C410290   2.684   2.673  13.110  0.6586  0.1634  0.4343
  696TMC3    C510291   2.589   2.752  13.167  0.7203  0.1290 -0.2610
  696TMC3    C610292   2.486   2.695  13.239 -0.3064 -0.2122 -0.2425
  696TMC3     C10293   2.810   2.479  13.146 -0.2521 -0.1881  0.2854
  696TMC3     O10294   2.896   2.541  13.091  0.3742  0.6298 -0.3236
  696TMC3     H10295   2.588   2.374  13.222 -1.4315  0.1270 -1.9710
  696TMC3    H110296   2.763   2.720  13.053  0.5501 -0.4590 -0.2197
  696TMC3    H210297   2.408   2.764  13.271 -0.8617 -1.1028  0.3081
  696TMC3    C710298   2.616   2.894  13.162  0.3444  0.0428 -0.3091
  696TMC3    C810299   2.354   2.500  13.254  0.2628  0.0888 -0.6330
  696TMC3    O110300   2.677   2.946  13.075 -0.2078  0.0403  0.5647
  696TMC3    O210301   2.329   2.438  13.152 -0.8746 -0.3099  0.9057
  697MPD2     C10302   2.011   4.243  15.835 -0.1460 -0.5194 -0.0897
  697MPD2    C110303   2.048   4.175  15.725  0.7040 -0.2935  0.0851
  697MPD2    C210304   2.098   4.234  15.610 -0.0960  0.5770 -0.6562
  697MPD2    C310305   2.098   4.370  15.600  0.9678 -0.4758  0.2949
  697MPD2    C410306   2.056   4.445  15.709 -0.0862 -0.2591  0.6616
  697MPD2    C510307   2.010   4.384  15.821  0.2200  0.9222  0.9608
  697MPD2     H10308   2.131   4.170  15.529 -3.4781  1.7118 -2.8966
  697MPD2    H110309   2.043   4.552  15.696  1.7591 -0.3040 -1.5997
  697MPD2    H210310   1.977   4.210  15.933 -0.4923 -0.0725 -0.0602
  697MPD2    H310311   1.989   4.446  15.907 -2.6072  0.0172  0.9287
  697MPD2     N10312   2.145   4.426  15.480 -0.3120  0.2181  0.0267
  697MPD2    H510313   2.196   4.369  15.413 -0.0189  0.2602  0.2160
  697MPD2    N110314   2.073   4.035  15.729  0.0964  0.6496 -0.4285
  697MPD2    H710315   2.104   3.985  15.646 -0.2464 -0.5030  0.1503
  698TMC3    C110316   2.197   4.575  15.304 -0.5903 -0.2003  0.2579
  698TMC3    C210317   2.279   4.684  15.300  0.1337  0.1106  0.3926
  698TMC3    C310318   2.393   4.675  15.212  0.3449 -0.1150  0.3342
  698TMC3    C410319   2.208   4.464  15.229  0.2587 -0.3320 -0.4222
  698TMC3    C510320   2.315   4.466  15.143 -0.2628 -1.3968  0.0631
  698TMC3    C610321   2.409   4.564  15.131  0.2591  0.0045  0.7311
  698TMC3     C10322   2.136   4.555  15.439  0.2529  0.7012 -0.3175
  698TMC3     O10323   2.107   4.651  15.506 -0.0935 -0.1888  0.7040
  698TMC3     H10324   2.273   0.043  15.369  2.2204  1.4084 -0.9575
  698TMC3    H110325   2.140   4.380  15.235  1.1684 -0.9169  1.6261
  698TMC3    H210326   2.500   4.555  15.073 -1.3812 -0.5052 -1.7693
  698TMC3    C710327   2.298   4.369  15.030 -0.3649 -0.8271 -0.7167
  698TMC3    C810328   2.506   0.041  15.247  0.0590  0.3262 -0.7094
  698TMC3    O110329   2.194   4.307  15.030  0.1311 -0.0773 -0.0219
  698TMC3    O210330   2.497   0.089  15.360 -1.1861 -0.1703  0.0583
  699TMC3    C110331   2.756   2.073  13.114  0.2441  0.1068  0.0967
  699TMC3    C210332   2.855   2.006  13.188 -0.0319  0.7823  0.5116
  699TMC3    C310333   2.826   1.965  13.315 -0.1249 -1.3176  0.5891
  699TMC3    C410334   2.633   2.092  13.160 -0.1907 -0.5345  0.2046
  699TMC3    C510335   2.613   2.055  13.287 -0.2878  0.4946  0.7676
  699TMC3    C610336   2.705   1.998  13.366  0.1129 -0.2979 -0.2203
  699TMC3     C10337   2.779   2.134  12.983  0.1917 -0.0787 -0.0588
  699TMC3     O10338   2.699   2.217  12.944  0.1618  0.6279  0.5158
  699TMC3     H10339   2.954   1.990  13.147 -1.1663 -0.2485 -1.8317
  699TMC3    H110340   2.561   2.149  13.103  1.2551  0.3866 -0.6864
  699TMC3    H210341   2.686   1.961  13.466  0.6020  1.1765  0.4233
  699TMC3    C710342   2.482   2.068  13.335  0.8723 -0.4211  0.5324
  699TMC3    C810343   2.894   1.855  13.378 -0.6530 -0.3844  0.2860
  699TMC3    O110344   2.464   2.053  13.455 -0.5097  0.0983 -0.9499
  699TMC3    O210345   2.837   1.798  13.472  0.0608  0.1988 -0.6038
  700TMC3    C110346   1.872   0.119  17.351  0.0464  0.3149 -0.0403
  700TMC3    C210347   1.944   0.014  17.299  0.6233 -0.0426 -0.4196
  700TMC3    C310348   2.057   4.704  17.368  0.4988 -0.5358  0.3512
  700TMC3    C410349   1.904   0.186  17.469 -0.5407 -0.1373 -0.2911
  700TMC3    C510350   2.014   0.142  17.535 -0.2414 -0.4963 -0.0433
  700TMC3    C610351   2.087   0.035  17.495 -0.3969  0.0746 -0.1409
  700TMC3     C10352   1.769   0.171  17.269  0.2938 -0.1806 -0.0392
  700TMC3     O10353   1.675   0.111  17.219 -0.1931  0.2892 -0.1294
  700TMC3     H10354   1.912   4.695  17.205 -0.7777 -0.6504  0.3252
  700TMC3    H110355   1.857   0.277  17.501  0.3006  0.5620 -1.0474
  700TMC3    H210356   2.185   0.016  17.537 -0.8948  0.2820  1.0962
  700TMC3    C710357   2.066   0.222  17.647  0.3904 -0.3131  0.7220
  700TMC3    C810358   2.138   4.595  17.312 -0.3369  0.9460  1.0777
  700TMC3    O110359   2.049   0.345  17.650  0.4238 -0.8015 -0.0318
  700TMC3    O210360   2.099   4.548  17.206  0.4225  0.3557  0.3099
  701TMC3    C110361   1.350   3.407  15.596 -0.3256 -0.4514 -0.0458
  701TMC3    C210362   1.386   3.315  15.497 -0.3152  0.5091 -0.2487
  701TMC3    C310363   1.517   3.311  15.451 -0.0541 -0.4529 -0.9344
  701TMC3    C410364   1.437   3.504  15.640 -0.9643 -0.3700 -0.6436
  701TMC3    C510365   1.563   3.506  15.582 -0.7686  1.1005 -0.1520
  701TMC3    C610366   1.605   3.408  15.487  0.2590  0.1517  0.1054
  701TMC3     C10367   1.211   3.428  15.625  0.3695  0.0447 -0.1403
  701TMC3     O10368   1.167   3.534  15.660 -0.1964 -0.3639 -0.6474
  701TMC3     H10369   1.311   3.247  15.458  0.7149 -2.1625  2.3755
  701TMC3    H110370   1.414   3.583  15.711  1.2327  1.0539 -1.5381
  701TMC3    H210371   1.707   3.404  15.451  0.1473  0.1887 -0.2129
  701TMC3    C710372   1.634   3.629  15.590 -0.8622 -0.3661  0.5654
  701TMC3    C810373   1.545   3.229  15.338  1.3917  0.2255 -0.7625
  701TMC3    O110374   1.708   3.654  15.496 -0.6213  0.2203  0.1723
  701TMC3    O210375   1.651   3.173  15.340 -0.4888  0.1697 -0.0975
  702MPD2     C10376   1.155   0.466  10.495  0.1695 -0.5649  0.7078
  702MPD2    C110377   1.024   0.493  10.485 -0.4982  0.4920  0.2072
  702MPD2    C210378   0.959   0.497  10.364  0.1696 -0.5007 -0.2350
  702MPD2    C310379   1.037   0.494  10.251  0.5316 -0.8035 -0.8932
  702MPD2    C410380   1.169   0.460  10.257  0.3240  0.6495 -0.1837
  702MPD2    C510381   1.222   0.442  10.378 -0.0381 -0.0152 -0.5432
  702MPD2     H10382   0.851   0.500  10.353  0.1496  1.5545  0.5689
  702MPD2    H110383   1.234   0.459  10.170  0.3178 -0.5661 -0.1790
  702MPD2    H210384   1.203   0.477  10.592  3.5946  0.6846 -1.1265
  702MPD2    H310385   1.326   0.412  10.386  0.1833  0.9695  0.2856
  702MPD2     N10386   0.975   0.540  10.130  0.5496  0.1021  0.1323
  702MPD2    H510387   1.014   0.509  10.041 -0.9854 -0.3662 -0.3920
  702MPD2    N110388   0.962   0.520  10.607  0.0906 -0.2164 -0.0860
  702MPD2    H710389   1.021   0.524  10.690  0.4442 -1.0112 -0.3068
  703TMC3    C110390   0.790   0.681  10.206  0.0167 -0.0776 -0.6119
  703TMC3    C210391   0.664   0.655  10.264 -0.1869 -0.5471  0.2134
  703TMC3    C310392   0.627   0.737  10.363 -0.0408  0.6711 -1.0442
  703TMC3    C410393   0.865   0.786  10.232 -0.2981 -0.4043 -0.1682
  703TMC3    C510394   0.814   0.871  10.333 -0.3944  0.9191 -0.0200
  703TMC3    C610395   0.697   0.846  10.392 -0.1773 -0.5829  0.3394
  703TMC3     C10396   0.846   0.589  10.111 -0.5152 -0.7516 -0.1500
  703TMC3     O10397   0.770   0.545  10.025  0.1129  0.2256 -0.0518
  703TMC3     H10398   0.616   0.559  10.250  0.4739 -0.7953 -0.3865
  703TMC3    H110399   0.949   0.815  10.171 -0.2677  2.2523  1.1614
  703TMC3    H210400   0.683   0.893  10.489  0.2239 -2.1901  1.1819
  703TMC3    C710401   0.910   0.975  10.380  0.4406  0.0616 -0.1080
  703TMC3    C810402   0.514   0.692  10.444 -0.1753 -0.3465  0.0004
  703TMC3    O110403   1.028   0.981  10.337 -0.5442 -0.0552  0.1521
  703TMC3    O210404   0.463   0.579  10.425  0.5128  0.1003  0.1841
  704TMC3    C110405   3.167   3.761  12.460 -0.2130 -0.5893  0.0317
  704TMC3    C210406   3.283   3.818  12.445  0.1863  0.2416 -0.4526
  704TMC3    C310407   3.398   3.766  12.505  0.0549  0.7767  0.4873
  704TMC3    C410408   3.141   3.650  12.537 -0.6530  0.3313  0.1110
  704TMC3    C510409   3.255   3.601  12.597 -0.1543  0.3355  0.2774
  704TMC3    C610410   3.378   3.655  12.580  0.4708 -0.5552 -0.0187
  704TMC3     C10411   3.073   3.786  12.358 -0.2450 -0.0275 -0.6304
  704TMC3     O10412   2.958   3.793  12.398  0.2423 -0.2239 -0.5473
  704TMC3     H10413   3.293   3.904  12.381  2.8535 -0.1648 -0.5878
  704TMC3    H110414   3.044   3.603  12.543  0.1780 -1.3553  0.0904
  704TMC3    H210415   3.460   3.593  12.615 -0.3257 -0.2420  2.4261
  704TMC3    C710416   3.278   3.459  12.570  0.2244 -0.4272 -0.5299
  704TMC3    C810417   3.497   3.758  12.399  0.4052 -0.4637 -0.3780
  704TMC3    O110418   3.363   3.442  12.485  0.4015  0.7264 -0.0760
  704TMC3    O210419   3.458   3.789  12.286  0.2989 -0.0813 -0.2234
  705MPD2     C10420   3.234   2.277  16.570  0.5052  0.6152  0.0912
  705MPD2    C110421   3.169   2.205  16.471  0.2187  0.0564  0.0261
  705MPD2    C210422   3.036   2.169  16.489 -0.4167 -0.0143  0.2314
  705MPD2    C310423   2.969   2.203  16.603  0.3401  0.3184 -0.2837
  705MPD2    C410424   3.032   2.283  16.698 -0.4807  0.1972 -0.1120
  705MPD2    C510425   3.165   2.312  16.680  0.6230  0.7690  0.6497
  705MPD2     H10426   2.983   2.125  16.405 -0.0365 -0.2662  0.1258
  705MPD2    H110427   2.990   2.315  16.793 -0.5569 -0.2324 -0.0008
  705MPD2    H210428   3.336   2.314  16.562  1.0297 -0.8775 -0.0997
  705MPD2    H310429   3.219   2.349  16.767  2.0787 -2.1227  0.9824
  705MPD2     N10430   2.832   2.176  16.623 -0.3061 -0.3862  0.1088
  705MPD2    H510431   2.792   2.228  16.700  2.0931 -1.4229  2.0826
  705MPD2    N110432   3.216   2.191  16.339 -0.6338 -0.2547 -0.2448
  705MPD2    H710433   3.148   2.160  16.270 -0.8130 -2.9850  1.1608
  706TMC3    C110434   3.564   2.195  16.018  0.0410 -0.3757  0.8740
  706TMC3    C210435   3.497   2.274  15.929 -0.2629 -0.1204  0.0392
  706TMC3    C310436   3.370   2.311  15.960  0.1897  0.4764  0.0127
  706TMC3    C410437   3.515   2.178  16.147  0.0771  0.4283 -0.0813
  706TMC3    C510438   3.391   2.222  16.182 -0.1238  0.3417  0.0129
  706TMC3    C610439   3.318   2.287  16.085 -0.5950  0.1768 -0.1104
  706TMC3     C10440   3.675   2.117  15.981 -0.3956 -0.7075  0.4781
  706TMC3     O10441   3.759   2.102  16.070 -0.0496  0.0829 -0.2262
  706TMC3     H10442   3.542   2.292  15.832  3.8730 -3.4229  1.3038
  706TMC3    H110443   3.563   2.101  16.206  0.6187 -1.0402 -2.4496
  706TMC3    H210444   3.229   2.343  16.110 -0.2138  1.7088 -2.1559
  706TMC3    C710445   3.353   2.200  16.314 -0.4946 -0.2399 -0.1580
  706TMC3    C810446   3.335   2.440  15.907 -0.0727 -0.7746 -0.2117
  706TMC3    O110447   3.445   2.199  16.392  0.3755 -1.0447 -0.0374
  706TMC3    O210448   3.214   2.469  15.905 -0.0635 -0.3741  0.2351
  707TMC3    C110449   0.328   0.845   1.200  0.7688 -0.0292  0.4381
  707TMC3    C210450   0.359   0.714   1.240 -1.0814 -0.3545  0.2735
  707TMC3    C310451   0.267   0.634   1.312  0.7811  0.6429  0.4646
  707TMC3    C410452   0.198   0.899   1.229  0.5771 -0.2523 -0.4699
  707TMC3    C510453   0.113   0.807   1.289  0.1308 -0.5875 -0.2691
  707TMC3    C610454   0.140   0.680   1.329 -0.6247  0.2645 -0.2187
  707TMC3     C10455   0.431   0.918   1.131  0.4648 -0.0212  0.0345
  707TMC3     O10456   0.537   0.862   1.110  0.8239  0.5011 -0.0265
  707TMC3     H10457   0.461   0.677   1.241 -0.7492  0.5768  0.1720
  707TMC3    H110458   0.162   0.996   1.198  1.5543  0.0336 -0.7013
  707TMC3    H210459   0.063   0.631   1.387 -3.0100  0.4168 -3.3244
  707TMC3    C710460   4.708   0.863   1.335  0.5667 -0.4274  0.1949
  707TMC3    C810461   0.317   0.514   1.389 -0.2478 -0.4813  0.7028
  707TMC3    O110462   4.624   0.775   1.343 -0.0874 -0.0871  0.1377
  707TMC3    O210463   0.233   0.448   1.454 -0.8418  0.3081  0.0002
  708MPD2     C10464   1.891   4.659  13.980  0.5933  0.8033  0.1504
  708MPD2    C110465   1.918   0.046  13.902  1.2368  0.5782  0.5009
  708MPD2    C210466   1.863   0.169  13.942 -0.1332 -0.6949 -0.1202
  708MPD2    C310467   1.786   0.166  14.059  1.2542  0.4074  0.4391
  708MPD2    C410468   1.774   0.062  14.138 -0.6188  0.4770  0.3649
  708MPD2    C510469   1.823   4.666  14.092  0.5286  0.0352 -0.0766
  708MPD2     H10470   1.876   0.256  13.878 -4.0547  0.8119  1.1502
  708MPD2    H110471   1.716   0.080  14.227 -1.3124 -3.9000  0.8251
  708MPD2    H210472   1.940   4.566  13.951 -0.4619  0.2364  0.2105
  708MPD2    H310473   1.814   4.572  14.146 -2.7698  0.7286  0.5695
  708MPD2     N10474   1.727   0.297  14.078  0.3433 -0.8830 -0.1450
  708MPD2    H510475   1.755   0.367  14.011 -2.6322  0.2646 -0.1861
  708MPD2    N110476   1.982   0.036  13.778  0.5937 -0.1066 -0.6470
  708MPD2    H710477   1.989   4.668  13.735  1.3940 -0.1640 -0.3860
  709TMC3    C110478   2.127   0.092  13.605  0.2432  0.2258  0.1165
  709TMC3    C210479   2.041   0.041  13.506 -0.0851 -0.1484 -0.0800
  709TMC3    C310480   2.020   0.115  13.400 -0.6749 -0.1468 -0.0349
  709TMC3    C410481   2.213   0.198  13.572  0.1603  0.4817  0.2719
  709TMC3    C510482   2.202   0.251  13.447 -0.3470  0.1627  0.7048
  709TMC3    C610483   2.111   0.209  13.356  0.0360  0.2338  0.1786
  709TMC3     C10484   2.062   0.134  13.727  0.1832 -0.1280 -0.7806
  709TMC3     O10485   2.084   0.243  13.780  0.5253 -0.5731 -0.3095
  709TMC3     H10486   1.966   4.690  13.527 -0.0484 -1.0703 -3.1885
  709TMC3    H110487   2.285   0.251  13.633  1.8360  1.5728 -2.6981
  709TMC3    H210488   2.096   0.271  13.269  0.2552  1.5829  1.0970
  709TMC3    C710489   2.212   0.397  13.455  0.4063 -1.1187 -0.2815
  709TMC3    C810490   1.917   0.087  13.303 -0.9758  0.6920  0.1512
  709TMC3    O110491   2.199   0.456  13.352 -0.4952 -0.5832  0.2156
  709TMC3    O210492   1.861   4.706  13.292  0.0962 -0.0239  0.3310
  710TMC3    C110493   2.973   2.118   0.743  0.0782 -0.6422 -0.0708
  710TMC3    C210494   3.051   2.176   0.654  0.0196 -0.1393  0.5555
  710TMC3    C310495   3.185   2.141   0.646 -0.5063  0.3486  0.5545
  710TMC3    C410496   3.013   2.015   0.824  0.1302  0.1973 -0.1982
  710TMC3    C510497   3.149   1.994   0.829  0.5481 -0.4576  0.1383
  710TMC3    C610498   3.238   2.057   0.741 -0.1585 -0.2954 -0.7588
  710TMC3     C10499   2.827   2.148   0.742 -0.3920  0.1857 -0.1294
  710TMC3     O10500   2.782   2.172   0.630  0.3647 -0.4906  0.0301
  710TMC3     H10501   3.013   2.264   0.603 -1.5516 -0.8481  0.5030
  710TMC3    H110502   2.944   1.947   0.873  1.4385 -1.2716 -0.4027
  710TMC3    H210503   3.346   2.045   0.744  0.0821  2.0817 -0.3408
  710TMC3    C710504   3.195   1.871   0.883 -0.0859 -0.4701  0.7536
  710TMC3    C810505   3.266   2.156   0.530 -0.1838  0.3373 -0.0760
  710TMC3    O110506   3.112   1.784   0.880  0.0705 -0.4648 -0.3761
  710TMC3    O210507   3.385   2.133   0.535 -0.2609  0.0257  0.1109
  711TMC3    C110508   2.264   2.772  14.714  0.3412  0.0654 -1.2039
  711TMC3    C210509   2.286   2.878  14.800 -0.1452  0.5518  0.3628
  711TMC3    C310510   2.400   2.878  14.881  0.1084  0.3213  0.1738
  711TMC3    C410511   2.330   2.654  14.736  0.6372  0.0154  0.4919
  711TMC3    C510512   2.447   2.662  14.807 -1.0611 -0.6747 -0.3058
  711TMC3    C610513   2.489   2.770  14.880  0.1989  0.2203 -0.5398
  711TMC3     C10514   2.162   2.780  14.616  0.2120  0.7641 -0.2286
  711TMC3     O10515   2.123   2.671  14.577 -0.1697 -0.1507 -0.4476
  711TMC3     H10516   2.215   2.960  14.795 -1.1076 -0.3167 -0.5262
  711TMC3    H110517   2.319   2.567  14.673  0.2566  0.2281  0.2671
  711TMC3    H210518   2.580   2.770  14.938 -0.3518 -1.3387  0.3313
  711TMC3    C710519   2.546   2.551  14.823 -0.9524 -0.0852 -0.8841
  711TMC3    C810520   2.460   3.005  14.909  0.3836  0.0522  0.0206
  711TMC3    O110521   2.641   2.561  14.896 -0.3842 -0.3036 -0.0639
  711TMC3    O210522   2.394   3.102  14.872 -0.2487  0.3774 -0.1391
  712MPD2     C10523   3.708   3.980  13.701  0.1109  0.6498  0.1883
  712MPD2    C110524   3.647   4.000  13.577 -0.6509 -0.4103  0.6289
  712MPD2    C210525   3.703   4.076  13.477 -0.4812  0.4496 -0.2319
  712MPD2    C310526   3.822   4.151  13.501 -0.1855  0.0740 -0.0595
  712MPD2    C410527   3.885   4.135  13.625 -0.1159  0.1850 -0.0683
  712MPD2    C510528   3.820   4.058  13.719 -0.3982 -0.3262  0.1848
  712MPD2     H10529   3.645   4.085  13.386  0.5459 -1.1303 -1.0330
  712MPD2    H110530   3.968   4.198  13.656 -1.0872  2.2831 -1.7512
  712MPD2    H210531   3.672   3.914  13.780 -1.2795  1.7184  0.4376
  712MPD2    H310532   3.854   4.056  13.822 -1.0404 -0.4057  0.3957
  712MPD2     N10533   3.880   4.236  13.411  0.0387 -0.0043  0.5970
  712MPD2    H510534   3.975   4.267  13.432  0.4006 -2.0133  1.8159
  712MPD2    N110535   3.516   3.956  13.545 -0.6232  0.8867 -0.3526
  712MPD2    H710536   3.476   3.989  13.458 -1.9067  3.4763  1.2044
  713TMC3    C110537   3.876   4.403  13.248 -0.3047 -0.3143 -0.1081
  713TMC3    C210538   4.009   4.425  13.266  0.4672  0.0376 -0.5636
  713TMC3    C310539   4.058   4.548  13.258  0.2502 -0.6766  0.6289
  713TMC3    C410540   3.789   4.508  13.238 -0.1057 -0.3335  0.1416
  713TMC3    C510541   3.840   4.633  13.241  1.0448 -0.3430 -0.2194
  713TMC3    C610542   3.972   4.654  13.250  0.1655 -0.1917  0.1136
  713TMC3     C10543   3.813   4.290  13.303 -0.5417 -0.0637  0.4379
  713TMC3     O10544   3.697   4.268  13.263  0.8005  0.2649 -0.6396
  713TMC3     H10545   4.074   4.338  13.265 -2.3895 -2.1329  0.6909
  713TMC3    H110546   3.682   4.495  13.234  0.0426 -1.1316 -1.1281
  713TMC3    H210547   4.013   0.030  13.260  1.3164 -0.5396 -1.1521
  713TMC3    C710548   3.753   0.025  13.272 -0.3072  0.3251  0.0795
  713TMC3    C810549   4.199   4.574  13.221  0.1845 -0.2248 -0.4080
  713TMC3    O110550   3.805   0.130  13.309  0.3650  0.4674 -0.0067
  713TMC3    O210551   4.214   4.654  13.131  0.0277 -0.3051 -0.0763
  714MPD2     C10552   1.349   2.182   1.816  0.2480  0.2078  0.6296
  714MPD2    C110553   1.298   2.100   1.719  0.4688 -0.0793 -0.1426
  714MPD2    C210554   1.246   2.144   1.601 -0.0952  0.4601  0.8412
  714MPD2    C310555   1.239   2.280   1.570  1.0168 -0.0726  0.1103
  714MPD2    C410556   1.285   2.368   1.665  0.6125 -0.2020 -0.6212
  714MPD2    C510557   1.344   2.322   1.781  1.0297 -0.7941 -0.2418
  714MPD2     H10558   1.222   2.078   1.519  0.0112  1.4552  0.0125
  714MPD2    H110559   1.278   2.475   1.647  1.0418 -0.5035 -2.6162
  714MPD2    H210560   1.393   2.141   1.906 -1.8380  1.6337  2.3154
  714MPD2    H310561   1.388   2.394   1.849  1.6148 -0.8838 -0.5265
  714MPD2     N10562   1.189   2.318   1.444  0.3827  0.1430  0.0969
  714MPD2    H510563   1.123   2.263   1.391 -0.3126 -1.1171  2.2647
  714MPD2    N110564   1.305   1.964   1.753  0.3950 -0.0638  0.6478
  714MPD2    H710565   1.370   1.946   1.829  1.6727  0.3242 -0.3464
  715TMC3    C110566   1.334   1.734   1.721 -0.0657  0.0100  0.4455
  715TMC3    C210567   1.391   1.669   1.612 -0.7372  0.1323 -0.6314
  715TMC3    C310568   1.475   1.567   1.636  0.6374 -0.3786 -0.3240
  715TMC3    C410569   1.369   1.708   1.847 -0.4142 -0.0199  0.1909
  715TMC3    C510570   1.455   1.600   1.863  0.1784  0.0149 -0.2920
  715TMC3    C610571   1.513   1.529   1.761 -0.2306  0.3547 -0.2343
  715TMC3     C10572   1.273   1.853   1.681  0.6732  0.3579  0.2588
  715TMC3     O10573   1.211   1.851   1.573 -0.3243 -0.4380 -0.0719
  715TMC3     H10574   1.362   1.700   1.512 -0.1249  1.9434 -0.2508
  715TMC3    H110575   1.326   1.758   1.932  0.2331 -0.1693  0.6057
  715TMC3    H210576   1.568   1.437   1.775  2.0396  1.6909 -0.3020
  715TMC3    C710577   1.518   1.577   1.989  0.2576  0.2845 -0.2947
  715TMC3    C810578   1.519   1.490   1.528  0.6703  0.2463  0.4838
  715TMC3    O110579   1.636   1.559   1.993 -0.2311  0.4223  0.0991
  715TMC3    O210580   1.447   1.484   1.431 -0.2747  0.4458 -0.3339
  716MPD2     C10581   0.879   0.247  10.062  0.2291 -0.1080 -0.9863
  716MPD2    C110582   0.835   0.220   9.941 -0.1129 -0.9525 -0.4185
  716MPD2    C210583   0.875   0.102   9.876 -0.1732 -0.2247 -0.2446
  716MPD2    C310584   0.981   0.030   9.928  1.1601 -0.4369 -0.4422
  716MPD2    C410585   1.034   0.069  10.051  0.5167 -0.3663 -0.6921
  716MPD2    C510586   0.975   0.168  10.121  0.5298  0.1745  0.0876
  716MPD2     H10587   0.851   0.081   9.773  1.3037 -0.1281 -0.6120
  716MPD2    H110588   1.116   0.016  10.100 -0.6260 -1.2115  0.2990
  716MPD2    H210589   0.836   0.330  10.117  1.4268  0.0198 -0.2373
  716MPD2    H310590   1.001   0.186  10.225  1.4404  1.2731 -0.3412
  716MPD2     N10591   1.027   4.645   9.847 -0.1191  0.0063  0.7283
  716MPD2    H510592   0.963   4.617   9.773  1.7302  0.8030 -1.1485
  716MPD2    N110593   0.730   0.298   9.884  0.1674  0.7107 -0.7621
  716MPD2    H710594   0.704   0.378   9.942  0.7016 -1.0683  1.9257
  717TMC3    C110595   1.174   4.477   9.777 -0.2709 -0.5317  0.5238
  717TMC3    C210596   1.135   4.498   9.646 -0.1574  0.2589 -0.0631
  717TMC3    C310597   1.166   4.400   9.558  0.6667  0.1181 -0.2615
  717TMC3    C410598   1.258   4.375   9.821 -0.7654  0.5709 -0.1812
  717TMC3    C510599   1.283   4.280   9.724 -0.1016  0.6449  0.0641
  717TMC3    C610600   1.240   4.290   9.594 -0.2850  0.0468  0.2441
  717TMC3     C10601   1.147   4.582   9.866 -0.5232 -0.8762  0.1811
  717TMC3     O10602   1.236   4.605   9.947  0.6224  0.4460  0.3193
  717TMC3     H10603   1.081   4.586   9.613 -1.4275 -1.2140 -1.9028
  717TMC3    H110604   1.249   4.353   9.927 -0.9996 -0.1079 -0.3415
  717TMC3    H210605   1.259   4.202   9.533  0.5574  1.0351 -0.9384
  717TMC3    C710606   1.342   4.153   9.757  0.0625  0.1795  0.4249
  717TMC3    C810607   1.098   4.405   9.427 -0.6465  0.2330 -0.2926
  717TMC3    O110608   1.354   4.072   9.668 -0.4505 -0.1031  0.4275
  717TMC3    O210609   1.017   4.494   9.412 -0.1610  0.7644  0.1373
  718MPD2     C10610   0.425   0.079  12.330 -0.3735  0.2968 -0.2618
  718MPD2    C110611   0.477   4.710  12.419  0.1589  0.1216 -0.6320
  718MPD2    C210612   0.400   4.657  12.525  0.0076  0.0545 -0.1926
  718MPD2    C310613   0.268   4.686  12.529  0.2319 -0.3078  0.8792
  718MPD2    C410614   0.208   0.052  12.431 -1.1030 -0.8778 -0.2262
  718MPD2    C510615   0.291   0.114  12.344 -0.1435 -0.3196  0.2353
  718MPD2     H10616   0.443   4.597  12.604  2.0365  1.4951 -0.1976
  718MPD2    H110617   0.107   0.088  12.425 -0.7625  0.3723  1.4969
  718MPD2    H210618   0.479   0.121  12.246 -0.7178  1.1654 -0.0471
  718MPD2    H310619   0.242   0.178  12.270 -0.3386  0.9912  1.5035
  718MPD2     N10620   0.198   4.629  12.644 -0.1949 -0.5579 -0.0978
  718MPD2    H510621   0.254   4.572  12.706 -2.8192 -2.6130  0.3719
  718MPD2    N110622   0.614   4.680  12.416 -0.0524  0.4968  0.1192
  718MPD2    H710623   0.675   0.015  12.360 -0.5619 -0.0577 -1.0033
  719TMC3    C110624   0.809   4.578  12.494  0.9330 -0.4166 -0.2167
  719TMC3    C210625   0.851   4.477  12.583 -0.2131 -0.3839 -0.0998
  719TMC3    C310626   0.940   4.508  12.684  0.1504  0.4830  0.2533
  719TMC3    C410627   0.850   4.709  12.512  0.3531  0.0633  0.2388
  719TMC3    C510628   0.958   0.001  12.599  0.3164 -0.2343  0.4257
  719TMC3    C610629   1.010   4.630  12.684  0.0570 -0.6195  0.4182
  719TMC3     C10630   0.665   4.565  12.470  0.7081 -0.6790  0.9760
  719TMC3     O10631   0.616   4.456  12.507  0.3519 -0.0732  0.0851
  719TMC3     H10632   0.825   4.373  12.566 -1.4097 -0.1804  0.4775
  719TMC3    H110633   0.813   0.070  12.456  0.5872 -0.9382 -1.4419
  719TMC3    H210634   1.069   4.646  12.774  1.9712 -1.3885 -0.6832
  719TMC3    C710635   1.054   0.104  12.557  0.7461 -0.2101 -0.1530
  719TMC3    C810636   0.909   4.451  12.812 -0.2008  0.1057  0.3465
  719TMC3    O110637   1.011   0.180  12.476  0.1994 -0.0255 -0.4394
  719TMC3    O210638   0.975   4.475  12.908 -0.1998  0.1702  0.6624
  720MPD2     C10639   3.905   1.139  13.746 -0.1195 -0.6585  0.7616
  720MPD2    C110640   4.012   1.189  13.670 -0.0541  0.3652 -0.3017
  720MPD2    C210641   4.137   1.200  13.729 -0.3427  0.0933 -0.2885
  720MPD2    C310642   4.171   1.147  13.856  0.7615  0.6787  0.9271
  720MPD2    C410643   4.067   1.080  13.917 -1.0643  0.4580  0.0334
  720MPD2    C510644   3.941   1.085  13.865 -0.3663 -0.1931 -0.9772
  720MPD2     H10645   4.222   1.243  13.677 -0.8431 -0.5303 -1.6143
  720MPD2    H110646   4.073   1.029  14.012  2.5154 -0.1065 -0.4916
  720MPD2    H210647   3.799   1.138  13.723 -0.4568  0.7970  2.2911
  720MPD2    H310648   3.869   1.035  13.929 -1.0708  0.3472 -1.3486
  720MPD2     N10649   4.295   1.162  13.920  0.1432 -0.0965  0.3045
  720MPD2    H510650   4.364   1.206  13.860  2.6587 -4.6559 -0.0690
  720MPD2    N110651   3.988   1.250  13.548  0.0352  0.3967  0.7179
  720MPD2    H710652   4.075   1.279  13.504  0.1772 -3.6060 -1.6275
  721TMC3    C110653   4.473   1.131  14.081 -0.5369 -0.5598  0.3357
  721TMC3    C210654   4.504   1.154  14.209 -0.2869 -0.5638  0.2038
  721TMC3    C310655   4.636   1.163  14.239 -0.1803 -0.2662 -0.4746
  721TMC3    C410656   4.570   1.127  13.985 -0.5403 -0.6859  0.2214
  721TMC3    C510657   4.694   1.149  14.015  0.0409 -0.3624 -0.2924
  721TMC3    C610658   0.008   1.164  14.147 -0.1582  0.4709 -0.2823
  721TMC3     C10659   4.328   1.121  14.047 -0.1262 -0.1713  0.7465
  721TMC3     O10660   4.254   1.061  14.126 -0.1087  0.1459 -0.1949
  721TMC3     H10661   4.418   1.167  14.275  1.0980  2.1969  1.4504
  721TMC3    H110662   4.537   1.121  13.882  2.0306 -2.3541 -0.5159
  721TMC3    H210663   0.113   1.174  14.169 -0.6153  0.7212  1.7672
  721TMC3    C710664   0.081   1.124  13.922  0.1980 -0.0242 -0.0477
  721TMC3    C810665   4.693   1.142  14.372 -0.1262 -0.3512 -0.4450
  721TMC3    O110666   0.193   1.162  13.959 -0.1281 -0.2485 -0.4726
  721TMC3    O210667   0.090   1.147  14.383  0.0798 -0.1618  0.5862
  722MPD2     C10668   2.604   4.345  13.113  0.1424  0.5833 -0.0075
  722MPD2    C110669   2.565   4.466  13.060 -0.8315 -0.1998  1.1258
  722MPD2    C210670   2.434   4.478  13.020  0.5720  0.2711  0.4739
  722MPD2    C310671   2.345   4.377  13.046  0.4453 -0.1450 -0.0754
  722MPD2    C410672   2.388   4.257  13.110  0.1441  0.4692 -0.3451
  722MPD2    C510673   2.517   4.244  13.135 -0.0622  0.4749  0.2582
  722MPD2     H10674   2.412   4.570  12.966  2.4136 -0.3620 -1.3648
  722MPD2    H110675   2.324   4.171  13.128  0.4435  0.4596  0.6679
  722MPD2    H210676   2.708   4.330  13.140 -0.3290 -1.0476  0.8918
  722MPD2    H310677   2.553   4.146  13.164 -0.6687  0.1207 -0.1962
  722MPD2     N10678   2.212   4.402  13.021  0.1780  0.1787 -0.3601
  722MPD2    H510679   2.190   4.490  12.976 -0.6232 -0.6326 -1.5629
  722MPD2    N110680   2.656   4.576  13.046 -0.1872  0.1105  0.1658
  722MPD2    H710681   2.616   4.658  13.001  0.1821  0.9966  1.4701
  723TMC3    C110682   1.983   4.359  12.984  0.2390 -0.1012 -0.9984
  723TMC3    C210683   1.894   4.256  12.977  0.2137 -0.1259 -0.3272
  723TMC3    C310684   1.783   4.294  12.911 -0.1820  0.6186  0.2890
  723TMC3    C410685   1.979   4.475  12.915 -0.0442 -0.2560 -0.3272
  723TMC3    C510686   1.864   4.505  12.850 -0.3710  0.8976  0.2037
  723TMC3    C610687   1.761   4.416  12.856 -0.3287 -0.2773  0.6966
  723TMC3     C10688   2.103   4.315  13.038  0.4159 -0.1704 -0.5950
  723TMC3     O10689   2.099   4.198  13.076 -0.2393 -0.5132  0.1484
  723TMC3     H10690   1.887   4.170  13.043 -0.8321  0.9614  0.9731
  723TMC3    H110691   2.065   4.540  12.905 -0.9090  1.0183  0.4348
  723TMC3    H210692   1.667   4.427  12.803  0.1092  0.6919  0.1254
  723TMC3    C710693   1.832   4.637  12.807  0.0216  0.6476 -0.0564
  723TMC3    C810694   1.681   4.190  12.915  0.4162  0.3899 -0.3810
  723TMC3    O110695   1.735   4.641  12.735  0.1117 -1.0307  0.2508
  723TMC3    O210696   1.567   4.226  12.899 -0.2255 -0.2557 -0.1234
  724TMC3    C110697   3.253   2.530  10.278  0.0620  0.0245 -0.4088
  724TMC3    C210698   3.151   2.453  10.217  0.2974  0.3443 -0.0989
  724TMC3    C310699   3.188   2.342  10.141  0.0343  0.0691  0.1357
  724TMC3    C410700   3.382   2.488  10.253  0.6598 -0.2644 -0.1249
  724TMC3    C510701   3.418   2.379  10.177  0.5238 -0.1054 -0.6527
  724TMC3    C610702   3.321   2.299  10.130  0.1154 -0.2942 -0.1283
  724TMC3     C10703   3.213   2.641  10.363 -0.0890 -0.7014 -0.4565
  724TMC3     O10704   3.107   2.700  10.341 -0.0160 -0.4750  0.0965
  724TMC3     H10705   3.049   2.490  10.216  1.0588  2.4536  0.1292
  724TMC3    H110706   3.461   2.557  10.282 -0.9678  1.8772 -0.7746
  724TMC3    H210707   3.338   2.217  10.062 -3.0750  0.2985 -1.6581
  724TMC3    C710708   3.551   2.354  10.123  0.0201  0.4561  0.2932
  724TMC3    C810709   3.087   2.270  10.072 -0.1436 -0.2599  0.2757
  724TMC3    O110710   3.554   2.269  10.040  0.1782  0.3297 -0.5541
  724TMC3    O210711   2.982   2.279  10.132 -0.3058 -0.3316  0.5450
  725TMC3    C110712   4.612   1.539  12.766 -0.2510 -0.5737  1.1622
  725TMC3    C210713   4.518   1.626  12.718  0.1660 -1.2825  0.0712
  725TMC3    C310714   4.434   1.577  12.621  0.2660  0.2787  0.3207
  725TMC3    C410715   4.628   1.411  12.727  0.2747  0.2310 -0.0970
  725TMC3    C510716   4.533   1.363  12.636  0.0257 -0.1873 -0.6545
  725TMC3    C610717   4.429   1.445  12.588  0.2205  0.5916 -0.0637
  725TMC3     C10718   4.708   1.608  12.847  1.2461 -0.3432 -0.0816
  725TMC3     O10719   4.670   1.700  12.919  0.7338 -0.6704 -0.1161
  725TMC3     H10720   4.526   1.734  12.733 -0.2991 -1.0369 -1.4265
  725TMC3    H110721   4.701   1.343  12.769  0.3848  1.3145  1.4630
  725TMC3    H210722   4.378   1.422  12.496  0.6277  0.0764 -0.1608
  725TMC3    C710723   4.568   1.240  12.555 -0.1411 -0.0153  0.0120
  725TMC3    C810724   4.352   1.666  12.547 -0.5580  0.5739 -0.7599
  725TMC3    O110725   4.679   1.190  12.567  0.2805  0.0204  0.1071
  725TMC3    O210726   4.244   1.621  12.511 -0.3810  0.4671  0.8783
  726MPD2     C10727   2.376   3.005  10.855 -0.2774 -0.8867 -0.3705
  726MPD2    C110728   2.315   2.945  10.741  0.6494 -0.1731 -0.0356
  726MPD2    C210729   2.188   2.894  10.764  0.7632 -0.3011 -0.1710
  726MPD2    C310730   2.126   2.909  10.890 -0.9307  1.4956  0.1571
  726MPD2    C410731   2.199   2.957  10.998 -0.7095  0.2849 -0.3178
  726MPD2    C510732   2.321   3.012  10.974 -0.3817  0.3374  0.0009
  726MPD2     H10733   2.136   2.847  10.682  0.0522 -0.1117  0.1683
  726MPD2    H110734   2.165   2.962  11.101 -0.8489 -0.8543 -0.3030
  726MPD2    H210735   2.473   3.052  10.846  0.4624 -2.5465 -1.1445
  726MPD2    H310736   2.375   3.071  11.047 -0.1127 -2.0316  1.7144
  726MPD2     N10737   1.998   2.855  10.925 -0.6142  0.0326  0.6497
  726MPD2    H510738   1.961   2.862  11.019 -0.3202  0.6467  0.7228
  726MPD2    N110739   2.390   2.941  10.627 -0.0224  0.4929 -0.3793
  726MPD2    H710740   2.483   2.981  10.636  0.6267 -1.0180 -0.4381
  727TMC3    C110741   2.432   2.924  10.395 -0.4167 -0.5804  0.5631
  727TMC3    C210742   2.551   2.990  10.416  0.5211 -0.6628 -0.4396
  727TMC3    C310743   2.623   3.001  10.306  0.3895 -0.0562 -0.6096
  727TMC3    C410744   2.389   2.896  10.268  0.4636  0.1107  0.3409
  727TMC3    C510745   2.474   2.909  10.170 -0.4813 -0.6834 -0.0900
  727TMC3    C610746   2.598   2.957  10.179  0.6854  0.5358  0.3523
  727TMC3     C10747   2.342   2.893  10.505 -0.1488  0.8889 -0.4326
  727TMC3     O10748   2.229   2.856  10.480 -0.8140 -0.4795 -0.4842
  727TMC3     H10749   2.584   3.016  10.516 -1.0876  0.7965 -0.3022
  727TMC3    H110750   2.291   2.856  10.247 -0.2864  2.7276 -1.1840
  727TMC3    H210751   2.665   2.966  10.095 -1.5269  1.3665 -1.3055
  727TMC3    C710752   2.442   2.862  10.034 -0.1242 -0.7634  0.3044
  727TMC3    C810753   2.761   3.058  10.323 -0.6347 -0.3553 -0.0567
  727TMC3    O110754   2.537   2.846   9.957  0.1656  0.2240  0.4672
  727TMC3    O210755   2.841   3.042  10.231 -0.8905  0.0341  0.2630
  728TMC3    C110756   1.524   1.884  15.123 -0.0036  0.2841 -0.0137
  728TMC3    C210757   1.612   1.984  15.128  0.5331  0.3194 -0.5086
  728TMC3    C310758   1.623   2.066  15.016 -0.0104 -0.0281  0.1613
  728TMC3    C410759   1.433   1.868  15.014 -0.4703  0.1918  0.4574
  728TMC3    C510760   1.443   1.965  14.921 -0.1842  0.8400  0.1140
  728TMC3    C610761   1.539   2.060  14.911  0.2281  0.4035  0.1731
  728TMC3     C10762   1.477   1.842  15.250 -0.1461  0.4709 -0.0251
  728TMC3     O10763   1.549   1.866  15.345  0.0483  0.3460 -0.1232
  728TMC3     H10764   1.687   2.000  15.204  0.1055  1.3036 -0.2854
  728TMC3    H110765   1.364   1.785  15.000 -2.4702  1.6762  1.5351
  728TMC3    H210766   1.519   2.142  14.843  1.3373  0.0293 -0.6091
  728TMC3    C710767   1.358   1.944  14.804 -0.0476  0.7492 -0.6195
  728TMC3    C810768   1.714   2.179  15.024 -0.3288 -0.3572  0.2894
  728TMC3    O110769   1.251   1.897  14.833 -0.6698 -0.2797  0.0598
  728TMC3    O210770   1.751   2.207  15.138 -0.6276 -0.0185 -0.2316
  729MPD2     C10771   3.495   3.143  16.875 -0.1661  0.3094  0.4571
  729MPD2    C110772   3.567   3.022  16.864 -0.5825  0.0228  0.2144
  729MPD2    C210773   3.651   2.984  16.967 -0.0616  0.6193 -0.4572
  729MPD2    C310774   3.661   3.066  17.080  0.3766 -0.5219 -0.3796
  729MPD2    C410775   3.602   3.190  17.077 -0.7879 -0.1655  0.5373
  729MPD2    C510776   3.522   3.231  16.975  0.2873 -0.0505 -0.2020
  729MPD2     H10777   3.694   2.884  16.962 -0.3169  0.3693  2.2670
  729MPD2    H110778   3.622   3.255  17.162 -0.7198  1.1033 -0.4560
  729MPD2    H210779   3.418   3.157  16.800 -2.1727  1.7373  2.7968
  729MPD2    H310780   3.472   3.327  16.975 -0.2076 -0.3215 -2.7365
  729MPD2     N10781   3.718   3.038  17.202  0.8739  0.4514  0.1303
  729MPD2    H510782   3.735   3.110  17.271 -1.7400  0.8288  0.3777
  729MPD2    N110783   3.555   2.960  16.738  1.6368 -0.5555 -0.1751
  729MPD2    H710784   3.498   3.006  16.668  2.8372  1.0844 -0.0859
  730TMC3    C110785   3.888   2.933  17.307  0.4344 -0.3656  0.0678
  730TMC3    C210786   4.005   2.883  17.261  1.2511  0.5022  0.0259
  730TMC3    C310787   4.120   2.950  17.281 -0.5199 -0.0038 -0.2755
  730TMC3    C410788   3.897   3.048  17.374  0.0391 -0.0871 -0.9191
  730TMC3    C510789   4.016   3.121  17.396  0.1056 -0.4943  0.0431
  730TMC3    C610790   4.127   3.073  17.347  0.8699 -0.0255 -0.0453
  730TMC3     C10791   3.773   2.912  17.227  0.1041 -0.8889  0.3489
  730TMC3     O10792   3.752   2.801  17.170  0.4127  0.3011  0.1160
  730TMC3     H10793   3.996   2.790  17.205 -1.2222  0.4490  0.5226
  730TMC3    H110794   3.807   3.091  17.417 -0.3109 -0.4853 -1.2613
  730TMC3    H210795   4.210   3.142  17.345 -0.9952  2.2764  1.9499
  730TMC3    C710796   4.004   3.256  17.353 -0.0928 -1.0133 -0.5403
  730TMC3    C810797   4.215   2.929  17.177  0.4041  0.3393  0.3879
  730TMC3    O110798   4.059   3.296  17.250 -0.2355 -0.0468  0.2251
  730TMC3    O210799   4.172   2.873  17.076 -0.0717  0.1247  0.8150
  731MPD2     C10800   3.991   1.021  11.935  0.3618  0.3762  0.3241
  731MPD2    C110801   4.072   0.910  11.937 -0.4528 -0.1296  0.4461
  731MPD2    C210802   4.099   0.855  12.065 -0.1256  0.2060 -0.6366
  731MPD2    C310803   4.058   0.911  12.188  0.6009  0.3020 -0.3406
  731MPD2    C410804   3.989   1.031  12.177  0.6288 -0.4139  0.1884
  731MPD2    C510805   3.948   1.079  12.051 -0.0519 -0.5021  0.0009
  731MPD2     H10806   4.163   0.768  12.073 -0.6975 -0.1814 -0.2878
  731MPD2    H110807   3.947   1.080  12.263 -1.3401  1.4021 -1.8210
  731MPD2    H210808   3.950   1.062  11.843  0.2203 -0.5511 -0.0333
  731MPD2    H310809   3.881   1.163  12.046  2.8262  1.8224  0.4448
  731MPD2     N10810   4.071   0.841  12.311 -0.0375 -0.1355  0.5648
  731MPD2    H510811   4.133   0.761  12.307 -0.8105 -0.7159  0.0789
  731MPD2    N110812   4.122   0.847  11.822  0.2202  0.5078 -0.1617
  731MPD2    H710813   4.161   0.756  11.843  1.8888  0.6460 -2.6743
  732TMC3    C110814   4.111   0.765  11.602 -0.3739 -0.7378  0.1877
  732TMC3    C210815   4.029   0.761  11.491 -0.6005 -0.3404  0.0955
  732TMC3    C310816   4.081   0.674  11.394 -0.0084 -0.3959  0.3310
  732TMC3    C410817   4.230   0.698  11.615 -0.4100  0.4254  0.0770
  732TMC3    C510818   4.279   0.624  11.509  0.3895  0.2723  0.1371
  732TMC3    C610819   4.200   0.608  11.403 -0.3811 -0.5424  0.4164
  732TMC3     C10820   4.091   0.876  11.695  0.0344  0.2784  0.2958
  732TMC3     O10821   4.029   0.974  11.649 -0.4230  0.1426 -0.2991
  732TMC3     H10822   3.946   0.829  11.478  0.7922  0.8356 -2.7154
  732TMC3    H110823   4.308   0.726  11.686  0.4697 -3.8220  0.7975
  732TMC3    H210824   4.228   0.527  11.337 -0.8265 -0.2750 -0.0900
  732TMC3    C710825   4.380   0.521  11.525 -0.7137  0.0001 -0.1024
  732TMC3    C810826   3.981   0.586  11.331  0.6354  0.0604  0.2901
  732TMC3    O110827   4.415   0.453  11.435 -0.7217 -0.0629  0.1965
  732TMC3    O210828   4.016   0.509  11.246  0.2870  0.2171 -0.1647
  733TMC3    C110829   4.607   4.405  12.894  0.2081 -0.1078 -0.5951
  733TMC3    C210830   4.629   4.497  12.794 -0.2729 -0.1199 -0.3713
  733TMC3    C310831   0.029   4.552  12.779 -0.1625 -0.2540 -0.3378
  733TMC3    C410832   4.714   4.358  12.971  0.0945 -0.6435  0.4201
  733TMC3    C510833   0.113   4.410  12.949 -0.3022  0.2272  0.7286
  733TMC3    C610834   0.136   4.509  12.862 -0.3952  0.2824  0.1320
  733TMC3     C10835   4.472   4.368  12.924  0.2793  0.0598  0.1356
  733TMC3     O10836   4.389   4.413  12.846 -0.2970  0.0324 -0.1634
  733TMC3     H10837   4.550   4.528  12.725 -0.3378  0.2313 -0.1355
  733TMC3    H110838   4.698   4.274  13.036 -1.9181 -0.1455  0.5551
  733TMC3    H210839   0.228   4.566  12.870  1.3006 -2.2940 -1.1473
  733TMC3    C710840   0.228   4.367  13.032  0.1026  0.0498 -0.0541
  733TMC3    C810841   0.059   4.637  12.668  0.1838  0.2219 -0.3941
  733TMC3    O110842   0.216   4.344  13.153  0.1840  0.3290  0.3277
  733TMC3    O210843   4.695   4.697  12.608 -0.4961  0.2138  0.1179
  734MPD2     C10844   2.194   1.606  12.355  0.5045 -0.5690 -0.1754
  734MPD2    C110845   2.075   1.576  12.294  0.6914  0.5205  0.3617
  734MPD2    C210846   2.032   1.639  12.174  0.2432  0.1966 -0.4078
  734MPD2    C310847   2.123   1.728  12.119  0.0547 -0.6154  0.1759
  734MPD2    C410848   2.242   1.764  12.179  0.1770  0.0577  0.1559
  734MPD2    C510849   2.277   1.696  12.290 -0.1634  0.1544  0.5210
  734MPD2     H10850   1.939   1.617  12.124  1.1807  1.0013 -2.5344
  734MPD2    H110851   2.303   1.846  12.142  1.4935 -1.4527 -0.9989
  734MPD2    H210852   2.221   1.557  12.448  3.2493 -0.2981 -0.8214
  734MPD2    H310853   2.367   1.718  12.347 -1.2378 -1.4802  2.8593
  734MPD2     N10854   2.085   1.773  11.993  0.3152 -0.1986  0.0209
  734MPD2    H510855   1.999   1.728  11.962  1.0479 -1.8202  0.3153
  734MPD2    N110856   1.994   1.478  12.356  0.3445 -0.2965  0.3530
  734MPD2    H710857   2.031   1.431  12.438  1.1239  0.7033  0.5639
  735TMC3    C110858   1.850   1.288  12.370  0.0315 -0.2438  0.4828
  735TMC3    C210859   1.723   1.251  12.317 -0.0653 -0.7144 -0.4034
  735TMC3    C310860   1.712   1.130  12.251 -0.4827 -0.2209  0.3553
  735TMC3    C410861   1.946   1.195  12.375 -0.1760 -0.4000 -0.4152
  735TMC3    C510862   1.921   1.070  12.336  0.5822 -0.0733 -0.6735
  735TMC3    C610863   1.804   1.026  12.275 -0.3534  0.4025  0.2362
  735TMC3     C10864   1.890   1.410  12.298  0.2736  0.2286 -0.6635
  735TMC3     O10865   1.833   1.437  12.191  0.3385  0.2722  0.7085
  735TMC3     H10866   1.653   1.331  12.298 -2.1808 -2.5671 -0.2915
  735TMC3    H110867   2.040   1.228  12.416 -0.1731  1.6268 -2.0761
  735TMC3    H210868   1.802   0.936  12.215 -1.6795  0.2528  0.5159
  735TMC3    C710869   2.034   0.983  12.320  0.1870  0.4503  0.1745
  735TMC3    C810870   1.662   1.140  12.111 -0.5784 -0.0763  0.3075
  735TMC3    O110871   2.143   1.025  12.285  0.2220 -0.0331  0.0262
  735TMC3    O210872   1.646   1.033  12.054 -0.2229  0.0893  0.6218
  736MPD2     C10873   2.006   0.620  12.391  1.0499 -0.0820 -0.0788
  736MPD2    C110874   2.070   0.737  12.341 -0.4512 -0.4544  0.2551
  736MPD2    C210875   2.198   0.735  12.287  0.4788  0.1218 -0.5236
  736MPD2    C310876   2.249   0.603  12.266 -0.0701  0.5361  0.6620
  736MPD2    C410877   2.190   0.488  12.312  0.4014  0.4487  0.9566
  736MPD2    C510878   2.067   0.496  12.381  0.4534  0.7861 -0.6676
  736MPD2     H10879   2.240   0.819  12.233 -2.7033  2.8308  1.2055
  736MPD2    H110880   2.227   0.392  12.279 -0.4950 -0.1462  1.6633
  736MPD2    H210881   1.909   0.620  12.440  0.9600 -1.8047 -0.2702
  736MPD2    H310882   2.017   0.411  12.427  1.1657 -0.2940 -1.8876
  736MPD2     N10883   2.370   0.586  12.189 -0.0650 -0.7949  1.2402
  736MPD2    H510884   2.410   0.497  12.161  0.5601 -0.3151  0.6155
  736MPD2    N110885   1.992   0.854  12.351  0.4208 -0.3595 -0.0252
  736MPD2    H710886   1.913   0.838  12.412 -0.8440 -0.0468 -1.5960
  737TMC3    C110887   2.554   0.630  12.046  0.3731 -0.5746 -0.1789
  737TMC3    C210888   2.640   0.734  12.012  0.2246  0.2482  0.2566
  737TMC3    C310889   2.729   0.704  11.921  0.7297 -1.2321  0.6434
  737TMC3    C410890   2.539   0.519  11.980 -0.3356  0.0799 -0.3663
  737TMC3    C510891   2.634   0.499  11.884  0.0581 -0.6258  0.1429
  737TMC3    C610892   2.728   0.589  11.851 -0.8781 -0.0200 -0.1851
  737TMC3     C10893   2.450   0.684  12.136  0.0913  0.6591 -1.3116
  737TMC3     O10894   2.459   0.799  12.171  0.6147 -0.3146  0.1771
  737TMC3     H10895   2.637   0.827  12.067 -1.0379  0.3421  0.0404
  737TMC3    H110896   2.466   0.439  11.994  1.3699 -1.1690  1.3119
  737TMC3    H210897   2.812   0.574  11.783 -0.2843 -0.5840  0.6672
  737TMC3    C710898   2.658   0.363  11.835  0.0978 -0.3972  0.6558
  737TMC3    C810899   2.819   0.816  11.881  0.9872  0.5584 -0.5531
  737TMC3    O110900   2.653   0.275  11.920 -0.2320 -0.1516 -0.0542
  737TMC3    O210901   2.840   0.897  11.971 -0.1920 -0.0700  0.1284
  738MPD2     C10902   2.765   0.159  15.274  0.5517 -0.7595  0.0131
  738MPD2    C110903   2.731   0.103  15.157  0.0896  0.7150  0.1804
  738MPD2    C210904   2.811   0.115  15.047  0.4932 -0.2851  0.2579
  738MPD2    C310905   2.943   0.164  15.062  0.1093 -0.7827  0.4814
  738MPD2    C410906   2.984   0.214  15.184 -0.9700  0.0959 -0.2506
  738MPD2    C510907   2.891   0.218  15.283  0.4939  0.4842 -0.9553
  738MPD2     H10908   2.778   0.084  14.949  1.6974  1.4278 -0.6678
  738MPD2    H110909   3.083   0.259  15.187 -0.2957 -1.4711  0.9844
  738MPD2    H210910   2.702   0.158  15.362  2.4279 -1.0103  1.3729
  738MPD2    H310911   2.914   0.268  15.377  2.3478  0.4848 -1.4090
  738MPD2     N10912   3.041   0.171  14.963 -0.3718 -0.3524  0.3180
  738MPD2    H510913   3.134   0.191  14.998 -0.7738 -1.9310  2.2313
  738MPD2    N110914   2.602   0.048  15.146  0.3549 -0.3032 -0.4109
  738MPD2    H710915   2.564   0.009  15.061 -0.8934 -0.8838  0.4020
  739TMC3    C110916   3.149   0.132  14.746 -0.0755  1.0646 -0.0445
  739TMC3    C210917   3.129   0.178  14.623  0.0248 -0.9295 -0.0937
  739TMC3    C310918   3.243   0.205  14.545 -0.0810  0.0368 -0.1383
  739TMC3    C410919   3.269   0.117  14.806 -0.8789  0.1983  0.6735
  739TMC3    C510920   3.387   0.143  14.735  0.2501 -0.3812  0.4571
  739TMC3    C610921   3.377   0.188  14.604 -0.2650  0.5452  0.3830
  739TMC3     C10922   3.026   0.126  14.832  0.9159 -0.7892  0.0602
  739TMC3     O10923   2.925   0.095  14.769  0.5371  0.4771  0.1546
  739TMC3     H10924   3.032   0.176  14.575  1.5695  2.2827 -3.2847
  739TMC3    H110925   3.257   0.069  14.902  0.0350 -0.4764  0.4476
  739TMC3    H210926   3.469   0.209  14.552 -0.7667  0.6445 -0.4684
  739TMC3    C710927   3.497   0.055  14.754  0.6806  0.2493  0.1227
  739TMC3    C810928   3.223   0.293  14.426 -0.6960  0.7891  0.1972
  739TMC3    O110929   3.598   0.080  14.689  0.2527  0.2683  0.0867
  739TMC3    O210930   3.119   0.282  14.365  0.2413 -0.3593  0.1716
  740TMC3    C110931   3.892   1.622  13.796 -0.7127 -0.1063  0.3922
  740TMC3    C210932   3.948   1.621  13.916 -0.5625 -0.2389  0.0008
  740TMC3    C310933   4.081   1.575  13.920  0.2043 -0.2328 -0.4060
  740TMC3    C410934   3.960   1.606  13.681 -0.0296 -1.2934 -0.2864
  740TMC3    C510935   4.089   1.570  13.693  0.8339  0.0403 -0.4900
  740TMC3    C610936   4.157   1.553  13.813  0.6144  0.2370 -0.3886
  740TMC3     C10937   3.746   1.634  13.776  0.2579  0.4180  0.1581
  740TMC3     O10938   3.711   1.609  13.659 -0.1098  0.5407 -0.0554
  740TMC3     H10939   3.896   1.652  14.005 -1.0676  2.0018 -1.0965
  740TMC3    H110940   3.913   1.625  13.586 -1.5133 -0.6670  0.5696
  740TMC3    H210941   4.258   1.516  13.812 -0.0165 -1.4900  2.0182
  740TMC3    C710942   4.169   1.539  13.576  0.5472 -0.6677  0.3351
  740TMC3    C810943   4.142   1.517  14.037  0.5952  0.8274 -0.4913
  740TMC3    O110944   4.267   1.469  13.585 -0.4385  0.5919  0.2506
  740TMC3    O210945   4.263   1.506  14.028  0.3537 -0.8741 -0.4031
  741TMC3    C110946   3.188   0.798  14.418  0.8295 -0.4361  0.2850
  741TMC3    C210947   3.063   0.753  14.443  0.3651  0.1448 -0.2403
  741TMC3    C310948   3.041   0.671  14.552 -0.2258  0.3490  0.2456
  741TMC3    C410949   3.300   0.754  14.490  0.1064 -0.3893 -0.0337
  741TMC3    C510950   3.270   0.658  14.590 -0.1448 -0.9130  0.2775
  741TMC3    C610951   3.144   0.620  14.624 -0.7587  0.0154 -0.5356
  741TMC3     C10952   3.220   0.870  14.295  0.2279  0.1975 -0.9426
  741TMC3     O10953   3.312   0.950  14.298  0.4480  0.1095 -0.1270
  741TMC3     H10954   2.984   0.790  14.378  1.7959 -0.6486 -2.4456
  741TMC3    H110955   3.398   0.781  14.452  0.5900 -1.8165  0.2167
  741TMC3    H210956   3.132   0.565  14.717  2.5512  1.1106  0.5297
  741TMC3    C710957   3.377   0.578  14.637 -0.4822  0.9607 -0.8741
  741TMC3    C810958   2.906   0.621  14.579 -0.4988 -0.1470  0.1260
  741TMC3    O110959   3.347   0.471  14.681  0.4514 -0.0299 -0.0875
  741TMC3    O210960   2.829   0.616  14.484 -0.0447  0.3061  0.2619
  742TMC3    C110961   2.494   4.087  15.276 -0.5648 -0.6342  0.6437
  742TMC3    C210962   2.441   4.089  15.153  0.4938 -0.6879  0.3867
  742TMC3    C310963   2.503   4.042  15.041  0.6992 -0.7853 -0.0238
  742TMC3    C410964   2.622   4.064  15.286 -0.4909 -0.2324  0.7999
  742TMC3    C510965   2.687   4.024  15.173 -0.4833  0.1044  0.1891
  742TMC3    C610966   2.639   4.020  15.043  0.3246  0.3039 -0.2132
  742TMC3     C10967   2.415   4.144  15.384  0.4347  0.3555 -0.1690
  742TMC3     O10968   2.336   4.229  15.356 -0.3500 -0.3548 -0.0287
  742TMC3     H10969   2.335   4.112  15.160  0.4980 -0.8881  1.0771
  742TMC3    H110970   2.662   4.066  15.387  2.5740 -0.9590 -0.4388
  742TMC3    H210971   2.687   3.976  14.956  2.1892 -0.3384  1.1442
  742TMC3    C710972   2.832   3.993  15.179  0.5543 -0.3485  0.7723
  742TMC3    C810973   2.426   3.966  14.944 -0.5599 -0.8250 -0.1143
  742TMC3    O110974   2.882   3.942  15.080  0.2669  0.3227 -0.0567
  742TMC3    O210975   2.481   3.896  14.859 -0.0765  0.1326 -0.1209
  743MPD2     C10976   1.321   0.469   1.620  0.4016  0.0845 -0.4259
  743MPD2    C110977   1.387   0.385   1.539 -0.4036  0.8869 -1.2655
  743MPD2    C210978   1.522   0.368   1.562  0.1742  0.3165 -0.6648
  743MPD2    C310979   1.585   0.443   1.660 -0.5445  0.0619  0.6001
  743MPD2    C410980   1.517   0.530   1.741  0.3990  0.2039 -0.8905
  743MPD2    C510981   1.379   0.534   1.727 -0.0411  0.0602 -0.1780
  743MPD2     H10982   1.574   0.295   1.501  1.4391  1.2117 -0.6561
  743MPD2    H110983   1.566   0.581   1.824 -1.3732 -1.9110  1.4616
  743MPD2    H210984   1.214   0.481   1.608 -0.0138 -1.1682  2.0807
  743MPD2    H310985   1.322   0.583   1.805 -0.4400 -1.7106  0.6394
  743MPD2     N10986   1.721   0.418   1.674 -0.9946  0.1678  0.1135
  743MPD2    H510987   1.765   0.356   1.607 -2.4687 -1.1111  0.3435
  743MPD2    N110988   1.310   0.326   1.439  0.0300  0.2727 -0.1139
  743MPD2    H710989   1.212   0.352   1.449 -0.0320  0.2995 -0.7930
  744TMC3    C110990   1.243   0.207   1.259  0.0804 -0.1710 -0.1688
  744TMC3    C210991   1.109   0.205   1.310  0.4615 -0.6400  0.0888
  744TMC3    C310992   1.008   0.172   1.225  0.5534 -1.0421  0.3454
  744TMC3    C410993   1.277   0.156   1.133  0.1530 -0.4108  0.4215
  744TMC3    C510994   1.174   0.116   1.052  0.0724 -0.2998 -0.5555
  744TMC3    C610995   1.039   0.133   1.096 -0.2475  0.2735  1.0119
  744TMC3     C10996   1.355   0.244   1.338 -0.2451  0.1557 -0.4918
  744TMC3     O10997   1.469   0.228   1.290 -0.2637  0.3730  1.0743
  744TMC3     H10998   1.087   0.247   1.408  0.3632  1.0872 -0.6700
  744TMC3    H110999   1.377   0.161   1.090 -0.0508 -0.3925 -0.0536
  744TMC3    H211000   0.963   0.109   1.022  0.6958 -1.3317  0.5502
  744TMC3    C711001   1.196   0.063   0.914  0.5706  0.5252 -0.3440
  744TMC3    C811002   0.872   0.213   1.251 -0.2682 -0.3120  0.3384
  744TMC3    O111003   1.102   4.721   0.876 -0.3886  0.2496  0.0820
  744TMC3    O211004   0.802   0.235   1.152  0.8684  0.4254  0.1016
  745TMC3    C111005   3.297   3.871  13.574  0.2712 -0.4478  0.5675
  745TMC3    C211006   3.197   3.916  13.652 -0.6307  0.0784  0.3780
  745TMC3    C311007   3.071   3.891  13.604 -0.2389 -0.7043  0.2530
  745TMC3    C411008   3.284   3.834  13.445  0.1157 -0.2560 -0.0094
  745TMC3    C511009   3.155   3.811  13.405  0.2350 -0.3207  0.2971
  745TMC3    C611010   3.048   3.838  13.478  0.1784  0.4523 -1.5199
  745TMC3     C11011   3.429   3.889  13.626  0.1533 -0.0370 -0.4725
  745TMC3     O11012   3.445   3.856  13.744  0.5623 -0.6590  0.3013
  745TMC3     H11013   3.211   3.951  13.754  2.3702 -2.2104  0.7301
  745TMC3    H111014   3.366   3.802  13.383 -0.0732 -3.6767  1.4893
  745TMC3    H211015   2.942   3.831  13.454  0.4518  0.2680 -2.6624
  745TMC3    C711016   3.131   3.785  13.264 -0.2747 -0.1683 -0.5904
  745TMC3    C811017   2.977   3.990  13.646  0.6616 -0.4270 -0.1500
  745TMC3    O111018   3.037   3.703  13.242  0.0016 -0.6186 -0.5879
  745TMC3    O211019   2.858   3.967  13.665  0.4807  0.4611  0.3103
  746TMC3    C111020   0.864   0.694  10.957  0.7973  0.5155  0.3247
  746TMC3    C211021   0.893   0.673  10.826 -0.2008 -0.3396  0.0350
  746TMC3    C311022   0.803   0.595  10.760  0.5728  0.4417  0.3359
  746TMC3    C411023   0.759   0.636  11.020 -0.3959 -0.4257 -0.0534
  746TMC3    C511024   0.668   0.555  10.946 -0.0595  0.2482  0.6547
  746TMC3    C611025   0.692   0.538  10.816  0.3140  0.9687 -0.4715
  746TMC3     C11026   0.913   0.803  11.031  0.5754  0.4534 -0.6192
  746TMC3     O11027   0.851   0.829  11.135  0.3015 -0.1644  0.2693
  746TMC3     H11028   0.981   0.721  10.785 -1.1771  1.9938  0.7419
  746TMC3    H111029   0.739   0.655  11.124 -0.3736 -0.0212 -0.1219
  746TMC3    H211030   0.637   0.468  10.755 -0.6251  2.9995 -1.9688
  746TMC3    C711031   0.559   0.484  11.010 -0.0178 -0.0598  0.8312
  746TMC3    C811032   0.829   0.546  10.623 -0.1665  0.6481  0.3367
  746TMC3    O111033   0.486   0.422  10.934 -0.0195 -0.5965 -0.3204
  746TMC3    O211034   0.730   0.512  10.556  0.4446  0.3073 -0.1346
  747TMC3    C111035   3.319   0.189  11.003  0.3083  0.4973 -0.5519
  747TMC3    C211036   3.264   0.122  11.116  0.9593 -0.5555 -0.3411
  747TMC3    C311037   3.185   0.189  11.206 -0.3634  0.1500  0.5487
  747TMC3    C411038   3.292   0.321  11.000 -0.6417  0.3071  0.0783
  747TMC3    C511039   3.225   0.387  11.096 -1.1047  0.0529  0.4113
  747TMC3    C611040   3.157   0.326  11.197  0.5330 -1.2124 -0.0863
  747TMC3     C11041   3.326   0.118  10.875 -0.1508  0.0036 -0.0126
  747TMC3     O11042   3.277   0.008  10.861  0.2216 -0.4537 -0.2101
  747TMC3     H11043   3.299   0.020  11.122  2.0195 -0.1282  0.6829
  747TMC3    H111044   3.322   0.385  10.918  1.4690  2.2432  2.3638
  747TMC3    H211045   3.118   0.386  11.279  2.6161  0.6173 -0.4225
  747TMC3    C711046   3.255   0.525  11.122  0.1315 -0.7976 -0.0517
  747TMC3    C811047   3.119   0.119  11.310 -0.1793  0.5741  0.0975
  747TMC3    O111048   3.173   0.587  11.180  0.1732 -0.2017  0.2790
  747TMC3    O211049   3.166   0.011  11.344 -0.1311  0.0447  0.0153
  748MPD2     C11050   0.181   0.971   1.682 -0.9909 -0.5595 -0.2393
  748MPD2    C111051   0.284   0.894   1.651 -0.5088 -0.5762 -0.0890
  748MPD2    C211052   0.373   0.947   1.558  0.1770 -0.0856 -0.2266
  748MPD2    C311053   0.361   1.068   1.504  0.4697  0.2744  0.5166
  748MPD2    C411054   0.251   1.148   1.537  0.4477  0.6484  0.3934
  748MPD2    C511055   0.162   1.093   1.627 -0.0626  0.2296 -0.0905
  748MPD2     H11056   0.458   0.886   1.530 -1.4171 -2.0838 -0.7216
  748MPD2    H111057   0.235   1.248   1.498  0.7248  0.7569  0.5575
  748MPD2    H211058   0.109   0.940   1.757  0.4539 -1.5098  0.7681
  748MPD2    H311059   0.071   1.148   1.647 -0.3039  0.6531 -2.3717
  748MPD2     N11060   0.465   1.117   1.414  0.1347 -0.2639  0.8320
  748MPD2    H511061   0.552   1.066   1.415  0.1441 -0.2368  2.9012
  748MPD2    N111062   0.291   0.766   1.716 -0.1232 -0.0342  0.1015
  748MPD2    H711063   0.214   0.736   1.775 -0.1214 -2.9739 -1.4010
  749TMC3    C111064   0.607   1.277   1.305  0.4472  0.2987 -0.4543
  749TMC3    C211065   0.709   1.243   1.384 -0.0708 -0.0911  0.4379
  749TMC3    C311066   0.836   1.284   1.360 -0.4384  0.6081 -0.2821
  749TMC3    C411067   0.621   1.369   1.207 -0.9132  0.1883  0.3063
  749TMC3    C511068   0.752   1.413   1.179  0.2507 -0.0076  0.1413
  749TMC3    C611069   0.861   1.373   1.257  0.6916 -0.4955  0.8929
  749TMC3     C11070   0.472   1.232   1.340  0.0123  0.4651  0.2946
  749TMC3     O11071   0.384   1.309   1.305  0.2120  0.1074 -0.1166
  749TMC3     H11072   0.685   1.179   1.468 -2.0547 -2.0306 -1.6327
  749TMC3    H111073   0.531   1.403   1.156 -0.4034  0.2677 -0.5369
  749TMC3    H211074   0.964   1.405   1.245  1.4339 -2.2228  2.5021
  749TMC3    C711075   0.774   1.528   1.096 -0.1678 -0.2825 -0.0874
  749TMC3    C811076   0.946   1.206   1.410 -0.2823  0.3455 -0.1652
  749TMC3    O111077   0.873   1.592   1.133 -0.0778  0.2667  0.0946
  749TMC3    O211078   1.041   1.183   1.334 -0.1446 -0.7890  0.3172
  750MPD2     C11079   1.356   2.471  11.495 -0.0817 -0.8113  0.0967
  750MPD2    C111080   1.218   2.497  11.499 -0.2721  0.3317 -0.6599
  750MPD2    C211081   1.135   2.425  11.414  0.2301 -0.1041  0.0233
  750MPD2    C311082   1.190   2.332  11.327 -0.7909 -0.9597  0.0560
  750MPD2    C411083   1.324   2.312  11.329 -0.2087 -0.0229 -0.3225
  750MPD2    C511084   1.408   2.377  11.412  0.5134 -0.1378 -0.3060
  750MPD2     H11085   1.027   2.435  11.405  0.2211  0.7375  1.0832
  750MPD2    H111086   1.365   2.235  11.264 -2.9553 -0.5505 -1.3928
  750MPD2    H211087   1.426   2.522  11.560  0.4572  2.0271 -2.7386
  750MPD2    H311088   1.514   2.353  11.404  0.3461 -0.7321 -0.7877
  750MPD2     N11089   1.119   2.245  11.237 -0.5116  0.1874  0.0337
  750MPD2    H511090   1.166   2.180  11.175  0.0587  1.6847 -1.1221
  750MPD2    N111091   1.166   2.602  11.585  0.5659 -0.5115  0.6361
  750MPD2    H711092   1.240   2.630  11.649  0.2718  1.3994  0.1446
  751TMC3    C111093   0.937   2.133  11.139  0.6405  0.3053  0.6944
  751TMC3    C211094   0.840   2.047  11.185  0.4172  0.3861  0.8748
  751TMC3    C311095   0.839   1.922  11.135 -0.3145  0.2383 -0.2745
  751TMC3    C411096   1.030   2.097  11.040 -0.5142  0.9121 -0.0920
  751TMC3    C511097   1.019   1.973  10.982  0.1441 -0.4723  0.5367
  751TMC3    C611098   0.920   1.885  11.030  0.7953 -0.3253 -0.2516
  751TMC3     C11099   0.985   2.218  11.247 -0.0764 -1.0440  0.4100
  751TMC3     O11100   0.905   2.246  11.336 -0.6202  0.2141 -0.2647
  751TMC3     H11101   0.769   2.085  11.257 -2.6441 -0.9778 -1.4523
  751TMC3    H111102   1.108   2.165  11.009  0.2940 -0.7367 -1.6365
  751TMC3    H211103   0.918   1.783  10.994  1.0442 -1.3951  2.7437
  751TMC3    C711104   1.059   1.962  10.846 -0.3725 -0.1253  0.0486
  751TMC3    C811105   0.731   1.835  11.163  0.0662  0.0833 -0.3061
  751TMC3    O111106   1.129   2.053  10.801  0.4847 -0.2663  0.6512
  751TMC3    O211107   0.706   1.755  11.075 -0.4777  0.5399  0.4734
  752TMC3    C111108   4.478   2.629  16.960  0.4012  0.4327 -0.0274
  752TMC3    C211109   4.384   2.574  17.042  0.1709 -0.8023  0.4080
  752TMC3    C311110   4.397   2.607  17.173 -0.5469  0.9495  0.1564
  752TMC3    C411111   4.599   2.678  17.000  0.0002 -0.0107  0.3435
  752TMC3    C511112   4.615   2.699  17.134 -0.8911  0.2462 -0.2334
  752TMC3    C611113   4.515   2.669  17.226  0.1338 -0.6961 -0.5661
  752TMC3     C11114   4.468   2.607  16.814  0.2217 -0.4320 -0.7556
  752TMC3     O11115   4.565   2.597  16.738  0.3564  0.0961  0.3584
  752TMC3     H11116   4.300   2.509  17.017 -0.0666  0.7866 -3.0238
  752TMC3    H111117   4.677   2.707  16.931 -0.8707 -0.2827 -0.7546
  752TMC3    H211118   4.512   2.722  17.321  1.2290 -0.4942 -0.6485
  752TMC3    C711119   4.721   2.774  17.185 -1.0126 -0.1626  0.7266
  752TMC3    C811120   4.292   2.569  17.261  0.5448 -0.1481  0.3524
  752TMC3    O111121   4.712   2.812  17.303 -0.4135 -0.1154 -0.0998
  752TMC3    O211122   4.180   2.589  17.216  0.0817 -0.9006 -0.1331
  753TMC3    C111123   1.588   3.803  13.348  0.5337  0.7951 -0.1746
  753TMC3    C211124   1.639   3.761  13.466  0.4402  0.2959 -0.0512
  753TMC3    C311125   1.611   3.629  13.501 -0.7905  0.6893 -0.0078
  753TMC3    C411126   1.508   3.724  13.267 -0.5904 -0.5783  0.1280
  753TMC3    C511127   1.486   3.591  13.313  0.3420 -0.2941  0.1665
  753TMC3    C611128   1.537   3.542  13.427  0.2164  0.5753 -0.0485
  753TMC3     C11129   1.603   3.943  13.312 -1.4437 -0.9412  0.0990
  753TMC3     O11130   1.523   3.984  13.225 -0.3721  0.3386 -0.1763
  753TMC3     H11131   1.688   3.821  13.542  1.2253 -1.8168  1.1014
  753TMC3    H111132   1.471   3.761  13.173  0.0873 -1.3183 -0.4304
  753TMC3    H211133   1.526   3.441  13.465  2.1027  0.3598 -0.0684
  753TMC3    C711134   1.433   3.489  13.226  0.4739  0.9310 -0.5663
  753TMC3    C811135   1.668   3.573  13.626 -0.0013  0.1938  0.1127
  753TMC3    O111136   1.431   3.507  13.107 -0.2959  0.3242 -0.1776
  753TMC3    O211137   1.687   3.455  13.622 -0.3261 -1.5688  0.0839
  754MPD2     C11138   1.055   2.650  12.965  0.6554 -0.3466 -0.0924
  754MPD2    C111139   1.052   2.512  12.976 -0.5171 -0.2249  0.3822
  754MPD2    C211140   0.931   2.448  12.981  0.5148  0.1640 -0.3811
  754MPD2    C311141   0.811   2.523  12.970  0.3472 -0.6020  0.3481
  754MPD2    C411142   0.820   2.660  12.937  0.5233  0.0471 -0.5127
  754MPD2    C511143   0.939   2.719  12.947  0.4012  0.0690 -0.2737
  754MPD2     H11144   0.932   2.341  12.997  2.2972  0.3285  0.5711
  754MPD2    H111145   0.736   2.728  12.925  0.7839  1.0003  2.9979
  754MPD2    H211146   1.147   2.707  12.972  0.2976 -0.0231  2.0267
  754MPD2    H311147   0.957   2.823  12.926 -0.7806  0.0296 -1.4668
  754MPD2     N11148   0.685   2.466  12.970  0.3038  0.1508 -0.0913
  754MPD2    H511149   0.613   2.532  12.941 -1.8036 -1.3681  1.6930
  754MPD2    N111150   1.181   2.443  12.965  0.4871 -0.3859 -0.4676
  754MPD2    H711151   1.250   2.506  12.925 -0.0839 -0.5564 -1.7092
  755MPD2     C11152   4.449   2.697  13.150  0.2494 -0.0156  0.7596
  755MPD2    C111153   4.560   2.702  13.236  0.3712 -0.5899  0.2335
  755MPD2    C211154   4.669   2.627  13.208 -0.3674 -0.2153  0.1250
  755MPD2    C311155   4.673   2.547  13.094  0.6774  0.3329 -0.2325
  755MPD2    C411156   4.568   2.546  13.007 -0.2118 -0.0369 -0.5258
  755MPD2    C511157   4.459   2.617  13.038 -0.0910  0.6426  0.3862
  755MPD2     H11158   0.028   2.632  13.278 -0.4114  1.6016  0.0291
  755MPD2    H111159   4.573   2.485  12.918 -0.2698  1.1365 -1.3337
  755MPD2    H211160   4.354   2.748  13.160 -1.5669 -3.2384 -0.2524
  755MPD2    H311161   4.375   2.615  12.969  0.2600  0.7966 -0.0415
  755MPD2     N11162   0.069   2.469  13.054  0.6312  0.4237  0.2549
  755MPD2    H511163   0.062   2.427  12.962  0.3233  0.2993  0.3334
  755MPD2    N111164   4.552   2.778  13.354 -0.0251  0.7415 -0.4410
  755MPD2    H711165   4.616   2.756  13.428 -2.2863  0.8968  1.5667
  756MPD2     C11166   1.393   3.080   9.763  0.0526  0.3288 -0.1917
  756MPD2    C111167   1.354   2.976   9.832 -0.2102  0.1756 -0.2205
  756MPD2    C211168   1.374   2.843   9.786 -0.9669 -0.6992 -0.1452
  756MPD2    C311169   1.422   2.825   9.659 -0.0118 -0.2304  0.3252
  756MPD2    C411170   1.457   2.934   9.593 -0.2458 -0.2124 -0.5987
  756MPD2    C511171   1.447   3.060   9.644  0.3309 -1.0247  0.5283
  756MPD2     H11172   1.343   2.764   9.854  0.0669 -0.3467  0.7508
  756MPD2    H111173   1.500   2.915   9.496 -0.1725 -0.4638 -0.5153
  756MPD2    H211174   1.379   3.182   9.798 -1.5899 -0.3451  1.0588
  756MPD2    H311175   1.481   3.145   9.585  0.1275 -1.0761  0.3399
  756MPD2     N11176   1.429   2.697   9.606  0.9929 -0.4235  0.0859
  756MPD2    H511177   1.418   2.622   9.673 -1.3458  0.5350  0.7653
  756MPD2    N111178   1.290   2.987   9.958  0.1402  0.3344  0.2576
  756MPD2    H711179   1.282   2.903  10.014  0.5637  0.8085  1.0313
  757MPD2     C11180   0.701   2.155   9.113 -0.2760  0.0534 -0.2147
  757MPD2    C111181   0.712   2.136   9.246 -0.4286 -0.1272  0.2651
  757MPD2    C211182   0.834   2.169   9.301  0.8434 -0.3894 -0.3507
  757MPD2    C311183   0.940   2.220   9.231  0.1593  0.1590  0.0250
  757MPD2    C411184   0.922   2.245   9.099 -0.4714 -0.0864 -0.9748
  757MPD2    C511185   0.805   2.204   9.040  0.3639 -0.4519  0.0942
  757MPD2     H11186   0.851   2.155   9.407 -0.7386 -1.3762 -0.2308
  757MPD2    H111187   1.003   2.281   9.037  1.5773 -1.7696  0.7082
  757MPD2    H211188   0.608   2.126   9.066 -0.5428 -0.0332  0.3658
  757MPD2    H311189   0.804   2.219   8.932 -1.4413 -0.4907  0.1001
  757MPD2     N11190   1.057   2.251   9.303 -0.2477  0.1431  0.5917
  757MPD2    H511191   1.057   2.214   9.397 -1.5679 -0.7998  0.2196
  757MPD2    N111192   0.603   2.073   9.320  0.3616  0.2378 -0.2165
  757MPD2    H711193   0.514   2.052   9.276  0.3629 -0.6373  0.1992
  758MPD2     C11194   0.661   2.458  15.743  0.2162 -0.6048  0.6166
  758MPD2    C111195   0.667   2.319  15.752  0.1791 -0.0971 -0.8484
  758MPD2    C211196   0.604   2.264  15.860  0.6934 -0.2942  0.3532
  758MPD2    C311197   0.538   2.341  15.953  0.4273  0.3466  0.0991
  758MPD2    C411198   0.514   2.475  15.939  0.2076 -0.0812  0.5077
  758MPD2    C511199   0.572   2.530  15.827 -0.3059  0.0541 -0.1762
  758MPD2     H11200   0.604   2.155  15.862  0.1928 -0.3204 -1.4663
  758MPD2    H111201   0.454   2.532  16.009 -1.8135 -2.0057  0.3350
  758MPD2    H211202   0.696   2.508  15.653 -1.1938 -0.3990  0.1793
  758MPD2    H311203   0.555   2.636  15.810  0.2161  0.1278 -0.2306
  758MPD2     N11204   0.472   2.278  16.064  0.7519  0.4034 -0.0317
  758MPD2    H511205   0.427   2.334  16.136 -2.8893 -1.6514 -0.7117
  758MPD2    N111206   0.740   2.245  15.659  0.2766  0.7074  0.0552
  758MPD2    H711207   0.792   2.302  15.593 -2.2648  1.3135 -1.4327
  759MPD2     C11208   3.878   3.726   9.651 -0.7173  0.2662  0.2774
  759MPD2    C111209   4.001   3.743   9.714 -0.4235  0.5086  0.0177
  759MPD2    C211210   4.093   3.833   9.671 -0.7721  0.3325  0.0589
  759MPD2    C311211   4.072   3.912   9.555  0.9371 -0.4846  0.2621
  759MPD2    C411212   3.947   3.902   9.498 -0.5548 -0.2554 -0.4091
  759MPD2    C511213   3.851   3.810   9.549 -0.8183  0.3155  0.2469
  759MPD2     H11214   4.187   3.827   9.723 -0.4817  0.8217 -0.4118
  759MPD2    H111215   3.914   3.972   9.422  0.9453  0.5702 -0.2994
  759MPD2    H211216   3.807   3.655   9.693  0.7071 -0.7874  0.8840
  759MPD2    H311217   3.761   3.810   9.490 -0.0532 -0.9239 -0.9265
  759MPD2     N11218   4.181   3.992   9.513  1.0247 -0.1023 -0.0491
  759MPD2    H511219   4.266   3.981   9.566  0.3708 -0.0268  1.0230
  759MPD2    N111220   4.046   3.663   9.820 -0.3201  0.1696  0.1821
  759MPD2    H711221   4.145   3.671   9.841 -0.2187 -0.7595  0.0468
  760MPD2     C11222   3.811   2.655  11.599 -0.4493 -0.2111  0.0253
  760MPD2    C111223   3.926   2.728  11.649  0.2035 -0.1498  0.0094
  760MPD2    C211224   4.026   2.653  11.716  0.2531  0.1540  0.6474
  760MPD2    C311225   4.000   2.523  11.746 -0.0873  0.0192 -0.0803
  760MPD2    C411226   3.895   2.453  11.694 -0.1800 -0.5397  0.0048
  760MPD2    C511227   3.806   2.515  11.617 -0.7094  0.1937 -0.3321
  760MPD2     H11228   4.122   2.691  11.750  1.6070 -2.7848  0.0654
  760MPD2    H111229   3.880   2.348  11.713  0.4351 -0.5688  0.3098
  760MPD2    H211230   3.742   2.701  11.530  0.8213  0.0705 -1.0498
  760MPD2    H311231   3.736   2.449  11.566 -1.4636  1.2528 -0.6564
  760MPD2     N11232   4.093   2.444  11.822  0.3174  0.2152  0.2171
  760MPD2    H511233   4.079   2.343  11.818 -0.2091  0.2923  0.0824
  760MPD2    N111234   3.949   2.863  11.626 -0.1050 -0.2013  0.7033
  760MPD2    H711235   4.028   2.905  11.674 -0.5286  0.6431  0.6728
  761MPD2     C11236   0.333   1.734  11.469 -0.6702  0.0522 -0.0904
  761MPD2    C111237   0.365   1.680  11.348 -0.0328  0.0017 -0.4122
  761MPD2    C211238   0.474   1.731  11.273  0.5478  0.5819  0.4346
  761MPD2    C311239   0.548   1.834  11.330  0.5767  0.4786  0.1876
  761MPD2    C411240   0.516   1.886  11.452 -0.1753  0.0229 -0.1652
  761MPD2    C511241   0.405   1.840  11.521 -0.0513 -0.2084  0.4167
  761MPD2     H11242   0.504   1.695  11.176 -1.5709 -0.4287  0.1558
  761MPD2    H111243   0.562   1.977  11.488  0.9592 -0.6817  0.1695
  761MPD2    H211244   0.247   1.694  11.521 -0.6913 -1.1217 -1.0384
  761MPD2    H311245   0.378   1.890  11.613  1.9927  1.4712  0.1030
  761MPD2     N11246   0.670   1.877  11.279 -0.5364 -0.2145 -0.1598
  761MPD2    H511247   0.729   1.943  11.329 -0.9600 -1.4724  2.0044
  761MPD2    N111248   0.293   1.568  11.305  0.2382 -0.0390 -0.2369
  761MPD2    H711249   0.225   1.536  11.372 -0.1244 -1.0054 -1.0678
  762MPD2     C11250   0.229   0.736  10.874 -0.2486  0.0397 -0.2586
  762MPD2    C111251   0.284   0.856  10.845 -0.2634  0.4452  0.1501
  762MPD2    C211252   0.372   0.869  10.737  0.4540 -1.0366  0.7063
  762MPD2    C311253   0.392   0.763  10.649  0.4538 -0.2251  0.7842
  762MPD2    C411254   0.344   0.637  10.684  0.2775  0.1665 -0.2791
  762MPD2    C511255   0.248   0.630  10.788  0.6033 -0.4394 -0.5220
  762MPD2     H11256   0.421   0.965  10.729  1.3037 -1.3988  1.5776
  762MPD2    H111257   0.382   0.547  10.637  0.4287 -0.6886  1.4727
  762MPD2    H211258   0.164   0.718  10.960 -0.2548  1.6814  0.0810
  762MPD2    H311259   0.204   0.534  10.812  0.0067 -0.0227  0.0419
  762MPD2     N11260   0.482   0.785  10.540  0.3823 -0.2405 -0.4395
  762MPD2    H511261   0.520   0.878  10.545 -1.1063  0.4108 -1.1634
  762MPD2    N111262   0.262   0.951  10.940  0.1218 -0.1592 -0.4000
  762MPD2    H711263   0.197   0.923  11.013  0.5814 -0.7868 -0.2321
  763MPD2     C11264   1.945   2.127  15.447 -0.1030  0.1151 -0.4896
  763MPD2    C111265   2.070   2.186  15.463  0.1556  0.5270 -0.0870
  763MPD2    C211266   2.099   2.247  15.588  0.9129  0.1919  0.2089
  763MPD2    C311267   1.999   2.265  15.686  0.1395 -0.6889  0.2570
  763MPD2    C411268   1.873   2.219  15.657  0.2488  0.0396 -0.0286
  763MPD2    C511269   1.846   2.160  15.536  0.3127  0.3365 -0.7044
  763MPD2     H11270   2.199   2.281  15.613  1.7343 -0.6465 -1.8886
  763MPD2    H111271   1.794   2.227  15.730  2.1897  1.0424  1.9773
  763MPD2    H211272   1.911   2.076  15.357 -0.3556  0.8521 -0.8122
  763MPD2    H311273   1.745   2.122  15.522 -1.0416  2.9912  1.9469
  763MPD2     N11274   2.031   2.320  15.807  0.2821  0.3580 -0.3085
  763MPD2    H511275   2.128   2.346  15.815  0.6671 -1.2857  0.3389
  763MPD2    N111276   2.180   2.178  15.373 -0.5488  0.1696 -0.5704
  763MPD2    H711277   2.260   2.228  15.408 -2.1464  3.2220 -1.2728
  764MPD2     C11278   1.098   3.693  17.442 -0.1693 -0.2597  0.4101
  764MPD2    C111279   0.974   3.711  17.493 -0.7180 -0.1571  0.5982
  764MPD2    C211280   0.939   3.639  17.604 -0.3068  0.8107  0.6264
  764MPD2    C311281   1.023   3.552  17.672  0.6696  0.0188  0.3779
  764MPD2    C411282   1.150   3.538  17.612 -0.1076 -0.0944 -0.2481
  764MPD2    C511283   1.187   3.610  17.506  0.2189  0.4364  0.1408
  764MPD2     H11284   0.839   3.646  17.646 -0.6323 -0.8102  0.1340
  764MPD2    H111285   1.215   3.468  17.664  0.8270  1.8406  1.1949
  764MPD2    H211286   1.136   3.756  17.363 -0.6655  2.7156  2.5355
  764MPD2    H311287   1.287   3.602  17.465  0.6454 -0.6036  1.3699
  764MPD2     N11288   0.982   3.477   0.084  0.5061 -0.2792  0.0029
  764MPD2    H511289   0.889   3.505   0.113  1.0442 -0.3708  1.8182
  764MPD2    N111290   0.887   3.805  17.433 -0.4144  0.6439  0.3127
  764MPD2    H711291   0.932   3.853  17.357 -0.5646  2.0401  1.1112
  765MPD2     C11292   0.083   1.495  15.760  0.6964 -0.3835 -0.5399
  765MPD2    C111293   0.186   1.592  15.750  0.3104  0.3544 -0.0088
  765MPD2    C211294   0.310   1.551  15.704 -0.4115  0.1776 -0.0148
  765MPD2    C311295   0.325   1.418  15.657  0.1647  0.3179  0.0952
  765MPD2    C411296   0.218   1.329  15.665 -0.4643  0.1038  0.2359
  765MPD2    C511297   0.102   1.369  15.726 -0.1058  0.0943 -0.6189
  765MPD2     H11298   0.394   1.617  15.686 -1.1244  1.3950  1.0928
  765MPD2    H111299   0.219   1.229  15.623  1.4487  0.4569 -0.5688
  765MPD2    H211300   4.707   1.516  15.799  1.3777  1.6756  0.0808
  765MPD2    H311301   0.017   1.301  15.727  0.9982 -1.2869 -0.4056
  765MPD2     N11302   0.453   1.383  15.598  0.5407 -0.3627  0.0244
  765MPD2    H511303   0.510   1.459  15.563 -2.3897  1.4248 -0.8754
  765MPD2    N111304   0.142   1.724  15.792 -0.6084  0.4468 -0.0478
  765MPD2    H711305   0.041   1.732  15.796 -0.5894  0.7714 -0.2255
  766MPD2     C11306   4.323   1.977  15.481  0.0418  0.1263  0.4212
  766MPD2    C111307   4.460   1.971  15.454  0.2561  0.3152  0.5004
  766MPD2    C211308   4.498   1.919  15.331 -0.2719 -0.3004 -0.3853
  766MPD2    C311309   4.409   1.863  15.237  0.6201 -0.2116 -0.6415
  766MPD2    C411310   4.273   1.882  15.263 -0.0214 -0.3463  0.3336
  766MPD2    C511311   4.237   1.938  15.382 -0.0551  0.3457  0.2916
  766MPD2     H11312   4.606   1.909  15.323 -0.1398  1.8034 -1.4634
  766MPD2    H111313   4.188   1.849  15.204 -0.3549 -1.4044  1.3885
  766MPD2    H211314   4.284   2.017  15.574 -0.9924 -2.7250  1.1913
  766MPD2    H311315   4.131   1.955  15.396 -0.1189  0.2642 -0.0902
  766MPD2     N11316   4.450   1.808  15.112 -0.1955 -0.5385  0.5424
  766MPD2    H511317   4.378   1.783  15.046  0.1717  0.2802 -0.1656
  766MPD2    N111318   4.565   2.011  15.538 -0.3946 -1.0084 -0.9556
  766MPD2    H711319   4.661   2.009  15.507 -0.0312  3.0046 -0.1011
  767MPD2     C11320   4.226   2.173  15.111 -0.6346 -0.2205 -0.6191
  767MPD2    C111321   4.324   2.166  15.015 -0.4733 -0.0742 -0.5027
  767MPD2    C211322   4.302   2.101  14.894 -0.5536 -0.8358 -0.0473
  767MPD2    C311323   4.179   2.047  14.871 -0.3681  0.0400 -0.7030
  767MPD2    C411324   4.076   2.072  14.962  0.4569  0.4274  0.2643
  767MPD2    C511325   4.099   2.130  15.084  0.1886 -0.0086 -0.2605
  767MPD2     H11326   4.378   2.085  14.818 -1.0910 -2.8053 -0.1738
  767MPD2    H111327   3.978   2.032  14.938  1.3011 -0.6942 -1.3308
  767MPD2    H211328   4.249   2.217  15.208 -2.4554  1.1338 -0.7988
  767MPD2    H311329   4.027   2.141  15.165 -0.7080  0.7060 -1.1684
  767MPD2     N11330   4.161   1.979  14.747 -0.1940 -0.6600 -0.4675
  767MPD2    H511331   4.244   1.951  14.696  0.0434  0.2382 -0.5722
  767MPD2    N111332   4.444   2.215  15.057  0.2863 -0.1765  0.3444
  767MPD2    H711333   4.435   2.255  15.149  1.6933 -1.4348  1.0308
  768MPD2     C11334   0.402   4.483  10.648  0.3575  0.0523  0.4213
  768MPD2    C111335   0.389   4.530  10.779 -0.1269 -0.0958  0.4463
  768MPD2    C211336   0.501   4.529  10.859  0.1954  0.4319  0.7990
  768MPD2    C311337   0.627   4.506  10.807  0.3397  0.8879 -0.3019
  768MPD2    C411338   0.636   4.486  10.672  0.2991  0.0475 -0.0491
  768MPD2    C511339   0.526   4.466  10.598  0.6227 -0.4893 -0.4428
  768MPD2     H11340   0.482   4.561  10.961 -0.5645 -0.0511  0.8094
  768MPD2    H111341   0.724   4.449  10.622  0.2924 -0.9786  0.6969
  768MPD2    H211342   0.319   4.455  10.584  0.8793  1.6155 -0.9143
  768MPD2    H311343   0.534   4.428  10.497  0.6731 -1.2774 -0.1356
  768MPD2     N11344   0.744   4.514  10.887 -0.3883 -0.1880  0.1236
  768MPD2    H511345   0.835   4.518  10.842 -1.0566  0.3880 -1.1887
  768MPD2    N111346   0.275   4.578  10.843  0.0841 -0.2640  0.0067
  768MPD2    H711347   0.286   4.615  10.937 -2.0959  1.5887 -0.4857
  769MPD2     C11348   1.410   3.064  14.861 -0.1844 -0.7302 -0.6691
  769MPD2    C111349   1.335   3.177  14.897 -0.3311  0.2255 -0.0114
  769MPD2    C211350   1.340   3.230  15.027 -0.3508  0.2926  0.3249
  769MPD2    C311351   1.438   3.183  15.115  0.3861 -0.0610  0.3301
  769MPD2    C411352   1.513   3.072  15.081  0.4633 -0.0655 -0.1157
  769MPD2    C511353   1.498   3.016  14.957  0.2340 -0.9429  0.2633
  769MPD2     H11354   1.270   3.306  15.059  0.3540  1.0685  0.0264
  769MPD2    H111355   1.595   3.046  15.148  0.3934 -3.2631 -1.2629
  769MPD2    H211356   1.400   3.013  14.765  1.4258 -0.1330 -1.1470
  769MPD2    H311357   1.565   2.938  14.924 -0.5404 -1.6217  0.2843
  769MPD2     N11358   1.447   3.245  15.243  0.0109  0.0109 -0.4870
  769MPD2    H511359   1.366   3.301  15.266  1.7170  2.0994  0.4158
  769MPD2    N111360   1.234   3.214  14.805  0.3284  0.6379  0.1657
  769MPD2    H711361   1.207   3.152  14.729 -1.9568  1.9282 -0.1055
  770MPD2     C11362   0.463   2.817  14.708  0.2408  0.1756 -0.3240
  770MPD2    C111363   0.599   2.828  14.721  0.5802  0.1621  0.3100
  770MPD2    C211364   0.644   2.951  14.760 -0.8474  0.3572 -0.6447
  770MPD2    C311365   0.561   3.059  14.777 -0.7437  0.1976 -0.6193
  770MPD2    C411366   0.426   3.045  14.757 -0.1467 -0.4859  0.1556
  770MPD2    C511367   0.377   2.927  14.730 -0.1484  0.0422 -0.1223
  770MPD2     H11368   0.751   2.952  14.777 -0.9628 -0.2382  0.0972
  770MPD2    H111369   0.356   3.125  14.779  1.5699  0.7384  1.1287
  770MPD2    H211370   0.435   2.716  14.681  1.0383  0.4198 -2.0803
  770MPD2    H311371   0.272   2.900  14.727  0.2708 -1.7452  0.9869
  770MPD2     N11372   0.617   3.189  14.804 -0.1473  0.2262 -0.7856
  770MPD2    H511373   0.562   3.273  14.788  0.1064  0.9349  2.1667
  770MPD2    N111374   0.685   2.714  14.691 -0.0802 -0.1651 -0.6259
  770MPD2    H711375   0.642   2.628  14.658  2.6324 -1.9898  0.6451
  771MPD2     C11376   2.803   0.790  13.359  0.3806  0.0820  0.5878
  771MPD2    C111377   2.724   0.901  13.385 -0.8320 -0.2476 -0.1629
  771MPD2    C211378   2.604   0.908  13.318 -0.4431  0.0891 -0.3284
  771MPD2    C311379   2.548   0.812  13.234 -0.6438  0.4470  0.0400
  771MPD2    C411380   2.643   0.718  13.199 -0.5896 -0.2666  0.0236
  771MPD2    C511381   2.766   0.703  13.262 -0.2929  0.7713  0.5220
  771MPD2     H11382   2.539   0.993  13.336 -1.6439 -0.4560 -2.0415
  771MPD2    H111383   2.611   0.649  13.122  2.7762 -1.7416 -0.0565
  771MPD2    H211384   2.902   0.781  13.403  0.9196 -3.2701 -1.3224
  771MPD2    H311385   2.837   0.630  13.228 -0.1555  0.0104  2.4454
  771MPD2     N11386   2.412   0.822  13.183 -0.0662  0.1926 -0.8350
  771MPD2    H511387   2.370   0.911  13.210  0.6066  0.2932 -0.1238
  771MPD2    N111388   2.757   0.998  13.486  0.3165 -0.1319  0.3016
  771MPD2    H711389   2.683   1.054  13.527 -2.6768 -2.5555 -1.8061
  772MPD2     C11390   2.507   1.497  13.865 -0.5955 -0.0553 -0.0031
  772MPD2    C111391   2.479   1.370  13.817  0.1501  0.0564 -0.6205
  772MPD2    C211392   2.353   1.334  13.770  1.2145 -0.0093 -0.4187
  772MPD2    C311393   2.254   1.429  13.776  0.7477 -0.1426  0.7204
  772MPD2    C411394   2.279   1.558  13.827  0.4896  0.2707 -0.5976
  772MPD2    C511395   2.404   1.584  13.874  0.0488  0.3216  0.3792
  772MPD2     H11396   2.328   1.237  13.730  0.7670 -0.6168  1.3059
  772MPD2    H111397   2.204   1.636  13.837  0.5544  0.1554  0.7433
  772MPD2    H211398   2.605   1.534  13.893 -0.5265 -1.9674  2.3147
  772MPD2    H311399   2.415   1.690  13.894 -1.8907  0.4312  0.9040
  772MPD2     N11400   2.121   1.399  13.732 -0.2330  0.1652  0.0310
  772MPD2    H511401   2.049   1.471  13.734  0.8153  1.1734  2.4126
  772MPD2    N111402   2.583   1.271  13.808  0.5324  0.1374 -0.7439
  772MPD2    H711403   2.573   1.199  13.738  1.8036 -0.0596 -0.7167
  773MPD2     C11404   0.903   3.048  17.657 -0.0463  0.1943 -0.2873
  773MPD2    C111405   0.913   2.914   0.001 -0.8866 -0.0198 -0.4521
  773MPD2    C211406   1.035   2.872   0.054 -0.3160  0.1560 -0.4945
  773MPD2    C311407   1.148   2.954   0.043  0.4642  0.3550 -0.0353
  773MPD2    C411408   1.128   3.078  17.688  0.2028 -0.1330  0.7540
  773MPD2    C511409   1.008   3.130  17.650  0.2188  0.5518 -0.0579
  773MPD2     H11410   1.036   2.775   0.104  0.2458  0.6102  0.3725
  773MPD2    H111411   1.209   3.148  17.667 -0.9506  0.6891 -0.9558
  773MPD2    H211412   0.809   3.085  17.619  0.0430  1.2991  0.5518
  773MPD2    H311413   0.996   3.230  17.610  0.6750  0.3100 -0.8120
  773MPD2     N11414   1.270   2.902   0.091 -0.7121 -0.2705 -0.0945
  773MPD2    H511415   1.284   2.802   0.104  1.1569 -0.0265 -0.1587
  773MPD2    N111416   0.809   2.820  17.679  0.9773  0.1108 -0.1725
  773MPD2    H711417   0.824   2.727   0.018  0.4171  0.1019  0.0280
  774MPD2     C11418   0.773   1.474  13.151  0.1845  0.2630  0.5050
  774MPD2    C111419   0.811   1.510  13.278 -0.3032 -0.0882  0.3627
  774MPD2    C211420   0.890   1.628  13.291 -0.3090 -0.0443  0.8829
  774MPD2    C311421   0.909   1.708  13.178 -0.2718 -1.4036 -1.0249
  774MPD2    C411422   0.853   1.672  13.057 -0.6428  0.3250 -0.0210
  774MPD2    C511423   0.788   1.554  13.045 -0.3344  0.2132 -0.2034
  774MPD2     H11424   0.922   1.660  13.389  3.2351  1.4644 -0.7575
  774MPD2    H111425   0.861   1.734  12.968  3.0371 -0.3193 -0.1644
  774MPD2    H211426   0.723   1.380  13.128 -1.2769  0.6808  1.9611
  774MPD2    H311427   0.752   1.526  12.947 -1.4136 -1.6074  0.7027
  774MPD2     N11428   0.975   1.826  13.204 -0.0960 -0.1838 -0.2530
  774MPD2    H511429   0.991   1.848  13.302  1.8398 -1.2695 -0.3339
  774MPD2    N111430   0.770   1.425  13.386 -0.2491 -0.1702  0.6084
  774MPD2    H711431   0.698   1.357  13.366 -0.2638  0.4192 -1.3311
  775MPD2     C11432   1.795   3.024  15.606 -0.0046 -0.7636  0.2248
  775MPD2    C111433   1.730   3.116  15.689 -0.0411 -0.4300  0.0878
  775MPD2    C211434   1.789   3.246  15.697  0.2106 -0.5737  0.5055
  775MPD2    C311435   1.909   3.274  15.628  0.5132  0.1841 -0.7795
  775MPD2    C411436   1.958   3.183  15.539  0.1894 -0.0554  0.4070
  775MPD2    C511437   1.904   3.058  15.529  0.2931 -0.3661 -0.0782
  775MPD2     H11438   1.753   3.319  15.769  1.6230 -0.8359  1.4842
  775MPD2    H111439   2.048   3.211  15.486 -0.5211 -0.8233 -1.2226
  775MPD2    H211440   1.761   2.922  15.595  2.2127 -1.7252  2.2911
  775MPD2    H311441   1.933   2.984  15.456  2.0747  0.2433  0.0002
  775MPD2     N11442   1.981   3.394  15.647  0.5510 -0.2671  0.0810
  775MPD2    H511443   2.050   3.404  15.573 -1.2870  2.5498 -1.2607
  775MPD2    N111444   1.605   3.087  15.751 -0.1900  0.9639  0.7157
  775MPD2    H711445   1.566   2.994  15.736 -0.2055  1.3136 -1.4151
  776MPD2     C11446   1.530   2.977  11.761 -0.0310  0.3425 -0.1913
  776MPD2    C111447   1.418   3.044  11.814 -0.1049  0.0588 -1.3372
  776MPD2    C211448   1.416   3.180  11.836 -0.3294 -0.0357  0.0210
  776MPD2    C311449   1.538   3.249  11.813  0.4035 -0.9334 -0.1796
  776MPD2    C411450   1.653   3.177  11.765  0.3347 -0.0598 -0.1611
  776MPD2    C511451   1.645   3.046  11.735 -0.1250  0.4126 -0.3730
  776MPD2     H11452   1.324   3.232  11.857 -0.2465 -0.2668  0.9543
  776MPD2    H111453   1.747   3.227  11.744  1.2206 -2.2234 -1.3933
  776MPD2    H211454   1.520   2.872  11.734  0.4584  0.3842 -0.5408
  776MPD2    H311455   1.736   2.999  11.700  1.3141  1.7982  1.4818
  776MPD2     N11456   1.542   3.392  11.813 -0.0883  0.3991  0.5475
  776MPD2    H511457   1.629   3.440  11.793 -1.1169  2.3777  0.8108
  776MPD2    N111458   1.303   2.961  11.827 -0.3147  0.2729 -0.8714
  776MPD2    H711459   1.316   2.867  11.790  1.2751 -0.0949  0.6320
  777MPD2     C11460   1.304   0.750   0.773 -0.1398 -0.5165  1.0579
  777MPD2    C111461   1.382   0.650   0.832 -0.2595  0.7515 -0.0607
  777MPD2    C211462   1.479   0.579   0.757 -0.6552  0.2016 -0.1154
  777MPD2    C311463   1.505   0.623   0.635  0.3588 -0.1665  0.1157
  777MPD2    C411464   1.426   0.721   0.574 -0.0388 -0.4244 -0.2407
  777MPD2    C511465   1.326   0.782   0.641 -0.2607 -0.2341  0.1778
  777MPD2     H11466   1.553   0.516   0.806  0.8991  1.3567 -0.9887
  777MPD2    H111467   1.435   0.754   0.471 -1.3430  1.1237  0.1375
  777MPD2    H211468   1.226   0.803   0.825 -2.3294 -1.3647 -1.3672
  777MPD2    H311469   1.271   0.865   0.597 -2.1138 -2.5484 -1.8633
  777MPD2     N11470   1.616   0.567   0.573 -0.2614  0.3133 -0.3008
  777MPD2    H511471   1.660   0.489   0.622 -0.0177  0.7181  0.1268
  777MPD2    N111472   1.365   0.625   0.970 -0.6253 -0.0314 -0.3170
  777MPD2    H711473   1.310   0.693   1.022  0.4673  1.4210 -1.0719
  778MPD2     C11474   2.324   1.086  15.062 -0.0161  0.1145 -0.8380
  778MPD2    C111475   2.247   1.047  14.952  0.4703 -0.2094 -0.1879
  778MPD2    C211476   2.280   1.091  14.827 -0.2492  0.6647 -0.2608
  778MPD2    C311477   2.410   1.150  14.815 -0.3528  1.2460  0.4736
  778MPD2    C411478   2.493   1.165  14.921 -0.2033  0.3106 -0.0869
  778MPD2    C511479   2.447   1.139  15.044  0.6339  0.0866 -0.1663
  778MPD2     H11480   2.215   1.064  14.745  0.7452  0.6857 -1.0572
  778MPD2    H111481   2.592   1.210  14.917  0.0646 -0.0848  1.9070
  778MPD2    H211482   2.285   1.067  15.162  1.3352 -0.0624 -0.3401
  778MPD2    H311483   2.510   1.155  15.131 -0.0748  0.8963  0.2043
  778MPD2     N11484   2.448   1.191  14.685  0.4241  0.1388  0.0564
  778MPD2    H511485   2.375   1.177  14.617 -1.8038  1.1116  2.2460
  778MPD2    N111486   2.122   0.974  14.962 -0.0570 -0.4822  0.3694
  778MPD2    H711487   2.071   0.970  14.874  1.2352  0.3046 -0.4206
  779MPD2     C11488   1.592   4.635  14.457  0.4702  0.2175  0.3007
  779MPD2    C111489   1.727   4.604  14.480  0.2001  0.0880 -0.6483
  779MPD2    C211490   1.811   4.702  14.532 -0.3377 -0.4608  0.1511
  779MPD2    C311491   1.772   0.109  14.549 -0.3077  0.5611 -1.1738
  779MPD2    C411492   1.636   0.141  14.535  0.6662 -0.4270  0.1800
  779MPD2    C511493   1.548   0.038  14.490  0.3274 -0.1578 -0.4488
  779MPD2     H11494   1.917   4.683  14.544 -0.2038  0.8638  1.1940
  779MPD2    H111495   1.596   0.240  14.551 -0.0953 -0.6555 -0.3276
  779MPD2    H211496   1.515   4.572  14.414 -1.0758  2.1329  0.2885
  779MPD2    H311497   1.445   0.064  14.465  0.2472 -1.7046 -1.6756
  779MPD2     N11498   1.865   0.216  14.568 -0.6382 -0.1908 -0.4001
  779MPD2    H511499   1.827   0.310  14.565  1.3848  0.6876  2.2160
  779MPD2    N111500   1.784   4.480  14.447  0.2493 -0.0456  0.2659
  779MPD2    H711501   1.881   4.469  14.474 -0.0159 -1.2543  0.7354
  780MPD2     C11502   2.196   4.003   1.073 -0.2178  0.3483  0.0273
  780MPD2    C111503   2.153   3.966   0.943 -0.3047  0.4935 -0.7157
  780MPD2    C211504   2.202   4.040   0.834  0.4410  0.2543  0.0831
  780MPD2    C311505   2.288   4.146   0.849 -0.5188 -0.1627 -0.3204
  780MPD2    C411506   2.332   4.178   0.977 -0.2085 -0.6426 -0.3882
  780MPD2    C511507   2.279   4.110   1.086  0.1029 -0.9568 -0.3418
  780MPD2     H11508   2.187   4.005   0.733 -2.6914 -0.3694  0.7614
  780MPD2    H111509   2.407   4.253   0.994 -1.0852  0.2253 -0.3356
  780MPD2    H211510   2.174   3.951   1.166  2.6983 -2.9073 -1.1208
  780MPD2    H311511   2.319   4.128   1.185 -2.0087 -0.0618  0.3394
  780MPD2     N11512   2.337   4.214   0.738  0.5425 -0.1638  0.0754
  780MPD2    H511513   2.281   4.201   0.655 -0.1914  1.6051  0.3110
  780MPD2    N111514   2.067   3.853   0.933  0.3819  0.0558 -0.7937
  780MPD2    H711515   2.031   3.815   1.020  1.1601 -0.7920 -0.8390
  781MPD2     C11516   2.957   1.569  11.996  0.5635 -0.2496  0.3875
  781MPD2    C111517   3.085   1.518  11.972  0.3862 -0.1017 -0.3290
  781MPD2    C211518   3.124   1.490  11.840 -0.3399 -0.5575  0.5243
  781MPD2    C311519   3.045   1.530  11.730 -0.1930  0.7188  0.0499
  781MPD2    C411520   2.918   1.585  11.768 -0.5979 -0.0264 -0.5419
  781MPD2    C511521   2.875   1.607  11.898 -0.1389  0.8305  0.2658
  781MPD2     H11522   3.229   1.471  11.822  0.7425  4.4755  1.5538
  781MPD2    H111523   2.849   1.606  11.687 -0.2595  0.9692 -0.5754
  781MPD2    H211524   2.919   1.587  12.095  1.4668  0.6354  0.5716
  781MPD2    H311525   2.773   1.638  11.918 -1.2676 -1.0418 -2.4086
  781MPD2     N11526   3.081   1.512  11.598  0.0477  0.0850 -0.2697
  781MPD2    H511527   3.016   1.540  11.525  0.3515  3.1633  0.6294
  781MPD2    N111528   3.177   1.498  12.076 -0.4902  0.0661  0.3015
  781MPD2    H711529   3.269   1.464  12.051 -0.0351  1.5403 -0.0433
  782MPD2     C11530   1.181   2.539  10.386 -0.2833 -1.2071 -0.4261
  782MPD2    C111531   1.315   2.497  10.360  0.0572  0.2366 -0.2152
  782MPD2    C211532   1.413   2.538  10.456 -0.1100  0.0112  0.9018
  782MPD2    C311533   1.378   2.611  10.575  1.1444  0.3690  0.0950
  782MPD2    C411534   1.247   2.650  10.595  0.1057 -0.3126  0.0519
  782MPD2    C511535   1.155   2.615  10.501  0.0973 -0.4441  0.3085
  782MPD2     H11536   1.512   2.495  10.465 -0.6709 -1.1310  1.5316
  782MPD2    H111537   1.215   2.701  10.685  1.2503  0.4977 -0.0009
  782MPD2    H211538   1.101   2.498  10.326 -1.6139  1.5272 -0.5050
  782MPD2    H311539   1.055   2.655  10.505  0.6320  0.8385  0.9566
  782MPD2     N11540   1.484   2.630  10.672  0.1653  0.0984 -0.3323
  782MPD2    H511541   1.572   2.584  10.649  0.8747  1.0952  0.4378
  782MPD2    N111542   1.336   2.398  10.266 -0.0239  1.2283  0.1811
  782MPD2    H711543   1.263   2.354  10.210 -0.4796  0.8616  1.0592
  783MPD2     C11544   1.007   1.684  10.610 -0.3017  0.2312  0.7331
  783MPD2    C111545   1.031   1.813  10.648 -0.2318  0.0280 -0.1597
  783MPD2    C211546   1.099   1.892  10.562 -1.0299  0.8636  0.1794
  783MPD2    C311547   1.153   1.845  10.437 -1.2043  0.2421  0.8366
  783MPD2    C411548   1.121   1.724  10.397 -0.2601 -0.2586  0.2855
  783MPD2    C511549   1.047   1.641  10.487  0.2415  0.2019  0.9335
  783MPD2     H11550   1.128   1.994  10.584  0.0302  0.5694  0.1514
  783MPD2    H111551   1.157   1.683  10.303  2.4124 -1.0454  1.6551
  783MPD2    H211552   0.936   1.627  10.669  0.4824 -0.8172  0.6601
  783MPD2    H311553   1.037   1.536  10.463 -2.5193  0.3271  1.5649
  783MPD2     N11554   1.244   1.927  10.360 -0.1023 -0.2412 -0.2297
  783MPD2    H511555   1.253   2.024  10.390  1.6566 -0.5544  0.2855
  783MPD2    N111556   0.999   1.858  10.781  0.6667  0.5751 -0.0858
  783MPD2    H711557   0.946   1.792  10.836  1.8965  1.1589  1.8006
  784MPD2     C11558   3.968   2.554   0.555 -0.3247  0.6365 -0.4000
  784MPD2    C111559   3.907   2.596   0.667 -0.5793 -0.1997 -0.4082
  784MPD2    C211560   3.793   2.672   0.648  0.8953 -0.3319 -0.4439
  784MPD2    C311561   3.725   2.682   0.530  0.3795  0.0144  0.3525
  784MPD2    C411562   3.784   2.616   0.420 -0.1059 -0.1175 -0.3617
  784MPD2    C511563   3.908   2.561   0.433  0.2758  0.1154  0.1579
  784MPD2     H11564   3.745   2.706   0.739  0.6944  1.9006 -1.3962
  784MPD2    H111565   3.739   2.632   0.322  0.2440 -0.4074 -0.5690
  784MPD2    H211566   4.063   2.500   0.559 -1.4805 -1.3706 -0.0272
  784MPD2    H311567   3.970   2.535   0.348 -1.2100  0.3512 -0.9866
  784MPD2     N11568   3.606   2.756   0.523  0.4170 -0.0179  0.3561
  784MPD2    H511569   3.588   2.814   0.604  1.8054  0.2006  0.5214
  784MPD2    N111570   3.963   2.580   0.798  0.7030 -0.6462  0.0128
  784MPD2    H711571   3.901   2.611   0.872  2.2547  0.2949  0.9056
  785MPD2     C11572   3.943   0.556  10.704  0.7141 -0.4030  0.0932
  785MPD2    C111573   3.864   0.642  10.640 -0.1552  0.3485  1.1850
  785MPD2    C211574   3.843   0.629  10.505  0.2112 -0.3828  0.1251
  785MPD2    C311575   3.905   0.532  10.427 -0.4986  0.3230 -0.5841
  785MPD2    C411576   3.971   0.431  10.495 -0.6684 -0.0555 -0.3205
  785MPD2    C511577   3.987   0.451  10.631 -0.4962  0.1183  0.2116
  785MPD2     H11578   3.795   0.711  10.452  1.5675  0.8738  0.8218
  785MPD2    H111579   4.021   0.349  10.445  3.9429  1.9277  1.0335
  785MPD2    H211580   3.972   0.575  10.807 -2.3306  0.5785  0.7733
  785MPD2    H311581   4.048   0.381  10.688  0.9302  0.6881 -0.6258
  785MPD2     N11582   3.882   0.529  10.287 -0.0829 -0.4323  0.1173
  785MPD2    H511583   3.810   0.594  10.260  1.2880  1.0794  0.1243
  785MPD2    N111584   3.794   0.739  10.714  0.4367 -0.0339 -0.5958
  785MPD2    H711585   3.729   0.790  10.655  0.5081  1.0361  0.2486
  786MPD2     C11586   2.011   3.887  14.642 -0.7144  0.7020  0.7956
  786MPD2    C111587   2.132   3.820  14.652 -0.7744  0.9334  0.0567
  786MPD2    C211588   2.221   3.853  14.754 -0.5887 -0.0991  0.2424
  786MPD2    C311589   2.199   3.956  14.842 -0.2224  0.0994  0.0451
  786MPD2    C411590   2.079   4.023  14.828  0.0945  0.5432  0.4779
  786MPD2    C511591   1.982   3.982  14.736  0.0100  0.7128  0.5649
  786MPD2     H11592   2.313   3.796  14.765  1.5802  3.4436  0.5085
  786MPD2    H111593   2.050   4.117  14.875 -3.7778 -1.7271  2.6552
  786MPD2    H211594   1.933   3.862  14.571 -0.1635  0.5281  0.2587
  786MPD2    H311595   1.896   4.048  14.728  1.1537  2.0022 -1.0350
  786MPD2     N11596   2.290   3.997  14.943  0.0689  0.1055 -0.5118
  786MPD2    H511597   2.261   4.075  15.001  1.6059  0.2630  0.0452
  786MPD2    N111598   2.179   3.727  14.562  0.0294 -0.3921 -0.1171
  786MPD2    H711599   2.269   3.693  14.594 -0.4101 -1.0654  0.3991
  787MPD2     C11600   2.433   2.936  14.371 -0.1224 -1.0054  0.0356
  787MPD2    C111601   2.457   3.065  14.421  0.3114 -0.3349 -0.7366
  787MPD2    C211602   2.547   3.078  14.525  0.2671 -0.5041  0.4393
  787MPD2    C311603   2.611   2.969  14.578 -0.4596 -0.1466 -0.0028
  787MPD2    C411604   2.577   2.841  14.532  0.1149 -0.4046 -0.1824
  787MPD2    C511605   2.495   2.830  14.429 -0.1470 -0.2165 -0.4210
  787MPD2     H11606   2.579   3.178  14.552  2.4046 -0.9778 -0.3105
  787MPD2    H111607   2.625   2.752  14.570  2.8066  1.8385  1.6839
  787MPD2    H211608   2.365   2.915  14.289 -0.9953 -1.4220  0.8515
  787MPD2    H311609   2.474   2.731  14.392  1.1677  0.0908 -1.9874
  787MPD2     N11610   2.713   2.979  14.676 -0.4036  0.2228 -0.1838
  787MPD2    H511611   2.743   3.071  14.707 -0.0955 -0.6458  2.0832
  787MPD2    N111612   2.399   3.181  14.362 -0.2016 -0.6780  0.2620
  787MPD2    H711613   2.360   3.171  14.269 -3.5197 -1.0572  1.6868
  788MPD2     C11614   4.544   1.682   1.000  0.3518  0.5993 -0.0813
  788MPD2    C111615   4.510   1.574   0.923 -0.3838  0.3071 -1.2212
  788MPD2    C211616   4.509   1.590   0.788  0.2687 -0.3971  0.1527
  788MPD2    C311617   4.550   1.709   0.728  0.0505  0.0262  0.3368
  788MPD2    C411618   4.584   1.815   0.804  0.2062 -0.2191 -0.0838
  788MPD2    C511619   4.587   1.799   0.940 -0.5275  1.0554 -0.3227
  788MPD2     H11620   4.482   1.498   0.736 -0.9126  0.5026 -0.8069
  788MPD2    H111621   4.594   1.916   0.766  0.1024  0.2898  1.2544
  788MPD2    H211622   4.556   1.669   1.107 -1.4121 -2.3478 -0.2433
  788MPD2    H311623   4.600   1.892   0.994  0.0869  1.2985 -0.8806
  788MPD2     N11624   4.549   1.724   0.588 -0.9263  0.7833 -0.2651
  788MPD2    H511625   4.593   1.804   0.543  0.0698 -1.8287 -3.9565
  788MPD2    N111626   4.468   1.446   0.972  0.1474 -0.3432  0.1317
  788MPD2    H711627   4.441   1.377   0.903 -0.6127 -0.0239  0.1149
  789MPD2     C11628   0.506   1.542  16.500  0.4275 -1.0745 -0.3941
  789MPD2    C111629   0.396   1.514  16.420 -0.0572 -0.5719  1.0373
  789MPD2    C211630   0.283   1.593  16.435  0.2534  0.1478 -0.0378
  789MPD2    C311631   0.264   1.681  16.536  0.2427  0.7697  0.9714
  789MPD2    C411632   0.370   1.695  16.628  0.2043  0.3878  0.0289
  789MPD2    C511633   0.492   1.636  16.599  0.0180  0.2315 -0.5621
  789MPD2     H11634   0.197   1.587  16.370  1.2096  2.5822 -1.5285
  789MPD2    H111635   0.375   1.762  16.713 -2.1038  0.6591 -0.0481
  789MPD2    H211636   0.603   1.498  16.479  1.6009 -0.1548  3.1349
  789MPD2    H311637   0.570   1.666  16.668 -0.9236  1.4451 -0.0319
  789MPD2     N11638   0.150   1.759  16.564 -0.1017  0.0367  0.3171
  789MPD2    H511639   0.153   1.830  16.636  2.5742  0.2756 -0.0255
  789MPD2    N111640   0.396   1.420  16.312  0.4259  0.2713  0.0950
  789MPD2    H711641   0.324   1.427  16.240 -1.2194 -1.7144  1.5475
  790MPD2     C11642   1.212   3.824  13.332 -0.4643 -0.1233  0.7865
  790MPD2    C111643   1.171   3.725  13.419  0.0989  0.0460  0.4269
  790MPD2    C211644   1.096   3.616  13.371  0.1041  0.3541  0.5149
  790MPD2    C311645   1.074   3.599  13.238 -0.3171 -0.9470 -0.0613
  790MPD2    C411646   1.122   3.691  13.152  0.5000 -0.0685 -0.3020
  790MPD2    C511647   1.191   3.799  13.196 -0.2853 -0.4395  0.7378
  790MPD2     H11648   1.060   3.534  13.432 -0.8537 -0.1009 -0.6707
  790MPD2    H111649   1.113   3.689  13.044  1.4816  0.4120 -0.3988
  790MPD2    H211650   1.277   3.908  13.355  1.9617 -2.1063  1.1191
  790MPD2    H311651   1.235   3.858  13.117 -0.3799 -0.1213  0.9224
  790MPD2     N11652   1.010   3.484  13.188 -0.2355 -0.1033 -0.7351
  790MPD2    H511653   0.986   3.412  13.255  0.2087  0.3069 -0.1349
  790MPD2    N111654   1.210   3.751  13.553  0.1983  0.2448 -0.0516
  790MPD2    H711655   1.254   3.839  13.579  0.7169  0.5421 -1.9673
  791MPD2     C11656   0.347   3.290  13.140 -0.8658  0.5307  1.0992
  791MPD2    C111657   0.432   3.247  13.048 -0.6209 -0.4716 -0.6386
  791MPD2    C211658   0.385   3.219  12.919  0.8270  0.5478  0.2954
  791MPD2    C311659   0.255   3.242  12.884 -0.2519 -0.0630 -0.5599
  791MPD2    C411660   0.168   3.282  12.986 -0.4845 -0.1549  0.6543
  791MPD2    C511661   0.216   3.307  13.111 -0.6047  0.0711  0.3296
  791MPD2     H11662   0.448   3.189  12.836 -0.8548  0.1185 -0.8348
  791MPD2    H111663   0.061   3.292  12.973 -0.5882 -2.8226 -0.6286
  791MPD2    H211664   0.374   3.306  13.244 -0.6338  1.4005  0.9029
  791MPD2    H311665   0.165   3.335  13.202 -0.1735  0.1513  0.5466
  791MPD2     N11666   0.212   3.219  12.748 -0.0298 -0.2470 -0.5818
  791MPD2    H511667   0.278   3.190  12.676  1.3220  0.4057  0.3848
  791MPD2    N111668   0.569   3.224  13.080 -0.4649 -0.5504  0.0174
  791MPD2    H711669   0.607   3.242  13.172  4.3169  2.5557 -2.6006
  792MPD2     C11670   1.472   3.056  11.435 -0.6961 -0.5033  0.4959
  792MPD2    C111671   1.360   3.134  11.401 -0.2679  0.3280  0.2895
  792MPD2    C211672   1.244   3.065  11.372  0.0463 -0.2502  0.0219
  792MPD2    C311673   1.232   2.926  11.385  0.2508  0.0826 -0.4581
  792MPD2    C411674   1.347   2.858  11.419 -0.3846 -0.2338  0.2176
  792MPD2    C511675   1.467   2.921  11.446  0.2426  0.2817 -0.3457
  792MPD2     H11676   1.157   3.115  11.332  0.1625  1.4995  1.9161
  792MPD2    H111677   1.355   2.752  11.438  1.6548 -0.1407 -0.1246
  792MPD2    H211678   1.564   3.111  11.450  0.2225 -1.8292 -0.2655
  792MPD2    H311679   1.554   2.865  11.480  0.5981  0.5976 -0.7288
  792MPD2     N11680   1.105   2.861  11.364  0.4395  0.3860  0.2737
  792MPD2    H511681   1.110   2.761  11.345  0.5158  0.7179 -1.4794
  792MPD2    N111682   1.382   3.270  11.372  0.2839  0.1512  0.3679
  792MPD2    H711683   1.479   3.299  11.379  0.2349  0.4819 -0.3017
  793MPD2     C11684   0.692   3.004  10.528 -0.2203  0.3989  0.4713
  793MPD2    C111685   0.812   2.961  10.574  0.3500  0.7097  0.0651
  793MPD2    C211686   0.819   2.914  10.700 -0.5236 -0.8360  0.3169
  793MPD2    C311687   0.715   2.918  10.789  0.3826 -0.4980  0.3956
  793MPD2    C411688   0.590   2.957  10.744 -0.1206 -0.0342 -0.3457
  793MPD2    C511689   0.578   2.995  10.614 -0.3582  0.7520 -0.1771
  793MPD2     H11690   0.918   2.884  10.733 -0.6775 -0.6247  0.9837
  793MPD2    H111691   0.503   2.955  10.808  0.1416  1.9202  0.0777
  793MPD2    H211692   0.684   3.066  10.439  0.0772 -1.2867 -0.7261
  793MPD2    H311693   0.481   3.029  10.578 -0.8170  0.4102  0.7494
  793MPD2     N11694   0.736   2.866  10.915 -0.2142  0.1444 -0.1356
  793MPD2    H511695   0.826   2.821  10.930 -0.4963  0.5880  2.8546
  793MPD2    N111696   0.934   2.968  10.504 -0.7883  0.3413  0.2254
  793MPD2    H711697   1.016   2.932  10.553 -1.5082 -0.1993  1.0359
  794MPD2     C11698   0.571   2.522  16.955 -0.7278 -0.7736 -0.1424
  794MPD2    C111699   0.638   2.623  17.022  0.5519  0.0901 -0.6068
  794MPD2    C211700   0.715   2.716  16.962  0.4142  0.2061  0.3087
  794MPD2    C311701   0.730   2.710  16.825 -0.2506 -0.0099  0.3861
  794MPD2    C411702   0.672   2.608  16.757 -0.2138 -0.0507 -0.3530
  794MPD2    C511703   0.588   2.517  16.820  0.1252  0.0874 -0.5506
  794MPD2     H11704   0.766   2.790  17.023 -1.2018  0.8401  0.8838
  794MPD2    H111705   0.669   2.598  16.649  1.0364  0.0845 -0.3931
  794MPD2    H211706   0.504   2.450  16.999 -1.0907 -0.1652  0.3115
  794MPD2    H311707   0.544   2.437  16.762 -3.3941  0.3854  1.7340
  794MPD2     N11708   0.778   2.819  16.748  0.7581  0.4300  0.2000
  794MPD2    H511709   0.772   2.802  16.648  2.2326  1.2863 -0.0318
  794MPD2    N111710   0.635   2.634  17.162  0.0789 -0.2939  0.4199
  794MPD2    H711711   0.689   2.713  17.198 -0.2039  0.1492 -0.1244
  795MPD2     C11712   3.309   0.237  13.391 -0.0956  0.0515 -0.4195
  795MPD2    C111713   3.284   0.129  13.302 -0.7328  0.2241 -0.1151
  795MPD2    C211714   3.389   0.044  13.271 -0.2124 -0.0178 -0.8419
  795MPD2    C311715   3.516   0.072  13.313 -0.1148 -0.3502 -0.8440
  795MPD2    C411716   3.535   0.177  13.403  0.4286  0.1797 -0.3628
  795MPD2    C511717   3.434   0.250  13.445  0.0906 -0.4061 -1.0753
  795MPD2     H11718   3.380   4.681  13.207 -1.3140 -0.2308 -0.4094
  795MPD2    H111719   3.632   0.199  13.446 -0.0428  0.2842  0.6491
  795MPD2    H211720   3.229   0.303  13.422 -1.5697 -1.0935 -1.7968
  795MPD2    H311721   3.448   0.334  13.512 -0.9135  0.3901 -1.8606
  795MPD2     N11722   3.617   4.718  13.261  0.2178 -0.5478  0.1818
  795MPD2    H511723   3.587   4.645  13.197  1.4494  0.4727 -1.5415
  795MPD2    N111724   3.158   0.111  13.247 -0.1728 -0.1676  0.0598
  795MPD2    H711725   3.140   0.023  13.200 -2.0439  0.4760 -0.4354
  796MPD2     C11726   2.724   2.192  15.858 -0.1485 -0.1352  0.2831
  796MPD2    C111727   2.845   2.189  15.925  0.0851  0.2955  0.7783
  796MPD2    C211728   2.914   2.309  15.949 -0.1809 -0.2437 -0.2320
  796MPD2    C311729   2.859   2.427  15.898 -0.4675 -0.4554 -0.1563
  796MPD2    C411730   2.737   2.429  15.833  0.7394 -0.5683  0.0254
  796MPD2    C511731   2.668   2.312  15.817 -0.2193 -0.4370 -0.1939
  796MPD2     H11732   3.011   2.319  15.999  0.0530  0.5706 -0.8451
  796MPD2    H111733   2.689   2.518  15.794 -0.0330 -1.7320 -1.6734
  796MPD2    H211734   2.674   2.098  15.838  1.4603 -1.0168  0.3982
  796MPD2    H311735   2.574   2.316  15.764 -0.3025 -1.7901 -0.1502
  796MPD2     N11736   2.934   2.545  15.910 -0.5553  0.0182 -0.0608
  796MPD2    H511737   3.026   2.531  15.951 -0.1630 -0.7862 -1.2238
  796MPD2    N111738   2.896   2.063  15.960 -0.2737  0.0220 -0.1029
  796MPD2    H711739   2.861   1.987  15.904 -0.4831 -0.1460  0.2551
  797MPD2     C11740   3.672   1.307  17.057 -0.0292 -0.6406  0.6229
  797MPD2    C111741   3.758   1.405  17.105 -0.5517 -0.2955 -0.3585
  797MPD2    C211742   3.772   1.524  17.037 -0.2662 -0.5858  1.0424
  797MPD2    C311743   3.685   1.558  16.929 -0.4472  0.2492 -0.0299
  797MPD2    C411744   3.588   1.463  16.897  0.0021 -0.6112 -0.2554
  797MPD2    C511745   3.580   1.339  16.957  0.4825 -0.9335 -0.0508
  797MPD2     H11746   3.858   1.581  17.071  0.2323 -0.6653 -0.0918
  797MPD2    H111747   3.523   1.485  16.813  0.2845 -0.7356 -0.5030
  797MPD2    H211748   3.666   1.212  17.109 -1.1394 -2.9692 -3.7482
  797MPD2    H311749   3.500   1.270  16.934 -0.6238  0.0416  0.8354
  797MPD2     N11750   3.698   1.678  16.848 -0.4210 -0.6276 -0.4076
  797MPD2    H511751   3.636   1.684  16.768 -0.7746  0.2665 -0.0682
  797MPD2    N111752   3.839   1.395  17.221 -0.4815 -0.3855  0.5052
  797MPD2    H711753   3.904   1.472  17.231  0.2719 -1.0480  0.7049
  798MPD2     C11754   4.364   1.795  16.945  0.3390 -0.1072  0.2613
  798MPD2    C111755   4.231   1.802  16.976 -0.3948 -0.1459 -0.3214
  798MPD2    C211756   4.194   1.731  17.084 -0.0657  0.1693 -0.1085
  798MPD2    C311757   4.275   1.657  17.162  0.0815 -0.1425 -0.8699
  798MPD2    C411758   4.412   1.652  17.135 -0.2919  0.6153 -0.5614
  798MPD2    C511759   4.452   1.721  17.022 -0.4036  0.0496  0.8460
  798MPD2     H11760   4.087   1.743  17.100  0.0503 -0.1259  0.8875
  798MPD2    H111761   4.481   1.589  17.189 -1.8474 -1.5744 -1.1173
  798MPD2    H211762   4.401   1.856  16.864  0.5692  0.4710  0.8094
  798MPD2    H311763   4.558   1.727  16.998 -0.4681 -1.0884  0.2542
  798MPD2     N11764   4.210   1.584  17.270 -0.5420  0.3744 -0.7861
  798MPD2    H511765   4.111   1.605  17.277 -0.3285  0.7626  0.9394
  798MPD2    N111766   4.130   1.874  16.909 -0.5374 -0.0319 -0.3204
  798MPD2    H711767   4.033   1.861  16.935 -0.3308 -0.0011  0.4677
  799MPD2     C11768   3.070   2.871  14.445 -0.8147  0.3572  0.0506
  799MPD2    C111769   2.951   2.813  14.389  0.0658 -0.3301 -0.3829
  799MPD2    C211770   2.865   2.888  14.319  0.1055  0.2960  0.0005
  799MPD2    C311771   2.887   3.021  14.290  0.1650 -0.3119 -0.4316
  799MPD2    C411772   3.001   3.073  14.337  0.1056  0.6895  0.4356
  799MPD2    C511773   3.091   3.002  14.407 -0.3626 -0.6512 -0.1054
  799MPD2     H11774   2.781   2.842  14.268  1.1648  0.9537 -2.3628
  799MPD2    H111775   3.028   3.177  14.318  2.0633  0.5275  2.2616
  799MPD2    H211776   3.144   2.814  14.500 -3.0103 -0.2657  2.3604
  799MPD2    H311777   3.185   3.044  14.438 -0.8676 -0.2593  0.8907
  799MPD2     N11778   2.803   3.108  14.216  0.0839  0.4898 -0.1883
  799MPD2    H511779   2.825   3.207  14.220  1.1702  0.2237  0.6392
  799MPD2    N111780   2.928   2.677  14.420  0.9313  0.4602  0.0251
  799MPD2    H711781   2.852   2.634  14.369  1.9769 -1.0240 -0.2915
  800MPD2     C11782   2.936   4.455  13.865 -0.0747  0.0728  0.3234
  800MPD2    C111783   3.042   4.456  13.774 -0.1084  0.2429  0.6642
  800MPD2    C211784   3.067   4.342  13.697  0.5995  0.3546  0.8446
  800MPD2    C311785   2.990   4.227  13.703 -0.1783  0.9394 -0.0487
  800MPD2    C411786   2.871   4.238  13.780  0.0823 -0.0873  0.3127
  800MPD2    C511787   2.842   4.353  13.852 -1.1065  0.0655 -0.8053
  800MPD2     H11788   3.166   4.328  13.654  0.4908  1.5194  0.2201
  800MPD2    H111789   2.795   4.161  13.775  0.4409 -0.3799 -0.6793
  800MPD2    H211790   2.914   4.548  13.915  1.7013  0.6719 -0.0292
  800MPD2    H311791   2.749   4.352  13.907 -0.6887  1.2213 -0.0783
  800MPD2     N11792   3.044   4.108  13.657  0.1625 -0.2789 -0.1748
  800MPD2    H511793   3.142   4.104  13.631 -0.0486  1.9837 -1.3205
  800MPD2    N111794   3.142   4.558  13.784  0.0504 -0.2080 -0.0416
  800MPD2    H711795   3.131   4.623  13.861  0.2205 -2.5685  1.9520
  801MPD2     C11796   3.451   0.010  14.282  0.6903  0.5407 -0.3671
  801MPD2    C111797   3.339   0.040  14.207 -0.2865  1.0590  0.0592
  801MPD2    C211798   3.219   4.714  14.247 -0.3927  0.1971  0.0871
  801MPD2    C311799   3.209   4.637  14.365  0.4510  0.4926  0.2064
  801MPD2    C411800   3.325   4.610  14.437  0.2722  0.6128 -0.3776
  801MPD2    C511801   3.446   4.656  14.390 -0.3637 -0.3267 -0.2621
  801MPD2     H11802   3.135   0.009  14.180 -1.7819 -0.4621  1.6583
  801MPD2    H111803   3.314   4.568  14.536 -0.1808  0.6437 -0.4145
  801MPD2    H211804   3.548   0.053  14.260  0.2723  0.9388 -1.3894
  801MPD2    H311805   3.534   4.646  14.452  0.0157  2.0154 -0.4551
  801MPD2     N11806   3.087   4.590  14.416 -0.2491 -0.0425 -0.2733
  801MPD2    H511807   3.100   4.522  14.490  1.0541 -1.3055 -1.6623
  801MPD2    N111808   3.334   0.098  14.077 -0.6465  0.3302  0.5534
  801MPD2    H711809   3.247   0.101  14.026 -0.5136 -1.0908  0.2382
  802MPD2     C11810   2.168   0.270  17.106 -0.8308 -0.0257 -0.6289
  802MPD2    C111811   2.287   0.297  17.159 -0.2661  0.3452 -0.6477
  802MPD2    C211812   2.381   0.203  17.153 -0.0873 -0.1939 -0.2376
  802MPD2    C311813   2.376   0.089  17.079  0.6288 -0.2961 -0.3591
  802MPD2    C411814   2.257   0.072  17.012 -0.3742 -0.2277  0.3197
  802MPD2    C511815   2.153   0.155  17.022  0.0615  0.2309  0.2566
  802MPD2     H11816   2.469   0.211  17.217 -0.4554  0.4359  0.1839
  802MPD2    H111817   2.238   4.712  16.946 -0.0044 -0.0871  0.0358
  802MPD2    H211818   2.090   0.343  17.086  0.0219  1.1047  0.2455
  802MPD2    H311819   2.064   0.137  16.963  0.0176 -0.1532  0.4436
  802MPD2     N11820   2.494   0.005  17.071  0.6042 -0.0455  0.1339
  802MPD2    H511821   2.575   0.027  17.128 -0.6663  1.4455  1.3494
  802MPD2    N111822   2.320   0.406  17.244  0.2433 -0.0844  0.0529
  802MPD2    H711823   2.416   0.404  17.278 -0.0100  0.0838  0.7931
  803MPD2     C11824   3.651   3.161  11.652  0.3944 -0.1444  0.6388
  803MPD2    C111825   3.702   3.228  11.755 -0.1834  0.9815 -0.0479
  803MPD2    C211826   3.708   3.161  11.882  0.0684 -0.0600 -0.6662
  803MPD2    C311827   3.655   3.033  11.898  0.2872  0.6715 -0.2605
  803MPD2    C411828   3.597   2.971  11.788 -0.2814  0.6123  0.9429
  803MPD2    C511829   3.602   3.034  11.666  0.0756 -0.0358  0.3377
  803MPD2     H11830   3.740   3.222  11.965  0.1233 -0.4261 -0.4177
  803MPD2    H111831   3.560   2.869  11.795 -0.8927  0.8164  0.6443
  803MPD2    H211832   3.635   3.203  11.553 -1.4584  1.1794  1.4881
  803MPD2    H311833   3.560   2.981  11.580  2.3670 -1.6135  0.1825
  803MPD2     N11834   3.655   2.969  12.032 -0.3905  0.0174  0.1170
  803MPD2    H511835   3.601   2.886  12.053 -2.3914  1.0803 -0.7670
  803MPD2    N111836   3.761   3.360  11.748  0.2300 -0.1366  0.3541
  803MPD2    H711837   3.778   3.410  11.834 -4.0794  1.6957  0.1379
  804MPD2     C11838   3.379   0.078  16.834  1.0934  0.2473 -0.1005
  804MPD2    C111839   3.412   0.031  16.957 -0.8838 -0.4333  0.3415
  804MPD2    C211840   3.491   0.105  17.044 -0.5931 -0.6448 -0.1031
  804MPD2    C311841   3.558   0.216  16.994 -0.6984  0.2453  0.8633
  804MPD2    C411842   3.537   0.257  16.864 -0.1321 -0.2801 -0.1192
  804MPD2    C511843   3.438   0.193  16.786  0.0988  0.0706  0.6084
  804MPD2     H11844   3.507   0.068  17.145  0.9354 -1.9648 -0.8152
  804MPD2    H111845   3.595   0.333  16.814 -0.0971 -0.0280  0.3071
  804MPD2    H211846   3.300   0.040  16.771  0.0971 -0.5074  1.5822
  804MPD2    H311847   3.415   0.231  16.687  1.9888  1.3819  0.6749
  804MPD2     N11848   3.653   0.284  17.079  0.3195  0.7041  0.2081
  804MPD2    H511849   3.656   0.254  17.176  0.6842 -1.9062 -0.5959
  804MPD2    N111850   3.366   4.630  17.003 -0.4943 -0.7163 -0.1825
  804MPD2    H711851   3.378   4.608  17.101 -1.3594 -0.3667 -0.0001
  805MPD2     C11852   2.632   3.237  14.952  0.4538 -0.3706 -0.0215
  805MPD2    C111853   2.646   3.122  15.024 -0.8460  0.3118 -0.0217
  805MPD2    C211854   2.740   3.119  15.127 -0.0582  0.2534  0.0449
  805MPD2    C311855   2.791   3.232  15.177  0.0217 -0.2200  0.3168
  805MPD2    C411856   2.761   3.353  15.106  0.0423 -1.5332 -0.6466
  805MPD2    C511857   2.677   3.350  14.999  0.4925 -0.2990 -0.2786
  805MPD2     H11858   2.758   3.026  15.180  1.5082 -0.7456 -2.2641
  805MPD2    H111859   2.787   3.451  15.145 -1.7572 -1.8844  1.4471
  805MPD2    H211860   2.554   3.244  14.876 -1.7424  0.2802  2.2804
  805MPD2    H311861   2.646   3.441  14.949 -0.5006 -0.7149 -0.4111
  805MPD2     N11862   2.855   3.247  15.301  0.1121 -0.1987  0.8905
  805MPD2    H511863   2.848   3.340  15.341  0.3295  0.9105 -1.6558
  805MPD2    N111864   2.566   3.001  15.003  0.1878 -0.0227  0.3529
  805MPD2    H711865   2.586   2.918  15.057 -0.2987 -0.8193 -0.6999
  806MPD2     C11866   3.041   2.571   0.495 -0.0080  0.9607 -0.6415
  806MPD2    C111867   3.168   2.524   0.518 -0.5181 -0.2894  0.3334
  806MPD2    C211868   3.254   2.535   0.406  0.5871 -0.3080  0.2388
  806MPD2    C311869   3.202   2.562   0.280 -0.1735 -0.2296  0.2903
  806MPD2    C411870   3.067   2.586   0.261 -0.0306 -0.0520  0.0052
  806MPD2    C511871   2.988   2.589   0.370 -0.1651 -0.3699  0.6546
  806MPD2     H11872   3.359   2.518   0.424  0.8953  0.2827 -0.9956
  806MPD2    H111873   3.017   2.622   0.172 -1.6984  0.6030  1.2170
  806MPD2    H211874   2.975   2.594   0.577 -0.2046  1.4197 -0.9283
  806MPD2    H311875   2.885   2.616   0.352  0.1917 -0.1694 -1.0474
  806MPD2     N11876   3.292   2.568   0.168  0.8202 -0.5158 -0.7895
  806MPD2    H511877   3.391   2.562   0.190 -0.0191 -2.6113  2.4217
  806MPD2    N111878   3.207   2.502   0.647  0.7335 -0.1882 -0.6621
  806MPD2    H711879   3.140   2.509   0.722  1.1766 -0.6508 -0.2136
  807MPD2     C11880   2.967   2.028   1.164 -0.3828 -0.2419  0.3701
  807MPD2    C111881   3.104   2.044   1.184 -0.0100  0.2706 -0.4360
  807MPD2    C211882   3.175   1.948   1.258 -0.4237  1.4891 -0.7071
  807MPD2    C311883   3.110   1.838   1.316 -0.7305  0.0956  0.7546
  807MPD2    C411884   2.975   1.822   1.295  0.5975 -0.5385  0.3136
  807MPD2    C511885   2.908   1.920   1.223  0.3903  0.2482  0.0399
  807MPD2     H11886   3.283   1.946   1.273 -0.2794  1.1260 -1.8176
  807MPD2    H111887   2.917   1.749   1.350 -1.1301  0.5175 -0.0801
  807MPD2    H211888   2.902   2.105   1.124 -1.0941 -0.7089  0.6272
  807MPD2    H311889   2.801   1.910   1.231  0.4342 -0.0256  0.2848
  807MPD2     N11890   3.190   1.742   1.372 -0.0099  0.0503  0.4260
  807MPD2    H511891   3.286   1.765   1.392 -0.0289 -0.2803  0.8839
  807MPD2    N111892   3.186   2.149   1.144 -0.2449 -0.1763 -0.3861
  807MPD2    H711893   3.283   2.148   1.175 -0.6817 -0.0181  0.9869
  808MPD2     C11894   3.722   1.993   9.032 -0.0281  0.9061  0.3717
  808MPD2    C111895   3.650   2.069   9.123 -0.0646  0.9071 -0.3749
  808MPD2    C211896   3.732   2.147   9.203  0.5451 -0.5171  0.7903
  808MPD2    C311897   3.870   2.150   9.195 -0.3443 -0.3339  0.5331
  808MPD2    C411898   3.936   2.066   9.111  0.3709  0.0362  0.1171
  808MPD2    C511899   3.862   1.986   9.029 -0.3284 -0.3512 -0.1865
  808MPD2     H11900   3.682   2.208   9.278 -0.1232 -0.9015  0.6644
  808MPD2    H111901   4.044   2.063   9.103  0.2143 -1.9277 -1.1879
  808MPD2    H211902   3.676   1.926   8.961 -0.3570  1.8778 -0.3185
  808MPD2    H311903   3.921   1.927   8.961  1.9002  2.4876 -0.7417
  808MPD2     N11904   3.959   2.235   9.269 -0.0368  0.3209  0.0243
  808MPD2    H511905   4.057   2.212   9.259 -0.5674 -2.5053  1.2516
  808MPD2    N111906   3.512   2.076   9.141 -0.4301  0.3207 -0.0741
  808MPD2    H711907   3.482   2.137   9.216 -0.9279  0.1877 -0.1646
  809MPD2     C11908   0.012   2.523   9.010 -0.4480  0.1912 -0.3269
  809MPD2    C111909   4.706   2.622   9.097 -0.7435  0.6340  0.1165
  809MPD2    C211910   4.610   2.600   9.191 -0.5353 -0.4818 -0.1275
  809MPD2    C311911   4.532   2.485   9.190  0.4947  0.2109  0.2438
  809MPD2    C411912   4.552   2.390   9.092 -0.1761 -0.1620 -0.1486
  809MPD2    C511913   4.656   2.412   9.004  0.2084  0.3543  0.1156
  809MPD2     H11914   4.586   2.679   9.261  0.0323 -0.9786  0.6166
  809MPD2    H111915   4.493   2.299   9.089 -0.4476 -0.1096  3.8607
  809MPD2    H211916   0.090   2.539   8.936 -1.5096  0.8411 -1.3027
  809MPD2    H311917   4.683   2.342   8.926 -1.4175  0.8273 -0.8553
  809MPD2     N11918   4.424   2.463   9.276 -0.3514 -0.3886  0.3016
  809MPD2    H511919   4.385   2.371   9.264  0.7999 -0.8107 -0.2234
  809MPD2    N111920   0.048   2.747   9.098 -0.1233 -0.0345 -0.3477
  809MPD2    H711921   0.025   2.812   9.173  0.4647  0.8191 -0.9088
  810MPD2     C11922   3.373   2.580   9.854 -0.9037 -0.4932 -0.2589
  810MPD2    C111923   3.283   2.668   9.913  0.4874 -0.7129  0.4457
  810MPD2    C211924   3.319   2.753  10.016 -0.2488  0.1343  0.7768
  810MPD2    C311925   3.447   2.755  10.060  0.2034 -0.6774  0.1703
  810MPD2    C411926   3.536   2.675   9.993  1.1242  0.0003 -0.1458
  810MPD2    C511927   3.503   2.581   9.896  0.6844 -0.1380 -0.0641
  810MPD2     H11928   3.237   2.814  10.053  1.1603  0.9469  2.5537
  810MPD2    H111929   3.639   2.681  10.025  1.1851 -0.3594 -0.2810
  810MPD2    H211930   3.352   2.515   9.770 -1.8374  3.2829 -2.9132
  810MPD2    H311931   3.574   2.511   9.854  2.2711  1.8038 -0.5599
  810MPD2     N11932   3.496   2.850  10.143  0.0349  0.9414 -0.6856
  810MPD2    H511933   3.598   2.853  10.148  0.0158  0.9413 -0.2432
  810MPD2    N111934   3.147   2.651   9.881 -0.1876  0.7701  0.5560
  810MPD2    H711935   3.072   2.687   9.940 -0.9708 -1.4418  0.9073
  811MPD2     C11936   2.759   2.859   9.259  0.5670 -0.8970 -0.1255
  811MPD2    C111937   2.724   2.852   9.390  0.7344 -0.1454  0.2239
  811MPD2    C211938   2.653   2.961   9.441  0.3077 -0.1516  0.4818
  811MPD2    C311939   2.635   3.076   9.358  0.1787  0.0882  0.4174
  811MPD2    C411940   2.671   3.077   9.227  0.2295  1.0835 -0.6771
  811MPD2    C511941   2.728   2.962   9.180 -1.1317 -0.0339 -0.4811
  811MPD2     H11942   2.620   2.965   9.544  1.0950  1.6681  0.6756
  811MPD2    H111943   2.639   3.150   9.154  0.9279  1.1743 -0.8897
  811MPD2    H211944   2.802   2.778   9.201 -0.8010  0.0577 -2.4736
  811MPD2    H311945   2.748   2.970   9.074 -2.0599  0.8621 -0.5913
  811MPD2     N11946   2.548   3.173   9.414  0.3024  0.4248  0.9826
  811MPD2    H511947   2.521   3.165   9.511  3.4386  1.9617  1.9722
  811MPD2    N111948   2.750   2.734   9.465  0.0411  0.2179 -0.4309
  811MPD2    H711949   2.814   2.667   9.423  2.6263  1.9178  0.7614
  812MPD2     C11950   1.994   2.969  11.965  0.2014  0.2314 -0.4265
  812MPD2    C111951   1.936   3.060  12.052 -0.1367 -0.2813 -0.2325
  812MPD2    C211952   1.879   3.013  12.170 -0.2731  1.2267  0.4442
  812MPD2    C311953   1.881   2.880  12.202 -0.7362 -0.2604 -0.3240
  812MPD2    C411954   1.941   2.787  12.115  0.0703  0.1094 -0.3844
  812MPD2    C511955   1.993   2.832  12.001 -0.5802  0.1727 -0.1212
  812MPD2     H11956   1.828   3.078  12.240 -0.5184  0.9811  0.4971
  812MPD2    H111957   1.968   2.687  12.147  1.5169  0.4679 -0.4993
  812MPD2    H211958   2.040   3.003  11.873  2.2148  1.6073  1.0969
  812MPD2    H311959   2.042   2.756  11.941 -1.3826 -0.7382  0.3868
  812MPD2     N11960   1.821   2.849  12.328 -0.0316 -0.0678  0.5580
  812MPD2    H511961   1.792   2.925  12.389 -0.3162  0.5776 -0.3726
  812MPD2    N111962   1.940   3.197  12.013 -0.6664  0.6900 -0.2373
  812MPD2    H711963   1.992   3.209  11.926  0.0318 -1.6672 -0.1454
  813MPD2     C11964   1.063   0.385  12.758 -0.0217  0.3038 -0.2219
  813MPD2    C111965   1.073   0.520  12.787 -0.3240 -0.2356  0.5726
  813MPD2    C211966   0.986   0.575  12.878  0.1769  0.7545  0.4409
  813MPD2    C311967   0.906   0.489  12.950 -0.2849  0.4175  0.6315
  813MPD2    C411968   0.886   0.360  12.911  0.7248 -0.1421  0.0021
  813MPD2    C511969   0.960   0.307  12.812 -0.3884  0.1364  0.5162
  813MPD2     H11970   0.979   0.678  12.913 -0.0231  0.3186  1.6879
  813MPD2    H111971   0.816   0.303  12.972  1.4450 -0.5069  0.4771
  813MPD2    H211972   1.131   0.337  12.688 -0.5303  1.4744 -1.5306
  813MPD2    H311973   0.947   0.200  12.800 -0.0021  0.1606 -0.0715
  813MPD2     N11974   0.851   0.538  13.070  0.5108 -0.2801  0.0125
  813MPD2    H511975   0.860   0.639  13.083 -2.3765 -0.0508  0.0781
  813MPD2    N111976   1.186   0.595  12.735 -0.1394  0.8161  0.0049
  813MPD2    H711977   1.270   0.544  12.713 -0.4803 -0.0752  0.7897
  814MPD2     C11978   1.501   1.540  12.254  0.2171  0.3773  0.1829
  814MPD2    C111979   1.528   1.603  12.134  0.1724  0.0851 -0.1972
  814MPD2    C211980   1.617   1.708  12.122  0.1032 -0.1968 -0.0205
  814MPD2    C311981   1.690   1.744  12.234  0.7162  0.0360 -0.5661
  814MPD2    C411982   1.671   1.685  12.353 -0.6702  0.2038 -0.2964
  814MPD2    C511983   1.571   1.589  12.360 -0.2219 -0.8079  0.2345
  814MPD2     H11984   1.617   1.772  12.034  0.2805  1.2917  1.0557
  814MPD2    H111985   1.720   1.718  12.444 -2.9306 -2.3579  1.8883
  814MPD2    H211986   1.431   1.460  12.281  0.7156 -0.9363 -2.4508
  814MPD2    H311987   1.558   1.540  12.455  1.0976  0.3111  0.9796
  814MPD2     N11988   1.779   1.856  12.227  0.2227 -0.1796 -0.3834
  814MPD2    H511989   1.845   1.875  12.302  0.3682 -0.1472 -0.5202
  814MPD2    N111990   1.469   1.566  12.019  0.0685 -0.5496 -0.1360
  814MPD2    H711991   1.494   1.625  11.940  1.7192  1.0026  1.5370
  815MPD2     C11992   1.977   0.616  11.358 -1.1500  0.1797  0.0287
  815MPD2    C111993   1.978   0.485  11.403  0.4851  0.3382 -0.2612
  815MPD2    C211994   1.901   0.443  11.505 -0.0866  0.1930 -0.7920
  815MPD2    C311995   1.819   0.527  11.573  0.2336 -0.3287  0.5408
  815MPD2    C411996   1.822   0.659  11.540  0.6181  0.2419 -0.2698
  815MPD2    C511997   1.898   0.703  11.435 -0.1805  0.4551  0.1217
  815MPD2     H11998   1.908   0.342  11.544  0.3227  0.7979  0.6968
  815MPD2    H111999   1.751   0.728  11.584 -1.0938 -2.2058  0.7974
  815MPD2    H212000   2.033   0.656  11.275  1.2349  1.5278  2.3184
  815MPD2    H312001   1.885   0.807  11.409 -0.7025 -0.1132 -1.8501
  815MPD2     N12002   1.725   0.463  11.658 -0.4853  0.1307  0.4777
  815MPD2    H512003   1.736   0.363  11.672 -2.7111 -0.2493 -0.5157
  815MPD2    N112004   2.048   0.388  11.322 -0.3195 -0.2646 -0.4090
  815MPD2    H712005   2.098   0.427  11.243 -1.2373 -1.6662 -1.6754
  816MPD2     C12006   2.474   4.466  17.397  0.7733 -0.3566 -0.2725
  816MPD2    C112007   2.353   4.474  17.334 -0.2453 -0.4350  0.0576
  816MPD2    C212008   2.340   4.397  17.221 -0.3026  0.2479  0.4405
  816MPD2    C312009   2.443   4.315  17.177  0.5063 -0.1662  0.3282
  816MPD2    C412010   2.553   4.299  17.252 -0.5092  0.2098 -0.3756
  816MPD2    C512011   2.568   4.371  17.365  0.0974 -0.2333  0.2663
  816MPD2     H12012   2.254   4.396  17.156  1.1985  0.3414 -1.5634
  816MPD2    H112013   2.640   4.238  17.228  1.0628  0.6237  4.3273
  816MPD2    H212014   2.499   4.525  17.485  0.1954 -1.4772  0.6425
  816MPD2    H312015   2.661   4.372  17.421  0.8265 -2.9192 -0.8899
  816MPD2     N12016   2.422   4.246  17.059 -0.3915  0.7393  0.3035
  816MPD2    H512017   2.331   4.254  17.015  0.8654 -2.0620 -2.8097
  816MPD2    N112018   2.256   4.565  17.380 -0.0316 -0.5014  0.0936
  816MPD2    H712019   2.286   4.614  17.464 -0.8538 -1.6580  1.0589
  817MPD2     C12020   1.290   0.520   9.875  0.1086  0.5772  0.5053
  817MPD2    C112021   1.210   0.436   9.806  0.0175  0.1515  0.3586
  817MPD2    C212022   1.088   0.487   9.758  0.2782  0.0936  0.1042
  817MPD2    C312023   1.049   0.615   9.778  0.5018 -0.2347  0.9228
  817MPD2    C412024   1.137   0.701   9.848 -0.0586 -0.0970  0.7375
  817MPD2    C512025   1.256   0.650   9.892 -0.2636  0.9174  0.6118
  817MPD2     H12026   1.026   0.417   9.703 -0.1681  0.9103 -0.4390
  817MPD2    H112027   1.137   0.809   9.845 -0.6159 -0.1079  0.2929
  817MPD2    H212028   1.386   0.487   9.913  0.4348  0.8492 -0.0869
  817MPD2    H312029   1.321   0.707   9.957  0.7640 -0.1042  0.4694
  817MPD2     N12030   0.937   0.661   9.707  0.2319  0.3949  0.1036
  817MPD2    H512031   0.898   0.596   9.639 -1.2621  1.7836 -0.3705
  817MPD2    N112032   1.240   0.297   9.773  0.0126 -0.5600 -0.5326
  817MPD2    H712033   1.173   0.249   9.713 -1.1521  0.0078  0.3078
  818MPD2     C12034   0.169   0.584   9.983 -0.2181 -0.7968  0.6972
  818MPD2    C112035   0.246   0.572  10.096 -0.5614  0.1177  0.3966
  818MPD2    C212036   0.323   0.461  10.106  0.0260 -0.6067  0.2027
  818MPD2    C312037   0.316   0.353  10.023 -0.4818 -0.6447 -0.4864
  818MPD2    C412038   0.229   0.363   9.914  0.0852  0.5499  1.4913
  818MPD2    C512039   0.157   0.476   9.897 -0.1791  0.2603 -0.9760
  818MPD2     H12040   0.386   0.460  10.194 -1.6446 -1.6235  1.3796
  818MPD2    H112041   0.216   0.278   9.848 -0.2039 -0.1287  2.4026
  818MPD2    H212042   0.103   0.669   9.970  0.9836 -0.2519 -1.8345
  818MPD2    H312043   0.083   0.479   9.818 -1.1684 -1.8573 -0.1220
  818MPD2     N12044   0.379   0.229  10.041 -0.1723 -1.1923 -0.3903
  818MPD2    H512045   0.351   0.146   9.990 -0.1839 -0.5756 -1.3815
  818MPD2    N112046   0.238   0.657  10.212 -0.4804 -0.1153 -0.8250
  818MPD2    H712047   0.297   0.631  10.290 -2.9391  0.1403  1.1104
  819MPD2     C12048   3.333   2.456  15.399 -0.3481 -0.0998  0.1705
  819MPD2    C112049   3.387   2.334  15.358 -0.8476  0.0405 -0.4378
  819MPD2    C212050   3.504   2.289  15.409  0.4034 -0.5965  0.3682
  819MPD2    C312051   3.565   2.356  15.513 -0.2847  0.1329 -1.1985
  819MPD2    C412052   3.502   2.470  15.558 -0.4538 -0.4666 -0.0763
  819MPD2    C512053   3.392   2.530  15.501  0.2286 -0.1974  0.3461
  819MPD2     H12054   3.545   2.202  15.359  1.6893  0.3877 -0.2870
  819MPD2    H112055   3.548   2.532  15.634  4.0936 -0.9370 -2.4521
  819MPD2    H212056   3.245   2.498  15.352  0.5345  1.4493 -0.0728
  819MPD2    H312057   3.354   2.626  15.533  1.4168  0.3578  0.0927
  819MPD2     N12058   3.685   2.301  15.567 -0.3128 -0.1082  1.0082
  819MPD2    H512059   3.725   2.227  15.510 -2.0150 -1.1792  1.2131
  819MPD2    N112060   3.312   2.270  15.257  0.1632 -0.1736  0.2765
  819MPD2    H712061   3.258   2.336  15.202 -1.4669 -2.7408 -1.1879
  820MPD2     C12062   2.507   2.229  14.658 -0.1552  0.4325  0.9894
  820MPD2    C112063   2.569   2.319  14.743  0.3336 -0.0671  0.9190
  820MPD2    C212064   2.706   2.289  14.773  0.2342 -0.7245  0.1291
  820MPD2    C312065   2.766   2.168  14.741  0.3043  0.3692 -0.3280
  820MPD2    C412066   2.689   2.079  14.659 -0.2038 -0.3478 -1.0430
  820MPD2    C512067   2.561   2.113  14.622 -0.4848 -0.8253 -0.0966
  820MPD2     H12068   2.762   2.369  14.819 -0.3731 -1.5621  2.3008
  820MPD2    H112069   2.723   1.981  14.627  1.8983  0.0004  0.1263
  820MPD2    H212070   2.406   2.252  14.625  1.0520  1.4890 -2.0331
  820MPD2    H312071   2.507   2.054  14.548  0.7673 -0.2815 -1.4276
  820MPD2     N12072   2.892   2.123  14.797  0.4541  0.3271 -0.0246
  820MPD2    H512073   2.934   2.040  14.758  0.5827 -0.2212  1.2790
  820MPD2    N112074   2.503   2.441  14.758  1.1064 -0.6021  0.2650
  820MPD2    H712075   2.410   2.442  14.716  1.4882  0.7087 -0.5516
  821MPD2     C12076   3.128   3.801  12.966  0.1879  0.1620  0.1738
  821MPD2    C112077   3.203   3.880  13.051 -0.6052  0.1458 -0.3024
  821MPD2    C212078   3.279   3.981  13.008  0.6061  0.2481 -0.6181
  821MPD2    C312079   3.282   4.016  12.873 -0.4944 -0.1984 -0.3821
  821MPD2    C412080   3.190   3.950  12.788  0.2233  0.3055 -0.1995
  821MPD2    C512081   3.114   3.846  12.837 -0.2093 -0.1644 -0.3018
  821MPD2     H12082   3.337   4.031  13.085 -0.3200  0.1386  0.1426
  821MPD2    H112083   3.188   3.975  12.682 -2.5781  1.9229  0.2498
  821MPD2    H212084   3.069   3.715  12.998  1.1835 -1.6389 -2.8371
  821MPD2    H312085   3.036   3.811  12.771 -0.9300  2.5202 -0.8777
  821MPD2     N12086   3.372   4.118  12.829 -0.1849  0.4145 -0.1787
  821MPD2    H512087   3.372   4.136  12.729 -0.0620 -1.5833 -0.5264
  821MPD2    N112088   3.219   3.855  13.184 -0.1775 -0.3248 -0.3101
  821MPD2    H712089   3.278   3.923  13.233 -1.3237 -0.0448  0.6827
  822MPD2     C12090   3.734   4.057  15.579  1.0433 -0.3388  0.4649
  822MPD2    C112091   3.835   4.071  15.675  0.2664 -0.2012  0.4624
  822MPD2    C212092   3.838   4.184  15.751 -0.1071  0.0174 -0.3142
  822MPD2    C312093   3.734   4.273  15.744 -0.0498 -0.0243  0.2369
  822MPD2    C412094   3.633   4.249  15.649 -0.0038 -0.5681 -1.0026
  822MPD2    C512095   3.637   4.143  15.569 -0.5019 -0.4493 -0.8216
  822MPD2     H12096   3.914   4.197  15.826 -1.6566  1.4087  0.9990
  822MPD2    H112097   3.545   4.313  15.648 -0.2516 -0.9176 -2.7843
  822MPD2    H212098   3.724   3.971  15.513 -2.1417 -1.8327  2.8980
  822MPD2    H312099   3.558   4.124  15.497 -1.3134 -0.5645  0.0984
  822MPD2     N12100   3.728   4.384  15.830  0.0052  0.2439  0.0326
  822MPD2    H512101   3.638   4.423  15.855 -1.9605 -2.7737 -2.2636
  822MPD2    N112102   3.935   3.975  15.699 -0.1633 -0.3428 -0.3966
  822MPD2    H712103   4.010   3.988  15.767 -1.2686  2.4768  0.2822
  823MPD2     C12104   3.659   4.592  16.671  0.4430  0.1250 -0.3404
  823MPD2    C112105   3.663   4.503  16.568  0.6106 -0.5788 -0.8161
  823MPD2    C212106   3.666   4.370  16.597 -0.3217  0.1327 -0.2471
  823MPD2    C312107   3.650   4.323  16.727  0.7470  0.7524  0.3215
  823MPD2    C412108   3.635   4.417  16.827 -0.2039 -0.1567 -0.3023
  823MPD2    C512109   3.637   4.552  16.804  0.2720  0.6976  0.3508
  823MPD2     H12110   3.683   4.301  16.515  1.2587 -1.1803  1.2012
  823MPD2    H112111   3.624   4.380  16.928 -0.7722 -1.0911 -0.7059
  823MPD2    H212112   3.670   4.697  16.645  1.9122  0.1539  0.3731
  823MPD2    H312113   3.621   4.611  16.894 -0.4578 -0.2188  0.8224
  823MPD2     N12114   3.637   4.187  16.776  0.7629 -0.4092  0.2781
  823MPD2    H512115   3.605   4.172  16.871 -0.4690 -0.6930 -0.1707
  823MPD2    N112116   3.665   4.555  16.437 -0.3015 -0.2178  0.0646
  823MPD2    H712117   3.684   4.655  16.433 -1.0200 -0.0709  0.3525
  824MPD2     C12118   4.251   3.145  15.603  0.0609 -0.7140  0.0585
  824MPD2    C112119   4.325   3.255  15.620 -0.0806  0.1440  0.1069
  824MPD2    C212120   4.462   3.244  15.610  0.2676  0.1292  0.8210
  824MPD2    C312121   4.513   3.132  15.549 -0.5644  0.1887  0.5093
  824MPD2    C412122   4.429   3.025  15.511  0.0720  0.0402 -0.0247
  824MPD2    C512123   4.291   3.033  15.539  0.5581 -0.5895  0.5836
  824MPD2     H12124   4.531   3.325  15.627  2.4171 -0.8411 -3.3251
  824MPD2    H112125   4.460   2.926  15.480  2.3170  0.5980  0.4446
  824MPD2    H212126   4.145   3.151  15.622 -0.3536 -1.1869 -2.0544
  824MPD2    H312127   4.226   2.948  15.525  1.2809 -0.5827 -2.7744
  824MPD2     N12128   4.648   3.127  15.524 -1.0485  0.6954 -0.2053
  824MPD2    H512129   4.702   3.189  15.584 -0.9533  1.7987 -1.4297
  824MPD2    N112130   4.266   3.376  15.659  0.2645 -0.1416  0.4705
  824MPD2    H712131   4.334   3.448  15.681 -0.3599  0.2885  1.0023
  825MPD2     C12132   0.693   3.403  15.194 -0.9093 -0.3249 -0.3700
  825MPD2    C112133   0.561   3.415  15.228 -0.2394  0.9408  0.3811
  825MPD2    C212134   0.493   3.514  15.176  0.2417 -0.0568  0.5430
  825MPD2    C312135   0.557   3.611  15.099 -0.4962  0.2450  0.2530
  825MPD2    C412136   0.694   3.606  15.071  0.4852 -0.1585 -0.5045
  825MPD2    C512137   0.762   3.501  15.123 -0.8607  0.8624 -0.2576
  825MPD2     H12138   0.386   3.519  15.190  0.3518  1.6277  0.7854
  825MPD2    H112139   0.744   3.686  15.017 -2.4474  2.3416  0.4514
  825MPD2    H212140   0.750   3.315  15.222 -1.3881 -0.1424  1.1336
  825MPD2    H312141   0.870   3.497  15.131 -0.8087 -0.0505 -1.4545
  825MPD2     N12142   0.490   3.714  15.033 -0.3885 -0.0911 -0.6744
  825MPD2    H512143   0.543   3.767  14.965  0.5559 -0.3196 -0.1229
  825MPD2    N112144   0.499   3.303  15.299 -0.5059  0.4527 -1.0879
  825MPD2    H712145   0.549   3.214  15.301  0.4404  1.0185  0.6102
  826MPD2     C12146   0.179   3.253  13.489 -0.4694  0.2578 -0.1891
  826MPD2    C112147   0.104   3.171  13.410  0.1352 -0.6142 -0.5462
  826MPD2    C212148   4.695   3.199  13.397 -0.1652  0.2837  0.7169
  826MPD2    C312149   4.640   3.317  13.442 -0.1227 -0.4586  0.9178
  826MPD2    C412150   4.723   3.402  13.517 -0.2958  0.1515 -0.4734
  826MPD2    C512151   0.131   3.367  13.547 -0.0913  0.1474 -0.1053
  826MPD2     H12152   4.631   3.135  13.337  1.5578 -1.3160  0.6179
  826MPD2    H112153   4.685   3.498  13.550 -1.4535 -0.2791 -0.5539
  826MPD2    H212154   0.277   3.223  13.525  0.2648 -0.2989 -2.6461
  826MPD2    H312155   0.192   3.439  13.601 -1.0011  1.7864 -1.2378
  826MPD2     N12156   4.502   3.362  13.426 -0.2876 -0.2500  0.9784
  826MPD2    H512157   4.471   3.450  13.465  0.5924 -0.1750  1.5055
  826MPD2    N112158   0.171   3.063  13.352  0.0384 -0.0047  0.6825
  826MPD2    H712159   0.268   3.056  13.381  0.3562  0.9190 -0.1296
  827MPD2     C12160   0.752   3.907  10.203 -0.1399  0.2543  0.2782
  827MPD2    C112161   0.792   3.799  10.281  0.5664 -0.2998  0.3590
  827MPD2    C212162   0.790   3.678  10.206  0.2467  0.4166  0.0984
  827MPD2    C312163   0.741   3.657  10.076  0.0291  0.3983 -0.9739
  827MPD2    C412164   0.698   3.771  10.015 -0.0773 -0.7033 -0.4031
  827MPD2    C512165   0.701   3.890  10.080  0.6621 -0.1280 -0.4861
  827MPD2     H12166   0.826   3.590  10.259 -1.1092 -1.3214 -1.8751
  827MPD2    H112167   0.654   3.785   9.917 -1.2366  0.0805  0.2249
  827MPD2    H212168   0.777   4.008  10.232  0.3832  0.0598  0.5099
  827MPD2    H312169   0.673   3.981  10.029  0.7924 -0.2590 -0.7889
  827MPD2     N12170   0.754   3.528  10.017  0.8496  0.1592  0.1423
  827MPD2    H512171   0.782   3.450  10.075  2.0675  1.4491  1.2986
  827MPD2    N112172   0.846   3.826  10.406 -0.3887  0.3435  0.0695
  827MPD2    H712173   0.865   3.923  10.432  1.0850  0.2572 -0.7333
  828MPD2     C12174   3.603   4.022  12.582  0.3043 -1.1334 -0.2893
  828MPD2    C112175   3.615   4.075  12.455  0.1734 -0.1793  1.2189
  828MPD2    C212176   3.729   4.057  12.383  0.8869 -0.1516 -0.2023
  828MPD2    C312177   3.841   4.005  12.443  0.4013  0.0999 -0.1435
  828MPD2    C412178   3.840   3.973  12.581 -1.0504  0.1494 -0.8403
  828MPD2    C512179   3.720   3.981  12.647 -0.0981 -0.2199 -0.5971
  828MPD2     H12180   3.724   4.064  12.275  1.5285 -0.5192 -0.2574
  828MPD2    H112181   3.927   3.930  12.630 -2.2464 -1.2671  0.0434
  828MPD2    H212182   3.508   4.006  12.631 -0.2480  1.8231 -0.3703
  828MPD2    H312183   3.713   3.960  12.753  0.2901 -0.6092 -0.6489
  828MPD2     N12184   3.959   3.979  12.374  0.2028  0.1151 -0.5416
  828MPD2    H512185   4.036   3.928  12.415 -1.2724 -1.4597  0.2282
  828MPD2    N112186   3.501   4.123  12.382  0.2214 -0.2336 -0.4769
  828MPD2    H712187   3.518   4.143  12.283  3.2552  0.3418  0.1651
  829MPD2     C12188   3.658   4.378  11.613  0.4555  0.3187 -0.4466
  829MPD2    C112189   3.521   4.371  11.595  0.1911  0.8223 -0.5086
  829MPD2    C212190   3.447   4.335  11.710  0.1207  0.0159 -0.5254
  829MPD2    C312191   3.503   4.303  11.834  0.3018  0.0530 -0.1578
  829MPD2    C412192   3.640   4.289  11.839 -0.0108 -0.1564 -0.6486
  829MPD2    C512193   3.719   4.326  11.731  0.6173 -0.1366  0.4987
  829MPD2     H12194   3.339   4.328  11.699  0.2752  0.8374 -2.6338
  829MPD2    H112195   3.689   4.283  11.936  2.5620 -1.6415 -2.0588
  829MPD2    H212196   3.722   4.404  11.529  0.0007 -2.2779 -1.6160
  829MPD2    H312197   3.826   4.329  11.719  0.8026 -1.6044  1.7636
  829MPD2     N12198   3.436   4.275  11.956 -0.0859 -0.5760 -0.2293
  829MPD2    H512199   3.500   4.247  12.030 -1.4543 -1.0741  0.7643
  829MPD2    N112200   3.466   4.400  11.466  0.9575  0.1671 -0.0939
  829MPD2    H712201   3.524   4.412  11.384 -0.1037  0.5060 -0.8071
  830MPD2     C12202   4.517   2.475  15.610  0.3986 -0.7574 -0.7925
  830MPD2    C112203   4.406   2.447  15.537 -0.2096 -0.0181 -0.7366
  830MPD2    C212204   4.389   2.526  15.424 -0.5652  0.5637 -0.4929
  830MPD2    C312205   4.476   2.637  15.397  0.2959 -0.4989  0.8075
  830MPD2    C412206   4.587   2.657  15.471  0.1899 -0.8398 -0.3049
  830MPD2    C512207   4.607   2.569  15.578 -0.3677  0.3201 -0.3414
  830MPD2     H12208   4.306   2.519  15.355 -0.7110  0.5883 -0.3192
  830MPD2    H112209   4.663   2.731  15.450 -0.7628  0.0256 -0.7194
  830MPD2    H212210   4.539   2.408  15.693 -0.9436  1.3230  1.2399
  830MPD2    H312211   4.700   2.574  15.633  0.2152 -2.2633 -1.1020
  830MPD2     N12212   4.455   2.735  15.293  0.5440 -0.0380 -0.0563
  830MPD2    H512213   4.509   2.821  15.299  2.0880 -1.0590  0.8254
  830MPD2    N112214   4.309   2.359  15.586  0.2548 -0.0918  0.8618
  830MPD2    H712215   4.327   2.311  15.673  0.3717 -3.7471 -1.1685
  831MPD2     C12216   4.069   4.288  16.260  0.0738 -0.1156 -0.1072
  831MPD2    C112217   4.075   4.209  16.147  0.3582  0.7592 -0.0231
  831MPD2    C212218   3.967   4.126  16.112 -0.3133 -0.0291  0.0988
  831MPD2    C312219   3.847   4.128  16.180 -0.2134 -0.8679 -1.1057
  831MPD2    C412220   3.848   4.202  16.298  0.8037  0.1267 -0.1257
  831MPD2    C512221   3.952   4.286  16.330  0.2356 -0.1718  0.3075
  831MPD2     H12222   3.975   4.066  16.022  0.9766 -1.1865  0.9898
  831MPD2    H112223   3.761   4.187  16.362  0.8772  0.4118  0.0409
  831MPD2    H212224   4.150   4.356  16.284 -0.4849 -0.4994  2.9118
  831MPD2    H312225   3.943   4.353  16.415  2.1424 -0.3645  0.6670
  831MPD2     N12226   3.731   4.054  16.141  0.5801  0.0213  0.4501
  831MPD2    H512227   3.650   4.068  16.201 -0.3236 -0.7998 -0.5897
  831MPD2    N112228   4.188   4.226  16.059 -0.1281 -0.0184 -0.0979
  831MPD2    H712229   4.258   4.290  16.094  1.2035 -2.2414  1.2951
  832MPD2     C12230   2.798   0.920  17.107 -0.9204  1.0902  0.1202
  832MPD2    C112231   2.714   0.949  17.211  0.1718 -0.0796  0.9650
  832MPD2    C212232   2.580   0.961  17.173 -0.5251  1.3176 -0.1863
  832MPD2    C312233   2.543   0.959  17.040  0.5590  0.8621  0.4393
  832MPD2    C412234   2.639   0.939  16.945  0.5789  0.3276 -0.1371
  832MPD2    C512235   2.765   0.916  16.981  0.1563 -0.2100  0.3482
  832MPD2     H12236   2.506   0.979  17.251  0.7575 -1.8350  1.7524
  832MPD2    H112237   2.612   0.943  16.840  2.5368 -0.0552 -0.6468
  832MPD2    H212238   2.905   0.908  17.124 -0.9178  0.7274 -0.1813
  832MPD2    H312239   2.842   0.898  16.907  0.0005  1.8417 -0.2939
  832MPD2     N12240   2.409   0.952  16.996 -0.7774 -0.2467  0.1930
  832MPD2    H512241   2.387   0.984  16.903  0.4648  0.1347  0.0235
  832MPD2    N112242   2.770   0.944  17.340  0.3860  0.3453 -0.4272
  832MPD2    H712243   2.869   0.927  17.353  0.8462  3.3721  0.1998
  833MPD2     C12244   4.491   2.339  12.699  0.1881 -0.1210 -0.2816
  833MPD2    C112245   4.552   2.434  12.622  0.2911  0.0221  0.0345
  833MPD2    C212246   4.674   2.402  12.566  0.0426  0.4845  0.6107
  833MPD2    C312247   0.003   2.272  12.581  0.3398  0.1318 -0.3533
  833MPD2    C412248   4.659   2.179  12.664 -0.2328  0.1006 -0.3791
  833MPD2    C512249   4.542   2.212  12.717  0.6508 -0.2214 -0.1796
  833MPD2     H12250   4.720   2.477  12.503  2.4219 -0.9507  0.6192
  833MPD2    H112251   4.682   2.073  12.654  1.3499  0.5887 -1.8897
  833MPD2    H212252   4.399   2.357  12.752  0.1117 -0.4426 -0.3072
  833MPD2    H312253   4.489   2.142  12.781  1.3104 -1.5235 -1.0610
  833MPD2     N12254   0.103   2.223  12.494  0.4457  0.5773  0.3106
  833MPD2    H512255   0.118   2.123  12.489  3.7553  1.0827  0.5872
  833MPD2    N112256   4.481   2.548  12.591  0.0409 -0.2636  0.5392
  833MPD2    H712257   4.386   2.547  12.624 -0.4539 -0.4700 -0.8578
  834MPD2     C12258   0.140   1.592  11.740 -0.4536 -0.6960  0.7995
  834MPD2    C112259   0.034   1.680  11.707 -0.9469  0.0840 -0.0013
  834MPD2    C212260   0.026   1.783  11.797 -0.1972 -0.4108 -0.1965
  834MPD2    C312261   0.096   1.803  11.915 -0.3868 -0.3185 -0.2857
  834MPD2    C412262   0.200   1.717  11.937  0.1171  0.0509  0.3948
  834MPD2    C512263   0.225   1.612  11.847  0.4103  0.3434  0.4810
  834MPD2     H12264   4.673   1.857  11.780 -1.7367 -1.9248  0.2123
  834MPD2    H112265   0.268   1.732  12.021  0.4508  0.2407  0.0906
  834MPD2    H212266   0.143   1.496  11.689  0.2907 -1.7167  2.7111
  834MPD2    H312267   0.310   1.547  11.861 -0.5801 -0.8803  0.8038
  834MPD2     N12268   0.081   1.923  11.983 -0.0708 -0.4087  0.5290
  834MPD2    H512269   0.028   1.998  11.941  0.6671  1.1283  2.3595
  834MPD2    N112270   4.658   1.661  11.601 -0.4948 -0.5817 -0.6035
  834MPD2    H712271   4.568   1.708  11.606 -0.3672 -0.4947  0.8381
  835MPD2     C12272   0.124   4.228  11.226  0.4763  0.1858  1.1163
  835MPD2    C112273   4.709   4.255  11.236  0.1829  0.1835  0.2647
  835MPD2    C212274   4.656   4.259  11.360  0.1767 -0.1305 -0.8660
  835MPD2    C312275   4.719   4.224  11.481  0.3069  0.1574 -0.0353
  835MPD2    C412276   0.123   4.179  11.469  0.6105  0.3745 -0.1442
  835MPD2    C512277   0.188   4.191  11.344 -0.0601 -0.1610  0.2318
  835MPD2     H12278   4.552   4.290  11.359  0.4286  0.6970 -1.2645
  835MPD2    H112279   0.183   4.151  11.555 -0.7974 -1.2688  0.3363
  835MPD2    H212280   0.178   4.242  11.133 -0.9218  0.8530  0.4067
  835MPD2    H312281   0.294   4.169  11.342 -0.3938 -1.9249  1.6500
  835MPD2     N12282   4.663   4.258  11.603  0.0745  0.2666 -0.2606
  835MPD2    H512283   0.011   4.261  11.675 -2.8345  1.4668  2.5860
  835MPD2    N112284   4.617   4.300  11.137  0.4023 -0.0083  0.3977
  835MPD2    H712285   4.523   4.322  11.168  0.0128 -0.5434 -0.4130
  836MPD2     C12286   4.079   4.496  11.473 -0.1881 -0.3050 -0.2642
  836MPD2    C112287   4.073   4.516  11.615  0.4303 -0.5678 -0.6525
  836MPD2    C212288   3.988   4.606  11.666  0.3025  0.7437 -0.2329
  836MPD2    C312289   3.906   4.680  11.578 -0.4639  0.0371 -0.1907
  836MPD2    C412290   3.904   4.658  11.443 -0.2154 -0.1349  0.2454
  836MPD2    C512291   4.001   4.577  11.392  0.8069 -0.5866  0.2530
  836MPD2     H12292   3.988   4.622  11.773 -0.4391 -1.6317  0.1213
  836MPD2    H112293   3.839   4.716  11.377  0.7872 -0.1745 -0.7856
  836MPD2    H212294   4.153   4.438  11.420  0.3515 -0.5621  0.7627
  836MPD2    H312295   4.001   4.565  11.284 -0.6451 -0.2661  0.2155
  836MPD2     N12296   3.812   0.054  11.623 -0.0887  0.4630 -0.1927
  836MPD2    H512297   3.750   0.080  11.547  1.2779 -1.6096 -2.0132
  836MPD2    N112298   4.174   4.455  11.688 -1.2141  0.5926  0.0951
  836MPD2    H712299   4.249   4.414  11.634 -1.8408 -1.5723  0.8619
  837MPD2     C12300   2.685   3.666   9.965 -0.3090  0.1181 -0.6749
  837MPD2    C112301   2.621   3.742   9.869 -0.1690 -0.2258  0.8126
  837MPD2    C212302   2.654   3.872   9.852  0.2800  0.2493 -0.5631
  837MPD2    C312303   2.760   3.928   9.915 -0.6016  0.2795 -0.7398
  837MPD2    C412304   2.817   3.859  10.020 -0.0423  0.1344 -0.2013
  837MPD2    C512305   2.776   3.732  10.047  0.1835  0.3455  0.7222
  837MPD2     H12306   2.601   3.927   9.775  0.2427  1.0667  0.0473
  837MPD2    H112307   2.902   3.902  10.072  0.9905  1.3751 -2.8851
  837MPD2    H212308   2.660   3.561   9.978 -2.1720  0.8295  1.5531
  837MPD2    H312309   2.832   3.686  10.128 -0.7872  0.9805  1.7422
  837MPD2     N12310   2.795   4.057   9.870  0.1911 -0.8869 -0.0183
  837MPD2    H512311   2.733   4.100   9.802 -1.9795 -1.6618  1.4769
  837MPD2    N112312   2.533   3.685   9.778  0.2825  0.2700 -0.1338
  837MPD2    H712313   2.478   3.755   9.729 -0.0999 -0.3042 -0.5201
  838MPD2     C12314   1.033   2.276  11.741 -0.1799 -0.3765  0.1715
  838MPD2    C112315   1.055   2.199  11.855  0.1014  0.3312 -0.1816
  838MPD2    C212316   0.954   2.117  11.908  0.0439  0.2017  0.3302
  838MPD2    C312317   0.835   2.106  11.842  0.1045  0.0764  0.0979
  838MPD2    C412318   0.815   2.167  11.720  0.1549  0.1610  0.3805
  838MPD2    C512319   0.910   2.256  11.675 -0.1040  0.0266 -0.3793
  838MPD2     H12320   0.972   2.065  12.001  0.0694  0.3638  0.4170
  838MPD2    H112321   0.730   2.150  11.654  2.8568  0.4843 -3.2032
  838MPD2    H212322   1.100   2.346  11.692 -1.4091 -0.2763 -1.3699
  838MPD2    H312323   0.893   2.309  11.582 -2.5118 -1.5561 -0.8267
  838MPD2     N12324   0.738   2.018  11.899 -0.2325  0.1523  0.2093
  838MPD2    H512325   0.763   1.969  11.984 -1.3448 -1.2063 -0.2530
  838MPD2    N112326   1.178   2.209  11.922 -0.2025  0.2226 -0.3785
  838MPD2    H712327   1.188   2.147  12.002 -1.0018 -1.1281 -1.3374
  839MPD2     C12328   0.991   1.697  11.863  0.3893  0.5851  0.3292
  839MPD2    C112329   0.987   1.752  11.737  0.2387  0.0307  0.0534
  839MPD2    C212330   1.103   1.820  11.699  0.1751  0.2511  0.3085
  839MPD2    C312331   1.213   1.835  11.777  0.3882 -0.0488 -0.4146
  839MPD2    C412332   1.219   1.768  11.899  0.1482 -0.1550  0.0375
  839MPD2    C512333   1.106   1.701  11.939  0.7796 -0.3118 -0.8965
  839MPD2     H12334   1.114   1.868  11.602  1.0812  0.6380  0.6051
  839MPD2    H112335   1.301   1.787  11.967  0.5351  0.7347 -0.6797
  839MPD2    H212336   0.910   1.633  11.898  0.4876  0.7017  0.7654
  839MPD2    H312337   1.108   1.641  12.030 -0.0265 -0.9482 -1.2964
  839MPD2     N12338   1.322   1.911  11.730 -0.4272 -0.2754 -0.8472
  839MPD2    H512339   1.301   1.988  11.668 -1.6257 -0.4881 -0.6949
  839MPD2    N112340   0.887   1.723  11.640  0.0849  0.2402  0.9060
  839MPD2    H712341   0.891   1.773  11.552  0.5262 -0.2553  0.6392
  840MPD2     C12342   1.214   4.241  10.256  0.1402  0.3140 -0.2170
  840MPD2    C112343   1.250   4.226  10.390 -0.6683  0.0864 -0.4476
  840MPD2    C212344   1.308   4.330  10.465  0.2186 -0.6792 -0.1682
  840MPD2    C312345   1.305   4.455  10.406  0.2967  0.8622 -0.0051
  840MPD2    C412346   1.254   4.473  10.275  0.6043 -0.4303 -0.4140
  840MPD2    C512347   1.206   4.368  10.204  0.2843 -0.6525 -0.2401
  840MPD2     H12348   1.350   4.307  10.562  0.9194 -2.0952 -0.8143
  840MPD2    H112349   1.241   4.575  10.240  0.6833 -0.6029 -0.9410
  840MPD2    H212350   1.173   4.158  10.199 -0.7711  1.4613 -1.2378
  840MPD2    H312351   1.161   4.374  10.105  1.4503  0.3199 -0.7125
  840MPD2     N12352   1.363   4.564  10.472 -0.6610  0.1422 -0.6876
  840MPD2    H512353   1.355   4.653  10.424  1.1319  0.2877 -0.7136
  840MPD2    N112354   1.235   4.095  10.441 -0.6075  0.0063  0.4632
  840MPD2    H712355   1.194   4.029  10.376  0.2857 -0.9979  0.9255
  841MPD2     C12356   1.100   0.055  15.161 -0.8670 -0.7351 -0.2404
  841MPD2    C112357   1.049   0.017  15.037 -0.0480 -1.0944 -0.3253
  841MPD2    C212358   0.987   0.103  14.951 -0.4199  0.0726  0.5922
  841MPD2    C312359   0.956   0.226  14.994 -0.3702  0.1627 -0.5739
  841MPD2    C412360   0.999   0.272  15.120 -0.3285  0.1306  0.2325
  841MPD2    C512361   1.071   0.180  15.205 -0.5688  0.4519  0.0742
  841MPD2     H12362   0.962   0.061  14.855 -0.3922  0.0545  0.5927
  841MPD2    H112363   0.989   0.374  15.156 -1.8723  0.0879 -0.0597
  841MPD2    H212364   1.151   4.713  15.231 -0.7183  1.1804  1.4678
  841MPD2    H312365   1.089   0.199  15.311  0.0939  1.8693 -0.2830
  841MPD2     N12366   0.887   0.305  14.899 -0.0452 -0.3133  0.4847
  841MPD2    H512367   0.876   0.262  14.807 -0.4138 -0.7780  0.7481
  841MPD2    N112368   1.056   4.609  14.987 -0.1909 -0.6406  0.0661
  841MPD2    H712369   1.020   4.585  14.896 -0.6513 -1.8850  0.5784
  842MPD2     C12370   1.825   1.285  16.849  0.7145  0.7303 -0.3598
  842MPD2    C112371   1.745   1.188  16.909  0.4698 -0.7664  0.5418
  842MPD2    C212372   1.748   1.172  17.049 -0.0527 -0.5343 -0.8371
  842MPD2    C312373   1.844   1.235  17.124  0.3560  0.1452  0.0534
  842MPD2    C412374   1.925   1.329  17.059  0.9618  0.6414 -0.4972
  842MPD2    C512375   1.915   1.360  16.921 -0.3862  0.2399  0.1383
  842MPD2     H12376   1.696   1.090  17.097  1.3137 -0.0998  1.3918
  842MPD2    H112377   2.000   1.381  17.118  0.1952 -0.3756  1.3692
  842MPD2    H212378   1.821   1.288  16.740 -0.0269 -2.1358 -0.3871
  842MPD2    H312379   1.986   1.422  16.868 -1.3209  2.7508  1.8380
  842MPD2     N12380   1.872   1.219  17.260  0.1586  0.5000 -0.3668
  842MPD2    H512381   1.957   1.261  17.296  0.7493  1.4760 -2.8395
  842MPD2    N112382   1.665   1.115  16.825 -0.0214  0.0021 -0.6641
  842MPD2    H712383   1.673   1.142  16.727  0.0613 -0.1593 -0.7015
  843MPD2     C12384   3.076   0.756  17.363  0.2985 -0.2048 -0.2260
  843MPD2    C112385   3.063   0.739  17.498  0.4536  0.6264  0.5580
  843MPD2    C212386   3.149   0.804  17.584  0.4485 -0.1596  0.4298
  843MPD2    C312387   3.247   0.883  17.530 -0.3471  0.5667 -0.0996
  843MPD2    C412388   3.261   0.896  17.395  0.7447 -0.8553  0.6705
  843MPD2    C512389   3.174   0.831  17.310  0.5027  0.5985  1.0038
  843MPD2     H12390   3.154   0.780  17.689 -1.2644 -1.5152  0.2226
  843MPD2    H112391   3.337   0.959  17.350 -1.1317  1.1909  0.3779
  843MPD2    H212392   3.007   0.724  17.286 -0.1568 -0.2376  0.1915
  843MPD2    H312393   3.179   0.853  17.204 -3.5475  2.1765  1.1291
  843MPD2     N12394   3.347   0.939  17.614  0.7412  0.0288  1.0299
  843MPD2    H512395   3.416   0.996  17.566  1.4621 -0.1274  1.8849
  843MPD2    N112396   2.954   0.665  17.541 -0.5340 -0.4306  0.5555
  843MPD2    H712397   2.898   0.619  17.469  1.6257 -1.6141 -0.3722
  844MPD2     C12398   2.401   0.526  16.529 -0.0065  0.0970  0.5147
  844MPD2    C112399   2.481   0.436  16.463  0.1035  0.3610  0.3216
  844MPD2    C212400   2.617   0.429  16.500  0.1034 -0.2559 -0.3198
  844MPD2    C312401   2.667   0.517  16.599  0.4689 -0.1716  0.7175
  844MPD2    C412402   2.575   0.600  16.669  0.5730 -0.0494  0.0889
  844MPD2    C512403   2.447   0.594  16.642  0.3925  1.0277  0.6243
  844MPD2     H12404   2.688   0.378  16.436 -0.8253 -2.7644  0.6585
  844MPD2    H112405   2.603   0.665  16.751 -1.3080 -0.8856  1.3984
  844MPD2    H212406   2.297   0.548  16.509 -0.7611 -2.0413  2.1785
  844MPD2    H312407   2.378   0.660  16.693 -1.1299 -0.2800  0.2321
  844MPD2     N12408   2.812   0.505  16.628  0.6084  0.2213 -0.1484
  844MPD2    H512409   2.865   0.438  16.573  2.2139  0.4679  1.1161
  844MPD2    N112410   2.425   0.363  16.355 -0.6299 -0.1955 -0.1426
  844MPD2    H712411   2.483   0.289  16.318  2.3608  1.3705  1.4194
  845MPD2     C12412   3.256   1.198  17.104 -0.0729 -0.0375 -0.5331
  845MPD2    C112413   3.131   1.166  17.055  0.2405 -1.4547  0.5348
  845MPD2    C212414   3.120   1.049  16.983 -0.1325 -0.0315 -0.4269
  845MPD2    C312415   3.225   0.957  16.972  0.1148  0.1326 -0.2312
  845MPD2    C412416   3.344   0.986  17.031 -0.2161 -0.1262 -0.2569
  845MPD2    C512417   3.358   1.111  17.086  0.3807 -0.1468 -0.0029
  845MPD2     H12418   3.031   1.014  16.932  0.8266 -1.0774 -1.3870
  845MPD2    H112419   3.430   0.921  17.035  0.7782  1.0147 -3.2367
  845MPD2    H212420   3.279   1.295  17.145  1.5285 -0.4450 -0.4325
  845MPD2    H312421   3.450   1.141  17.136 -0.2035  0.0024  0.9858
  845MPD2     N12422   3.200   0.842  16.894 -0.4693 -0.1875 -0.1877
  845MPD2    H512423   3.110   0.826  16.849 -0.6585  1.2180 -0.2838
  845MPD2    N112424   3.030   1.253  17.092 -0.4219  0.4620 -0.2910
  845MPD2    H712425   3.043   1.303  17.179  0.9380 -0.9347  0.2943
  846MPD2     C12426   4.315   1.603  13.091  0.3071  0.6110  0.0693
  846MPD2    C112427   4.234   1.714  13.132 -0.1380  0.2504  0.4001
  846MPD2    C212428   4.177   1.713  13.258 -0.3763  0.1070 -0.3500
  846MPD2    C312429   4.195   1.608  13.343 -0.1587  0.1053 -0.0601
  846MPD2    C412430   4.270   1.501  13.297 -0.2445  0.0209  0.1530
  846MPD2    C512431   4.325   1.491  13.169 -0.2241 -0.3105  0.0130
  846MPD2     H12432   4.116   1.800  13.280 -0.2708  0.0057  0.3443
  846MPD2    H112433   4.288   1.421  13.368  2.0765  1.5512  1.2982
  846MPD2    H212434   4.350   1.599  12.988 -0.5613 -3.0975 -0.0795
  846MPD2    H312435   4.381   1.405  13.134  0.7428  1.6051 -3.2088
  846MPD2     N12436   4.135   1.616  13.469  0.2326 -0.0157 -0.2375
  846MPD2    H512437   4.078   1.696  13.495  0.1016  0.3736 -1.7066
  846MPD2    N112438   4.196   1.822  13.053 -0.4834  0.0099 -0.6509
  846MPD2    H712439   4.138   1.891  13.100 -1.0554  1.7070 -3.8206
  847MPD2     C12440   3.673   2.565  14.168 -0.2471  0.1661 -0.0086
  847MPD2    C112441   3.780   2.645  14.209 -0.0550  0.0237 -0.6317
  847MPD2    C212442   3.889   2.597  14.277  0.4855  0.1162 -0.0395
  847MPD2    C312443   3.900   2.460  14.282 -0.3943 -0.0064 -0.4322
  847MPD2    C412444   3.801   2.379  14.237  0.4886  0.3128 -1.0606
  847MPD2    C512445   3.694   2.433  14.178 -0.3135  0.9063  0.0491
  847MPD2     H12446   3.964   2.666  14.314  1.4621 -0.5010 -0.8812
  847MPD2    H112447   3.811   2.272  14.233 -0.2380  0.1554  1.7748
  847MPD2    H212448   3.584   2.600  14.117  0.4915 -0.2060 -1.5785
  847MPD2    H312449   3.634   2.367  14.117  0.9436 -0.1170 -0.1031
  847MPD2     N12450   4.021   2.412  14.333  0.2664  0.8006 -0.2979
  847MPD2    H512451   4.092   2.483  14.344  1.5979 -0.2262 -2.2027
  847MPD2    N112452   3.771   2.785  14.186 -0.2714  0.4145  0.3122
  847MPD2    H712453   3.841   2.842  14.230  0.7775 -1.6708  1.3545
  848MPD2     C12454   1.992   1.017  16.434 -0.0152  0.2155 -0.3875
  848MPD2    C112455   2.034   1.097  16.535 -0.4197  0.3222 -0.3147
  848MPD2    C212456   2.084   1.219  16.514 -0.4356  0.7882 -0.6221
  848MPD2    C312457   2.085   1.278  16.387 -1.1193  0.3738 -0.8975
  848MPD2    C412458   2.047   1.196  16.288  0.1125  0.0367 -0.6411
  848MPD2    C512459   1.998   1.065  16.310 -0.7364 -0.0552  0.2753
  848MPD2     H12460   2.104   1.281  16.600 -0.6753  0.8600 -0.6186
  848MPD2    H112461   2.062   1.238  16.189  0.7815  0.0983 -0.5191
  848MPD2    H212462   1.944   0.920  16.441 -1.9637  1.1620 -0.6392
  848MPD2    H312463   1.968   1.004  16.225 -1.4825 -1.6125  1.6502
  848MPD2     N12464   2.113   1.415  16.358 -0.1549 -0.0964 -0.2023
  848MPD2    H512465   2.089   1.442  16.263  2.4555 -0.0167 -0.8453
  848MPD2    N112466   2.040   1.048  16.671  0.4576  0.4674 -0.4841
  848MPD2    H712467   2.087   1.108  16.739 -1.4734  0.8416  0.5264
  849MPD2     C12468   2.109   0.672  13.498 -0.0507 -0.4556  0.3549
  849MPD2    C112469   2.093   0.565  13.583 -0.1000  0.0584  0.7740
  849MPD2    C212470   2.008   0.584  13.687 -0.0518  0.5285  0.9515
  849MPD2    C312471   1.930   0.695  13.714 -0.0157 -0.8481 -0.2838
  849MPD2    C412472   1.955   0.798  13.628  0.1757  0.2906  0.7373
  849MPD2    C512473   2.039   0.788  13.524 -0.1318  0.0277 -0.1333
  849MPD2     H12474   1.998   0.492  13.743  2.2690  0.9075  1.9595
  849MPD2    H112475   1.899   0.891  13.638  1.6138  1.0439  1.7829
  849MPD2    H212476   2.179   0.683  13.415 -0.9373 -0.1216 -0.3417
  849MPD2    H312477   2.040   0.873  13.457 -0.8699 -0.3843 -0.6678
  849MPD2     N12478   1.820   0.699  13.805  0.1695  0.1111  0.3984
  849MPD2    H512479   1.778   0.792  13.813 -0.8065 -0.2149 -0.9462
  849MPD2    N112480   2.150   0.436  13.571 -0.1268 -0.6944 -0.4644
  849MPD2    H712481   2.140   0.372  13.649  0.2976  0.4994  0.5707
  850MPD2     C12482   3.664   3.527  14.474 -0.9341  0.1957 -0.7043
  850MPD2    C112483   3.641   3.575  14.606  0.1563 -0.2281  0.0282
  850MPD2    C212484   3.728   3.671  14.654 -0.4470 -0.4863  0.8446
  850MPD2    C312485   3.846   3.699  14.582 -0.4416  0.2026 -0.2451
  850MPD2    C412486   3.861   3.653  14.455  0.5110  0.3961 -0.8810
  850MPD2    C512487   3.771   3.569  14.398 -0.0457  0.6858  0.3020
  850MPD2     H12488   3.713   3.716  14.752 -1.9879 -2.5080  1.5323
  850MPD2    H112489   3.946   3.681  14.394  0.3414  2.8968  0.0425
  850MPD2    H212490   3.596   3.451  14.438  0.0937 -0.4949 -1.2063
  850MPD2    H312491   3.794   3.523  14.303  0.6844  2.4299 -0.3504
  850MPD2     N12492   3.950   3.772  14.637  0.4653  0.4113  0.1865
  850MPD2    H512493   4.030   3.798  14.580 -0.0146  0.1605 -0.5965
  850MPD2    N112494   3.524   3.534  14.671  0.3649  0.5707  0.0147
  850MPD2    H712495   3.456   3.480  14.618 -0.7987  0.2896  1.7626
  851MPD2     C12496   4.084   3.571  15.292  0.3274  0.3668  0.3081
  851MPD2    C112497   4.011   3.486  15.211  0.5197  0.2375 -0.6459
  851MPD2    C212498   4.070   3.366  15.181 -0.9417 -0.3635 -0.2374
  851MPD2    C312499   4.202   3.336  15.216 -0.7727  0.1535 -0.6545
  851MPD2    C412500   4.281   3.421  15.286 -0.1235  0.3996 -0.3586
  851MPD2    C512501   4.215   3.537  15.328 -0.0236  0.8077 -0.2125
  851MPD2     H12502   4.021   3.302  15.108  0.3320  3.1575 -4.2146
  851MPD2    H112503   4.388   3.421  15.305  0.0276 -0.2633 -1.1967
  851MPD2    H212504   4.047   3.672  15.307 -0.2201 -0.1762  2.5054
  851MPD2    H312505   4.260   3.612  15.392  3.4633 -1.0556 -0.4903
  851MPD2     N12506   4.258   3.216  15.162 -0.3748  0.4267 -0.0140
  851MPD2    H512507   4.192   3.152  15.119  0.4073 -1.0262  0.9625
  851MPD2    N112508   3.878   3.522  15.173  0.2952  0.2690  0.1433
  851MPD2    H712509   3.843   3.614  15.200  0.7549  0.0908  1.3409
  852MPD2     C12510   4.381   0.932   9.848  0.1529  0.1921 -0.5361
  852MPD2    C112511   4.271   0.951   9.918  0.2545 -0.4273  0.0488
  852MPD2    C212512   4.257   1.077   9.973  0.3350 -0.9742  0.0030
  852MPD2    C312513   4.362   1.171   9.962  0.0658  0.2284  0.3452
  852MPD2    C412514   4.480   1.152   9.890 -0.3275  0.1248  0.3225
  852MPD2    C512515   4.483   1.028   9.834 -0.6060  0.1193 -0.1290
  852MPD2     H12516   4.175   1.093  10.041 -0.4803  1.4141 -1.5469
  852MPD2    H112517   4.562   1.223   9.884 -0.2612  0.1143  1.0357
  852MPD2    H212518   4.391   0.835   9.802  1.1360 -0.0648  0.2277
  852MPD2    H312519   4.567   0.994   9.775  1.5019  2.4381  1.5524
  852MPD2     N12520   4.343   1.282  10.047 -0.8823 -0.2091 -0.0969
  852MPD2    H512521   4.254   1.290  10.095 -0.4080  1.7459  0.4493
  852MPD2    N112522   4.164   0.859   9.935  0.0604 -0.2607 -0.0131
  852MPD2    H712523   4.097   0.890  10.004  0.7949  1.2838  0.0085
  853MPD2     C12524   1.305   0.844  12.437  0.0976 -0.0237  0.1386
  853MPD2    C112525   1.189   0.917  12.400 -0.5954 -0.2424 -0.4576
  853MPD2    C212526   1.121   0.877  12.282  0.8261  0.3186  0.1086
  853MPD2    C312527   1.163   0.764  12.209  0.0403  0.0298  0.0655
  853MPD2    C412528   1.286   0.706  12.243 -0.1165  0.2892 -0.2524
  853MPD2    C512529   1.352   0.744  12.353  0.5152 -0.2166  0.0264
  853MPD2     H12530   1.029   0.932  12.261  1.2219  1.1408  0.5422
  853MPD2    H112531   1.331   0.621  12.194 -0.1888  0.1253 -0.0316
  853MPD2    H212532   1.371   0.871  12.519 -1.7604 -1.3338  2.0641
  853MPD2    H312533   1.435   0.682  12.384 -2.3714 -3.1224  1.8965
  853MPD2     N12534   1.091   0.699  12.109  0.3440  0.8048 -0.0440
  853MPD2    H512535   1.128   0.613  12.071  0.3615  0.0819  1.6228
  853MPD2    N112536   1.155   1.028  12.478 -0.1865  0.0751  0.3248
  853MPD2    H712537   1.202   1.034  12.567  0.8076  0.3260 -0.2164
  854MPD2     C12538   3.224   1.454  12.679 -0.5994  0.4463 -0.0444
  854MPD2    C112539   3.161   1.345  12.616  0.1539 -0.6904  0.9511
  854MPD2    C212540   3.219   1.216  12.613  0.1513 -0.0676 -0.1380
  854MPD2    C312541   3.339   1.196  12.677 -0.0497  0.4219 -0.1590
  854MPD2    C412542   3.403   1.305  12.730  0.6130 -0.1432 -0.1495
  854MPD2    C512543   3.346   1.431  12.733  0.4309 -0.5277  0.3869
  854MPD2     H12544   3.157   1.141  12.564 -1.5813 -0.4467  2.6029
  854MPD2    H112545   3.504   1.302  12.770  0.8174  1.1446 -0.5816
  854MPD2    H212546   3.186   1.556  12.678 -1.3681  0.1253 -3.5347
  854MPD2    H312547   3.404   1.506  12.786 -0.6985  0.0431  0.8094
  854MPD2     N12548   3.406   1.068  12.683 -0.1613  0.5583 -0.4362
  854MPD2    H512549   3.484   1.068  12.749 -0.0297 -0.4817 -0.5875
  854MPD2    N112550   3.043   1.377  12.553 -0.2596  0.4319  0.4937
  854MPD2    H712551   3.023   1.476  12.557 -2.9518 -0.1856  1.7243
  855MPD2     C12552   3.449   0.914  13.473 -0.0566 -0.0542  0.1532
  855MPD2    C112553   3.386   0.803  13.423  0.0102 -0.0266 -0.0461
  855MPD2    C212554   3.404   0.771  13.291  0.0121 -0.2307 -0.3896
  855MPD2    C312555   3.496   0.838  13.210  0.0743  0.1003  0.2764
  855MPD2    C412556   3.542   0.955  13.262 -0.0910 -0.0548  0.5447
  855MPD2    C512557   3.519   0.995  13.390 -0.3312  0.3243  0.0963
  855MPD2     H12558   3.359   0.684  13.243  0.2039 -0.4922 -0.0965
  855MPD2    H112559   3.611   1.018  13.207 -0.5151 -0.0329  0.0450
  855MPD2    H212560   3.443   0.938  13.579 -0.4471 -0.9788  0.3457
  855MPD2    H312561   3.562   1.088  13.428  0.2370  0.0092  0.2224
  855MPD2     N12562   3.521   0.797  13.078  0.0836 -0.2567  0.3158
  855MPD2    H512563   3.572   0.862  13.020  2.4262 -0.1913  2.4393
  855MPD2    N112564   3.297   0.725  13.507 -0.6385  0.3321 -0.4611
  855MPD2    H712565   3.293   0.741  13.607  1.0834 -0.9391 -0.1868
  856MPD2     C12566   4.526   1.844  13.649 -0.3506 -0.6343 -0.0975
  856MPD2    C112567   4.616   1.951  13.630 -0.2487  0.2563  0.3010
  856MPD2    C212568   4.562   2.076  13.621 -0.4842  0.8901  0.3149
  856MPD2    C312569   4.431   2.095  13.651 -0.4871  0.2619 -0.0836
  856MPD2    C412570   4.342   1.992  13.655  0.3603 -0.0836 -0.4474
  856MPD2    C512571   4.392   1.861  13.655 -0.1066  0.5099  0.1101
  856MPD2     H12572   4.624   2.166  13.615  0.5519  0.0477 -1.5228
  856MPD2    H112573   4.238   2.014  13.679  0.5009  0.7036 -0.5617
  856MPD2    H212574   4.564   1.743  13.660 -0.0331 -0.4890  0.1262
  856MPD2    H312575   4.330   1.775  13.678  1.6860 -0.7658  0.1840
  856MPD2     N12576   4.380   2.226  13.674 -0.1698  0.8488 -0.7830
  856MPD2    H512577   4.284   2.249  13.650 -0.6289  0.5713  0.7243
  856MPD2    N112578   0.036   1.931  13.622 -0.0266 -0.8936  0.6750
  856MPD2    H712579   0.090   2.014  13.600 -1.3912 -0.3915 -0.7609
  857MPD2     C12580   1.532   3.721  12.787  0.4694  0.1689 -0.5698
  857MPD2    C112581   1.663   3.737  12.740  0.2391  0.1256 -0.0975
  857MPD2    C212582   1.731   3.855  12.770 -0.0741  0.8675 -0.5145
  857MPD2    C312583   1.665   3.958  12.837  0.5481  0.1095 -0.0448
  857MPD2    C412584   1.538   3.933  12.892  0.3086 -0.2690  0.4918
  857MPD2    C512585   1.470   3.817  12.863 -0.1004 -0.2487  0.0920
  857MPD2     H12586   1.830   3.865  12.728  0.1183  2.5931  0.3467
  857MPD2    H112587   1.496   3.999  12.966 -0.2891  2.0141 -1.8832
  857MPD2    H212588   1.473   3.633  12.764  2.1502 -0.5618 -2.1001
  857MPD2    H312589   1.368   3.818  12.900  0.2323  3.4365  0.9623
  857MPD2     N12590   1.738   4.072  12.871 -0.7817 -0.3571 -0.5995
  857MPD2    H512591   1.835   4.066  12.840 -0.9227 -1.7547 -0.7709
  857MPD2    N112592   1.715   3.628  12.672 -0.4007  1.4618  0.3457
  857MPD2    H712593   1.649   3.554  12.650  1.2561  0.0242  0.1629
  858MPD2     C12594   1.957   2.957  16.345 -0.1325  0.8134  0.3803
  858MPD2    C112595   2.088   2.911  16.321  0.3062 -0.1011  0.5341
  858MPD2    C212596   2.198   2.995  16.337 -0.3659 -0.0719  0.0039
  858MPD2    C312597   2.173   3.119  16.398  0.2825 -0.1460 -0.5479
  858MPD2    C412598   2.050   3.156  16.431 -0.0871  0.4257  0.2324
  858MPD2    C512599   1.942   3.084  16.397  0.6386 -0.2510  0.6674
  858MPD2     H12600   2.299   2.959  16.326 -0.3872 -0.2580  0.4234
  858MPD2    H112601   2.029   3.244  16.491 -0.0121  0.2165  0.5665
  858MPD2    H212602   1.867   2.899  16.333  0.0728  0.6975 -0.6367
  858MPD2    H312603   1.846   3.120  16.433 -0.5320 -2.3446 -0.3990
  858MPD2     N12604   2.286   3.200  16.443  0.3057 -0.5025  0.0494
  858MPD2    H512605   2.254   3.269  16.510  1.4911 -0.8863  1.0023
  858MPD2    N112606   2.108   2.775  16.265 -0.0335  0.1463  0.4301
  858MPD2    H712607   2.205   2.755  16.241 -0.7893 -0.6808 -1.8309
  859MPD2     C12608   1.228   0.689  15.420 -0.6587  0.0181  0.0026
  859MPD2    C112609   1.223   0.688  15.281  0.0589 -0.2327 -0.4708
  859MPD2    C212610   1.265   0.570  15.221 -0.8365  0.2084  0.0261
  859MPD2    C312611   1.311   0.455  15.295 -0.3834  0.4755 -0.0609
  859MPD2    C412612   1.304   0.467  15.431 -0.3986 -1.6089  0.1069
  859MPD2    C512613   1.253   0.579  15.494 -0.9767  0.8893 -0.3025
  859MPD2     H12614   1.246   0.565  15.115  3.2036  1.1695 -0.7372
  859MPD2    H112615   1.337   0.389  15.499 -0.7550 -1.3695  0.5544
  859MPD2    H212616   1.208   0.780  15.474 -2.3892 -0.3072 -0.0929
  859MPD2    H312617   1.253   0.587  15.602  2.0955 -1.7741 -0.0853
  859MPD2     N12618   1.355   0.340  15.233  0.4019 -0.0818  0.2788
  859MPD2    H512619   1.358   0.257  15.291 -2.6983 -1.4033 -1.4446
  859MPD2    N112620   1.187   0.807  15.213  0.0620  0.2125  0.2699
  859MPD2    H712621   1.183   0.888  15.274 -0.7458  0.0300  0.4553
  860MPD2     C12622   3.737   0.408  11.305 -0.1728  0.6289  0.0138
  860MPD2    C112623   3.748   0.519  11.386  0.4024 -0.0318  0.0584
  860MPD2    C212624   3.631   0.557  11.460 -0.6524  0.7321  0.2415
  860MPD2    C312625   3.510   0.483  11.449 -0.9225  0.9118 -0.7088
  860MPD2    C412626   3.511   0.378  11.358 -0.1323 -0.4545 -0.4343
  860MPD2    C512627   3.615   0.354  11.280 -0.5042  0.4239  0.1798
  860MPD2     H12628   3.635   0.645  11.523 -0.8501  1.7474 -1.1607
  860MPD2    H112629   3.421   0.318  11.349 -0.1779 -0.2475 -1.3316
  860MPD2    H212630   3.817   0.367  11.245  0.5238  0.3737  1.1295
  860MPD2    H312631   3.619   0.270  11.212 -2.8381  0.5192 -0.0532
  860MPD2     N12632   3.409   0.525  11.528 -0.1134 -0.0048  0.2701
  860MPD2    H512633   3.427   0.604  11.588 -4.3487  0.7090  0.6286
  860MPD2    N112634   3.862   0.605  11.397  0.4058 -0.1292  0.2849
  860MPD2    H712635   3.850   0.678  11.466  0.8333 -1.0251  1.3050
  861MPD2     C12636   2.687   3.706  10.864  0.9759 -0.2148 -0.2580
  861MPD2    C112637   2.593   3.746  10.956 -0.0858 -0.1206  0.6678
  861MPD2    C212638   2.463   3.761  10.912 -0.7301  0.0873 -0.3733
  861MPD2    C312639   2.424   3.734  10.776  0.2884 -0.3869 -0.0105
  861MPD2    C412640   2.522   3.700  10.686 -0.7140 -0.6419  0.4666
  861MPD2    C512641   2.647   3.686  10.732  1.0190 -0.7059  0.3250
  861MPD2     H12642   2.394   3.797  10.987  1.2545  0.1146  1.4445
  861MPD2    H112643   2.494   3.676  10.584 -1.6737  2.8556 -0.0777
  861MPD2    H212644   2.791   3.685  10.888  0.8609  0.7494  1.0161
  861MPD2    H312645   2.715   3.648  10.657  3.2348  1.6722  1.1399
  861MPD2     N12646   2.291   3.750  10.725  0.1967 -0.1994  0.2655
  861MPD2    H512647   2.295   3.737  10.625 -0.3524 -0.6939  0.3088
  861MPD2    N112648   2.622   3.794  11.090 -0.4316  0.0780 -0.0117
  861MPD2    H712649   2.548   3.828  11.150 -0.0671 -0.9114  1.0114
  862MPD2     C12650   1.863   3.649  10.150  0.6038  0.1135 -0.1836
  862MPD2    C112651   1.951   3.631  10.253  0.1071 -1.1399  0.0758
  862MPD2    C212652   2.016   3.508  10.265 -0.2198 -0.4763 -0.4178
  862MPD2    C312653   1.989   3.404  10.173 -0.1267  0.3583  0.0835
  862MPD2    C412654   1.902   3.427  10.073 -0.1821  0.7741  0.1067
  862MPD2    C512655   1.838   3.548  10.064  0.3043 -0.0610 -0.2573
  862MPD2     H12656   2.083   3.500  10.349 -0.4292  0.4344 -0.1668
  862MPD2    H112657   1.886   3.352   9.996 -1.0735 -1.3229  2.3484
  862MPD2    H212658   1.816   3.745  10.134 -0.8333 -0.7421 -1.1890
  862MPD2    H312659   1.778   3.557   9.974  1.5729 -0.0172 -1.0884
  862MPD2     N12660   2.055   3.276  10.160  0.9626  0.5374 -0.1400
  862MPD2    H512661   2.025   3.217  10.084  2.9353 -0.7236  0.0659
  862MPD2    N112662   2.003   3.732  10.333  0.3369 -0.0018  0.3932
  862MPD2    H712663   2.084   3.702  10.387  0.5562  0.0495  0.0879
  863MPD2     C12664   0.829   1.665  16.486  0.3671 -0.1314 -0.3191
  863MPD2    C112665   0.780   1.780  16.532 -0.0237  0.6394 -0.6568
  863MPD2    C212666   0.850   1.852  16.628  0.0581 -0.4228  0.0916
  863MPD2    C312667   0.972   1.798  16.682  0.4404 -0.2195 -0.1500
  863MPD2    C412668   1.021   1.677  16.623 -0.3791  0.3188  0.0071
  863MPD2    C512669   0.946   1.620  16.527  0.6969 -0.4740 -0.1067
  863MPD2     H12670   0.812   1.944  16.672 -1.2474  0.0131 -1.9347
  863MPD2    H112671   1.113   1.631  16.657  0.7953  2.0227 -0.8728
  863MPD2    H212672   0.777   1.610  16.409  0.4794 -1.1546  0.3340
  863MPD2    H312673   0.989   1.528  16.490 -0.1407 -0.0066 -2.2424
  863MPD2     N12674   1.037   1.857  16.790 -0.3623  0.2989  0.3851
  863MPD2    H512675   1.114   1.804  16.829 -0.1891  0.2466 -0.0220
  863MPD2    N112676   0.672   1.828  16.450  0.2506  0.1986  0.1350
  863MPD2    H712677   0.641   1.774  16.370  1.3752  0.6619 -0.6186
  864MPD2     C12678   1.231   3.095  17.301  0.2919  0.3695 -0.0110
  864MPD2    C112679   1.202   3.083  17.170 -1.4781  0.3125 -0.2214
  864MPD2    C212680   1.200   3.193  17.085 -0.3461  0.0176  0.2396
  864MPD2    C312681   1.243   3.318  17.135  0.1569  0.4540  0.0396
  864MPD2    C412682   1.268   3.332  17.262 -0.2560 -0.0722  0.3798
  864MPD2    C512683   1.265   3.221  17.341  1.1407 -0.1160  0.0471
  864MPD2     H12684   1.157   3.191  16.985 -1.6760  0.1053  0.8097
  864MPD2    H112685   1.307   3.424  17.302 -0.6792  0.3600 -0.2067
  864MPD2    H212686   1.221   3.017  17.376 -2.0375  2.2053  1.6123
  864MPD2    H312687   1.285   3.225  17.448 -0.8186  0.0326  0.3979
  864MPD2     N12688   1.261   3.426  17.047  0.0774 -0.3415  0.0074
  864MPD2    H512689   1.315   3.504  17.082 -0.4542 -0.2479  0.6101
  864MPD2    N112690   1.173   2.951  17.121  0.6327 -0.6016  0.7861
  864MPD2    H712691   1.176   2.875  17.188 -2.1634 -2.1137 -0.7931
  865MPD2     C12692   1.233   3.654  15.987  0.7062 -0.1408 -0.0243
  865MPD2    C112693   1.202   3.546  16.063  0.9267 -0.0086 -0.6393
  865MPD2    C212694   1.203   3.569  16.196 -0.0537 -0.1092  0.5696
  865MPD2    C312695   1.224   3.692  16.259 -0.1011 -0.2745  0.1632
  865MPD2    C412696   1.256   3.801  16.173  0.6599  0.9155 -0.1467
  865MPD2    C512697   1.260   3.777  16.039  0.4815  0.2247 -0.1006
  865MPD2     H12698   1.178   3.487  16.263  0.7237 -1.7188 -1.1125
  865MPD2    H112699   1.297   3.893  16.212  1.1834  0.4805  0.3355
  865MPD2    H212700   1.236   3.644  15.879 -0.7051 -1.0908  0.0279
  865MPD2    H312701   1.311   3.845  15.971  0.1060  0.3681 -0.2357
  865MPD2     N12702   1.245   3.713  16.400 -0.1305  0.3125 -0.9691
  865MPD2    H512703   1.308   3.787  16.430 -0.9121  0.1842  1.0474
  865MPD2    N112704   1.177   3.425  16.003  0.2321  0.6035 -0.0419
  865MPD2    H712705   1.187   3.412  15.903  1.9806 -4.3367  0.7603
  866MPD2     C12706   2.910   4.214  11.293 -0.4704  0.3652 -0.4357
  866MPD2    C112707   2.871   4.178  11.169 -0.4456 -0.9455  0.2121
  866MPD2    C212708   2.756   4.216  11.111 -0.0454  0.1809  0.6246
  866MPD2    C312709   2.681   4.303  11.183 -0.7617 -0.2916 -0.7837
  866MPD2    C412710   2.718   4.344  11.305 -0.4265 -0.3591  0.1182
  866MPD2    C512711   2.830   4.293  11.368  0.6588  0.1492  0.2216
  866MPD2     H12712   2.731   4.175  11.013  1.6517 -0.1501  0.3169
  866MPD2    H112713   2.654   4.414  11.358  0.4278  0.4207  0.1312
  866MPD2    H212714   3.006   4.189  11.337 -0.5776 -1.1616 -1.0945
  866MPD2    H312715   2.865   4.333  11.462  1.9390  0.0522 -0.2193
  866MPD2     N12716   2.576   4.370  11.120 -0.7475 -1.2694  0.1229
  866MPD2    H512717   2.509   4.407  11.187 -0.3897 -0.4326  0.0202
  866MPD2    N112718   2.959   4.095  11.091  0.1972 -0.0822 -0.5127
  866MPD2    H712719   3.055   4.079  11.117  0.5924 -0.1265 -2.0216
  867MPD2     C12720   0.887   3.762  16.612  0.4759 -0.0775 -0.5819
  867MPD2    C112721   0.846   3.662  16.700 -0.4017 -0.5598 -0.2122
  867MPD2    C212722   0.788   3.699  16.821 -0.0801  0.1334 -0.3626
  867MPD2    C312723   0.790   3.834  16.854  0.0682 -0.4213 -0.1477
  867MPD2    C412724   0.826   3.931  16.766  0.0467  0.0685 -0.1444
  867MPD2    C512725   0.885   3.893  16.646 -0.4601  0.0080 -0.8985
  867MPD2     H12726   0.761   3.629  16.900  0.9287 -1.0080 -1.0182
  867MPD2    H112727   0.833   4.038  16.783 -0.2605  0.5259 -3.0081
  867MPD2    H212728   0.925   3.735  16.515 -1.6094 -0.2160 -1.3505
  867MPD2    H312729   0.910   3.963  16.567  1.4102  0.6056  0.2253
  867MPD2     N12730   0.739   3.870  16.985 -0.6240 -0.1772 -0.2388
  867MPD2    H512731   0.710   3.795  17.047 -1.3135  1.0318  0.9054
  867MPD2    N112732   0.855   3.530  16.652 -0.1753 -0.7813 -0.1738
  867MPD2    H712733   0.888   3.506  16.559 -1.6401  1.0032 -1.1593
  868MPD2     C12734   2.169   2.068  13.137 -0.4158 -0.1087  0.7307
  868MPD2    C112735   2.248   2.093  13.244 -0.0077 -0.5423  0.0177
  868MPD2    C212736   2.191   2.157  13.350 -0.6173 -0.5742  0.4651
  868MPD2    C312737   2.058   2.172  13.348 -0.2379 -0.1505 -0.2431
  868MPD2    C412738   1.975   2.135  13.252 -0.1812 -0.0096 -0.1090
  868MPD2    C512739   2.037   2.083  13.140  0.6933 -0.3712  0.3029
  868MPD2     H12740   2.255   2.186  13.432  1.1943 -0.1144 -1.1023
  868MPD2    H112741   1.868   2.147  13.240  0.0058 -0.4259 -2.1938
  868MPD2    H212742   2.204   2.028  13.043 -0.6185  1.6702 -0.1035
  868MPD2    H312743   1.983   2.061  13.049  2.5498 -0.3611 -0.8023
  868MPD2     N12744   2.004   2.244  13.461  0.2468 -0.0580 -0.2364
  868MPD2    H512745   2.063   2.268  13.541  0.2750  0.3454 -0.3788
  868MPD2    N112746   2.389   2.059  13.231 -0.1120  0.3415 -0.7837
  868MPD2    H712747   2.427   2.026  13.142 -2.1269  0.8914 -1.8565
  869MPD2     C12748   2.531   4.361   1.333  0.0999 -0.7417  0.4281
  869MPD2    C112749   2.528   4.494   1.362  0.4481  0.0312 -0.3570
  869MPD2    C212750   2.570   4.590   1.274 -0.0647  0.0151  0.0924
  869MPD2    C312751   2.614   4.546   1.153  0.7101 -0.1154 -0.0872
  869MPD2    C412752   2.604   4.411   1.115 -1.2350 -0.6691 -0.0786
  869MPD2    C512753   2.567   4.321   1.208  0.2567  0.3268 -0.0331
  869MPD2     H12754   2.540   4.692   1.295  2.1476  0.8266 -0.6732
  869MPD2    H112755   2.642   4.386   1.016  0.1873 -3.4273  1.1851
  869MPD2    H212756   2.496   4.289   1.406  1.2537  0.0251  1.7355
  869MPD2    H312757   2.555   4.214   1.196  1.3590  0.2090 -0.0477
  869MPD2     N12758   2.678   4.631   1.058  0.0505 -0.4211  0.4472
  869MPD2    H512759   2.710   4.585   0.973  2.3880  1.2302  0.4481
  869MPD2    N112760   2.475   4.530   1.492 -0.4914 -0.9301  0.1244
  869MPD2    H712761   2.413   4.468   1.542 -2.1161  0.8653  0.3558
  870MPD2     C12762   2.619   3.360   1.575 -0.5088  0.1363 -0.5368
  870MPD2    C112763   2.708   3.338   1.474 -0.3492 -0.7924 -0.1147
  870MPD2    C212764   2.677   3.366   1.340  0.0113 -0.5518 -0.5246
  870MPD2    C312765   2.544   3.395   1.318 -0.9673 -0.0613  0.1325
  870MPD2    C412766   2.448   3.405   1.416  0.1554 -0.2427 -0.5658
  870MPD2    C512767   2.490   3.399   1.547  0.1188  0.6140  0.3868
  870MPD2     H12768   2.749   3.348   1.261  0.9028  0.0609  0.1494
  870MPD2    H112769   2.344   3.430   1.396  0.7418  1.9192 -0.9272
  870MPD2    H212770   2.645   3.370   1.680  2.3672  1.6134 -1.3925
  870MPD2    H312771   2.427   3.412   1.635 -1.2105  0.7718 -0.5799
  870MPD2     N12772   2.512   3.406   1.178  0.3976  0.0775 -0.3090
  870MPD2    H512773   2.576   3.390   1.101 -0.8803  0.2623 -1.4079
  870MPD2    N112774   2.837   3.290   1.506  0.5057  0.8267  0.0828
  870MPD2    H712775   2.867   3.294   1.603  1.5474 -2.4782 -0.0937
  871MPD2     C12776   3.639   3.566  16.239 -0.1529 -0.4062  0.1387
  871MPD2    C112777   3.626   3.535  16.372 -0.2573  0.2805  0.2753
  871MPD2    C212778   3.611   3.395  16.395  0.2740 -0.2099 -0.1336
  871MPD2    C312779   3.613   3.298  16.302 -0.2651 -0.3587  1.1465
  871MPD2    C412780   3.624   3.332  16.168 -0.2670 -0.0350 -0.6173
  871MPD2    C512781   3.626   3.472  16.139 -0.5164 -0.6186 -0.4672
  871MPD2     H12782   3.598   3.353  16.494  1.8026  1.8835  0.9487
  871MPD2    H112783   3.623   3.268  16.081 -0.9875 -0.6461 -0.1553
  871MPD2    H212784   3.660   3.668  16.212 -2.2276  0.4391  1.6867
  871MPD2    H312785   3.627   3.511  16.038  0.2234  3.1975  1.0094
  871MPD2     N12786   3.625   3.166  16.349  0.5511 -0.1776 -0.0191
  871MPD2    H512787   3.620   3.162  16.450  2.8669 -3.2362  0.0087
  871MPD2    N112788   3.648   3.627  16.468  0.4541 -0.1197 -0.2391
  871MPD2    H712789   3.691   3.715  16.441  1.7185 -0.8591 -0.6229
  872MPD2     C12790   0.373   0.858  13.607  0.4763  0.2948  0.2890
  872MPD2    C112791   0.385   0.985  13.660  0.4087  0.2829  0.3209
  872MPD2    C212792   0.286   1.051  13.721 -1.4688  0.1882  0.4200
  872MPD2    C312793   0.157   0.995  13.731 -0.5154  0.4562  0.3510
  872MPD2    C412794   0.141   0.874  13.661 -0.7998  0.4020 -0.2325
  872MPD2    C512795   0.248   0.801  13.604  0.0500  0.7566 -0.2505
  872MPD2     H12796   0.310   1.152  13.754 -3.2872  0.2718  1.4825
  872MPD2    H112797   0.042   0.830  13.665 -0.8142  0.5796  1.3174
  872MPD2    H212798   0.452   0.808  13.552 -0.5668 -1.9515  0.8247
  872MPD2    H312799   0.220   0.714  13.545 -0.2066 -0.1929  1.2729
  872MPD2     N12800   0.054   1.051  13.812 -0.1407 -0.3412  0.2784
  872MPD2    H512801   4.687   1.011  13.788  0.0363 -0.1522 -0.7214
  872MPD2    N112802   0.508   1.055  13.651  0.1151 -0.3887  1.2285
  872MPD2    H712803   0.488   1.150  13.680 -0.8118  0.4981 -2.3046
  873MPD2     C12804   2.478   0.555   0.864  0.5553  0.1809  0.6510
  873MPD2    C112805   2.359   0.498   0.910  0.2692 -0.2325 -0.0490
  873MPD2    C212806   2.341   0.358   0.906  0.3648 -0.7978 -0.1033
  873MPD2    C312807   2.442   0.277   0.864  0.1061  0.9090 -0.1733
  873MPD2    C412808   2.558   0.332   0.819 -0.0217 -0.0006  0.2186
  873MPD2    C512809   2.578   0.466   0.833  0.6281  0.0504  0.0464
  873MPD2     H12810   2.248   0.316   0.942  1.5996 -0.9386  2.9034
  873MPD2    H112811   2.645   0.270   0.799 -0.8141 -0.8095 -0.7179
  873MPD2    H212812   2.488   0.663   0.852  1.1195  0.1216  0.6187
  873MPD2    H312813   2.675   0.505   0.805  0.5799 -0.2692 -0.5926
  873MPD2     N12814   2.424   0.141   0.853  0.0360  0.7121 -0.1192
  873MPD2    H512815   2.483   0.090   0.788  0.0545 -0.3959  0.7592
  873MPD2    N112816   2.266   0.586   0.967  0.5172 -0.1669  0.1072
  873MPD2    H712817   2.302   0.679   0.988  0.6466 -0.2876  0.4184
  874MPD2     C12818   1.519   1.342  16.171 -0.2009 -0.0385  1.1446
  874MPD2    C112819   1.568   1.311  16.299  0.3076 -0.3173  0.4169
  874MPD2    C212820   1.681   1.380  16.344  0.0100 -0.3049  0.6257
  874MPD2    C312821   1.730   1.485  16.269  0.5417 -0.3523 -0.5726
  874MPD2    C412822   1.674   1.515  16.143  0.5529 -0.3486  0.0942
  874MPD2    C512823   1.568   1.442  16.097 -0.4302  0.1999 -0.4147
  874MPD2     H12824   1.736   1.344  16.430  0.4015  0.4242  0.6783
  874MPD2    H112825   1.707   1.599  16.082  1.3904 -0.6852  0.0899
  874MPD2    H212826   1.433   1.289  16.129  1.2819 -0.2851 -1.6243
  874MPD2    H312827   1.515   1.467  16.006  1.5631 -1.3692 -1.9971
  874MPD2     N12828   1.827   1.561  16.330 -0.5809  0.3084 -0.1331
  874MPD2    H512829   1.886   1.532  16.407 -1.5734 -3.7954 -0.9080
  874MPD2    N112830   1.516   1.204  16.370  0.5763  0.4566  0.9114
  874MPD2    H712831   1.434   1.160  16.330  0.0312  3.2082 -1.0026
  875MPD2     C12832   2.405   4.184  14.556  0.2613 -0.2747  0.0810
  875MPD2    C112833   2.286   4.221  14.606  0.0821 -0.1149  0.0179
  875MPD2    C212834   2.277   4.273  14.738  0.2164  0.3338  0.2962
  875MPD2    C312835   2.392   4.302  14.814  0.3621  0.3094 -0.6851
  875MPD2    C412836   2.507   4.260  14.754 -0.1429  0.3033 -0.0440
  875MPD2    C512837   2.520   4.198  14.635  0.0443  0.6061 -0.0786
  875MPD2     H12838   2.178   4.302  14.771  1.2516  0.3096  3.4553
  875MPD2    H112839   2.591   4.259  14.822  0.0729 -3.2484 -0.3657
  875MPD2    H212840   2.408   4.151  14.453  0.2703 -1.3945  0.4399
  875MPD2    H312841   2.618   4.185  14.591  0.3899 -1.5299  1.3029
  875MPD2     N12842   2.402   4.360  14.942 -0.7125  0.9140 -0.1123
  875MPD2    H512843   2.488   4.395  14.984  0.2680 -0.4971 -0.9440
  875MPD2    N112844   2.163   4.202  14.538  0.2564  0.1941  0.2593
  875MPD2    H712845   2.083   4.241  14.586  1.4743  2.9781  0.0704
  876MPD2     C12846   1.787   1.215  15.834  0.9014 -0.2812  0.4101
  876MPD2    C112847   1.795   1.136  15.719 -1.1342  0.4963  0.1779
  876MPD2    C212848   1.800   1.002  15.729  0.0361 -0.6857  0.0194
  876MPD2    C312849   1.816   0.945  15.858  0.2594  0.0448 -0.1169
  876MPD2    C412850   1.816   1.022  15.967 -0.1399  0.7898 -0.0474
  876MPD2    C512851   1.792   1.153  15.958 -0.4312  0.9313  0.0939
  876MPD2     H12852   1.801   0.938  15.642 -2.8901 -1.2135  0.3555
  876MPD2    H112853   1.818   0.983  16.068  1.5185  1.5419  0.2107
  876MPD2    H212854   1.796   1.322  15.842  0.9092 -0.1940 -0.7972
  876MPD2    H312855   1.793   1.209  16.051 -0.7863  0.5787  0.3035
  876MPD2     N12856   1.817   0.805  15.871 -0.0540  0.0906  0.1203
  876MPD2    H512857   1.781   0.745  15.798 -0.9808  0.3293  0.3878
  876MPD2    N112858   1.794   1.199  15.594 -0.4757  0.6091 -0.9664
  876MPD2    H712859   1.787   1.301  15.593 -3.8214  0.3725  1.8444
  877MPD2     C12860   1.313   1.488  15.065 -0.6918 -0.1676 -0.6873
  877MPD2    C112861   1.442   1.517  15.015  0.2264 -0.3497 -0.2454
  877MPD2    C212862   1.443   1.564  14.884 -0.2663 -0.1289  0.1385
  877MPD2    C312863   1.332   1.594  14.812  0.4992 -0.7016 -0.3572
  877MPD2    C412864   1.212   1.555  14.858 -0.4104 -0.1227 -0.1000
  877MPD2    C512865   1.204   1.505  14.981 -0.1176  0.3654  1.3530
  877MPD2     H12866   1.541   1.589  14.844  1.2810 -1.9143  2.8232
  877MPD2    H112867   1.130   1.563  14.788 -1.4124 -1.4922  0.9315
  877MPD2    H212868   1.291   1.441  15.160 -0.1493 -0.1130 -0.5387
  877MPD2    H312869   1.105   1.465  15.004 -0.2699 -0.4530 -0.7334
  877MPD2     N12870   1.338   1.631  14.675  0.1803 -0.5266  0.5556
  877MPD2    H512871   1.258   1.638  14.613 -0.9996 -0.2282  2.1269
  877MPD2    N112872   1.567   1.493  15.082 -0.7408 -0.1779  0.6886
  877MPD2    H712873   1.655   1.514  15.035 -1.2056 -0.2034 -0.1931
  878MPD2     C12874   1.610   0.288  12.938  0.2625 -1.1397 -0.2155
  878MPD2    C112875   1.648   0.388  13.019  0.0291 -0.2771 -0.6721
  878MPD2    C212876   1.729   0.359  13.130 -0.3629 -0.1999  0.7603
  878MPD2    C312877   1.775   0.233  13.160  0.3119  0.3440 -0.9408
  878MPD2    C412878   1.726   0.130  13.076 -0.2480  0.4257 -0.0304
  878MPD2    C512879   1.653   0.159  12.965  0.0861 -0.0166  0.0676
  878MPD2     H12880   1.771   0.446  13.180 -1.2160  1.4741 -1.4204
  878MPD2    H112881   1.749   0.024  13.082  0.6781  0.6164 -0.1731
  878MPD2    H212882   1.553   0.307  12.848 -0.3731  0.0428  0.4387
  878MPD2    H312883   1.630   0.072  12.905 -3.5069  0.0969  1.2851
  878MPD2     N12884   1.869   0.207  13.262 -0.4223 -0.1109  0.7333
  878MPD2    H512885   1.905   0.288  13.310  0.0832 -0.3273  0.7228
  878MPD2    N112886   1.588   0.513  12.982  0.4642 -0.3810 -0.7140
  878MPD2    H712887   1.540   0.512  12.893 -0.9138  1.4061 -0.0019
  879MPD2     C12888   1.612   2.170  17.015 -0.1241  0.0347  0.2094
  879MPD2    C112889   1.702   2.169  16.914  0.2128 -0.1943  0.0748
  879MPD2    C212890   1.683   2.083  16.806  0.6056  0.8249 -0.2664
  879MPD2    C312891   1.574   1.990  16.809 -0.4576  0.3725 -0.6160
  879MPD2    C412892   1.488   1.991  16.913 -0.8222  0.3060  0.0003
  879MPD2    C512893   1.514   2.073  17.020 -0.0420 -0.7081  0.2870
  879MPD2     H12894   1.740   2.084  16.714  2.6202 -2.5875  0.9788
  879MPD2    H112895   1.400   1.927  16.923  1.2345 -2.6011 -0.4195
  879MPD2    H212896   1.623   2.237  17.099 -1.4838 -0.4324  0.7562
  879MPD2    H312897   1.446   2.063  17.104  1.6274  0.9246  1.8409
  879MPD2     N12898   1.534   1.906  16.705  0.0777 -0.4377 -0.2575
  879MPD2    H512899   1.452   1.850  16.725 -1.7754  2.7243  0.9045
  879MPD2    N112900   1.804   2.268  16.917 -0.2059 -0.1625  0.6013
  879MPD2    H712901   1.804   2.323  17.002 -0.7361  1.4289 -0.4391
  880MPD2     C12902   3.040   3.447   0.008  0.2800  0.1024 -0.0323
  880MPD2    C112903   3.080   3.468   0.132  0.1186  0.3473 -0.0614
  880MPD2    C212904   3.139   3.360   0.193  0.0783 -0.3926  0.0355
  880MPD2    C312905   3.142   3.234   0.135  0.4671  0.3727  0.3390
  880MPD2    C412906   3.106   3.213   0.007 -0.0878  0.5618 -0.0664
  880MPD2    C512907   3.047   3.322  17.642  0.0286  0.8158 -0.1569
  880MPD2     H12908   3.165   3.359   0.298  0.2713 -0.7860 -0.0163
  880MPD2    H112909   3.107   3.121  17.648  2.0551 -0.5713  1.8436
  880MPD2    H212910   3.004   3.530  17.646 -1.5304  0.6101  1.7879
  880MPD2    H312911   3.011   3.318  17.540  0.6303  2.8315 -0.4533
  880MPD2     N12912   3.161   3.121   0.218  0.5380  0.2206  0.3548
  880MPD2    H512913   3.179   3.141   0.316  1.2309  0.2607  0.2247
  880MPD2    N112914   3.067   3.594   0.186 -0.0437  0.2398 -0.1498
  880MPD2    H712915   3.023   3.662   0.124  0.5108  0.4474 -0.3205
  881MPD2     C12916   3.182   4.521  17.597  0.8049  0.2296 -0.5869
  881MPD2    C112917   3.184   4.402  17.537  0.7476  0.0561 -0.2883
  881MPD2    C212918   3.141   4.296  17.614  0.2192 -0.2903  0.7765
  881MPD2    C312919   3.102   4.305   0.053  0.5918  0.1387  0.1328
  881MPD2    C412920   3.112   4.429   0.108  0.4479  0.3407  0.6450
  881MPD2    C512921   3.152   4.536   0.031 -0.2716 -0.1032 -0.4436
  881MPD2     H12922   3.125   4.198  17.571  1.4286 -0.8256  1.5387
  881MPD2    H112923   3.079   4.461   0.207 -2.1981 -0.8615  0.1476
  881MPD2    H212924   3.222   4.605  17.541  1.6011  0.4042  0.2540
  881MPD2    H312925   3.145   4.639   0.066  0.7249  0.2110 -1.1942
  881MPD2     N12926   3.052   4.198   0.127 -0.1573 -0.3830 -0.1691
  881MPD2    H512927   3.028   4.211   0.224  4.4551  0.0514  0.9235
  881MPD2    N112928   3.209   4.397  17.397  0.0796 -0.3397 -0.6510
  881MPD2    H712929   3.258   4.477  17.359 -0.0068 -0.4700 -1.0324
  882MPD2     C12930   1.229   1.122  14.165  0.2691 -0.1785  0.2692
  882MPD2    C112931   1.160   1.240  14.205 -0.5049 -0.2707 -0.4542
  882MPD2    C212932   1.028   1.220  14.255  0.1913  0.2719 -0.3723
  882MPD2    C312933   0.982   1.091  14.273 -0.1973 -0.1569 -0.2897
  882MPD2    C412934   1.056   0.983  14.224 -0.6425  0.0625  0.1781
  882MPD2    C512935   1.177   0.998  14.178  0.3875 -0.1781 -0.0327
  882MPD2     H12936   0.966   1.302  14.288 -2.5875 -1.0827 -2.1682
  882MPD2    H112937   1.025   0.881  14.242 -0.6704  0.4401  2.2238
  882MPD2    H212938   1.333   1.128  14.132  0.4495 -0.3905  0.7959
  882MPD2    H312939   1.234   0.908  14.162 -0.4315  0.0606 -4.2417
  882MPD2     N12940   0.859   1.056  14.338  0.0844 -0.0362  0.4059
  882MPD2    H512941   0.835   0.958  14.348 -2.0551  0.5231  0.9364
  882MPD2    N112942   1.232   1.361  14.200 -0.2994 -0.0689  0.2787
  882MPD2    H712943   1.329   1.356  14.171 -1.0578  0.5674 -2.3705
  883MPD2     C12944   3.465   1.459  16.150 -0.2013 -0.7886  0.4673
  883MPD2    C112945   3.557   1.365  16.098  0.2731 -0.5349  0.2008
  883MPD2    C212946   3.663   1.332  16.176 -0.5076 -0.3383 -0.1312
  883MPD2    C312947   3.692   1.382  16.303  0.0970  0.4846  0.6611
  883MPD2    C412948   3.600   1.471  16.351  0.0234 -0.1767  0.3423
  883MPD2    C512949   3.490   1.512  16.277 -0.1010 -0.1546  0.3582
  883MPD2     H12950   3.739   1.260  16.149 -0.8447 -0.9516  0.5590
  883MPD2    H112951   3.612   1.506  16.453  1.9783  2.2737 -0.7442
  883MPD2    H212952   3.381   1.493  16.089  1.4942 -0.9914 -1.9759
  883MPD2    H312953   3.428   1.589  16.321  2.2284  1.6604  0.4496
  883MPD2     N12954   3.809   1.342  16.374 -0.0279 -0.3985 -0.3904
  883MPD2    H512955   3.873   1.286  16.319  0.6369  0.7713 -0.8067
  883MPD2    N112956   3.540   1.296  15.973 -0.3491  0.0105  0.5845
  883MPD2    H712957   3.609   1.223  15.956 -0.6577 -0.6433  2.1634
  884MPD2     C12958   0.609   2.018  14.772  0.0393  0.2897 -0.4189
  884MPD2    C112959   0.594   2.154  14.802 -0.1811  0.3218  0.1526
  884MPD2    C212960   0.505   2.188  14.909  0.2577 -0.2851  0.0722
  884MPD2    C312961   0.427   2.087  14.972  0.1053  0.4294  0.5029
  884MPD2    C412962   0.439   1.958  14.929 -0.6256 -0.5916  0.0397
  884MPD2    C512963   0.527   1.921  14.831 -0.3207 -0.0940  0.7851
  884MPD2     H12964   0.506   2.291  14.942  2.5848 -0.6159  1.0288
  884MPD2    H112965   0.378   1.877  14.967 -0.8448 -1.1620 -1.5173
  884MPD2    H212966   0.685   1.979  14.705  1.8434  0.0697  1.7725
  884MPD2    H312967   0.541   1.815  14.814  1.0138 -0.2312  2.6743
  884MPD2     N12968   0.321   2.122  15.059  0.5756 -0.7253  0.0520
  884MPD2    H512969   0.266   2.045  15.098  0.9258 -1.4547 -0.9077
  884MPD2    N112970   0.672   2.260  14.742  0.4648  0.3325 -0.5819
  884MPD2    H712971   0.660   2.350  14.786 -2.8254  0.3922 -1.6141
  885MPD2     C12972   3.760   2.287   0.315 -0.1375 -0.2101  0.4579
  885MPD2    C112973   3.873   2.224   0.259 -0.2161  0.3889 -0.2943
  885MPD2    C212974   3.897   2.246   0.124 -0.3065  0.0506 -0.1236
  885MPD2    C312975   3.806   2.312   0.046 -1.0786 -0.1852  0.3208
  885MPD2    C412976   3.690   2.359   0.111  0.4757 -0.2339 -0.8120
  885MPD2    C512977   3.667   2.352   0.239 -0.4387 -0.7049 -0.0032
  885MPD2     H12978   3.984   2.204   0.077 -0.1126  1.2175 -0.8020
  885MPD2    H112979   3.616   2.424   0.066  2.6720  2.7940 -0.0472
  885MPD2    H212980   3.726   2.273   0.417  0.5066 -0.9668  0.5772
  885MPD2    H312981   3.587   2.390   0.303  1.2837  0.5369  1.4258
  885MPD2     N12982   3.830   2.326  17.599  0.3582 -0.1705  0.5392
  885MPD2    H512983   3.914   2.281  17.565  1.2484 -0.1046  2.6611
  885MPD2    N112984   3.946   2.146   0.348  0.2614 -0.5647  0.0181
  885MPD2    H712985   3.925   2.146   0.448  1.9739 -1.2469  0.3873
  886MPD2     C12986   0.257   0.634  15.547 -0.8685 -0.4858  0.3802
  886MPD2    C112987   0.222   0.647  15.412  0.1417  0.0036 -0.3896
  886MPD2    C212988   0.180   0.775  15.372 -0.2707 -0.4069  0.2924
  886MPD2    C312989   0.197   0.883  15.452  0.2844 -0.1462 -0.0865
  886MPD2    C412990   0.249   0.865  15.579 -1.0107  0.0715  0.4572
  886MPD2    C512991   0.279   0.744  15.625  0.6304  0.3969 -0.7862
  886MPD2     H12992   0.142   0.783  15.271  2.7827  0.9584 -0.7677
  886MPD2    H112993   0.278   0.949  15.641  0.6440 -1.5657  1.8709
  886MPD2    H212994   0.295   0.538  15.579  0.5392 -0.0149  0.1438
  886MPD2    H312995   0.319   0.734  15.725 -1.5993 -1.0509 -0.0494
  886MPD2     N12996   0.164   1.015  15.410 -0.4215  0.1774 -0.2705
  886MPD2    H512997   0.213   1.090  15.458  0.2550  0.6356 -1.6703
  886MPD2    N112998   0.231   0.540  15.316 -0.2089  0.3166  0.4440
  886MPD2    H712999   0.185   0.562  15.228  0.5620  1.0966  0.2351
  887MPD2     C13000   0.629   0.741  14.875 -0.3338 -0.2805 -0.3485
  887MPD2    C113001   0.595   0.692  15.002  0.1175 -0.7051  0.6761
  887MPD2    C213002   0.638   0.758  15.120 -0.6089 -0.2563  0.4299
  887MPD2    C313003   0.696   0.883  15.101 -0.0856  0.7053  0.8785
  887MPD2    C413004   0.716   0.942  14.976  0.3438 -0.2985  0.4574
  887MPD2    C513005   0.688   0.860  14.860 -0.1067 -0.5158 -0.7743
  887MPD2     H13006   0.624   0.717  15.219 -1.3078 -1.8070 -0.3071
  887MPD2    H113007   0.757   1.042  14.965  0.1541 -0.6087 -3.1021
  887MPD2    H213008   0.602   0.682  14.789  0.9724 -0.5717 -0.5601
  887MPD2    H313009   0.715   0.893  14.761  0.2383  1.1446 -0.1200
  887MPD2     N13010   0.719   0.962  15.211  0.0395 -0.3118  0.1488
  887MPD2    H513011   0.674   0.938  15.299 -0.2893  0.8312  0.2933
  887MPD2    N113012   0.515   0.578  15.018 -0.2746 -0.3245 -0.5450
  887MPD2    H713013   0.502   0.545  15.113  0.0217 -1.8077 -1.0154
  888MPD2     C13014   2.753   0.931  14.327 -0.1884 -0.4187  1.1695
  888MPD2    C113015   2.779   0.955  14.457  0.1321 -0.2721  0.0168
  888MPD2    C213016   2.861   1.060  14.500 -0.5200  0.1887  0.6533
  888MPD2    C313017   2.912   1.143  14.400  0.2492  0.4518  0.1456
  888MPD2    C413018   2.897   1.110  14.271 -0.3624 -0.3357  0.2509
  888MPD2    C513019   2.835   0.997  14.235 -0.1218  0.2880  0.3253
  888MPD2     H13020   2.879   1.075  14.606  1.9471  2.0233 -0.0079
  888MPD2    H113021   2.960   1.156  14.195 -1.3548  1.3482  0.4557
  888MPD2    H213022   2.699   0.848  14.282 -0.7781  0.7854 -0.3626
  888MPD2    H313023   2.842   0.969  14.131  0.6106 -1.2469  0.7971
  888MPD2     N13024   2.981   1.272  14.435  0.5793  0.0326  0.1889
  888MPD2    H513025   2.978   1.304  14.531 -1.7108 -0.3216  0.2368
  888MPD2    N113026   2.705   0.891  14.557 -0.3632  0.0977  0.3338
  888MPD2    H713027   2.745   0.900  14.650  0.5597  0.2143 -0.0694
  889MPD2     C13028   1.872   0.168  12.670  0.5696 -0.4089 -0.5986
  889MPD2    C113029   1.934   0.138  12.791 -0.1285 -0.3283  0.3981
  889MPD2    C213030   1.963   0.251  12.863 -0.2226 -0.2714  0.8079
  889MPD2    C313031   1.944   0.384  12.812 -0.5749  0.7719  0.1884
  889MPD2    C413032   1.896   0.408  12.688  0.4097 -0.0382 -0.2490
  889MPD2    C513033   1.867   0.295  12.615  0.4418 -0.4124  0.1653
  889MPD2     H13034   2.014   0.245  12.958 -2.9022 -0.6245  2.2035
  889MPD2    H113035   1.886   0.503  12.637 -1.8740 -0.3918 -0.4692
  889MPD2    H213036   1.836   0.085  12.610 -2.7766 -0.6037  1.6731
  889MPD2    H313037   1.835   0.313  12.512 -1.3438  0.2631  0.8372
  889MPD2     N13038   1.981   0.490  12.899 -0.3079 -0.3402  0.0161
  889MPD2    H513039   2.010   0.471  12.995 -0.0586 -1.7037 -0.3253
  889MPD2    N113040   1.920   0.011  12.844  0.5416 -0.2677  0.2183
  889MPD2    H713041   1.973   4.722  12.929  1.2559  1.9945  0.1190
  890MPD2     C13042   1.227   2.127  14.342 -0.4792 -0.5082 -0.6521
  890MPD2    C113043   1.354   2.168  14.376  0.6219  0.1895 -0.0700
  890MPD2    C213044   1.419   2.115  14.488 -0.5157 -0.4848  0.3984
  890MPD2    C313045   1.352   2.024  14.569  0.0919  1.0575  0.4449
  890MPD2    C413046   1.223   1.990  14.541  0.0188 -0.1894 -0.1828
  890MPD2    C513047   1.161   2.042  14.426 -0.7824  0.3539 -0.1249
  890MPD2     H13048   1.515   2.155  14.520 -1.0554  1.1133  0.0402
  890MPD2    H113049   1.175   1.929  14.617  0.2772  1.1207  1.0508
  890MPD2    H213050   1.180   2.166  14.253  0.2730 -1.4429 -1.4609
  890MPD2    H313051   1.055   2.025  14.412 -0.1871 -2.5412 -1.3031
  890MPD2     N13052   1.416   1.995  14.692 -0.0647 -0.6616 -0.4057
  890MPD2    H513053   1.515   2.019  14.688 -0.3592  0.4625 -0.8602
  890MPD2    N113054   1.412   2.259  14.284  0.9232 -0.0495  0.4415
  890MPD2    H713055   1.341   2.296  14.221  1.8128 -0.8742 -1.0585
  891MPD2     C13056   4.246   0.125  16.676 -0.4054  0.8099  0.5695
  891MPD2    C113057   4.231   0.260  16.679 -0.2137 -0.0781  0.0317
  891MPD2    C213058   4.342   0.341  16.677  0.1108 -0.2889  0.0474
  891MPD2    C313059   4.466   0.288  16.659 -0.8631 -0.1355 -0.0748
  891MPD2    C413060   4.488   0.150  16.652  0.6543 -0.4046 -0.1532
  891MPD2    C513061   4.373   0.071  16.669 -0.1507  0.1073 -0.8077
  891MPD2     H13062   4.328   0.448  16.695 -1.2089 -0.4107 -0.2486
  891MPD2    H113063   4.580   0.100  16.626  0.4864  0.5916 -2.6402
  891MPD2    H213064   4.159   0.062  16.694 -0.1829  0.5013  0.5603
  891MPD2    H313065   4.380   4.687  16.672 -1.6380  0.0792  1.8259
  891MPD2     N13066   4.574   0.385  16.653  0.4304  0.2591  0.4082
  891MPD2    H513067   4.549   0.480  16.679  2.9333  1.0548 -0.1281
  891MPD2    N113068   4.100   0.310  16.687 -0.1955  0.2318  0.9696
  891MPD2    H713069   4.026   0.241  16.699  0.3777 -0.9304 -2.4065
  892MPD2     C13070   0.437   1.724  14.503 -0.1305 -0.2803  0.2844
  892MPD2    C113071   0.366   1.665  14.600  0.4695  0.0997 -0.3570
  892MPD2    C213072   0.394   1.529  14.625 -0.0996 -0.4589  0.6515
  892MPD2    C313073   0.495   1.466  14.553 -0.0582  0.1842 -0.4125
  892MPD2    C413074   0.574   1.535  14.473  0.4810  0.0183 -0.5613
  892MPD2    C513075   0.545   1.665  14.445 -0.0339 -0.2212 -0.0996
  892MPD2     H13076   0.334   1.478  14.700  0.8667  1.6343  2.8661
  892MPD2    H113077   0.666   1.497  14.430  0.7877 -0.4195  0.4738
  892MPD2    H213078   0.415   1.828  14.479 -1.4167  0.3943  4.4629
  892MPD2    H313079   0.605   1.719  14.373  0.1847 -0.1591  0.1299
  892MPD2     N13080   0.526   1.337  14.577  0.3097 -0.0248 -0.1082
  892MPD2    H513081   0.615   1.306  14.539 -0.5693  0.5403 -2.6546
  892MPD2    N113082   0.266   1.734  14.666  0.4074  0.4191 -0.3275
  892MPD2    H713083   0.242   1.826  14.630  1.1714  0.3337 -1.0519
  893MPD2     C13084   1.886   3.329   1.592  0.4641  0.1841  0.9328
  893MPD2    C113085   1.888   3.405   1.482  0.6981  0.4485  0.0123
  893MPD2    C213086   1.779   3.415   1.399 -0.1300 -0.0790  0.3993
  893MPD2    C313087   1.661   3.354   1.437  0.0322 -0.0911 -0.7615
  893MPD2    C413088   1.665   3.269   1.552 -0.4445 -0.2363 -0.0068
  893MPD2    C513089   1.778   3.256   1.628 -0.5929  0.5890  0.0965
  893MPD2     H13090   1.789   3.485   1.317  1.1145 -0.6879  0.0355
  893MPD2    H113091   1.584   3.201   1.576 -0.6050  0.4477  1.3156
  893MPD2    H213092   1.963   3.338   1.668  0.4219  1.0861  0.8650
  893MPD2    H313093   1.783   3.196   1.718 -0.5849  1.2251  0.5224
  893MPD2     N13094   1.543   3.360   1.366  0.3085  0.2462  0.0536
  893MPD2    H513095   1.465   3.304   1.400 -0.2712  0.0528 -1.5764
  893MPD2    N113096   2.005   3.485   1.476 -0.2306 -0.3576 -0.2687
  893MPD2    H713097   2.067   3.487   1.556  0.5251  1.3964 -0.8908
  894MPD2     C13098   0.481   2.249   0.788 -0.0314 -0.3211 -0.0082
  894MPD2    C113099   0.497   2.215   0.926 -0.1530  0.7859 -0.0988
  894MPD2    C213100   0.580   2.298   1.010 -0.1576 -0.8386  0.2226
  894MPD2    C313101   0.654   2.396   0.941 -0.1749  0.9029  0.0682
  894MPD2    C413102   0.629   2.437   0.812  0.0430 -0.4776 -0.1231
  894MPD2    C513103   0.553   2.355   0.732  0.2655  0.3035  0.2990
  894MPD2     H13104   0.601   2.255   1.108 -0.8501 -1.8699 -0.0756
  894MPD2    H113105   0.686   2.518   0.768  0.2244 -0.3360  0.3805
  894MPD2    H213106   0.431   2.174   0.727 -0.7018  0.2041 -0.1129
  894MPD2    H313107   0.546   2.368   0.624  1.2387  0.6552  0.2808
  894MPD2     N13108   0.755   2.464   1.008  0.5900  0.5792  1.0593
  894MPD2    H513109   0.794   2.538   0.951 -0.9205  2.0549  1.9572
  894MPD2    N113110   0.432   2.103   0.987 -0.0012  0.5225  0.6046
  894MPD2    H713111   0.460   2.085   1.083 -0.0320 -0.0578  0.5011
  895MPD2     C13112   4.316   0.600  13.846 -0.4375 -0.0665  0.2476
  895MPD2    C113113   4.306   0.630  13.714 -0.2242 -0.1321  0.8547
  895MPD2    C213114   4.412   0.589  13.628  0.0902 -0.3579  0.2921
  895MPD2    C313115   4.526   0.520  13.674  0.2716 -0.4863  0.6080
  895MPD2    C413116   4.524   0.485  13.805 -0.1266 -0.4117 -0.1238
  895MPD2    C513117   4.420   0.522  13.887  0.7654  0.3506  0.3252
  895MPD2     H13118   4.391   0.599  13.522  4.2491  1.8385 -0.3075
  895MPD2    H113119   4.600   0.423  13.850 -0.0916 -0.3404 -0.0859
  895MPD2    H213120   4.237   0.622  13.916  0.4391  1.5667  0.7238
  895MPD2    H313121   4.436   0.502  13.993 -3.7526  0.6479  1.0829
  895MPD2     N13122   4.631   0.479  13.584 -0.1440  0.0373 -0.4370
  895MPD2    H513123   4.701   0.410  13.609 -0.3769 -1.0241 -2.6732
  895MPD2    N113124   4.203   0.693  13.653 -0.0806  0.8078  0.4489
  895MPD2    H713125   4.204   0.698  13.551  1.5592 -0.9639  0.3678
  896MPD2     C13126   2.417   2.331   1.640 -0.8834 -0.6126 -0.0671
  896MPD2    C113127   2.339   2.376   1.539 -0.2807 -0.3630  0.3268
  896MPD2    C213128   2.205   2.395   1.563  0.3526  0.8025  0.0159
  896MPD2    C313129   2.147   2.376   1.688 -0.1959  1.0079  0.0606
  896MPD2    C413130   2.227   2.343   1.795  1.1240 -0.6592  0.3276
  896MPD2    C513131   2.361   2.326   1.768  0.3402 -0.1054 -1.0199
  896MPD2     H13132   2.138   2.437   1.488  0.3306 -1.2794 -1.1391
  896MPD2    H113133   2.190   2.335   1.896  2.1599 -0.0193  0.7571
  896MPD2    H213134   2.523   2.316   1.627 -0.8232 -1.8091  1.8671
  896MPD2    H313135   2.437   2.304   1.842 -0.5382  1.3631  0.3123
  896MPD2     N13136   2.004   2.393   1.704  0.7520  0.3901  0.4302
  896MPD2    H513137   1.939   2.412   1.628 -0.7406  0.6799  1.7655
  896MPD2    N113138   2.406   2.388   1.412  0.1450 -0.5520 -0.3409
  896MPD2    H713139   2.505   2.369   1.417  0.0077 -1.3989 -0.7979
  897MPD2     C13140   2.762   4.199  10.221 -0.2069  0.3907  0.0340
  897MPD2    C113141   2.842   4.305  10.254 -0.2896 -0.0574  1.0093
  897MPD2    C213142   2.778   4.407  10.325 -0.3309  0.1336  0.3474
  897MPD2    C313143   2.649   4.393  10.378 -0.5474  0.1321  0.2140
  897MPD2    C413144   2.573   4.290  10.336 -0.0681 -0.2297 -0.3043
  897MPD2    C513145   2.631   4.198  10.256 -0.0527 -0.0203  0.2472
  897MPD2     H13146   2.831   4.493  10.363  2.1931 -1.2408 -0.0609
  897MPD2    H113147   2.469   4.278  10.361 -0.0491  1.4433  0.5555
  897MPD2    H213148   2.808   4.119  10.163 -0.5809  0.1488  0.0763
  897MPD2    H313149   2.571   4.116  10.218 -0.8719 -0.8953  3.4105
  897MPD2     N13150   2.588   4.494  10.458  0.0876 -0.0789  0.0556
  897MPD2    H513151   2.645   4.568  10.499 -0.7555  0.6232 -0.0287
  897MPD2    N113152   2.977   4.306  10.209  0.0987  0.3774  0.4234
  897MPD2    H713153   3.017   4.216  10.187  0.2486  0.8301 -1.2056
  898MPD2     C13154   0.873   1.460  16.862 -0.0171  0.6917 -0.1983
  898MPD2    C113155   0.885   1.398  16.987 -1.0050  0.3879  0.5771
  898MPD2    C213156   0.792   1.303  17.027  0.7433 -0.4499 -0.1871
  898MPD2    C313157   0.692   1.257  16.944  0.4977 -0.1719  0.1589
  898MPD2    C413158   0.687   1.310  16.816  0.4484  0.2900 -0.2447
  898MPD2    C513159   0.774   1.412  16.779 -0.4456  0.3349  0.4999
  898MPD2     H13160   0.805   1.259  17.125  1.4903 -0.3030 -0.2226
  898MPD2    H113161   0.619   1.283  16.736  2.1771  0.6874 -1.8671
  898MPD2    H213162   0.941   1.534  16.822 -0.3176  1.2258  0.2806
  898MPD2    H313163   0.766   1.453  16.679 -0.2662  0.0042  0.3492
  898MPD2     N13164   0.603   1.155  16.990  0.5266 -0.1069 -0.6466
  898MPD2    H513165   0.612   1.120  17.085 -2.7857  0.3988 -0.1328
  898MPD2    N113166   0.990   1.432  17.083 -0.0507  0.0765 -0.7820
  898MPD2    H713167   0.984   1.383  17.171 -0.6400  1.6721  0.0625
  899MPD2     C13168   0.851   1.630  17.294  0.4780 -0.2278 -0.0077
  899MPD2    C113169   0.924   1.722  17.361  0.5616 -0.1807  0.9416
  899MPD2    C213170   0.966   1.709  17.495  0.6582  0.0871 -0.4914
  899MPD2    C313171   0.918   1.600  17.565 -0.1916  0.3435 -0.8245
  899MPD2    C413172   0.835   1.507  17.497  1.2116  0.2740 -0.0375
  899MPD2    C513173   0.804   1.522  17.366  0.1157 -0.1605  0.5592
  899MPD2     H13174   1.024   1.787  17.543 -0.1077  1.7258 -2.2006
  899MPD2    H113175   0.786   1.428  17.553 -2.4111  2.6007  0.1059
  899MPD2    H213176   0.825   1.629  17.189  0.3038 -1.0622  0.0428
  899MPD2    H313177   0.756   1.440  17.314  0.9139 -1.0116  1.1669
  899MPD2     N13178   0.926   1.584   0.011  0.1879 -0.9028 -0.3849
  899MPD2    H513179   0.884   1.501   0.049  0.2460 -1.4181 -1.4565
  899MPD2    N113180   0.966   1.822  17.267  0.0894  0.4208  0.8371
  899MPD2    H713181   0.924   1.815  17.175 -1.3203  0.5654  1.4726
  900MPD2     C13182   0.662   3.247  12.657 -0.4039  0.2220 -0.2495
  900MPD2    C113183   0.659   3.167  12.541 -0.0751 -0.1746  0.7572
  900MPD2    C213184   0.562   3.194  12.444  0.3560 -0.6004  0.7633
  900MPD2    C313185   0.469   3.298  12.466 -0.0260 -0.1812  0.1208
  900MPD2    C413186   0.480   3.377  12.578  0.3441 -0.2539  0.4552
  900MPD2    C513187   0.570   3.347  12.673  0.4594  0.2885 -1.4137
  900MPD2     H13188   0.546   3.131  12.357  1.4705  0.1573  0.0146
  900MPD2    H113189   0.396   3.443  12.597  1.1688  0.4385  1.7269
  900MPD2    H213190   0.726   3.225  12.741 -4.1161 -0.1193  2.4875
  900MPD2    H313191   0.566   3.403  12.765 -0.3952 -0.0125 -1.2624
  900MPD2     N13192   0.364   3.311  12.373 -0.1071 -0.2580 -0.2186
  900MPD2    H513193   0.370   3.241  12.299 -0.9257 -0.8205  0.2407
  900MPD2    N113194   0.749   3.054  12.522 -0.0790  0.1395 -0.1715
  900MPD2    H713195   0.817   3.032  12.595 -1.0894 -0.7014  0.5107
  901MPD2     C13196   0.901   2.050  12.703 -0.6770 -0.0353 -0.4209
  901MPD2    C113197   1.027   2.102  12.684 -0.4847 -0.0048  0.3602
  901MPD2    C213198   1.030   2.235  12.655 -0.2002 -0.6851  0.2189
  901MPD2    C313199   0.914   2.311  12.642 -0.2819 -0.8814 -0.4878
  901MPD2    C413200   0.787   2.257  12.672  0.2999  0.2844  0.0834
  901MPD2    C513201   0.789   2.125  12.701 -0.1903  0.3068  0.0137
  901MPD2     H13202   1.125   2.282  12.636  0.2125 -1.0471  1.3846
  901MPD2    H113203   0.688   2.301  12.666 -1.3316 -3.7685 -2.6191
  901MPD2    H213204   0.893   1.946  12.734 -1.1224  0.0161 -0.3650
  901MPD2    H313205   0.695   2.071  12.710 -0.0601  0.1623  0.5147
  901MPD2     N13206   0.939   2.446  12.596  0.4133  0.1888 -0.2991
  901MPD2    H513207   1.035   2.467  12.573  0.0663  0.4043 -1.5634
  901MPD2    N113208   1.144   2.017  12.695  0.0761  0.2291  0.1982
  901MPD2    H713209   1.129   1.920  12.719 -2.4078  0.4275 -0.5136
  902MPD2     C13210   4.404   1.125  12.249 -0.6628  0.7937 -0.0541
  902MPD2    C113211   4.487   1.115  12.355  0.1712  0.2521 -0.3633
  902MPD2    C213212   4.552   0.998  12.375  0.3342  0.0095  1.0681
  902MPD2    C313213   4.535   0.887  12.295 -0.0155 -0.3732 -0.6248
  902MPD2    C413214   4.456   0.894  12.188 -0.6574 -0.6263  0.6249
  902MPD2    C513215   4.403   1.019  12.159 -0.4069  0.2676  0.3833
  902MPD2     H13216   4.600   0.997  12.472  0.8599  0.8201  0.8081
  902MPD2    H113217   4.453   0.815  12.114 -0.7814 -0.0065 -0.0292
  902MPD2    H213218   4.348   1.215  12.226 -1.0296 -0.1327 -2.8838
  902MPD2    H313219   4.355   1.027  12.062  0.0165 -0.1081  0.1416
  902MPD2     N13220   4.593   0.762  12.321  0.3236 -0.0950  0.5281
  902MPD2    H513221   4.559   0.690  12.259  1.6297 -1.2848  1.1988
  902MPD2    N113222   4.488   1.220  12.445  0.6121 -0.1759  0.0951
  902MPD2    H713223   4.409   1.285  12.445  0.8379  0.1083 -2.6544
  903MPD2     C13224   4.691   0.253  11.830  0.2993 -0.4108 -0.3223
  903MPD2    C113225   4.625   0.341  11.909 -0.2061  0.4033  0.0559
  903MPD2    C213226   4.542   0.433  11.849 -0.5748  0.5401  0.6283
  903MPD2    C313227   4.518   0.427  11.712  0.0992  0.3724 -0.0274
  903MPD2    C413228   4.593   0.346  11.636 -0.3694  0.2126 -0.4067
  903MPD2    C513229   4.681   0.261  11.693  0.6696 -0.0614 -0.0684
  903MPD2     H13230   4.472   0.484  11.914  0.4122  2.5433  0.1045
  903MPD2    H113231   4.587   0.337  11.528 -2.6412 -0.4422 -0.2073
  903MPD2    H213232   0.045   0.187  11.866  0.2130 -0.4140 -0.1421
  903MPD2    H313233   0.007   0.184  11.635 -0.3456 -0.4658 -0.4037
  903MPD2     N13234   4.418   0.513  11.659  0.0818  0.1739 -0.4319
  903MPD2    H513235   4.364   0.569  11.724  0.0451 -1.1671  0.7119
  903MPD2    N113236   4.630   0.333  12.049 -0.1798  0.1397 -0.4822
  903MPD2    H713237   4.680   0.253  12.085  0.8649 -0.2320 -2.7391
  904MPD2     C13238   4.454   4.687  13.682  0.0547 -0.2039  0.4259
  904MPD2    C113239   4.423   0.074  13.755 -0.1517 -0.7699  0.5267
  904MPD2    C213240   4.501   0.120  13.860  0.1006 -0.9321 -0.0070
  904MPD2    C313241   4.619   0.052  13.893  0.1293 -0.0925  0.0761
  904MPD2    C413242   4.647   4.667  13.817  0.2586 -0.0154  0.3146
  904MPD2    C513243   4.565   4.626  13.715 -0.5887 -0.6375 -0.3281
  904MPD2     H13244   4.474   0.214  13.908  1.6547  0.8369 -2.5901
  904MPD2    H113245   0.014   4.610  13.834  0.4953  0.0235 -0.8140
  904MPD2    H213246   4.403   4.643  13.598  0.3899 -0.1617  0.1990
  904MPD2    H313247   4.596   4.541  13.655  0.4881 -0.5079  0.0433
  904MPD2     N13248   4.703   0.097  13.999 -0.0282 -0.6508 -0.1577
  904MPD2    H513249   4.676   0.188  14.037  1.0779  0.3610 -1.7983
  904MPD2    N113250   4.306   0.147  13.740 -0.2695 -0.3352  0.7221
  904MPD2    H713251   4.277   0.214  13.810 -2.3278 -2.0640  1.5229
  905MPD2     C13252   4.060   0.302  13.075 -0.1708 -0.1196 -0.1892
  905MPD2    C113253   4.095   0.378  13.186 -0.9110 -0.2613 -0.4868
  905MPD2    C213254   4.217   0.443  13.190 -0.5771  0.4844 -0.5133
  905MPD2    C313255   4.315   0.389  13.107 -0.0120 -0.0177 -0.9909
  905MPD2    C413256   4.276   0.324  12.989 -0.0611 -0.5185  0.4340
  905MPD2    C513257   4.145   0.285  12.975 -0.3321  0.4882 -0.0512
  905MPD2     H13258   4.251   0.494  13.280 -1.2567  0.0329 -0.0027
  905MPD2    H113259   4.339   0.287  12.908 -0.6523  1.7069 -1.0391
  905MPD2    H213260   3.964   0.253  13.065 -0.6019  0.8195 -0.6503
  905MPD2    H313261   4.111   0.233  12.885  0.6141 -3.3218  1.7936
  905MPD2     N13262   4.450   0.434  13.134  0.2988 -0.4145 -0.6456
  905MPD2    H513263   4.473   0.475  13.224  2.3362 -1.6632 -0.6111
  905MPD2    N113264   4.002   0.372  13.293 -0.0159 -0.0188  0.0493
  905MPD2    H713265   3.921   0.310  13.289 -0.3872  0.5073 -0.4827
  906MPD2     C13266   1.629   0.167  11.214  0.0559  0.1143 -0.2269
  906MPD2    C113267   1.648   0.063  11.123  0.6188 -0.0047 -0.1131
  906MPD2    C213268   1.723   4.679  11.164 -0.4993 -0.6476 -0.4995
  906MPD2    C313269   1.779   4.678  11.286  0.0321 -0.1572  0.0459
  906MPD2    C413270   1.762   0.063  11.370 -0.4388 -0.7095 -0.9514
  906MPD2    C513271   1.691   0.171  11.335  0.5951  0.7483  0.4031
  906MPD2     H13272   1.733   4.600  11.091  0.2482 -1.1393  0.1341
  906MPD2    H113273   1.804   0.065  11.469 -0.0886 -0.2252 -1.1113
  906MPD2    H213274   1.572   0.255  11.187 -1.9574 -0.3895  2.4126
  906MPD2    H313275   1.679   0.257  11.399  2.2060  0.6630  0.8189
  906MPD2     N13276   1.855   4.566  11.339 -0.4426  0.2416  0.1121
  906MPD2    H513277   1.851   4.564  11.441 -0.2913 -0.3484  0.1070
  906MPD2    N113278   1.594   0.061  10.993  0.2365 -0.2347  0.2603
  906MPD2    H713279   1.590   4.691  10.953 -3.6169 -0.2636  0.7732
  907MPD2     C13280   0.022   4.362  15.228 -0.1175  0.0240  0.0663
  907MPD2    C113281   0.114   4.269  15.263  0.3437  0.6005  0.3861
  907MPD2    C213282   0.158   4.260  15.393  0.0283 -0.2734 -0.0847
  907MPD2    C313283   0.103   4.338  15.495  0.0584 -0.1732 -0.5303
  907MPD2    C413284   0.010   4.435  15.458  0.2852 -0.5941  0.2892
  907MPD2    C513285   4.694   4.446  15.325 -0.0205 -0.6468  0.6697
  907MPD2     H13286   0.231   4.182  15.412 -0.0401 -0.1759  0.5749
  907MPD2    H113287   4.693   4.511  15.524 -0.6567  1.2709 -2.3744
  907MPD2    H213288   4.715   4.383  15.126  0.8757  4.1985  0.6517
  907MPD2    H313289   4.623   4.526  15.305 -1.6428 -1.9460  1.2029
  907MPD2     N13290   0.152   4.303  15.623 -0.4713 -0.6620 -0.1923
  907MPD2    H513291   0.216   4.227  15.641 -0.1059 -0.4992 -0.7907
  907MPD2    N113292   0.164   4.167  15.178  0.0540  0.4241 -0.2574
  907MPD2    H713293   0.232   4.110  15.227 -1.1798 -2.6130 -2.1325
  908MPD2     C13294   3.278   4.244   9.408  0.8271 -0.3331  0.3198
  908MPD2    C113295   3.230   4.143   9.487 -0.6116 -0.2173 -0.7608
  908MPD2    C213296   3.254   4.150   9.621 -0.2709  0.6237 -0.1844
  908MPD2    C313297   3.318   4.259   9.684  1.3050  0.4646  0.0780
  908MPD2    C413298   3.364   4.359   9.606 -0.3640  0.9200  0.0734
  908MPD2    C513299   3.341   4.348   9.471 -0.5227 -0.8607 -0.6719
  908MPD2     H13300   3.225   4.063   9.678  1.9016 -0.9490 -1.5017
  908MPD2    H113301   3.418   4.443   9.648  1.8578 -1.1463  1.3325
  908MPD2    H213302   3.247   4.261   9.305  0.1195 -0.6994  0.4707
  908MPD2    H313303   3.373   4.430   9.407  1.2064 -1.0429 -0.0549
  908MPD2     N13304   3.323   4.265   9.825  0.1553  0.1447 -0.4252
  908MPD2    H513305   3.266   4.196   9.872  0.1842  0.4291  0.0260
  908MPD2    N113306   3.161   4.033   9.431 -0.1387 -0.0726  0.0812
  908MPD2    H713307   3.130   3.959   9.492  1.0034 -1.4311 -1.0035
  909MPD2     C13308   3.438   2.483  11.705 -0.4470  0.8535  0.5330
  909MPD2    C113309   3.423   2.607  11.643 -0.4314 -0.2783 -0.3612
  909MPD2    C213310   3.382   2.722  11.709 -0.7930 -0.4823 -0.2852
  909MPD2    C313311   3.347   2.705  11.840  0.0481 -0.6559  0.1588
  909MPD2    C413312   3.337   2.582  11.898 -0.8319 -0.1558 -0.1368
  909MPD2    C513313   3.384   2.473  11.831 -0.0010  0.3433 -0.1118
  909MPD2     H13314   3.389   2.814  11.653  1.9816 -0.5775 -0.1139
  909MPD2    H113315   3.298   2.563  11.997 -0.6323  2.8820  0.5054
  909MPD2    H213316   3.476   2.390  11.666 -1.5219  0.6069  0.0531
  909MPD2    H313317   3.390   2.381  11.888  0.1604  1.0932  1.0803
  909MPD2     N13318   3.324   2.829  11.911  0.2610 -0.7600 -0.5282
  909MPD2    H513319   3.326   2.915  11.857 -1.2385 -0.8598 -0.7263
  909MPD2    N113320   3.465   2.628  11.515 -0.4554  0.1023  0.0100
  909MPD2    H713321   3.470   2.725  11.484 -0.2869 -0.1720 -0.8430
  910MPD2     C13322   4.602   0.088  16.326 -0.2561 -0.4832  0.1318
  910MPD2    C113323   4.652   0.022  16.214 -0.4601  0.5003 -0.1656
  910MPD2    C213324   4.581   0.016  16.098  0.5694  0.1451 -0.2251
  910MPD2    C313325   4.448   0.062  16.092  0.3324  0.4353  0.0799
  910MPD2    C413326   4.409   0.144  16.194  0.1718 -0.6861  0.4749
  910MPD2    C513327   4.489   0.159  16.299 -0.2897  0.7629  0.1021
  910MPD2     H13328   4.612   4.679  16.013  2.3773  0.4679  0.2099
  910MPD2    H113329   4.309   0.184  16.210  0.4544  0.8288 -1.5279
  910MPD2    H213330   4.645   0.102  16.424  1.2629 -0.6845 -0.5125
  910MPD2    H313331   4.463   0.216  16.387 -0.4434  0.2708  0.3748
  910MPD2     N13332   4.368   0.035  15.981 -0.0958 -0.1493  0.7812
  910MPD2    H513333   4.291   0.100  15.970 -0.3352 -0.7199 -1.0529
  910MPD2    N113334   0.053   4.676  16.217  0.0468 -0.2389 -0.7547
  910MPD2    H713335   0.087   4.640  16.129  1.8212 -0.8317  0.1680
  911MPD2     C13336   2.595   1.090  16.354 -0.4709 -0.6591  0.1166
  911MPD2    C113337   2.619   1.045  16.223  0.5367 -0.5885 -0.7029
  911MPD2    C213338   2.548   1.104  16.121  0.2520  0.0272 -0.0564
  911MPD2    C313339   2.455   1.203  16.145 -0.3600 -0.6416 -0.0020
  911MPD2    C413340   2.427   1.238  16.272 -0.2482 -0.6545  0.0267
  911MPD2    C513341   2.497   1.187  16.378  0.1416  0.1668  0.7354
  911MPD2     H13342   2.563   1.076  16.017  1.7887  2.0534 -0.3856
  911MPD2    H113343   2.360   1.321  16.290 -0.5199 -0.5441 -1.5006
  911MPD2    H213344   2.637   1.039  16.440 -0.6259  2.0188  1.7932
  911MPD2    H313345   2.462   1.220  16.475 -1.7885 -0.3177  0.2177
  911MPD2     N13346   2.390   1.275  16.050 -0.0999 -0.0583 -0.5051
  911MPD2    H513347   2.307   1.325  16.079 -0.9250 -1.2756 -0.7658
  911MPD2    N113348   2.713   0.945  16.200 -0.3657 -0.2003 -0.1810
  911MPD2    H713349   2.739   0.903  16.289  1.7410  0.5685 -0.4432
  912MPD2     C13350   2.017   0.739  15.548 -0.2352 -0.0439 -0.0022
  912MPD2    C113351   2.085   0.784  15.653  0.2954  0.2280  0.3311
  912MPD2    C213352   2.157   0.697  15.738 -0.3810  0.7361 -0.3265
  912MPD2    C313353   2.152   0.561  15.730  0.2163  0.1446  0.7513
  912MPD2    C413354   2.083   0.518  15.622 -0.6295 -0.2397 -0.0233
  912MPD2    C513355   2.018   0.605  15.534 -0.5713 -0.1126  0.2659
  912MPD2     H13356   2.223   0.732  15.817 -1.8217  2.3800  0.1708
  912MPD2    H113357   2.069   0.414  15.594  0.3319 -0.5555  0.6623
  912MPD2    H213358   1.975   0.803  15.472 -1.4559 -0.1799  0.5623
  912MPD2    H313359   1.986   0.572  15.436 -0.2688 -0.7101  0.3684
  912MPD2     N13360   2.231   0.473  15.812 -0.0472 -0.7047 -0.1289
  912MPD2    H513361   2.297   0.516  15.876  1.3330  0.5925 -2.4424
  912MPD2    N113362   2.094   0.924  15.657 -0.2922  0.4502  0.5692
  912MPD2    H713363   2.042   0.973  15.585 -0.2862  1.6065  1.3442
  913MPD2     C13364   2.071   1.776  10.989 -0.1882  0.3128  0.1815
  913MPD2    C113365   2.204   1.766  10.956 -0.5028  0.2746 -0.4307
  913MPD2    C213366   2.246   1.773  10.824  0.0686  0.0076 -0.0405
  913MPD2    C313367   2.151   1.779  10.724 -0.0689  0.3458 -0.3885
  913MPD2    C413368   2.017   1.798  10.759  0.4139  0.0259  0.1325
  913MPD2    C513369   1.976   1.802  10.890  0.2157 -0.5438 -0.6119
  913MPD2     H13370   2.347   1.758  10.788 -0.1850 -2.8476  0.4435
  913MPD2    H113371   1.935   1.803  10.689 -0.5960  0.1965  1.3126
  913MPD2    H213372   2.049   1.769  11.095 -2.6657  1.4584 -0.2519
  913MPD2    H313373   1.872   1.823  10.915  1.1680  1.3909  1.8102
  913MPD2     N13374   2.182   1.773  10.591 -0.1611  0.2102  0.0908
  913MPD2    H513375   2.103   1.788  10.528  0.1946  0.5322 -0.2774
  913MPD2    N113376   2.294   1.738  11.060 -0.0877 -0.6404  0.4880
  913MPD2    H713377   2.262   1.742  11.157 -0.0175 -2.4728  0.5794
  914MPD2     C13378   0.942   1.444  12.136 -0.3533 -0.1216 -1.3196
  914MPD2    C113379   0.900   1.569  12.180  0.4431 -0.4104  0.3459
  914MPD2    C213380   0.975   1.634  12.278  0.2571  0.4768 -0.3236
  914MPD2    C313381   1.082   1.564  12.338 -0.4758 -0.5572  0.5246
  914MPD2    C413382   1.114   1.434  12.303 -0.1509  1.0481 -0.5751
  914MPD2    C513383   1.054   1.383  12.183 -0.1592  0.8211  0.9017
  914MPD2     H13384   0.959   1.732  12.320  1.6415  0.5874 -0.0452
  914MPD2    H113385   1.188   1.380  12.361  0.0605  1.8778 -0.0722
  914MPD2    H213386   0.900   1.396  12.048 -1.9019 -3.1839  1.0934
  914MPD2    H313387   1.093   1.291  12.141 -2.5508  0.2804 -0.1062
  914MPD2     N13388   1.155   1.635  12.431  0.2469  0.1913 -1.2365
  914MPD2    H513389   1.135   1.734  12.422 -0.6661  0.3142  1.8893
  914MPD2    N113390   0.783   1.638  12.132 -0.1655  0.3165  0.3590
  914MPD2    H713391   0.728   1.584  12.067  0.5504  0.2793 -0.2128
  915MPD2     C13392   3.977   1.875  15.646  0.0840  0.7040  0.2485
  915MPD2    C113393   3.878   1.936  15.574  0.1619  0.0380 -0.4202
  915MPD2    C213394   3.776   1.999  15.647 -0.4218  0.0371  0.0899
  915MPD2    C313395   3.784   2.004  15.786  0.1033  0.3339  0.0070
  915MPD2    C413396   3.885   1.947  15.855  0.5315 -0.3748 -0.3237
  915MPD2    C513397   3.974   1.870  15.783 -0.0093 -0.0478 -0.5389
  915MPD2     H13398   3.685   2.036  15.599  0.3137 -0.6654 -1.8358
  915MPD2    H113399   3.900   1.954  15.962  0.5397 -2.0886 -0.2082
  915MPD2    H213400   4.059   1.824  15.596  0.6572  1.1253  0.7643
  915MPD2    H313401   4.049   1.820  15.842 -1.7669  0.2270  1.9188
  915MPD2     N13402   3.678   2.074  15.851  0.1861  0.2710  0.5915
  915MPD2    H513403   3.600   2.108  15.797  0.5887 -2.0064 -1.4396
  915MPD2    N113404   3.867   1.918  15.435 -0.7133  0.2224  0.8583
  915MPD2    H713405   3.924   1.843  15.398 -0.2567  0.9351  0.1170
  916MPD2     C13406   1.732   0.399  15.432 -0.1834  0.6982  0.3752
  916MPD2    C113407   1.761   0.322  15.544 -0.7506 -0.4083 -0.1964
  916MPD2    C213408   1.773   0.186  15.522  0.1963 -0.3563  0.8075
  916MPD2    C313409   1.775   0.129  15.390 -0.6587 -0.0488 -0.2014
  916MPD2    C413410   1.738   0.210  15.283  0.2916  0.0995  0.2655
  916MPD2    C513411   1.715   0.339  15.312 -0.5143  0.0600 -0.1018
  916MPD2     H13412   1.793   0.116  15.603 -0.3720 -1.1035  0.3090
  916MPD2    H113413   1.734   0.195  15.176 -1.7269  2.1201  0.0687
  916MPD2    H213414   1.728   0.507  15.429 -0.8501  0.6469 -0.5474
  916MPD2    H313415   1.674   0.401  15.233 -0.4805  0.7474  0.4179
  916MPD2     N13416   1.788   4.713  15.375  0.1900 -0.0067 -0.1107
  916MPD2    H513417   1.790   4.659  15.461 -0.8889 -1.5593 -1.0564
  916MPD2    N113418   1.753   0.388  15.670  0.0857  0.3441  0.5387
  916MPD2    H713419   1.724   0.485  15.676  1.8590  0.9685 -0.7551
  917MPD2     C13420   2.034   2.445  11.042 -0.0058  0.1061 -0.0266
  917MPD2    C113421   2.103   2.471  11.166  0.0107 -0.2287 -0.0661
  917MPD2    C213422   2.231   2.517  11.149  0.3466  0.0187  0.2529
  917MPD2    C313423   2.270   2.573  11.027  0.2342 -0.3385 -0.8648
  917MPD2    C413424   2.196   2.570  10.914 -0.7912  0.0722  0.5444
  917MPD2    C513425   2.077   2.502  10.921 -0.5892  0.8287 -0.1283
  917MPD2     H13426   2.303   2.506  11.230  1.4705  0.1920 -0.7284
  917MPD2    H113427   2.228   2.609  10.818 -0.2364  1.9463  1.4942
  917MPD2    H213428   1.936   2.400  11.039 -0.4806  1.2045 -0.8269
  917MPD2    H313429   2.018   2.488  10.831 -0.1167  0.3402 -0.3615
  917MPD2     N13430   2.399   2.631  11.009  0.4269 -0.2009 -0.0553
  917MPD2    H513431   2.430   2.641  10.912 -0.8687 -0.2300 -0.4668
  917MPD2    N113432   2.047   2.432  11.287  0.1616 -0.5200 -0.1621
  917MPD2    H713433   1.975   2.361  11.277 -2.0624  1.7210 -0.0565
  918MPD2     C13434   2.303   2.583  12.260  0.1099 -0.3184  0.3839
  918MPD2    C113435   2.397   2.593  12.164 -0.1593  0.2717  0.4128
  918MPD2    C213436   2.374   2.536  12.039 -0.6119 -0.1888 -0.2932
  918MPD2    C313437   2.259   2.476  12.008 -0.3019  0.0294 -0.1305
  918MPD2    C413438   2.152   2.483  12.105 -0.3504 -0.0501 -0.5328
  918MPD2    C513439   2.178   2.535  12.226 -0.0796  0.0636 -0.1594
  918MPD2     H13440   2.451   2.530  11.963 -1.1145 -2.0662 -0.6271
  918MPD2    H113441   2.051   2.450  12.083 -0.1019 -0.5632 -0.9052
  918MPD2    H213442   2.312   2.600  12.367 -0.9571 -0.1917  0.4534
  918MPD2    H313443   2.102   2.532  12.303  1.0518 -0.5143  0.9325
  918MPD2     N13444   2.236   2.405  11.884  0.2443  0.3491  0.4409
  918MPD2    H513445   2.302   2.412  11.807 -0.1157  0.8791  0.1831
  918MPD2    N113446   2.525   2.650  12.199  0.9304  0.4098  0.1862
  918MPD2    H713447   2.595   2.656  12.125 -0.7990 -0.3333 -1.5076
  919MPD2     C13448   2.873   1.070  11.740 -0.0219 -0.0156 -0.0416
  919MPD2    C113449   2.860   0.951  11.675 -0.1877  0.0044 -0.4115
  919MPD2    C213450   2.825   0.954  11.543  0.2875 -0.1619 -0.9106
  919MPD2    C313451   2.809   1.077  11.474 -0.6178 -0.0307 -0.5987
  919MPD2    C413452   2.827   1.190  11.542 -0.4343  0.7943 -0.3483
  919MPD2    C513453   2.869   1.187  11.670 -0.6138  0.1662 -0.2970
  919MPD2     H13454   2.802   0.861  11.493  0.5366  0.5633 -2.3633
  919MPD2    H113455   2.792   1.283  11.499 -0.9666  0.3562 -0.8571
  919MPD2    H213456   2.867   1.086  11.847  2.3668  1.4982 -0.1403
  919MPD2    H313457   2.865   1.283  11.719  1.3251  1.9667 -3.6424
  919MPD2     N13458   2.748   1.094  11.344  0.2035 -0.6100  0.0633
  919MPD2    H513459   2.746   1.188  11.307 -0.7008 -1.3620 -1.7462
  919MPD2    N113460   2.839   0.825  11.746  0.0611 -0.6822 -0.2717
  919MPD2    H713461   2.790   0.757  11.689  1.6303 -1.3261 -0.8539
  920MPD2     C13462   1.904   1.464  11.020 -0.7085 -0.7557  0.1094
  920MPD2    C113463   1.928   1.359  10.929 -0.1574  0.0447  0.5751
  920MPD2    C213464   2.046   1.285  10.935  0.1464 -0.0581  0.3255
  920MPD2    C313465   2.138   1.305  11.034  0.0165 -0.0625  0.3523
  920MPD2    C413466   2.103   1.396  11.128  0.0150  0.0132 -0.5647
  920MPD2    C513467   1.987   1.473  11.131  0.0561  0.0603 -0.5366
  920MPD2     H13468   2.061   1.202  10.867  0.0809 -0.4494  0.7868
  920MPD2    H113469   2.191   1.426  11.183 -0.6231  0.1069  0.4183
  920MPD2    H213470   1.816   1.527  11.013 -0.1979  0.2483  2.6827
  920MPD2    H313471   1.979   1.545  11.212  0.7441  0.8219 -1.1530
  920MPD2     N13472   2.264   1.245  11.020 -0.1272  0.5790  0.4077
  920MPD2    H513473   2.267   1.180  10.942 -0.3179  1.3229 -0.2173
  920MPD2    N113474   1.835   1.328  10.827 -0.3284  0.1018  0.1203
  920MPD2    H713475   1.854   1.246  10.770  0.2340  0.3308 -0.0301
  921MPD2     C13476   3.459   0.930  16.669 -0.0121  0.7456 -0.6351
  921MPD2    C113477   3.451   0.813  16.600  0.1650  0.4287 -0.4834
  921MPD2    C213478   3.336   0.790  16.525 -0.3423  0.1904  0.1912
  921MPD2    C313479   3.234   0.878  16.507  0.6919  0.1140 -0.1043
  921MPD2    C413480   3.250   0.998  16.571  0.2176 -0.2339  0.4923
  921MPD2    C513481   3.358   1.016  16.651 -0.1740  0.0775 -0.0519
  921MPD2     H13482   3.341   0.700  16.465 -0.6696 -0.0449  0.5201
  921MPD2    H113483   3.171   1.072  16.567 -1.8192 -2.4197 -0.1408
  921MPD2    H213484   3.547   0.964  16.723 -1.2687  3.1283 -0.0833
  921MPD2    H313485   3.353   1.107  16.710  0.9172  0.3235 -0.3469
  921MPD2     N13486   3.123   0.848  16.434 -0.1443 -0.2755  0.7509
  921MPD2    H513487   3.059   0.924  16.412  0.5212  0.1973  0.4325
  921MPD2    N113488   3.548   0.709  16.597 -0.1156  0.3009  0.3824
  921MPD2    H713489   3.524   0.624  16.547 -1.3003  0.3678  0.8244
  922MPD2     C13490   4.651   3.069  16.944 -0.2729  0.6623  0.1558
  922MPD2    C113491   4.649   3.107  17.082 -0.3607 -0.2128 -0.7176
  922MPD2    C213492   4.543   3.081  17.162 -0.1786  0.2298 -0.4642
  922MPD2    C313493   4.441   3.007  17.113  0.0754 -0.3278  0.3036
  922MPD2    C413494   4.437   2.969  16.981  0.2485  0.2954 -0.2241
  922MPD2    C513495   4.540   3.003  16.901  0.0854  0.0906  0.1297
  922MPD2     H13496   4.555   3.112  17.265 -0.6425 -0.7698 -0.1069
  922MPD2    H113497   4.347   2.933  16.933 -1.6663  2.0166  2.0465
  922MPD2    H213498   0.009   3.086  16.874 -1.1419  0.0798 -1.0058
  922MPD2    H313499   4.532   2.982  16.795  1.3769  2.0897 -0.3545
  922MPD2     N13500   4.339   2.991  17.205 -0.6785  0.0260  0.2842
  922MPD2    H513501   4.355   3.040  17.293 -2.0123 -0.4645  0.7980
  922MPD2    N113502   0.041   3.174  17.141  0.1505 -0.6168 -0.3741
  922MPD2    H713503   0.044   3.170  17.242  1.9156  1.9600 -0.3413
  923MPD2     C13504   1.066   4.276   8.932 -0.1874  0.5464 -0.4232
  923MPD2    C113505   0.986   4.354   9.005  0.2575 -0.0309  1.0737
  923MPD2    C213506   1.011   4.366   9.144  0.7706 -0.3723 -0.3654
  923MPD2    C313507   1.111   4.294   9.206 -0.6645  0.0824  0.2681
  923MPD2    C413508   1.187   4.213   9.125 -0.0096  0.2800 -0.7462
  923MPD2    C513509   1.158   4.201   8.995 -0.1990 -0.2636  0.5490
  923MPD2     H13510   0.937   4.414   9.208 -0.4866 -0.8431 -1.4605
  923MPD2    H113511   1.269   4.164   9.176 -2.4156 -1.1840  1.7131
  923MPD2    H213512   1.045   4.256   8.827  2.9827 -0.3567 -0.8923
  923MPD2    H313513   1.218   4.140   8.928 -1.0900 -0.4601 -0.0840
  923MPD2     N13514   1.147   4.307   9.344 -0.0253  0.2833  0.4245
  923MPD2    H513515   1.222   4.249   9.378  1.8789  1.2945 -2.0446
  923MPD2    N113516   0.884   4.428   8.944 -0.7062 -0.1905 -0.2110
  923MPD2    H713517   0.868   4.416   8.845 -1.0185 -1.6908  0.0153
  924MPD2     C13518   0.335   3.542  16.077  0.6101 -0.8191  0.4786
  924MPD2    C113519   0.440   3.620  16.020  0.2391 -0.0440  0.4813
  924MPD2    C213520   0.422   3.754  16.000  1.2187  0.2037 -0.8036
  924MPD2    C313521   0.299   3.809  16.026 -0.3438  0.1438  0.3166
  924MPD2    C413522   0.201   3.732  16.083  0.0380  0.8502  0.2816
  924MPD2    C513523   0.219   3.600  16.110  0.0793 -0.5214  0.2922
  924MPD2     H13524   0.505   3.809  15.958  0.8883  1.0930 -0.2835
  924MPD2    H113525   0.104   3.775  16.105 -0.7489 -0.5452 -0.5003
  924MPD2    H213526   0.341   3.435  16.095 -0.9917 -1.6559 -4.0076
  924MPD2    H313527   0.145   3.546  16.168 -0.5592  0.1991  0.1482
  924MPD2     N13528   0.283   3.946  15.994  0.6869  0.0770 -0.5405
  924MPD2    H513529   0.361   3.990  15.946  0.1879  0.7500 -0.7415
  924MPD2    N113530   0.562   3.551  15.994 -0.4033  0.1881 -0.3565
  924MPD2    H713531   0.586   3.481  16.065 -0.4720 -0.8723 -1.3746
  925MPD2     C13532   0.026   1.071  14.656 -0.1509  0.4050 -0.1922
  925MPD2    C113533   4.627   1.061  14.591  0.0110  0.3948 -0.3712
  925MPD2    C213534   4.522   1.017  14.666  0.4277  0.2897 -0.3247
  925MPD2    C313535   4.533   0.982  14.798  0.1196 -0.3328 -0.3617
  925MPD2    C413536   4.652   0.978  14.857 -0.3287 -0.0779 -0.2440
  925MPD2    C513537   0.038   1.019  14.783  0.2142  1.2019 -0.2054
  925MPD2     H13538   4.428   1.016  14.612 -1.0487  0.8373  2.2359
  925MPD2    H113539   4.663   0.944  14.960  1.2237 -0.2205 -0.4494
  925MPD2    H213540   0.114   1.114  14.610 -0.0192  0.7993  0.4302
  925MPD2    H313541   0.134   1.020  14.832 -0.0835  4.8764  0.3123
  925MPD2     N13542   4.424   0.932  14.867 -0.1894  0.2943  0.6388
  925MPD2    H513543   4.455   0.900  14.958  1.0171  0.6747  0.3586
  925MPD2    N113544   4.593   1.107  14.463 -1.0626 -0.4160  0.3997
  925MPD2    H713545   4.499   1.112  14.426 -0.3514  0.4228 -1.3000
  926MPD2     C13546   2.750   4.037  13.279 -0.1214 -0.0003 -0.4811
  926MPD2    C113547   2.801   4.155  13.330  0.1757 -0.1410 -0.3388
  926MPD2    C213548   2.910   4.219  13.259  0.0631  0.1232 -0.5936
  926MPD2    C313549   2.956   4.168  13.137  0.0809 -0.0657 -0.5935
  926MPD2    C413550   2.897   4.057  13.088  0.3240  0.6086 -0.0495
  926MPD2    C513551   2.803   3.990  13.162  0.3370  0.4742 -0.0436
  926MPD2     H13552   2.946   4.314  13.295 -0.0817 -0.3172  0.7192
  926MPD2    H113553   2.926   4.016  12.992 -2.2584  1.1638 -1.0650
  926MPD2    H213554   2.673   3.978  13.327  1.2565 -0.9389  0.5657
  926MPD2    H313555   2.753   3.911  13.108  0.3903 -0.0065  0.6044
  926MPD2     N13556   3.038   4.240  13.049  0.2795 -0.2211  0.0991
  926MPD2    H513557   3.055   4.192  12.961 -0.4846 -0.0476 -0.1460
  926MPD2    N113558   2.736   4.234  13.428  0.2207  0.1187 -0.0208
  926MPD2    H713559   2.771   4.326  13.451 -1.0916  0.9464 -1.3003
  927MPD2     C13560   3.143   2.259   0.196  0.1408  0.8107 -0.2236
  927MPD2    C113561   3.233   2.202   0.286 -0.0054  0.1811  0.5726
  927MPD2    C213562   3.345   2.152   0.234 -0.3679  0.7405 -0.4452
  927MPD2    C313563   3.368   2.152   0.101 -0.5336  0.6736  0.9172
  927MPD2    C413564   3.275   2.195   0.011 -0.9241 -0.1025  0.4289
  927MPD2    C513565   3.165   2.259   0.062 -0.6254 -0.4017  0.3003
  927MPD2     H13566   3.424   2.113   0.296  1.1412 -1.6611 -3.8643
  927MPD2    H113567   3.276   2.190  17.600 -1.7269 -2.7189  0.5597
  927MPD2    H213568   3.054   2.309   0.232  1.4447  3.2044 -0.3559
  927MPD2    H313569   3.094   2.297  17.688  1.0959  0.4164 -0.9870
  927MPD2     N13570   3.476   2.074   0.063  0.3316 -0.2900 -0.2926
  927MPD2    H513571   3.528   2.021   0.132  0.4958 -0.4769 -0.5605
  927MPD2    N113572   3.196   2.202   0.423 -0.0082  0.3984 -0.2535
  927MPD2    H713573   3.099   2.220   0.443 -0.2734  0.1263 -1.2591
  928MPD2     C13574   1.279   4.657   0.654 -0.2591  0.4833 -0.5627
  928MPD2    C113575   1.348   0.031   0.725  0.0262 -0.0491  0.2372
  928MPD2    C213576   1.465   0.078   0.668 -0.1885  0.4603  0.4777
  928MPD2    C313577   1.507   0.038   0.539  0.2756  0.2799 -0.0719
  928MPD2    C413578   1.435   4.665   0.474  0.4074 -1.0360  0.0497
  928MPD2    C513579   1.321   4.613   0.534  0.3837 -0.2302  0.0319
  928MPD2     H13580   1.517   0.155   0.725  0.4389 -1.0020  1.8970
  928MPD2    H113581   1.469   4.624   0.379 -2.5246  0.9907 -1.8511
  928MPD2    H213582   1.187   4.617   0.694  0.1183 -1.2324 -1.4217
  928MPD2    H313583   1.254   4.549   0.477 -0.8537  0.4447  0.7355
  928MPD2     N13584   1.625   0.088   0.477 -0.3602 -0.7332  0.0882
  928MPD2    H513585   1.650   0.067   0.381  3.0595  0.6656  0.7015
  928MPD2    N113586   1.315   0.089   0.851 -0.6691  0.2856  0.3626
  928MPD2    H713587   1.391   0.140   0.896  1.1661 -0.7785 -1.5027
  929MPD2     C13588   1.117   4.697  10.688 -0.4875 -0.9113 -0.4817
  929MPD2    C113589   1.054   4.572  10.653 -0.4602 -0.0189 -0.5014
  929MPD2    C213590   0.967   4.575  10.543  0.9194 -0.0928 -0.7655
  929MPD2    C313591   0.951   4.693  10.469  0.1054 -0.5435 -0.6532
  929MPD2    C413592   1.019   0.088  10.504 -0.2547 -0.3291 -0.5189
  929MPD2    C513593   1.102   0.082  10.612  0.1898 -0.4709  0.1853
  929MPD2     H13594   0.910   4.487  10.516  0.0728 -0.1960  1.3598
  929MPD2    H113595   1.012   0.183  10.453  1.6552  0.1222  0.0893
  929MPD2    H213596   1.186   4.711  10.770 -0.7559  1.3401 -0.6361
  929MPD2    H313597   1.160   0.165  10.652 -0.1506 -0.8184  1.4168
  929MPD2     N13598   0.854   4.701  10.365  0.1963  0.4403  0.1830
  929MPD2    H513599   0.827   0.072  10.340 -0.4813 -0.2518 -1.7060
  929MPD2    N113600   1.091   4.457  10.734 -0.0703  0.3554 -0.5060
  929MPD2    H713601   1.157   4.474  10.809 -0.9812 -3.1103  1.0699
  930MPD2     C13602   2.275   2.682  13.748  0.0220 -0.7707  0.0842
  930MPD2    C113603   2.392   2.679  13.677  0.7748 -0.5628 -0.2917
  930MPD2    C213604   2.398   2.616  13.553 -0.1874  0.8234 -0.7302
  930MPD2    C313605   2.277   2.573  13.490  0.6112 -0.9865  0.0540
  930MPD2    C413606   2.160   2.588  13.560 -0.2961  0.3392  0.3738
  930MPD2    C513607   2.158   2.631  13.696  0.0256  0.0861  0.5796
  930MPD2     H13608   2.491   2.623  13.498  0.8602 -0.0045  0.9453
  930MPD2    H113609   2.068   2.536  13.537 -0.2842  0.1351  0.7750
  930MPD2    H213610   2.267   2.723  13.848 -2.1084 -1.5542  0.2449
  930MPD2    H313611   2.060   2.633  13.743  0.3046  2.1402  1.0823
  930MPD2     N13612   2.260   2.519  13.356 -0.1778 -0.5279 -0.4059
  930MPD2    H513613   2.165   2.489  13.339 -1.2017  2.9862 -0.9381
  930MPD2    N113614   2.505   2.744  13.734  0.2857  0.8574  0.3962
  930MPD2    H713615   2.499   2.773  13.831 -0.2607  0.9601  0.3317
  931MPD2     C13616   3.519   1.751   1.043 -0.0855 -0.6804 -0.0696
  931MPD2    C113617   3.394   1.737   0.983  0.0276 -0.5202  0.8766
  931MPD2    C213618   3.322   1.618   1.008  0.2817  0.1184  0.2882
  931MPD2    C313619   3.370   1.522   1.098 -0.2251 -0.4566  0.4146
  931MPD2    C413620   3.499   1.539   1.146  0.1852 -0.2761 -0.4188
  931MPD2    C513621   3.573   1.655   1.126  0.3414  0.0823  0.7553
  931MPD2     H13622   3.214   1.617   1.001  0.2539  2.0561  0.5612
  931MPD2    H113623   3.541   1.464   1.213  2.0325  0.8007 -0.3856
  931MPD2    H213624   3.580   1.840   1.040 -0.7521 -0.1713  1.0863
  931MPD2    H313625   3.665   1.674   1.179  1.3184 -0.9206 -0.6023
  931MPD2     N13626   3.300   1.403   1.136  0.1576  0.3413  0.3062
  931MPD2    H513627   3.341   1.340   1.204 -0.7029 -2.4403 -1.7618
  931MPD2    N113628   3.331   1.856   0.923 -0.7684  0.7335  0.0536
  931MPD2    H713629   3.392   1.938   0.919  0.6141 -0.4219 -2.2733
  932MPD2     C13630   4.478   0.998  11.710  0.0844 -0.4193  0.0480
  932MPD2    C113631   4.493   1.014  11.577 -0.1211 -0.7124  0.0743
  932MPD2    C213632   4.564   0.915  11.508 -0.2472  0.5177 -0.7686
  932MPD2    C313633   4.619   0.807  11.571 -0.6502 -0.2847 -0.6801
  932MPD2    C413634   4.596   0.785  11.711  0.2562 -0.0965  0.0296
  932MPD2    C513635   4.531   0.887  11.770 -0.5182 -0.2782  0.3814
  932MPD2     H13636   4.584   0.941  11.404 -0.9199  1.5511 -0.6473
  932MPD2    H113637   4.638   0.699  11.762 -0.5672  1.3264  3.0914
  932MPD2    H213638   4.434   1.074  11.772  0.7896 -0.8579  1.1024
  932MPD2    H313639   4.534   0.872  11.877 -1.5026  0.2150  0.4799
  932MPD2     N13640   4.708   0.727  11.503 -0.7993  1.0930  0.5895
  932MPD2    H513641   0.033   0.650  11.547 -0.0258  1.4446  0.3384
  932MPD2    N113642   4.457   1.127  11.503 -1.4652  0.4802  0.4214
  932MPD2    H713643   4.480   1.114  11.405 -0.8468  0.8618  0.5134
  933MPD2     C13644   0.673   0.185   1.558 -0.0475 -0.2404 -0.2978
  933MPD2    C113645   0.711   0.227   1.431  0.1080  0.1960 -0.3547
  933MPD2    C213646   0.632   0.331   1.380 -0.6763 -0.0685 -0.0668
  933MPD2    C313647   0.515   0.378   1.434 -0.2627  0.7979 -0.6027
  933MPD2    C413648   0.476   0.324   1.559  0.0964  0.4195 -0.3338
  933MPD2    C513649   0.551   0.222   1.615  0.8768 -0.6566 -0.5148
  933MPD2     H13650   0.669   0.377   1.289 -0.7984  0.8387  0.3484
  933MPD2    H113651   0.385   0.355   1.610  0.9756 -0.4060  1.7129
  933MPD2    H213652   0.730   0.113   1.614 -0.1475  0.7239  1.0464
  933MPD2    H313653   0.517   0.186   1.711 -2.1125  0.9299 -0.9781
  933MPD2     N13654   0.444   0.475   1.365  0.2900  0.7570  1.0175
  933MPD2    H513655   0.492   0.509   1.282  2.1272  0.5623  2.0069
  933MPD2    N113656   0.834   0.182   1.384  0.5088  0.8069  0.1606
  933MPD2    H713657   0.902   0.141   1.447  3.0267  0.8362 -2.5378
  934MPD2     C13658   1.556   1.740   2.477  0.3391  0.1279 -0.2545
  934MPD2    C113659   1.653   1.683   2.392  0.4375 -0.2225 -0.7579
  934MPD2    C213660   1.616   1.642   2.263 -0.3344 -0.2875 -0.2361
  934MPD2    C313661   1.482   1.663   2.219  0.0017  1.0682 -0.6924
  934MPD2    C413662   1.395   1.725   2.301  0.4147 -0.3451 -0.4521
  934MPD2    C513663   1.432   1.757   2.429  0.2949 -0.5287  0.4831
  934MPD2     H13664   1.696   1.592   2.210 -2.2287 -2.1278 -1.3479
  934MPD2    H113665   1.293   1.742   2.266  0.2219 -1.6124 -0.4945
  934MPD2    H213666   1.575   1.772   2.579  1.1941 -1.2720  0.0212
  934MPD2    H313667   1.358   1.813   2.485  0.2442 -0.6066  0.4925
  934MPD2     N13668   1.435   1.623   2.089  0.1462  0.1037  0.4038
  934MPD2    H513669   1.339   1.637   2.059 -0.2676 -1.9122  0.7758
  934MPD2    N113670   1.791   1.672   2.419  0.2719  0.7419  0.0603
  934MPD2    H713671   1.854   1.646   2.343 -0.9153 -0.7100 -0.4264
  935MPD2     C13672   1.895   1.298   1.259 -0.4348  0.0698 -0.2082
  935MPD2    C113673   1.761   1.303   1.229 -0.5382 -0.2030  0.7362
  935MPD2    C213674   1.677   1.358   1.328  0.0971 -0.9686  0.3386
  935MPD2    C313675   1.730   1.401   1.450 -0.2709 -0.0558  0.3365
  935MPD2    C413676   1.862   1.384   1.482  0.0201 -0.1253 -0.5589
  935MPD2    C513677   1.942   1.339   1.376 -0.2960 -0.8281 -1.1035
  935MPD2     H13678   1.573   1.379   1.305  0.0315 -0.4683  1.0825
  935MPD2    H113679   1.900   1.410   1.580 -0.3293  1.4445 -0.8522
  935MPD2    H213680   1.962   1.264   1.181  0.0599 -1.1675  0.7484
  935MPD2    H313681   2.049   1.332   1.393 -0.1158 -1.0339 -2.3385
  935MPD2     N13682   1.645   1.450   1.548  0.3895  0.2087  0.1273
  935MPD2    H513683   1.698   1.474   1.631  2.8582 -3.1305 -0.4724
  935MPD2    N113684   1.708   1.259   1.107  0.3159 -0.3834  0.5798
  935MPD2    H713685   1.608   1.273   1.104  0.4915  0.9698  1.1949
  936MPD2     C13686   0.508   4.365  13.127  0.6234 -0.4794  0.1840
  936MPD2    C113687   0.472   4.357  12.993 -0.3697 -0.0689 -0.1263
  936MPD2    C213688   0.563   4.365  12.896 -0.2560 -0.1147 -0.4649
  936MPD2    C313689   0.700   4.375  12.922  0.5259 -1.0213  0.6566
  936MPD2    C413690   0.743   4.376  13.059 -0.1842 -0.9489  0.0485
  936MPD2    C513691   0.641   4.375  13.154 -0.4727  1.2132  0.2220
  936MPD2     H13692   0.533   4.365  12.792  2.2035 -0.7585 -1.1825
  936MPD2    H113693   0.846   4.377  13.092  0.4223 -1.0841 -1.8180
  936MPD2    H213694   0.440   4.362  13.212 -0.5819  0.7879 -0.7251
  936MPD2    H313695   0.670   4.371  13.258 -1.5100  0.9138  0.4999
  936MPD2     N13696   0.781   4.404  12.808 -0.2293  0.5319 -0.5080
  936MPD2    H513697   0.729   4.402  12.721  0.1438  1.8137 -0.7587
  936MPD2    N113698   0.341   4.358  12.953  0.7050 -0.0869 -0.1018
  936MPD2    H713699   0.333   4.359  12.852 -2.2608 -0.9644  0.1304
  937MPD2     C13700   2.805   0.126  11.716 -0.7000 -0.1968 -0.1469
  937MPD2    C113701   2.786   0.249  11.653  0.4219  0.1103  0.7350
  937MPD2    C213702   2.856   0.266  11.535 -0.4692 -0.6121  0.5083
  937MPD2    C313703   2.948   0.171  11.479 -0.3310  0.7651 -0.3661
  937MPD2    C413704   2.966   0.054  11.551 -0.2281 -0.2577 -0.2168
  937MPD2    C513705   2.889   0.032  11.666 -0.8080  0.7590  0.2358
  937MPD2     H13706   2.835   0.352  11.473 -1.8332 -0.7951  0.6991
  937MPD2    H113707   3.029   4.693  11.525  1.9234  1.2386  0.1462
  937MPD2    H213708   2.751   0.088  11.802 -0.3158 -0.7476 -0.1541
  937MPD2    H313709   2.889   4.662  11.721  2.3098  0.2295 -0.6504
  937MPD2     N13710   3.016   0.190  11.358 -0.5098  0.2929 -0.2627
  937MPD2    H513711   2.993   0.275  11.308  2.2656  0.5068 -1.1812
  937MPD2    N113712   2.727   0.365  11.711 -0.2957  0.4554  0.0678
  937MPD2    H713713   2.741   0.453  11.664 -1.5732 -0.4203 -1.9441
  938MPD2     C13714   0.671   1.832   0.695  0.1609  0.0464 -0.3811
  938MPD2    C113715   0.765   1.847   0.795  0.1305  0.0211  0.4937
  938MPD2    C213716   0.773   1.752   0.894 -0.1964 -0.9602  0.7311
  938MPD2    C313717   0.688   1.645   0.896  0.8911  0.0946 -0.1267
  938MPD2    C413718   0.590   1.628   0.800 -0.3193 -0.4446  0.4830
  938MPD2    C513719   0.588   1.724   0.698 -0.2280 -0.8942 -0.7038
  938MPD2     H13720   0.852   1.759   0.968  0.1870  1.6750  0.0953
  938MPD2    H113721   0.527   1.540   0.797  1.1118 -1.5052  0.9582
  938MPD2    H213722   0.664   1.901   0.612 -0.7902  0.9491  0.4327
  938MPD2    H313723   0.516   1.734   0.617  2.5871  3.2604 -2.6747
  938MPD2     N13724   0.679   1.545   0.996  0.8576 -0.2002  0.1282
  938MPD2    H513725   0.603   1.479   0.986 -0.1518  0.9493  0.2041
  938MPD2    N113726   0.854   1.959   0.802  0.1986 -0.5162 -0.0969
  938MPD2    H713727   0.911   1.972   0.885  0.0846 -2.6219  0.3166
  939MPD2     C13728   2.011   2.358   0.279  0.3879  0.2876 -0.4515
  939MPD2    C113729   1.959   2.481   0.269 -0.1742  0.7203 -0.4004
  939MPD2    C213730   1.980   2.561   0.160  1.1379  0.7853 -0.5598
  939MPD2    C313731   2.043   2.508   0.051  0.1266 -0.3836  0.4929
  939MPD2    C413732   2.102   2.384   0.062 -0.6893  0.0856  0.3142
  939MPD2    C513733   2.077   2.307   0.171 -0.3383  0.6352 -0.4851
  939MPD2     H13734   1.944   2.663   0.159  1.1732  0.7922 -2.0841
  939MPD2    H113735   2.164   2.339  17.682 -0.3288  1.5732 -0.2674
  939MPD2    H213736   1.987   2.291   0.362 -0.2255 -1.6205 -2.1655
  939MPD2    H313737   2.092   2.200   0.176 -2.4384  0.4014  0.9638
  939MPD2     N13738   2.064   2.591  17.637  0.1266  0.4216  0.2375
  939MPD2    H513739   2.017   2.681  17.636 -1.7354 -0.5731 -0.3336
  939MPD2    N113740   1.895   2.540   0.379  0.1115 -0.2176  0.3333
  939MPD2    H713741   1.905   2.486   0.464 -0.8908 -0.3805  0.3398
  940MPD2     C13742   0.822   3.825  13.660  0.6452 -0.3093 -0.1102
  940MPD2    C113743   0.816   3.955  13.614 -0.5105 -0.1025  0.2821
  940MPD2    C213744   0.832   3.981  13.481  0.1338  0.5757 -0.0771
  940MPD2    C313745   0.847   3.870  13.394  0.3819 -0.0785 -0.3555
  940MPD2    C413746   0.838   3.746  13.442  1.2623  0.1723  0.3514
  940MPD2    C513747   0.821   3.724  13.573 -0.0818 -0.2571 -0.0337
  940MPD2     H13748   0.815   4.083  13.449 -1.1805  0.4944  0.3650
  940MPD2    H113749   0.836   3.659  13.376  1.8947  0.7162 -0.3856
  940MPD2    H213750   0.818   3.793  13.763  0.5874 -2.9403 -0.9123
  940MPD2    H313751   0.812   3.620  13.601 -0.6828 -0.2263 -0.1001
  940MPD2     N13752   0.850   3.883  13.254 -0.3815 -0.2651  0.2091
  940MPD2    H513753   0.842   3.802  13.195  0.2526 -1.3396  1.5918
  940MPD2    N113754   0.795   4.055  13.709 -0.1591 -0.4692 -0.3094
  940MPD2    H713755   0.799   4.026  13.806 -0.4338  0.6273  0.0278
  941MPD2     C13756   0.435   2.451   9.566  0.5922  0.0578  0.8152
  941MPD2    C113757   0.533   2.449   9.659  0.2383  0.0733  0.1706
  941MPD2    C213758   0.505   2.431   9.795  0.1695 -0.1907  0.1697
  941MPD2    C313759   0.375   2.425   9.838  0.0308  0.0647  0.0280
  941MPD2    C413760   0.278   2.434   9.742 -0.2866  0.0727  0.2686
  941MPD2    C513761   0.304   2.449   9.609  0.0511  0.6030 -0.1110
  941MPD2     H13762   0.590   2.439   9.861  0.8951  1.1670 -0.9394
  941MPD2    H113763   0.172   2.431   9.762 -0.0379 -1.8315  1.2088
  941MPD2    H213764   0.452   2.448   9.459  2.3090 -1.6675  1.1448
  941MPD2    H313765   0.227   2.458   9.534  0.5770  1.4779 -0.5384
  941MPD2     N13766   0.336   2.423   9.976  0.4613 -0.2574  0.1581
  941MPD2    H513767   0.239   2.439  10.002 -0.1364 -1.7472 -1.1920
  941MPD2    N113768   0.663   2.462   9.626  0.1989  0.1858  0.0211
  941MPD2    H713769   0.728   2.456   9.703  0.0388 -1.5316  0.0246
  942MPD2     C13770   0.524   3.825   8.852 -0.2409 -0.0248 -0.1026
  942MPD2    C113771   0.644   3.849   8.908  0.0963  0.2305  0.5767
  942MPD2    C213772   0.666   3.953   8.987  0.2291 -0.7001  0.3259
  942MPD2    C313773   0.565   4.047   9.018  0.4286 -0.3255  0.1071
  942MPD2    C413774   0.447   4.026   8.949  0.3741 -0.5868 -0.4655
  942MPD2    C513775   0.422   3.920   8.870  0.2758  0.8715 -0.1195
  942MPD2     H13776   0.755   3.962   9.047  0.6361  3.6149 -0.9628
  942MPD2    H113777   0.362   4.091   8.967  0.0892 -0.3588 -2.6259
  942MPD2    H213778   0.506   3.750   8.775  1.5111 -1.9601  1.3938
  942MPD2    H313779   0.321   3.896   8.838  0.0305  2.1919 -0.3406
  942MPD2     N13780   0.572   4.157   9.110  0.6147 -0.3483  0.4020
  942MPD2    H513781   0.487   4.209   9.132  0.0216  0.4068 -3.5047
  942MPD2    N113782   0.759   3.763   8.890 -0.2703 -0.3914  0.1448
  942MPD2    H713783   0.844   3.789   8.938  0.0437 -2.7247  0.8664
  943MPD2     C13784   3.577   1.631   9.272 -0.4260 -0.6472 -0.3425
  943MPD2    C113785   3.541   1.722   9.361  0.0776 -0.5160 -0.2474
  943MPD2    C213786   3.633   1.815   9.406 -0.1189  0.7936 -0.1104
  943MPD2    C313787   3.768   1.812   9.370 -0.2165  0.3545  0.6824
  943MPD2    C413788   3.803   1.713   9.277  0.1103 -0.4772  1.2267
  943MPD2    C513789   3.705   1.640   9.223  0.2199  0.0686 -0.4030
  943MPD2     H13790   3.599   1.881   9.485 -1.0674  0.4639 -0.2428
  943MPD2    H113791   3.904   1.704   9.239  0.5138 -1.2964  2.4749
  943MPD2    H213792   3.504   1.567   9.225  0.6490 -0.9190 -1.6492
  943MPD2    H313793   3.733   1.573   9.142  0.3934 -0.6201  0.2243
  943MPD2     N13794   3.868   1.898   9.414 -0.3827  0.1869  0.3353
  943MPD2    H513795   3.954   1.875   9.365 -0.6379 -2.2111  0.9776
  943MPD2    N113796   3.406   1.707   9.398  1.0793 -0.8742 -0.0803
  943MPD2    H713797   3.350   1.637   9.351 -0.0860  2.0972 -3.1592
  944MPD2     C13798   2.759   1.960  10.924 -0.2697 -0.5647  0.5091
  944MPD2    C113799   2.882   1.910  10.896 -0.3202 -0.5174 -0.1340
  944MPD2    C213800   2.981   1.935  10.994  0.1855  0.1255  0.1204
  944MPD2    C313801   2.953   1.995  11.116  0.0700  0.0531 -0.5004
  944MPD2    C413802   2.822   2.044  11.135 -0.5125 -0.5140 -0.2060
  944MPD2    C513803   2.726   2.016  11.042  0.1392  0.8336 -0.7280
  944MPD2     H13804   3.074   1.884  10.972  0.3619  1.0098 -1.2203
  944MPD2    H113805   2.792   2.102  11.221  1.1458 -1.7487  1.2095
  944MPD2    H213806   2.680   1.948  10.850 -0.5202 -0.3171  0.7354
  944MPD2    H313807   2.626   2.056  11.058 -0.7267 -1.5338 -0.2199
  944MPD2     N13808   3.056   2.018  11.213 -0.9235  0.1895 -0.2032
  944MPD2    H513809   3.149   2.010  11.174 -0.7931  0.1348  0.1229
  944MPD2    N113810   2.911   1.837  10.776  1.5191  0.6393  0.1140
  944MPD2    H713811   2.833   1.818  10.714  0.8141 -0.4991  1.3562
    1TCq1    O113812   1.503   3.753  15.280 -0.2807  0.3988  0.1245
    1TCq1    C113813   1.451   3.646  15.210  0.1534  0.1517 -0.0137
    1TCq1    O213814   1.335   3.608  15.211  0.4217 -0.0002 -0.5455
    1TCq1    C213815   1.557   3.584  15.131 -0.2341  0.2973 -0.2003
    1TCq1    C313816   1.686   3.563  15.185 -0.1613 -0.0425 -0.6881
    1TCq1    C413817   1.757   3.468  15.121  0.4173 -0.0276 -0.2879
    1TCq1    C513818   1.715   3.417  15.004  0.4168  0.9665 -0.0211
    1TCq1    C613819   1.597   3.451  14.947 -0.4598 -0.3157  0.5011
    1TCq1    C713820   1.505   3.532  15.012  0.1914 -0.2616 -0.3354
    1TCq1    C813821   1.551   3.403  14.810 -0.8550  0.1419  0.5440
    1TCq1    O413822   1.611   3.311  14.760 -0.0337 -0.5279 -0.3220
    1TCq1    C913823   1.883   3.428  15.168 -0.2314 -0.4874 -0.1380
    1TCq1    O513824   1.928   3.492  15.267 -1.0263 -0.0554  0.0485
    1TCq1    O613825   1.948   3.343  15.104 -0.4523  0.6326  0.0543
    1TCq1    H113826   1.594   3.776  15.252 -0.5901  0.8539 -0.4902
    1TCq1    H213827   1.713   3.593  15.285 -0.2941  1.9450 -1.2565
    1TCq1    H313828   1.787   3.353  14.954  2.1552  1.6217  1.6464
    1TCq1    H413829   1.401   3.540  14.982  0.0425 -0.1592  0.2033
    2MPD2     C13830   1.269   3.441  14.371  0.3460  0.6702 -0.1024
    2MPD2    C113831   1.277   3.565  14.441 -0.0428  0.0378 -0.2316
    2MPD2    C213832   1.345   3.576  14.558 -0.6637 -0.4604 -0.3608
    2MPD2    C313833   1.413   3.477  14.609 -0.8745 -0.0745 -0.1248
    2MPD2    C413834   1.410   3.350  14.539  0.5068  0.2148  0.3870
    2MPD2    C513835   1.337   3.334  14.421  0.0365 -0.0528  0.0784
    2MPD2     H13836   1.360   3.672  14.606 -2.2697 -0.6510  0.4974
    2MPD2    H113837   1.479   3.273  14.571 -1.2181 -0.7601  1.7178
    2MPD2    H213838   1.210   3.426  14.281 -0.0257  0.1976  0.2181
    2MPD2    H313839   1.356   3.240  14.370 -0.4166  0.0811 -0.3323
    2MPD2     N13840   1.472   3.499  14.742  0.2574  0.1851 -0.9186
    2MPD2    H513841   1.467   3.588  14.791  1.5283 -0.8739  1.0736
    2MPD2    N113842   1.198   3.675  14.389 -0.0986 -0.0326  0.3263
    2MPD2    H713843   1.153   3.652  14.302 -2.4888  0.1667  1.5208
    3TMC2    C113844   1.147   3.903  14.329 -0.3083  0.2205  0.6185
    3TMC2    C213845   1.054   3.854  14.239 -0.1610 -0.0512  0.1325
    3TMC2    C313846   0.994   3.940  14.161  0.5109  0.1089 -0.1129
    3TMC2    C413847   1.175   4.033  14.335 -0.1841  0.0863  0.2341
    3TMC2    C513848   1.096   4.119  14.259 -0.1912 -0.3587 -0.0796
    3TMC2    C613849   1.008   4.073  14.164 -0.4680 -0.6886  0.2376
    3TMC2     C13850   1.213   3.812  14.419 -0.2530 -0.1723 -0.5769
    3TMC2     O13851   1.283   3.852  14.512  0.1783 -0.8131  0.0736
    3TMC2     H13852   1.030   3.749  14.229  2.3239 -0.7336  1.3783
    3TMC2    H113853   1.249   4.079  14.400 -1.5143  2.2074  0.2862
    3TMC2    H213854   0.956   4.146  14.103 -2.2218 -2.4500 -0.3573
    3TMC2    C713855   1.126   4.260  14.262  0.1637 -0.4290 -0.7061
    3TMC2    C813856   0.885   3.894  14.078 -0.3000  0.2022  0.0493
    3TMC2    O113857   1.176   4.308  14.362  0.0324 -0.5336  0.1124
    3TMC2    O213858   0.824   3.794  14.105 -0.0697 -0.5834  0.2703
    3TMC2    O513859   0.881   3.964  13.962  0.1146  0.5687 -0.1628
    3TMC2    H513860   0.965   4.014  13.950  0.1804  0.1977 -1.2042
    4MPD2     C13861   0.321   0.055  13.087  0.0997 -0.2252 -0.4632
    4MPD2    C113862   0.392   0.170  13.076 -0.1886  0.2280  0.6100
    4MPD2    C213863   0.515   0.185  13.144  0.5023  0.7506  0.2623
    4MPD2    C313864   0.553   0.082  13.223  0.6495  0.0525  0.5269
    4MPD2    C413865   0.488   4.682  13.220 -0.1666  0.0126 -0.3163
    4MPD2    C513866   0.369   4.675  13.154  0.6917 -0.3737 -0.2571
    4MPD2     H13867   0.577   0.272  13.130  2.6633 -0.5518  1.6746
    4MPD2    H113868   0.524   4.593  13.271  1.8600 -0.1597 -2.0429
    4MPD2    H213869   0.223   0.044  13.042  1.0530 -0.0185 -2.5889
    4MPD2    H313870   0.325   4.578  13.175  1.2330  0.2097  3.5577
    4MPD2     N13871   0.679   0.085  13.288  0.1307  0.3447 -0.3828
    4MPD2    H513872   0.746   0.155  13.256 -1.0888  1.6379 -0.0729
    4MPD2    N113873   0.339   0.264  12.985  0.2679 -0.1234 -0.0467
    4MPD2    H713874   0.255   0.235  12.935  0.0113  2.9360 -1.3531
    5TCq2    C113875   0.734   4.706  13.364  0.6847 -0.4018  0.1572
    5TCq2    O213876   0.676   4.610  13.415 -1.0564  0.3481  0.0516
    5TCq2    C213877   0.861   0.013  13.417  0.4434 -0.7988  0.0631
    5TCq2    C313878   0.909   0.144  13.423 -0.1236  0.5686 -0.9566
    5TCq2    C413879   1.012   0.171  13.509  0.3636 -0.1116 -0.0066
    5TCq2    C513880   1.063   0.081  13.599 -0.2115 -0.5748  0.4700
    5TCq2    C613881   0.998   4.686  13.602  0.4647 -0.2156  0.1667
    5TCq2    C713882   0.911   4.643  13.508 -0.0594 -0.0403  0.3464
    5TCq2    C813883   1.024   4.598  13.711  0.7333  0.3064  0.4534
    5TCq2    O413884   1.019   4.477  13.693 -0.1940 -0.4180  0.4346
    5TCq2    C913885   1.070   0.305  13.502  0.1052  0.4260  0.2410
    5TCq2    O513886   1.176   0.314  13.571 -0.0575 -0.0522  0.3414
    5TCq2    O613887   1.064   0.353  13.388  0.0851 -1.3505  0.0479
    5TCq2    H213888   0.881   0.229  13.361  1.8438  1.1195 -1.1043
    5TCq2    H313889   1.144   0.115  13.663 -0.5016  0.6525  0.1977
    5TCq2    H413890   0.866   4.546  13.521  0.5260 -0.3674 -0.0717
    6MPD1     C13891   0.542   2.100  13.314  0.2305 -0.3102 -0.5971
    6MPD1    C113892   0.407   2.087  13.339  0.1088  0.6040  0.8767
    6MPD1    C213893   0.355   1.956  13.336 -0.3050 -0.0179 -0.5005
    6MPD1    C313894   0.435   1.851  13.298 -0.2069  0.4565 -0.4807
    6MPD1    C413895   0.566   1.874  13.267  0.2183 -0.1887 -0.0549
    6MPD1    C513896   0.623   1.994  13.279  0.2881 -0.0580 -0.0582
    6MPD1     H13897   0.255   1.938  13.374  0.6052 -1.5901  1.1925
    6MPD1    H113898   0.630   1.796  13.227  0.4269 -0.1348  0.1743
    6MPD1    H213899   0.584   2.200  13.313 -1.5261  0.4581  3.5281
    6MPD1    H313900   0.727   2.012  13.257  0.3718  0.8166  1.0594
    6MPD1     N13901   0.393   1.717  13.273  0.0644 -0.5295  0.2008
    6MPD1    H513902   0.458   1.651  13.233  0.0496 -0.0935 -0.5486
    6MPD1    N113903   0.330   2.198  13.379 -0.0498  0.1592 -0.3949
    6MPD1    H613904   0.375   2.289  13.368  0.1858  0.2895  1.6792
    6MPD1    H713905   0.241   2.205  13.330 -0.7099  2.6209  1.1550
    7MPD2     C13906   4.567   1.133  12.909 -0.4734  0.2760  0.3672
    7MPD2    C113907   4.677   1.085  12.977 -0.3153  0.1181  0.0189
    7MPD2    C213908   0.012   0.961  12.942  0.1095  0.4315 -0.3260
    7MPD2    C313909   4.683   0.885  12.840 -0.7362  0.3079  0.2195
    7MPD2    C413910   4.574   0.934  12.776  0.5599 -0.4083 -0.0992
    7MPD2    C513911   4.514   1.055  12.813  0.3052  0.2454  0.1870
    7MPD2     H13912   0.105   0.936  12.992 -0.4758  0.1474  0.6295
    7MPD2    H113913   4.533   0.883  12.689  1.4094  0.0992 -0.7922
    7MPD2    H213914   4.519   1.229  12.925 -1.0247 -0.0857  0.8465
    7MPD2    H313915   4.423   1.085  12.763 -0.9012 -3.1008  0.3473
    7MPD2     N13916   0.016   0.767  12.787  0.4145 -0.7118 -0.4261
    7MPD2    H513917   4.713   0.745  12.692 -1.5051  1.5035 -0.3956
    7MPD2    N113918   0.025   1.163  13.074 -0.1932 -0.4247  0.6330
    7MPD2    H713919   0.098   1.111  13.123 -1.4707 -1.7819  1.1082
    8TMC3    C113920   0.176   0.600  12.772 -0.1266  0.5531 -0.2985
    8TMC3    C213921   0.213   0.498  12.855 -0.2170  0.1246 -0.4379
    8TMC3    C313922   0.340   0.444  12.836 -0.6315  0.5042  0.0394
    8TMC3    C413923   0.271   0.664  12.702 -1.2334 -1.0311  0.2837
    8TMC3    C513924   0.405   0.632  12.717 -0.5365 -0.5565  0.0785
    8TMC3    C613925   0.438   0.510  12.766 -0.3289  0.3695 -0.0340
    8TMC3     C13926   0.115   0.701  12.855 -0.1919 -0.0218 -0.2885
    8TMC3     O13927   0.166   0.717  12.967 -0.1918  0.2226 -0.1591
    8TMC3     H13928   0.142   0.459  12.927  1.9605 -0.7574  1.2177
    8TMC3    H113929   0.249   0.766  12.674  0.2284 -1.0669 -0.9830
    8TMC3    H213930   0.545   0.490  12.771 -0.6733 -1.0677  1.6941
    8TMC3    C713931   0.486   0.740  12.774 -0.3383 -0.0919 -0.1503
    8TMC3    C813932   0.400   0.380  12.948  0.5188  1.1199 -0.1245
    8TMC3    O113933   0.487   0.850  12.715  0.0139 -0.4469  0.2444
    8TMC3    O213934   0.490   0.441  12.995  0.4324  0.1609  0.1539
    9TMC3    C113935   0.263   1.524  13.250  0.4069 -0.0913  0.5584
    9TMC3    C213936   0.382   1.459  13.229 -0.2125  0.3249  0.4673
    9TMC3    C313937   0.371   1.332  13.182  0.4589  0.1689 -0.0341
    9TMC3    C413938   0.145   1.463  13.213  0.1276 -0.4149 -0.1188
    9TMC3    C513939   0.147   1.347  13.152  0.1633 -0.2029 -0.0878
    9TMC3    C613940   0.262   1.278  13.133 -0.6507 -0.0546  0.5878
    9TMC3     C13941   0.267   1.659  13.299  0.4783 -0.1099 -0.4134
    9TMC3     O13942   0.167   1.726  13.324 -0.4573  0.2743 -0.1491
    9TMC3     H13943   0.472   1.497  13.277  0.4275 -0.1127 -0.3981
    9TMC3    H113944   0.051   1.517  13.223  0.6015  0.4820 -0.5952
    9TMC3    H213945   0.252   1.176  13.098 -2.0171 -0.0036  0.8307
    9TMC3    C713946   0.028   1.298  13.089  0.2017  0.1579  0.0068
    9TMC3    C813947   0.485   1.241  13.194 -0.3971  0.3921 -0.2493
    9TMC3    O113948   4.660   1.373  13.059  0.7445 -0.0170  0.3713
    9TMC3    O213949   0.574   1.254  13.280  0.6885  0.1336 -0.4139
   10MPD2     C13950   0.544   0.743  13.136  0.3862  0.1407 -0.1553
   10MPD2    C113951   0.526   0.800  13.014  0.1369  0.6093  0.3622
   10MPD2    C213952   0.515   0.938  13.003  0.7470  0.2359 -0.1739
   10MPD2    C313953   0.525   1.017  13.112 -0.2792 -1.1938  0.0053
   10MPD2    C413954   0.554   0.962  13.234 -0.2785  0.0376  0.2683
   10MPD2    C513955   0.565   0.827  13.245 -0.4984 -0.1554  0.2807
   10MPD2     H13956   0.472   0.985  12.915 -1.0293 -0.5290  0.2733
   10MPD2    H113957   0.566   1.022  13.324 -0.8031  2.1533 -1.0694
   10MPD2    H213958   0.541   0.636  13.150 -1.1769  0.0029 -1.4872
   10MPD2    H313959   0.593   0.787  13.341 -0.6123  1.5923  1.0547
   10MPD2     N13960   0.486   1.149  13.098 -0.3733  0.0534 -0.0078
   10MPD2    H513961   0.436   1.169  13.012  0.7832  0.8298 -0.4974
   10MPD2    N113962   0.509   0.709  12.907  0.4168 -0.1824 -0.4685
   10MPD2    H713963   0.480   0.617  12.939 -1.5571  0.9791  1.0471
   11MPD2     C13964   1.118   4.557  14.216 -0.6194 -0.2674 -0.1723
   11MPD2    C113965   1.097   4.457  14.119 -0.3517 -1.2216  0.8402
   11MPD2    C213966   1.080   4.495  13.984 -0.7988 -0.7318  0.0636
   11MPD2    C313967   1.076   4.632  13.952 -0.2082 -0.1854 -0.3540
   11MPD2    C413968   1.097   0.004  14.047  1.2575 -0.1483  0.0624
   11MPD2    C513969   1.108   4.693  14.175  0.4586  0.8889 -0.5744
   11MPD2     H13970   1.053   4.425  13.906  2.8987 -1.8865 -0.1460
   11MPD2    H113971   1.101   0.109  14.021 -0.2724  0.0817  0.7642
   11MPD2    H213972   1.142   4.541  14.321 -2.2916 -0.3277  0.2017
   11MPD2    H313973   1.115   0.052  14.245  2.6235  0.8267 -0.7225
   11MPD2     N13974   1.056   4.676  13.819  0.4316 -0.0906 -0.6985
   11MPD2    H513975   1.043   0.052  13.817  3.4235  0.2521 -2.6579
   11MPD2    N113976   1.110   4.318  14.136  0.5466 -0.2829  0.8556
   11MPD2    H713977   1.102   4.259  14.053  0.1832  0.4701  0.3517
    1MPD1     C13978   3.656   0.769  17.150 -0.5861  0.0936  0.1010
    1MPD1    C113979   3.700   0.810  17.273  0.1479 -0.1585 -0.5115
    1MPD1    C213980   3.819   0.868  17.280  0.5876 -0.0009 -0.5946
    1MPD1    C313981   3.906   0.872  17.168  0.0346  0.6033  1.0183
    1MPD1    C413982   3.862   0.828  17.051 -0.4837  0.0326  0.3443
    1MPD1    C513983   3.739   0.772  17.036 -0.2220  0.3960  0.2303
    1MPD1     H13984   3.853   0.900  17.378  1.0056  0.5418 -0.9142
    1MPD1    H113985   3.922   0.841  16.962  0.5606  1.2136  1.2173
    1MPD1    H213986   3.559   0.723  17.135 -0.0040 -1.5766  1.4681
    1MPD1    H313987   3.699   0.738  16.941 -0.2683 -0.3280  0.5038
    1MPD1     N13988   4.027   0.945  17.168 -0.2393  0.0811 -0.6611
    1MPD1    H513989   4.073   0.958  17.078  1.2501 -0.6110 -0.0016
    1MPD1    N113990   3.616   0.805  17.380 -0.0326 -0.1773  0.6476
    1MPD1    H613991   3.663   0.825  17.468  1.3201 -0.6866  0.0363
    1MPD1    H713992   3.561   0.719  17.385  0.8707 -0.7184  1.0947
    2MPD1     C13993   0.020   0.798   0.175 -0.4544 -0.1169  0.1959
    2MPD1    C113994   4.608   0.799   0.193  0.4969 -0.1603  0.0398
    2MPD1    C213995   4.536   0.849   0.091  0.7591  0.4684 -0.2776
    2MPD1    C313996   4.592   0.904  17.673  0.2156 -0.3546  0.5133
    2MPD1    C413997   0.006   0.908  17.661  0.0665 -0.2628  0.4867
    2MPD1    C513998   0.082   0.854   0.063 -0.0575  0.8238 -0.7333
    2MPD1     H13999   4.428   0.839   0.097  1.0146 -0.9281  1.9821
    2MPD1    H114000   0.063   0.954  17.580  0.6303 -1.0240  0.4518
    2MPD1    H214001   0.073   0.742   0.251  0.4019 -0.5455 -0.7237
    2MPD1    H314002   0.189   0.861   0.049  0.1916 -2.2800 -0.2134
    2MPD1     N14003   4.501   0.955  17.573  0.2585  0.0604  0.2309
    2MPD1    H514004   4.402   0.951  17.594  0.0656 -0.0692 -0.6904
    2MPD1    N114005   4.549   0.714   0.292  0.2766 -0.0861  0.6157
    2MPD1    H614006   4.464   0.754   0.331  1.0424  0.4033  1.7778
    2MPD1    H714007   4.607   0.686   0.370 -0.9804 -2.6999  0.5916
    3TMC3    C114008   4.417   1.082  17.379  0.4755  0.0221  1.0477
    3TMC3    C214009   4.448   1.178  17.287 -0.9716  0.3797 -0.0517
    3TMC3    C314010   4.360   1.209  17.188 -0.5064  0.6448 -0.3129
    3TMC3    C414011   4.306   1.009  17.365  0.5487  0.5605 -0.9038
    3TMC3    C514012   4.220   1.042  17.265 -0.6063  0.1782 -0.4166
    3TMC3    C614013   4.236   1.152  17.184  0.6135  0.9379 -0.2541
    3TMC3     C14014   4.531   1.023  17.454 -0.2021 -0.4720 -0.3193
    3TMC3     O14015   4.643   1.045  17.411  0.3952 -0.6209  0.6409
    3TMC3     H14016   4.542   1.230  17.302 -0.3388 -0.8517  0.2529
    3TMC3    H114017   4.296   0.911  17.410  2.6809 -0.2643 -2.2022
    3TMC3    H214018   4.164   1.179  17.107 -0.6623 -3.8365 -0.7789
    3TMC3    C714019   4.093   0.979  17.282 -0.4103 -0.3479  0.1039
    3TMC3    C814020   4.392   1.299  17.084 -0.1616  0.1311  0.2553
    3TMC3    O114021   4.066   0.944  17.394 -0.9387 -0.3073  0.0429
    3TMC3    O214022   4.301   1.353  17.025 -0.2809 -0.3036 -0.1877
    4MPD1     C14023   0.061   1.498  16.812  0.3977 -0.1870  0.6270
    4MPD1    C114024   0.108   1.431  16.919 -0.1651 -0.4815 -0.2274
    4MPD1    C214025   0.014   1.381  17.003 -0.1867 -0.4146  0.3939
    4MPD1    C314026   4.602   1.382  16.981 -0.1280  0.2502  0.6957
    4MPD1    C414027   4.557   1.448  16.865 -0.3254  0.0286 -0.7986
    4MPD1    C514028   4.649   1.507  16.777  0.4252 -0.3445 -0.3115
    4MPD1     H14029   0.047   1.333  17.094 -1.5278 -0.6337  0.7588
    4MPD1    H114030   4.450   1.450  16.847 -0.3555 -0.0866 -0.6354
    4MPD1    H214031   0.124   1.545  16.737  1.6536 -0.2411  1.6447
    4MPD1    H314032   4.611   1.562  16.692 -0.4144  0.2036  0.4222
    4MPD1     N14033   4.528   1.312  17.075  0.0442  0.2064  0.1499
    4MPD1    H514034   4.584   1.252  17.134 -0.7273 -0.1638  0.4998
    4MPD1    N114035   0.251   1.411  16.939  0.4183 -0.0370  0.1056
    4MPD1    H614036   0.314   1.464  16.879  1.1887  0.7519  1.6134
    4MPD1    H714037   0.289   1.440  17.029  1.7454 -2.3028  0.2710
    1TCq1    O114038   0.748   0.083  11.568  0.2633 -0.3754  0.1505
    1TCq1    C114039   0.770   0.186  11.658  0.0562  0.0689 -0.7634
    1TCq1    O214040   0.792   0.308  11.652  1.2577  0.3864  0.3741
    1TCq1    C214041   0.756   0.106  11.786 -0.0409 -0.5656 -0.1008
    1TCq1    C314042   0.807   0.164  11.897 -0.2891  0.4993 -0.7391
    1TCq1    C414043   0.782   0.105  12.020 -0.0089  0.9123  0.1129
    1TCq1    C514044   0.681   0.014  12.030 -0.1531 -0.1600 -0.0316
    1TCq1    C614045   0.612   4.713  11.918  0.0980 -0.6651  0.8062
    1TCq1    C714046   0.648   0.030  11.792  0.2261 -1.1267 -0.0976
    1TCq1    C814047   0.472   4.676  11.937 -0.1979 -0.0978  0.0835
    1TCq1    O414048   0.401   4.709  11.840 -0.4780  0.3306 -0.5372
    1TCq1    C914049   0.826   0.162  12.146 -0.4248  0.5426  0.1646
    1TCq1    O514050   0.762   0.132  12.252  0.2933 -0.2038  0.1852
    1TCq1    O614051   0.917   0.248  12.147 -0.5278  0.3864 -0.2295
    1TCq1    H114052   0.760   4.721  11.613 -5.1207 -1.0627  0.2867
    1TCq1    H214053   0.893   0.227  11.878  0.2913 -0.1394 -0.2268
    1TCq1    H314054   0.649   4.715  12.131 -1.1133 -2.4068 -0.8473
    1TCq1    H414055   0.582   0.020  11.707  1.2631  1.1118 -1.1863
    2MPD1     C14056   0.104   4.378  12.161  0.7040  0.1188 -0.1379
    2MPD1    C114057   0.222   4.371  12.237 -0.1872  0.2956  0.2557
    2MPD1    C214058   0.333   4.431  12.188 -0.7218  0.3430  0.4235
    2MPD1    C314059   0.331   4.523  12.084 -0.1136 -1.2325  0.1587
    2MPD1    C414060   0.208   4.548  12.029  0.0575  0.6451 -0.3426
    2MPD1    C514061   0.092   4.479  12.069 -0.2670  0.1152  0.0810
    2MPD1     H14062   0.425   4.418  12.244  0.4829  0.6499 -1.4884
    2MPD1    H114063   0.193   4.621  11.950 -0.2378  0.4032 -0.5088
    2MPD1    H214064   0.016   4.320  12.185  0.4689  0.7477  0.5120
    2MPD1    H314065   0.001   4.500  12.014 -1.5398 -1.0352  1.7357
    2MPD1     N14066   0.450   4.588  12.043  0.0993 -0.3519  0.1014
    2MPD1    H514067   0.537   4.554  12.083 -0.4315 -1.4584  0.2885
    2MPD1    N114068   0.240   4.265  12.328 -0.5187 -0.1192  0.2774
    2MPD1    H614069   0.157   4.251  12.386 -0.2238  0.0852  0.7487
    2MPD1    H714070   0.325   4.283  12.382  0.0145 -0.1540 -0.5598
    1TCq1    O114071   1.749   1.824   0.630 -0.4631  0.4118 -0.4654
    1TCq1    C114072   1.863   1.774   0.594  0.4785 -0.2165 -0.2847
    1TCq1    O214073   1.875   1.685   0.515  0.2685  0.1486 -0.4256
    1TCq1    C214074   1.960   1.822   0.687 -0.0517  0.2028 -0.3915
    1TCq1    C314075   1.931   1.891   0.801 -0.3382 -0.0689  0.5259
    1TCq1    C414076   2.033   1.895   0.896 -0.8427 -0.4829 -0.1136
    1TCq1    C514077   2.164   1.885   0.853 -0.2554 -0.5223 -0.6158
    1TCq1    C614078   2.188   1.830   0.731 -0.1047  0.2030  0.3785
    1TCq1    C714079   2.090   1.783   0.655  0.7624 -0.1028  0.3311
    1TCq1    C814080   2.319   1.826   0.667 -0.0895  0.4282  0.4789
    1TCq1    O414081   2.319   1.831   0.547 -0.4481 -0.2960 -0.2482
    1TCq1    C914082   2.018   1.979   1.005  0.6616 -0.4141  0.3172
    1TCq1    O514083   2.110   1.997   1.083  0.2378 -0.2773  0.2237
    1TCq1    O614084   1.900   2.028   1.010 -0.1580  0.2690  0.2393
    1TCq1    H114085   1.760   1.919   0.651  1.5449  0.0292  0.1973
    1TCq1    H214086   1.827   1.908   0.827 -0.2737 -2.0507  2.0665
    1TCq1    H314087   2.244   1.924   0.915 -2.1483  1.5065  0.5924
    1TCq1    H414088   2.104   1.719   0.568 -0.8041 -0.9755  0.7294
    2MPD1     C14089   2.825   1.787   0.689 -0.4655  0.0246 -0.2014
    2MPD1    C114090   2.781   1.734   0.807 -0.0744  0.3338  0.7925
    2MPD1    C214091   2.645   1.745   0.834 -0.0708 -0.0368 -0.3623
    2MPD1    C314092   2.559   1.806   0.742  0.3720 -0.3529 -0.0510
    2MPD1    C414093   2.611   1.857   0.623 -0.2987 -0.3551  0.0057
    2MPD1    C514094   2.744   1.855   0.601  0.6409 -0.5126 -0.3329
    2MPD1     H14095   2.605   1.686   0.916  0.1407 -0.1822 -0.3639
    2MPD1    H114096   2.549   1.912   0.554 -0.3264  0.2681  0.5300
    2MPD1    H214097   2.931   1.785   0.665 -0.6008 -1.1567 -0.6700
    2MPD1    H314098   2.772   1.893   0.504 -1.6576 -1.3522 -1.3415
    2MPD1     N14099   2.420   1.811   0.766 -0.0211  0.4164  0.0542
    2MPD1    H514100   2.405   1.788   0.863  1.8309  0.6980  0.4104
    2MPD1    N114101   2.868   1.661   0.891 -0.3909  0.1673 -0.2828
    2MPD1    H614102   2.965   1.689   0.878  0.1906 -0.5888  2.5016
    2MPD1    H714103   2.838   1.676   0.987 -0.6008  0.6107 -0.4151
    1MPD1     C14104   1.499   4.623  12.008  1.0287  0.3284  0.0342
    1MPD1    C114105   1.530   4.708  12.114 -0.2122  0.3438 -0.1091
    1MPD1    C214106   1.624   0.082  12.086  0.2749  0.4548 -0.1785
    1MPD1    C314107   1.698   0.083  11.973 -0.8870 -0.3555 -0.2644
    1MPD1    C414108   1.676   4.711  11.881  0.4382 -0.3026  0.7444
    1MPD1    C514109   1.566   4.629  11.889  0.3610 -0.4217 -0.1224
    1MPD1     H14110   1.647   0.147  12.170  1.9612 -0.2517 -0.0970
    1MPD1    H114111   1.723   4.714  11.783  0.1431 -2.2313  0.5480
    1MPD1    H214112   1.417   4.553  12.023 -1.2572  3.1241  0.4900
    1MPD1    H314113   1.541   4.555  11.814 -1.3689 -1.9032  1.8835
    1MPD1     N14114   1.815   0.163  11.975 -0.4623  0.7891 -0.0879
    1MPD1    H514115   1.833   0.218  12.058  0.9568 -2.2949  1.6737
    1MPD1    N114116   1.482   4.692  12.246  0.1347 -0.3322  0.3042
    1MPD1    H614117   1.462   0.057  12.292 -0.8800 -1.9913  3.0761
    1MPD1    H714118   1.395   4.639  12.248  0.4914 -0.9403 -0.2203
    2MPD1     C14119   1.265   1.008  11.699 -0.2370 -0.6784  0.2403
    2MPD1    C114120   1.149   0.945  11.669  0.7748  0.4869  0.6292
    2MPD1    C214121   1.153   0.847  11.569 -0.5609  0.0462  0.0800
    2MPD1    C314122   1.271   0.802  11.516 -0.1126  0.4023 -0.0396
    2MPD1    C414123   1.392   0.846  11.561  0.1211 -0.7475  0.7000
    2MPD1    C514124   1.388   0.956  11.655 -0.5724 -0.0156 -0.5562
    2MPD1     H14125   1.064   0.813  11.517  0.3081 -1.0336 -0.7212
    2MPD1    H114126   1.491   0.818  11.527  1.6021  2.9988  1.8012
    2MPD1    H214127   1.265   1.095  11.764 -2.6680  0.5071 -1.3354
    2MPD1    H314128   1.479   0.994  11.698 -0.4611 -1.9527  0.9168
    2MPD1     N14129   1.273   0.718  11.395 -0.2223  0.0537  0.1214
    2MPD1    H514130   1.367   0.703  11.359 -0.6114  0.5482 -1.1360
    2MPD1    N114131   1.022   0.997  11.715 -1.0240 -0.1478  0.5731
    2MPD1    H614132   0.953   0.922  11.714  1.1074 -2.1029 -1.1038
    2MPD1    H714133   1.032   1.033  11.809 -3.3099 -2.6321  1.7760
    3MPD1     C14134   0.713   0.128  10.868 -0.3800 -0.5414 -0.3776
    3MPD1    C114135   0.721   0.165  11.000  0.4783 -0.0133 -0.4561
    3MPD1    C214136   0.830   0.239  11.039  0.2087 -0.4741  0.2425
    3MPD1    C314137   0.921   0.281  10.946  0.0094  0.2298 -0.2963
    3MPD1    C414138   0.902   0.259  10.811 -0.0029  0.0786  0.3759
    3MPD1    C514139   0.799   0.179  10.769  0.5054 -0.6640 -0.0886
    3MPD1     H14140   0.856   0.248  11.144 -0.5071 -3.6162  0.6644
    3MPD1    H114141   0.965   0.298  10.732  1.0761 -0.5360  0.9433
    3MPD1    H214142   0.629   0.072  10.830 -0.7185  0.4349 -1.0688
    3MPD1    H314143   0.785   0.149  10.666  0.0238 -3.4973  0.8070
    3MPD1     N14144   1.034   0.347  11.000 -0.2527  0.8951  0.3512
    3MPD1    H514145   1.042   0.361  11.100 -1.6913 -0.5705  0.6797
    3MPD1    N114146   0.633   0.104  11.089  0.0467  0.3601 -0.2821
    3MPD1    H614147   0.615   0.170  11.165 -1.4163 -1.1253  0.6625
    3MPD1    H714148   0.540   0.111  11.049  0.3929 -1.0585 -1.2943
    4MPD2     C14149   1.940   0.912  11.907 -0.8829 -0.1581  0.1235
    4MPD2    C114150   1.990   0.810  11.832 -0.5157 -0.5291  0.4267
    4MPD2    C214151   2.045   0.837  11.703 -0.4433  0.4207  0.4069
    4MPD2    C314152   2.033   0.967  11.648 -0.6742  0.2806 -0.1379
    4MPD2    C414153   1.963   1.059  11.720 -0.3077  1.5396  0.3778
    4MPD2    C514154   1.922   1.032  11.855  0.5226 -0.2738 -0.2615
    4MPD2     H14155   2.099   0.763  11.645 -2.5899 -0.8950  0.0738
    4MPD2    H114156   1.942   1.158  11.680 -1.6970  1.1260  0.1112
    4MPD2    H214157   1.912   0.907  12.012 -1.3822  0.0094 -0.0021
    4MPD2    H314158   1.885   1.114  11.914  0.6929 -0.6129  0.3164
    4MPD2     N14159   2.085   1.006  11.520  0.2758 -0.3873 -0.4479
    4MPD2    H514160   2.065   1.100  11.487  3.4549  0.3743 -0.1948
    4MPD2    N114161   2.024   0.684  11.886  0.4930 -0.1603 -0.1594
    4MPD2    H714162   2.092   0.630  11.834  0.3360  1.7275 -2.3696
    5TMC3    C114163   2.033   0.489  11.995 -0.0492 -0.3334 -0.1234
    5TMC3    C214164   1.945   0.397  11.972 -0.1389 -0.4275  0.8555
    5TMC3    C314165   1.981   0.296  11.889 -0.4659 -0.0248 -1.0161
    5TMC3    C414166   2.154   0.489  11.937 -0.5265  0.3172 -0.4656
    5TMC3    C514167   2.191   0.393  11.842  0.1722  0.3898  0.4351
    5TMC3    C614168   2.093   0.304  11.810  0.4147 -0.6679 -0.6415
    5TMC3     C14169   1.974   0.622  11.999 -0.0873  0.1063  0.3699
    5TMC3     O14170   1.863   0.635  12.054 -0.3090  0.1685 -0.4228
    5TMC3     H14171   1.847   0.403  12.018 -0.4287  1.5099  0.0060
    5TMC3    H114172   2.218   0.574  11.956  3.5950 -3.0354  0.5926
    5TMC3    H214173   2.115   0.224  11.739  0.2687  0.3231 -1.7984
    5TMC3    C714174   2.274   0.444  11.731  0.3357 -0.4720 -0.0288
    5TMC3    C814175   1.882   0.192  11.864  0.1916 -0.4252 -0.3382
    5TMC3    O114176   2.280   0.565  11.730  0.3282  0.0716  0.0729
    5TMC3    O214177   1.882   0.150  11.750  0.2910  0.1794 -0.5050
    6TMC3    C114178   1.219   0.638  11.197 -0.3428  1.0017 -0.1240
    6TMC3    C214179   1.165   0.524  11.142 -0.6481  0.4362 -0.6662
    6TMC3    C314180   1.224   0.463  11.031 -0.3034  0.8518  0.8839
    6TMC3    C414181   1.335   0.690  11.160  0.0664 -0.3358  0.0414
    6TMC3    C514182   1.400   0.617  11.059 -0.1877  0.6621 -0.1165
    6TMC3    C614183   1.342   0.513  10.987 -0.6261 -0.1573  0.7274
    6TMC3     C14184   1.163   0.692  11.313  0.4239 -0.4296 -0.6365
    6TMC3     O14185   1.042   0.692  11.343 -0.4567 -0.4062  0.4404
    6TMC3     H14186   1.065   0.502  11.177 -0.1163  0.2944  0.7693
    6TMC3    H114187   1.382   0.786  11.182  0.9855 -0.4334 -1.4537
    6TMC3    H214188   1.381   0.463  10.898  0.8270  1.4563  0.4565
    6TMC3    C714189   1.543   0.648  11.040 -0.7407  0.4570 -0.5168
    6TMC3    C814190   1.143   0.394  10.932 -0.5229  0.0376  0.7263
    6TMC3    O114191   1.584   0.753  11.083  0.2119 -0.0802 -0.0780
    6TMC3    O214192   1.166   0.402  10.810 -0.0874  0.1098  0.3436
    7MPD2     C14193   2.483   0.454  11.265 -0.2335  0.1382 -0.5103
    7MPD2    C114194   2.427   0.547  11.344 -1.4531 -0.3337 -0.0566
    7MPD2    C214195   2.370   0.518  11.462 -0.4790  0.8957  0.8447
    7MPD2    C314196   2.383   0.391  11.514 -0.4667  0.8455  0.3422
    7MPD2    C414197   2.452   0.302  11.444 -0.4201 -0.1178 -0.5202
    7MPD2    C514198   2.508   0.332  11.327  0.3276 -0.3110 -0.0415
    7MPD2     H14199   2.302   0.594  11.499 -2.5071 -0.7145  0.4238
    7MPD2    H114200   2.482   0.208  11.489  3.2202  2.5759  2.7241
    7MPD2    H214201   2.521   0.472  11.165  1.9148  1.5824  0.5626
    7MPD2    H314202   2.569   0.261  11.272  0.6349  1.2722 -1.7548
    7MPD2     N14203   2.317   0.350  11.639  0.3610  0.1334  0.0695
    7MPD2    H514204   2.314   0.252  11.665 -0.6899  0.7238  2.1881
    7MPD2    N114205   2.415   0.682  11.304 -0.0539 -0.1618 -0.9078
    7MPD2    H714206   2.367   0.737  11.374 -0.0127 -0.9853 -0.2331
    8TMC3    C114207   2.380   0.871  11.184 -0.9171  0.1832  0.6039
    8TMC3    C214208   2.282   0.864  11.081  0.4961  0.6653  0.0042
    8TMC3    C314209   2.157   0.919  11.111  0.0922 -0.6995 -0.6955
    8TMC3    C414210   2.349   0.917  11.306 -0.3519  1.1629  0.1523
    8TMC3    C514211   2.229   0.974  11.332  0.2099 -0.2094  0.8516
    8TMC3    C614212   2.131   0.973  11.234  0.2702  0.0333 -0.8220
    8TMC3     C14213   2.446   0.742  11.184  0.1863 -0.5825 -0.2347
    8TMC3     O14214   2.488   0.696  11.078 -0.3371  0.3184  0.3410
    8TMC3     H14215   2.310   0.827  10.983 -2.1462  1.3742 -0.9996
    8TMC3    H114216   2.418   0.915  11.389 -0.5434  3.5608  0.3843
    8TMC3    H214217   2.031   1.004  11.262  0.0148  0.3093 -2.0438
    8TMC3    C714218   2.183   0.927  11.462  0.1212  0.2185  0.0946
    8TMC3    C814219   2.037   0.864  11.044 -0.1500 -0.4481 -0.5690
    8TMC3    O114220   2.230   0.819  11.488 -0.2110 -0.3572 -0.3146
    8TMC3    O214221   1.936   0.931  11.039 -0.7329  0.0979 -0.9227
    9MPD2     C14222   2.014   0.535  10.883 -0.4370 -0.0293 -0.9634
    9MPD2    C114223   1.970   0.644  10.946  0.4639  0.5117 -0.1421
    9MPD2    C214224   1.833   0.645  10.980  0.5281 -0.0712  0.4226
    9MPD2    C314225   1.750   0.533  10.959 -0.1250  0.3516  0.5514
    9MPD2    C414226   1.806   0.418  10.903  0.1563  0.6605 -0.5496
    9MPD2    C514227   1.937   0.424  10.861 -0.3185 -0.1987  0.7556
    9MPD2     H14228   1.792   0.729  11.034 -0.2782  0.8642 -1.6322
    9MPD2    H114229   1.743   0.333  10.878  2.9292 -1.8277  0.8717
    9MPD2    H214230   2.116   0.523  10.848 -0.0273 -1.7903  0.7863
    9MPD2    H314231   1.991   0.334  10.832  3.8427  1.7144  2.5207
    9MPD2     N14232   1.612   0.535  10.993  0.2502 -0.6576 -0.5619
    9MPD2    H514233   1.564   0.446  10.980  1.0986 -0.9905 -1.4663
    9MPD2    N114234   2.063   0.747  10.974 -0.6342 -0.5332 -0.1863
    9MPD2    H714235   2.160   0.723  10.957 -0.3850  1.8666 -2.1189
    1MPD1     C14236   1.521   0.943  16.131  0.0057  0.8544 -0.5319
    1MPD1    C114237   1.390   0.926  16.113 -0.4697 -0.6174  0.7510
    1MPD1    C214238   1.315   0.836  16.197 -0.1777 -0.1896  0.0775
    1MPD1    C314239   1.384   0.753  16.287  0.0458  0.2967 -1.4836
    1MPD1    C414240   1.523   0.770  16.294  0.0634 -0.4093 -0.6932
    1MPD1    C514241   1.591   0.865  16.214  0.3084 -0.9947 -0.5940
    1MPD1     H14242   1.207   0.846  16.193  0.0082  0.9227 -2.3574
    1MPD1    H114243   1.578   0.714  16.369 -0.0592 -0.8052 -0.9008
    1MPD1    H214244   1.569   1.022  16.074  1.5569  0.6656  0.5035
    1MPD1    H314245   1.699   0.873  16.208  0.0281  1.4695 -2.1808
    1MPD1     N14246   1.325   0.662  16.372 -0.0943 -0.2473 -0.1776
    1MPD1    H514247   1.376   0.612  16.444 -0.6539  1.9385  1.7607
    1MPD1    N114248   1.318   1.024  16.045  0.2220 -0.5530 -0.3278
    1MPD1    H614249   1.368   1.070  15.968  0.6198  0.2257  0.3964
    1MPD1    H714250   1.228   0.991  16.012  1.0483 -0.8004 -2.3528
    2MPD1     C14251   0.388   0.147  16.549  0.6810 -0.8911  0.0447
    2MPD1    C114252   0.423   0.202  16.669  0.2425  0.2355 -0.5642
    2MPD1    C214253   0.557   0.228  16.678 -0.0344  0.1737  0.0539
    2MPD1    C314254   0.645   0.239  16.568  0.8989 -0.6862 -0.4152
    2MPD1    C414255   0.601   0.202  16.447 -0.2494  0.2638  0.4348
    2MPD1    C514256   0.473   0.147  16.442  0.4991  0.3509  0.4543
    2MPD1     H14257   0.598   0.254  16.775  0.3438 -3.3258  0.8500
    2MPD1    H114258   0.653   0.214  16.352 -0.4821  1.3759  0.4463
    2MPD1    H214259   0.285   0.114  16.539  1.0262 -1.7753 -0.5078
    2MPD1    H314260   0.450   0.123  16.338  1.1036  3.2343 -0.3555
    2MPD1     N14261   0.770   0.300  16.588  0.2058  0.1433 -0.0772
    2MPD1    H514262   0.772   0.359  16.671  0.9288 -0.7639  0.5540
    2MPD1    N114263   0.352   0.193  16.787 -0.1652 -0.0158  0.4580
    2MPD1    H614264   0.253   0.185  16.767  0.0233 -1.7869  0.2507
    2MPD1    H714265   0.368   0.276  16.844  2.1380 -0.0029 -0.1703
    3TCq2    C114266   0.875   0.298  16.501  0.1308  1.2484 -0.4126
    3TCq2    O214267   0.880   0.237  16.395 -1.1922 -0.0988 -0.0232
    3TCq2    C214268   0.972   0.400  16.535  0.5225 -0.6741  0.8535
    3TCq2    C314269   1.011   0.411  16.668  0.2915 -0.5838  0.8486
    3TCq2    C414270   1.121   0.490  16.698 -0.2255  0.1118  0.7164
    3TCq2    C514271   1.193   0.552  16.601  0.2518 -0.4840  0.2178
    3TCq2    C614272   1.148   0.535  16.467  0.0969 -0.4215  0.1165
    3TCq2    C714273   1.040   0.455  16.436  1.0184  0.7520  0.4500
    3TCq2    C814274   1.201   0.618  16.354 -0.1459 -0.6677  0.8693
    3TCq2    O414275   1.135   0.634  16.254 -0.1955  0.1791  0.5604
    3TCq2    C914276   1.176   0.483  16.830 -0.0841 -0.0643  0.3586
    3TCq2    O514277   1.280   0.548  16.863 -0.1925 -0.0351  0.8927
    3TCq2    O614278   1.129   0.383  16.895 -0.2626  0.9071 -0.3051
    3TCq2    H214279   0.962   0.359  16.750  0.7566  0.1504  1.5931
    3TCq2    H314280   1.281   0.611  16.623  1.2654 -1.9412  0.0369
    3TCq2    H414281   1.014   0.439  16.332 -1.2451 -1.5239  1.3574
    1TCq1    O114282   3.787   3.256  12.569 -0.3443  0.5053 -0.4581
    1TCq1    C114283   3.908   3.250  12.528  0.9278  0.0837  0.3280
    1TCq1    O214284   3.934   3.238  12.410 -0.3066  0.2746 -0.2851
    1TCq1    C214285   4.005   3.269  12.629 -0.5481 -0.7421  0.1044
    1TCq1    C314286   3.991   3.209  12.755 -0.1904  0.2300  0.3565
    1TCq1    C414287   4.095   3.228  12.846  0.8708  0.2918  0.7961
    1TCq1    C514288   4.200   3.316  12.805  0.7928  0.2624  0.0380
    1TCq1    C614289   4.207   3.376  12.684  0.4570  1.1837  0.5222
    1TCq1    C714290   4.109   3.355  12.590  1.0298  0.1496 -0.0702
    1TCq1    C814291   4.306   3.472  12.654 -0.2351 -0.4676 -0.2429
    1TCq1    O414292   4.280   3.536  12.557 -0.6818  0.4543  0.8270
    1TCq1    C914293   4.091   3.149  12.969 -0.4065  0.0018 -0.1857
    1TCq1    O514294   3.999   3.065  12.990  0.5597  0.7964 -0.3904
    1TCq1    O614295   4.171   3.192  13.058 -0.7378 -0.3960  0.3964
    1TCq1    H114296   3.781   3.237  12.665  2.3038  0.7051 -0.2519
    1TCq1    H214297   3.911   3.142  12.782 -0.7061  0.2779 -1.0742
    1TCq1    H314298   4.277   3.333  12.879  0.8027 -0.0254  0.0935
    1TCq1    H414299   4.117   3.384  12.486 -2.8420  1.1645 -0.0829
    2MPD2     C14300   4.558   3.611  12.592 -0.0055 -0.3540  0.2941
    2MPD2    C114301   4.537   3.540  12.705 -0.4833  0.4959 -0.4674
    2MPD2    C214302   4.633   3.539  12.802  0.5436 -0.1136  1.1197
    2MPD2    C314303   0.032   3.604  12.783 -0.1488 -0.2415  0.4050
    2MPD2    C414304   0.050   3.677  12.667 -0.6271  0.0179 -0.1277
    2MPD2    C514305   4.677   3.674  12.570  0.4470  0.6627 -0.0423
    2MPD2     H14306   4.620   3.485  12.895 -2.6404  0.5262  1.0532
    2MPD2    H114307   0.142   3.732  12.648  0.0837 -1.0296  0.2744
    2MPD2    H214308   4.481   3.627  12.518  0.6073  1.8767  0.1454
    2MPD2    H314309   4.689   3.728  12.477 -1.3183 -1.2583 -1.3788
    2MPD2     N14310   0.133   3.589  12.880 -0.2422  0.3035  0.5072
    2MPD2    H514311   0.102   3.538  12.963  2.7736 -1.0209  0.8034
    2MPD2    N114312   4.420   3.463  12.734  0.2688  0.3695  0.1732
    2MPD2    H714313   4.416   3.405  12.817 -0.1700  1.0984  0.6607
    3TCq1    O114314   0.614   3.525  13.293  0.0689  0.0511  0.1511
    3TCq1    C114315   0.632   3.607  13.186  0.1003  0.7315 -0.1068
    3TCq1    O214316   0.726   3.599  13.108 -0.4790 -0.0989  0.2502
    3TCq1    C214317   0.503   3.655  13.151  0.4625  0.8521  0.3304
    3TCq1    C314318   0.419   3.679  13.263  0.1535 -0.5128 -0.3781
    3TCq1    C414319   0.281   3.669  13.255 -0.1846  0.0826  0.4879
    3TCq1    C514320   0.237   3.652  13.125 -0.0700  0.4960  0.5876
    3TCq1    C614321   0.315   3.626  13.014  0.1166 -0.2103  0.1229
    3TCq1    C714322   0.451   3.623  13.023 -0.0397 -0.2993  0.5143
    3TCq1    C814323   0.259   3.641  12.877  0.1052  0.2679 -0.9464
    3TCq1    O414324   0.322   3.670  12.776 -0.1998  0.3615  0.4334
    3TCq1    C914325   0.197   3.702  13.372 -0.5273 -0.2750  0.2489
    3TCq1    O514326   0.254   3.702  13.483  0.9317 -0.3883  0.1108
    3TCq1    O614327   0.080   3.740  13.345  0.2024 -0.0187  0.1317
    3TCq1    H114328   0.529   3.532  13.340  0.1238  1.6675  0.0089
    3TCq1    H214329   0.456   3.705  13.362  0.0778 -0.2184 -0.4266
    3TCq1    H314330   0.131   3.673  13.121 -0.2078 -0.7518 -2.2428
    3TCq1    H414331   0.511   3.604  12.935  0.3876  2.0639  0.3069
    1MPD2     C14332   4.260   4.233  15.146  0.3539 -0.6710  0.1088
    1MPD2    C114333   4.151   4.207  15.067 -0.3287  0.2320 -0.1444
    1MPD2    C214334   4.165   4.214  14.931 -0.5095  0.0541  0.6689
    1MPD2    C314335   4.285   4.240  14.867  0.1935  0.0202 -0.6889
    1MPD2    C414336   4.400   4.254  14.945 -0.1619 -0.6788 -0.1371
    1MPD2    C514337   4.379   4.260  15.086  0.2252 -0.5879  0.0462
    1MPD2     H14338   4.083   4.200  14.862 -1.2887 -0.7864  1.7617
    1MPD2    H114339   4.498   4.275  14.904 -1.8392  0.4336 -3.6096
    1MPD2    H214340   4.254   4.223  15.254  1.4251 -0.6338  0.1732
    1MPD2    H314341   4.460   4.282  15.156  0.3086  1.4829 -0.6835
    1MPD2     N14342   4.277   4.264  14.728 -0.0708  0.8692 -0.8955
    1MPD2    H514343   4.186   4.253  14.684  0.7621 -3.1259 -1.6125
    1MPD2    N114344   4.030   4.183  15.134  0.3336 -0.6421 -0.4135
    1MPD2    H714345   4.014   4.200  15.233 -3.9426 -1.2937 -0.9596
    2TMC3    C114346   3.810   4.095  15.144  0.2746  0.1023  0.2466
    2TMC3    C214347   3.744   3.996  15.074 -0.0790  0.6772  0.0797
    2TMC3    C314348   3.615   3.987  15.069  0.2375 -0.1409  0.2960
    2TMC3    C414349   3.733   4.204  15.189 -0.6941 -0.5636  0.2033
    2TMC3    C514350   3.595   4.197  15.175  0.1533  0.1865  0.4671
    2TMC3    C614351   3.536   4.085  15.119 -0.5955 -0.3386  0.3350
    2TMC3     C14352   3.927   4.121  15.068 -0.1477 -0.5751  0.5195
    2TMC3     O14353   3.915   4.077  14.955  0.0145  0.3621 -0.5503
    2TMC3     H14354   3.801   3.909  15.044 -0.8820  0.4923 -0.9041
    2TMC3    H114355   3.782   4.283  15.245 -0.4680  0.5190 -1.5347
    2TMC3    H214356   3.428   4.077  15.118 -0.6427  0.3794 -0.5029
    2TMC3    C714357   3.507   4.294  15.233 -0.6569  0.0115  0.3759
    2TMC3    C814358   3.563   3.979  14.939 -0.0531  1.0416 -0.6925
    2TMC3    O114359   3.415   4.243  15.296  0.4173  0.4022  0.3343
    2TMC3    O214360   3.442   3.969  14.914 -0.0189  0.0467  0.1749
    3TCq1    O114361   3.526   0.857  15.026  0.7473 -0.3303  0.0101
    3TCq1    C114362   3.470   0.746  14.972 -0.2858  0.2358  0.6539
    3TCq1    O214363   3.361   0.751  14.919  0.4177  0.0253  0.4673
    3TCq1    C214364   3.532   0.621  15.014  0.4456  0.6886 -0.0742
    3TCq1    C314365   3.639   0.628  15.101 -0.0224 -0.1463 -0.4389
    3TCq1    C414366   3.679   0.513  15.160 -0.0726  0.4233  0.6300
    3TCq1    C514367   3.625   0.391  15.127  0.1497  0.0829 -0.3267
    3TCq1    C614368   3.520   0.388  15.039  0.3329  0.2340  0.3765
    3TCq1    C714369   3.473   0.505  14.985 -0.8175  0.5665 -0.1624
    3TCq1    C814370   3.420   0.279  15.052 -0.7794  0.4524 -0.3139
    3TCq1    O414371   3.300   0.303  15.057 -0.5290  0.2730 -0.2811
    3TCq1    C914372   3.791   0.519  15.247 -0.1351  0.0364  0.2972
    3TCq1    O514373   3.831   0.628  15.291  0.1903  0.3587  0.5085
    3TCq1    O614374   3.820   0.413  15.300 -0.0858 -0.3984  0.0250
    3TCq1    H114375   3.570   0.843  15.112  0.5665 -1.0226 -0.0160
    3TCq1    H214376   3.706   0.711  15.118 -0.7737  0.3463  0.0650
    3TCq1    H314377   3.659   0.304  15.182  2.5196  1.6367  0.6240
    3TCq1    H414378   3.382   0.500  14.925 -1.8575  0.6867  1.4146
    4MPD2     C14379   3.299   0.035  15.172 -0.1836 -0.0750  0.2748
    4MPD2    C114380   3.423   0.042  15.123  1.0033  0.7916  0.2435
    4MPD2    C214381   3.501   4.649  15.140 -0.7416  0.0500 -0.0244
    4MPD2    C314382   3.455   4.533  15.199  0.3522 -0.5468  0.5532
    4MPD2    C414383   3.334   4.533  15.259 -0.3101  0.5116 -0.4859
    4MPD2    C514384   3.258   4.648  15.246  0.4196  1.6302  0.1455
    4MPD2     H14385   3.597   4.647  15.091 -1.2551  0.7716 -1.0567
    4MPD2    H114386   3.293   4.444  15.306  2.8760 -1.1592 -0.8307
    4MPD2    H214387   3.232   0.121  15.175 -2.4231 -1.8233  0.3888
    4MPD2    H314388   3.163   4.659  15.297  0.5634 -0.8380  0.9413
    4MPD2     N14389   3.538   4.423  15.207 -0.4620  0.5594  0.2662
    4MPD2    H514390   3.621   4.418  15.149  1.2565  1.4556  2.6823
    4MPD2    N114391   3.486   0.160  15.077  0.3759 -0.6707  0.0044
    4MPD2    H714392   3.584   0.157  15.052  0.8132  2.4655  1.2994
    5TMC2    C114393   4.083   4.284  14.442  0.4776 -0.2416 -0.0933
    5TMC2    C214394   4.119   4.210  14.330  0.1077 -0.1025  0.8031
    5TMC2    C314395   4.250   4.187  14.318  0.1397 -0.0296  0.5054
    5TMC2    C414396   4.178   4.350  14.518 -0.3863  0.2575  0.2934
    5TMC2    C514397   4.306   4.313  14.509  0.0288  0.1359 -0.0278
    5TMC2    C614398   4.345   4.229  14.411 -0.3407 -0.1585 -0.6161
    5TMC2     C14399   3.971   4.237  14.520  0.6361  0.5120  0.1444
    5TMC2     O14400   4.005   4.228  14.636 -0.1201 -0.5926  0.0884
    5TMC2     H14401   4.054   4.139  14.281  1.8820 -0.0202 -1.6999
    5TMC2    H114402   4.141   4.422  14.591 -4.7170  0.3475 -1.9965
    5TMC2    H214403   4.448   4.197  14.415 -0.3029  0.1517  0.8744
    5TMC2    C714404   4.373   4.293  14.637 -0.0288 -0.3885  0.7879
    5TMC2    C814405   4.303   4.116  14.206 -0.3666 -0.6260 -0.3707
    5TMC2    O114406   4.495   4.297  14.646 -0.2088 -0.0977  0.3508
    5TMC2    O214407   4.427   4.102  14.191  0.1668  0.5645  0.0103
    5TMC2    O514408   4.217   4.157  14.111 -0.4511 -0.4493 -0.2535
    5TMC2    H514409   4.151   4.217  14.152 -2.2057 -1.1743 -2.0337
    6MPD2     C14410   3.549   3.986  14.630  0.0905 -0.8617  0.4130
    6MPD2    C114411   3.655   4.028  14.710 -0.0254 -0.6379  0.4012
    6MPD2    C214412   3.759   4.092  14.652  0.1941  0.1851  0.2731
    6MPD2    C314413   3.764   4.104  14.518 -0.2570 -0.0826  0.1066
    6MPD2    C414414   3.659   4.062  14.442  0.3808 -0.0588 -0.1094
    6MPD2    C514415   3.546   3.995  14.495 -0.2894  0.3114  0.0354
    6MPD2     H14416   3.834   4.121  14.723 -0.0765 -2.0313  1.4527
    6MPD2    H114417   3.661   4.069  14.334 -2.1167 -1.5267 -0.2630
    6MPD2    H214418   3.458   3.940  14.666 -0.7489 -1.4821 -2.5737
    6MPD2    H314419   3.464   3.962  14.433 -0.9944 -0.9258  1.6231
    6MPD2     N14420   3.876   4.171  14.454  0.1663  0.5799  0.2872
    6MPD2    H514421   3.858   4.179  14.354 -0.0383 -0.4707  0.2331
    6MPD2    N114422   3.668   4.006  14.850  0.7719  0.3316  0.4289
    6MPD2    H714423   3.762   4.025  14.884 -0.2517 -0.5399  3.7665
  945NH3     N114424   1.096   2.132  16.271  0.2738 -0.3782  0.5837
  945NH3     H214425   1.114   2.033  16.280  1.9371 -0.0262  1.0582
  945NH3     H314426   1.165   2.186  16.322  0.0210  2.0656 -1.6425
  945NH3     H414427   1.127   2.159  16.179  0.0104  0.5552  0.7698
  946SOD     NA14428   3.877   0.210  15.377 -0.1687 -0.3272 -0.3905
  947SOD     NA14429   4.370   3.580  11.644 -0.1461 -0.2111  0.0673
  948SOD     NA14430   2.822   2.494  15.035 -0.3056  0.0537 -0.1651
  949SOD     NA14431   2.155   0.942   9.773 -0.2345  0.3319 -0.0975
  950SOD     NA14432   2.133   3.037   0.132  0.0901 -0.2854  0.0160
  951SOD     NA14433   0.005   3.180  16.517 -0.5594 -0.1163 -0.1181
  952SOD     NA14434   3.044   4.508   9.015  0.1978  0.2031  0.1029
  953SOD     NA14435   3.447   3.064   1.934 -0.0656  0.0554  0.6981
  954SOD     NA14436   0.851   0.293  12.367  0.1387  0.5247  0.1955
  955SOD     NA14437   1.615   4.369  14.974  0.2551  0.0042 -0.3909
  956SOD     NA14438   3.640   2.051  11.203 -0.1725  0.0392  0.1961
  957SOD     NA14439   2.764   2.334  17.547  0.4024 -0.1515  0.3389
  958SOD     NA14440   1.393   4.368  15.301 -0.3968  0.1091 -0.5058
  959SOD     NA14441   0.269   3.707  13.914  0.2137 -0.2593  0.2216
  960SOD     NA14442   0.758   0.881  11.327 -0.2724 -0.2107  0.2663
  961SOD     NA14443   4.118   3.907   3.020  0.3654  0.3794  0.2171
  962SOD     NA14444   2.348   4.589  16.659 -0.0010 -0.4810  0.7961
  963SOD     NA14445   4.568   0.058   9.700 -0.3639 -0.0567 -0.0344
  964SOD     NA14446   4.616   2.710  10.404 -0.3830 -0.4968 -0.0019
  965SOD     NA14447   4.292   3.061  13.168 -0.2000 -0.0319  0.0376
  966SOD     NA14448   3.032   2.682  12.985  0.1396  0.1808 -0.1399
  967SOD     NA14449   2.514   0.839   9.866  0.1832 -0.0760 -0.1906
  968SOD     NA14450   3.751   4.481   1.898  0.2140  0.1649  0.1621
  969SOD     NA14451   4.325   2.250  10.548  0.2852  0.0674 -0.4040
  970SOD     NA14452   4.717   2.974  11.990 -0.0684 -0.0612  0.3346
  971SOD     NA14453   4.311   2.566  10.622 -0.2399  0.3344 -0.4072
  972SOD     NA14454   1.463   4.558  13.766 -0.1918 -0.2104  0.1533
  973SOD     NA14455   0.356   4.622   0.260  0.3317 -0.1294  0.1669
  974SOD     NA14456   3.012   0.936  12.121  0.2763 -0.0493 -0.0536
  975SOD     NA14457   1.822   1.961   1.506  0.1913 -0.0648  0.1046
  976SOD     NA14458   2.296   1.433  15.045 -0.0695 -0.3368  0.3500
  977SOD     NA14459   1.235   0.445  13.338  0.5618  0.0554 -0.0753
  978SOD     NA14460   4.635   2.465  10.620 -0.1809 -0.1502  0.0224
  979SOD     NA14461   0.107   1.775  14.161  0.0220  0.3610 -0.1344
  980SOD     NA14462   2.740   2.774  15.569  0.3455 -0.4076 -0.6600
  981SOD     NA14463   1.744   2.183   0.978 -0.2018 -0.0254 -0.1711
  982SOD     NA14464   2.108   1.006   2.069 -0.0845 -0.4652 -0.2873
  983SOD     NA14465   3.962   1.004  15.455 -0.2549  0.1224 -0.3226
  984SOD     NA14466   0.155   2.740  12.131  0.3153  0.0992  0.4461
  985SOD     NA14467   0.744   0.348  17.683 -0.8531  0.1012 -0.0391
  986SOD     NA14468   1.353   4.265  12.918 -0.0805  0.0224  0.2207
  987SOD     NA14469   0.643   2.276   6.130  0.1175 -0.3531 -0.0128
  988SOD     NA14470   0.752   3.315  17.221 -0.1517  0.2644 -0.4459
  989SOD     NA14471   1.098   1.385  16.286 -0.3663 -0.5163  0.1745
  990SOD     NA14472   2.318   1.274   0.952 -0.0520 -0.5438  0.2222
  991SOD     NA14473   1.646   4.066  14.909  0.6485  0.6912  0.0338
  992SOD     NA14474   1.484   2.291  12.774  0.0373  0.4313  0.3985
  993SOD     NA14475   1.419   1.967   3.559 -0.1045 -0.0335  0.3993
  994SOD     NA14476   0.364   0.566   2.625  0.1158  0.2933 -0.3747
  995SOD     NA14477   0.701   3.139  12.112  0.2050  0.3030 -0.3825
  996SOD     NA14478   2.777   1.748   9.051  0.1651 -0.0941  0.3879
  997SOD     NA14479   0.659   4.091  11.832  0.3635  0.4049  0.2333
  998SOD     NA14480   4.467   4.293  10.073  0.7347  0.0080  0.2009
  999SOD     NA14481   1.954   2.095   1.236 -0.5012  0.1295  0.0989
 1000SOD     NA14482   1.124   1.457   2.666  0.1835 -0.2075 -0.1140
 1001SOD     NA14483   0.952   3.309  11.219  0.0792 -0.4658  0.2103
 1002SOD     NA14484   1.397   0.317  13.621 -0.1657 -0.3657  0.0241
 1003SOD     NA14485   0.306   3.358  11.235 -0.4357 -0.2241 -0.0303
 1004SOD     NA14486   2.529   3.649   7.107 -0.2605  0.3937 -0.3911
 1005SOD     NA14487   2.331   2.167  12.282  0.2728  0.0064  0.3502
 1006SOD     NA14488   1.074   3.804   8.014  0.0351  0.0366 -0.2588
 1007SOD     NA14489   1.872   1.007  17.653  0.4223 -0.3615 -0.4257
 1008SOD     NA14490   1.511   3.985  14.606  0.5391  0.4023  0.8330
 1009SOD     NA14491   3.110   2.429   6.434 -0.4424 -0.5220  0.2268
 1010SOD     NA14492   3.644   3.471   9.856 -0.0219 -0.0195  0.0883
 1011SOD     NA14493   3.673   3.811   7.386  0.2238 -0.0614  0.3480
 1012SOL     OW14494   2.206   4.026   8.475  0.1191 -0.4084  0.0970
 1012SOL    HW114495   2.141   4.092   8.501  0.3631  0.7621 -2.1645
 1012SOL    HW214496   2.190   3.968   8.549  0.0497  1.1828  1.3448
 1013SOL     OW14497   3.265   1.764   2.846  0.2204  0.5748  0.4785
 1013SOL    HW114498   3.274   1.692   2.908  0.6438  0.6038  0.4460
 1013SOL    HW214499   3.177   1.756   2.810  0.5863 -1.9483  0.1594
 1014SOL     OW14500   3.434   2.239   8.810  0.2496  0.2562 -0.7044
 1014SOL    HW114501   3.381   2.220   8.733  1.6568  1.8745 -2.0615
 1014SOL    HW214502   3.457   2.152   8.841 -0.2559  0.9368  1.5764
 1015SOL     OW14503   1.144   4.299  12.571 -0.3574 -0.4462 -0.0962
 1015SOL    HW114504   1.151   4.263  12.659  0.1063 -0.2571 -0.0560
 1015SOL    HW214505   1.147   4.217  12.522  0.0554 -1.1009  1.0425
 1016SOL     OW14506   1.373   3.038   6.622 -0.6123  0.2457 -0.4304
 1016SOL    HW114507   1.389   3.085   6.540 -1.4027  0.1190 -0.6578
 1016SOL    HW214508   1.281   3.014   6.611 -0.3384 -0.3522 -1.3363
 1017SOL     OW14509   0.037   2.077   5.600 -0.5589  0.3080 -0.4192
 1017SOL    HW114510   4.672   2.041   5.603 -1.6458  3.0005 -0.4539
 1017SOL    HW214511   0.020   2.143   5.533  0.1808  1.3225  0.4005
 1018SOL     OW14512   1.021   1.103   6.570  0.1896  0.2342  0.2324
 1018SOL    HW114513   0.955   1.100   6.639  0.4625 -0.6313  0.4567
 1018SOL    HW214514   1.082   1.165   6.608  0.6012  0.6457 -1.0874
 1019SOL     OW14515   3.760   2.640   2.431 -0.0584  0.5922 -0.0485
 1019SOL    HW114516   3.752   2.731   2.403  0.0328  0.4984 -0.3835
 1019SOL    HW214517   3.839   2.627   2.378 -0.8943 -0.2525 -1.0699
 1020SOL     OW14518   3.269   4.625   3.638  0.1333  0.8455  0.0762
 1020SOL    HW114519   3.325   4.679   3.584  1.5949  0.8676  1.6182
 1020SOL    HW214520   3.328   4.581   3.699  0.7660  0.9213 -0.4833
 1021SOL     OW14521   3.585   0.129   5.100  0.5183  0.5155  0.3727
 1021SOL    HW114522   3.571   0.219   5.072  1.3029  0.4463 -0.2516
 1021SOL    HW214523   3.618   0.148   5.187  0.5978  2.2493 -0.0462
 1022SOL     OW14524   3.253   0.933   6.906  0.2202 -0.4524 -0.9313
 1022SOL    HW114525   3.265   1.025   6.929  1.2278 -1.0300  0.9006
 1022SOL    HW214526   3.327   0.912   6.849 -0.1001  2.3406 -2.3307
 1023SOL     OW14527   0.396   1.383   7.544  0.2325  0.0705 -0.4270
 1023SOL    HW114528   0.354   1.327   7.478 -0.4081  0.3980 -0.2959
 1023SOL    HW214529   0.450   1.429   7.480 -0.2884  2.0709  0.5848
 1024SOL     OW14530   2.989   0.654   5.897  0.8746 -0.5159  0.7694
 1024SOL    HW114531   2.996   0.659   5.993 -0.8479  1.7277  0.7909
 1024SOL    HW214532   2.910   0.601   5.900  1.9388 -2.1986 -1.4068
 1025SOL     OW14533   2.766   1.481  10.991  0.3880  0.0114  0.2945
 1025SOL    HW114534   2.780   1.406  10.933  2.3934  0.6901 -0.0810
 1025SOL    HW214535   2.753   1.449  11.080  1.9640  0.5544  0.7160
 1026SOL     OW14536   1.112   0.826   5.914 -0.1541  0.1315 -0.1189
 1026SOL    HW114537   1.166   0.899   5.883 -0.8982  1.5207  1.9152
 1026SOL    HW214538   1.178   0.756   5.911  0.5975  0.7680  2.1000
 1027SOL     OW14539   1.186   3.071  12.274 -0.2247  0.0504 -0.7173
 1027SOL    HW114540   1.258   3.095  12.332 -0.1079 -1.0083 -0.4379
 1027SOL    HW214541   1.147   3.155  12.248  0.5195  1.1834  1.8755
 1028SOL     OW14542   0.580   1.540   7.407 -0.3670  0.5602 -0.1177
 1028SOL    HW114543   0.671   1.510   7.404 -0.6070 -0.2777  0.9124
 1028SOL    HW214544   0.582   1.624   7.451 -3.0648 -0.3800  1.7972
 1029SOL     OW14545   0.866   1.203   9.636 -0.4147 -0.0494  0.6409
 1029SOL    HW114546   0.935   1.269   9.637  1.2605 -1.8228  3.1697
 1029SOL    HW214547   0.913   1.123   9.663 -0.0161  0.0870  0.3547
 1030SOL     OW14548   2.660   3.979   4.631  0.1221  0.1777 -0.1389
 1030SOL    HW114549   2.670   4.063   4.675 -1.2824  0.4163 -0.2628
 1030SOL    HW214550   2.739   3.928   4.648  1.0132  2.2471  1.8783
 1031SOL     OW14551   2.478   0.664   8.157 -0.5496  0.2839  0.0206
 1031SOL    HW114552   2.424   0.743   8.160  0.3044  0.8159  1.3765
 1031SOL    HW214553   2.416   0.603   8.196  0.4963 -0.2613  0.8135
 1032SOL     OW14554   1.340   0.060  10.184 -0.0575  0.0194  0.2373
 1032SOL    HW114555   1.383   0.144  10.167 -0.4570 -0.1461 -1.5445
 1032SOL    HW214556   1.306   0.040  10.097 -0.9530  2.1860  0.0791
 1033SOL     OW14557   0.904   1.478   9.012 -0.5401  0.2503 -0.2472
 1033SOL    HW114558   0.859   1.467   9.095 -0.7538  1.2933 -0.2240
 1033SOL    HW214559   0.958   1.400   9.004  0.0550  0.7954 -1.6149
 1034SOL     OW14560   3.995   2.609  13.900 -0.2339 -0.1113  0.5199
 1034SOL    HW114561   3.982   2.567  13.815 -3.0577  3.4902 -0.8436
 1034SOL    HW214562   3.914   2.589  13.946 -0.3803  0.5342  0.5465
 1035SOL     OW14563   2.621   3.646   3.152  0.3304  0.4186 -0.7387
 1035SOL    HW114564   2.643   3.583   3.221 -2.9525 -0.1630 -0.2359
 1035SOL    HW214565   2.548   3.603   3.108  2.3666 -1.9520 -1.8239
 1036SOL     OW14566   3.806   1.473   8.496  0.2319  0.1846 -0.3580
 1036SOL    HW114567   3.723   1.447   8.536  0.0804  1.3713  0.1036
 1036SOL    HW214568   3.824   1.389   8.454  0.5530 -0.0476  0.2383
 1037SOL     OW14569   2.843   1.317   9.503 -0.0489 -0.0236 -0.0812
 1037SOL    HW114570   2.823   1.388   9.564 -1.2259 -0.8997  0.5636
 1037SOL    HW214571   2.936   1.307   9.521  0.3047  2.5212 -0.4856
 1038SOL     OW14572   3.512   0.829   9.606  0.0700 -0.2585  0.2010
 1038SOL    HW114573   3.419   0.844   9.625 -0.5489 -2.4570 -1.0869
 1038SOL    HW214574   3.546   0.885   9.675  3.0543 -0.4806 -1.0933
 1039SOL     OW14575   2.412   0.081   9.940  0.2324  0.1291 -0.2568
 1039SOL    HW114576   2.378   0.009   9.885 -2.7404  0.2802  1.3768
 1039SOL    HW214577   2.496   0.043   9.966  1.2813  2.5667 -0.1419
 1040SOL     OW14578   0.755   1.241   9.381 -0.7019 -0.4303  0.2847
 1040SOL    HW114579   0.770   1.335   9.366 -0.9002 -0.3895  0.3486
 1040SOL    HW214580   0.798   1.235   9.466 -3.6788 -1.3565  1.7366
 1041SOL     OW14581   3.426   3.788   0.381 -0.1489  0.1770  0.2052
 1041SOL    HW114582   3.447   3.818   0.293 -3.0615 -0.8129 -0.8083
 1041SOL    HW214583   3.374   3.862   0.414  1.6993  0.8110  1.7232
 1042SOL     OW14584   4.579   2.709   1.131  0.0008 -0.2416 -0.3738
 1042SOL    HW114585   4.486   2.717   1.113  0.1697  2.2210 -0.1647
 1042SOL    HW214586   4.604   2.747   1.047  0.0333 -0.6164 -0.5376
 1043SOL     OW14587   3.567   0.662   2.554  0.3424 -0.7575  0.1975
 1043SOL    HW114588   3.598   0.679   2.643 -2.6930 -3.5329  1.7856
 1043SOL    HW214589   3.618   0.717   2.494  1.1453 -0.0831  1.5071
 1044SOL     OW14590   3.604   0.268   2.963  0.4801  0.3817  0.1265
 1044SOL    HW114591   3.661   0.249   2.888 -1.0271 -1.1671 -0.6095
 1044SOL    HW214592   3.613   0.363   2.971 -0.6044  0.6399 -1.8165
 1045SOL     OW14593   1.023   1.756   7.339  0.2050 -0.0319 -0.0242
 1045SOL    HW114594   1.115   1.731   7.343  0.9264  2.5379 -0.5115
 1045SOL    HW214595   1.004   1.735   7.247  0.9074  0.3790 -0.2679
 1046SOL     OW14596   0.056   0.984   8.738 -0.2978 -0.0124  0.3022
 1046SOL    HW114597   4.689   0.992   8.707 -0.0922 -0.5261 -0.4316
 1046SOL    HW214598   0.049   0.934   8.819 -0.6145 -1.0422 -0.3733
 1047SOL     OW14599   4.594   0.768   4.769 -0.3849  0.2551  0.2067
 1047SOL    HW114600   4.673   0.714   4.773 -1.5707 -1.6854 -2.5434
 1047SOL    HW214601   4.634   0.853   4.749  2.3060 -1.2015 -0.7449
 1048SOL     OW14602   2.330   1.655   6.453 -0.1993  0.2603  0.5721
 1048SOL    HW114603   2.383   1.669   6.375 -1.5355 -0.7171 -0.5015
 1048SOL    HW214604   2.275   1.734   6.457 -2.5487 -1.3098 -0.7030
 1049SOL     OW14605   1.031   4.098   6.735  0.2164  0.0557 -0.4979
 1049SOL    HW114606   1.047   4.006   6.756 -1.2728  0.4250  2.2182
 1049SOL    HW214607   0.949   4.120   6.779  0.8013  0.0687  0.5857
 1050SOL     OW14608   0.553   0.848   3.696  0.0600 -0.1072  0.0446
 1050SOL    HW114609   0.632   0.799   3.721 -0.5532 -2.2298 -2.1954
 1050SOL    HW214610   0.556   0.912   3.766  1.0699  1.4663 -1.4225
 1051SOL     OW14611   2.031   2.500   3.181 -0.0684 -0.4136 -0.0867
 1051SOL    HW114612   2.108   2.484   3.127  0.7146  0.4270  0.7677
 1051SOL    HW214613   2.054   2.442   3.253 -2.0389 -0.1512  0.7620
 1052SOL     OW14614   2.120   2.463   8.845 -0.3473 -0.0737  0.1445
 1052SOL    HW114615   2.083   2.431   8.762 -0.8839  0.1152  0.3102
 1052SOL    HW214616   2.037   2.468   8.894 -0.7403 -1.3932 -0.3912
 1053SOL     OW14617   2.247   2.176   4.316 -0.2737  0.2126  0.1026
 1053SOL    HW114618   2.163   2.133   4.300 -0.3046  0.3639 -0.1438
 1053SOL    HW214619   2.300   2.129   4.252  0.1196  0.3637  0.3156
 1054SOL     OW14620   0.158   4.557   2.432  0.1743  0.3462  0.0014
 1054SOL    HW114621   0.065   4.581   2.438 -0.3082 -1.6785  0.4457
 1054SOL    HW214622   0.157   4.463   2.417 -1.1849  0.2714  0.5904
 1055SOL     OW14623   2.938   1.175  15.096  0.1886  0.1516 -0.1407
 1055SOL    HW114624   2.897   1.227  15.165 -0.4412 -1.0586  0.3921
 1055SOL    HW214625   2.871   1.110  15.074 -1.1448  1.7587 -0.7960
 1056SOL     OW14626   1.196   4.560   1.477 -0.0101 -0.4496  0.2488
 1056SOL    HW114627   1.147   4.478   1.475 -1.2053  0.2419  1.1237
 1056SOL    HW214628   1.274   4.537   1.427 -1.5822 -0.5343 -2.1991
 1057SOL     OW14629   3.040   0.705  11.409  0.0901 -0.1666 -0.4345
 1057SOL    HW114630   2.965   0.652  11.437  0.6586 -0.6956  0.0846
 1057SOL    HW214631   3.101   0.646  11.365  0.3897  0.0415 -0.2914
 1058SOL     OW14632   1.600   4.461   8.243 -0.2353  0.2636  0.4712
 1058SOL    HW114633   1.685   4.462   8.199 -0.2746 -2.1341  0.3314
 1058SOL    HW214634   1.603   4.551   8.276  1.3370 -0.4959  2.4299
 1059SOL     OW14635   4.075   1.478   2.100  0.4205  0.4004 -0.6532
 1059SOL    HW114636   4.012   1.543   2.071  1.3789  1.4344 -0.4283
 1059SOL    HW214637   4.040   1.398   2.061 -0.4025 -0.4079  1.7078
 1060SOL     OW14638   3.653   1.146   6.931  0.1683  0.0950  0.3336
 1060SOL    HW114639   3.577   1.203   6.946  0.4480  0.8803 -1.1392
 1060SOL    HW214640   3.701   1.183   6.856  1.2175  0.8030  1.3642
 1061SOL     OW14641   2.117   4.439   9.138 -0.0726 -0.1035  0.0405
 1061SOL    HW114642   2.029   4.419   9.169  0.4090  1.2464  2.2888
 1061SOL    HW214643   2.173   4.401   9.206  2.6505  0.4068 -1.8761
 1062SOL     OW14644   0.036   2.201   8.352  0.0456  0.4624 -0.0455
 1062SOL    HW114645   0.018   2.292   8.328  2.9153  0.5115 -1.9618
 1062SOL    HW214646   4.712   2.160   8.280  0.3540  1.3186 -0.7396
 1063SOL     OW14647   2.969   2.263  15.648 -0.1653 -0.7826  0.0108
 1063SOL    HW114648   2.926   2.248  15.732  0.0783 -3.1952 -0.3150
 1063SOL    HW214649   2.996   2.178  15.614  1.6633  0.6131 -2.0845
 1064SOL     OW14650   3.770   2.725   3.384  0.2927  0.0003  0.3156
 1064SOL    HW114651   3.800   2.770   3.305 -1.1261  0.6468  0.1541
 1064SOL    HW214652   3.732   2.643   3.353  0.7077  0.5882 -1.6920
 1065SOL     OW14653   1.638   3.835   3.050 -0.0045 -0.0079  0.5209
 1065SOL    HW114654   1.711   3.886   3.016 -0.0060  0.2436  0.8934
 1065SOL    HW214655   1.597   3.795   2.974  1.4451 -1.6753  0.6200
 1066SOL     OW14656   0.133   4.085   5.367 -0.4378  0.3764  0.7676
 1066SOL    HW114657   0.182   4.044   5.296  0.7679  1.7407  0.8093
 1066SOL    HW214658   0.057   4.126   5.325 -0.7708  0.4355  1.4201
 1067SOL     OW14659   4.530   3.317   6.064  0.6020 -0.0427 -0.3125
 1067SOL    HW114660   4.442   3.310   6.100  1.1705  1.1434  1.2789
 1067SOL    HW214661   4.505   3.375   5.992  0.1259  2.8076  2.1641
 1068SOL     OW14662   1.834   2.944  14.982  0.0537  0.3717  0.2184
 1068SOL    HW114663   1.821   2.999  15.059  0.6216  2.2324 -1.0351
 1068SOL    HW214664   1.899   2.995  14.935  0.5754  1.2279  1.8504
 1069SOL     OW14665   2.470   0.078  14.863 -0.2102 -0.2279 -0.6520
 1069SOL    HW114666   2.418   0.026  14.802 -3.1069  0.2684  1.4065
 1069SOL    HW214667   2.549   0.090  14.810 -0.6773 -0.9385 -1.5199
 1070SOL     OW14668   3.871   0.434  10.999 -0.6018  0.4509 -0.1832
 1070SOL    HW114669   3.892   0.518  10.958  2.1587  0.9979  2.3314
 1070SOL    HW214670   3.928   0.430  11.075  1.1505  1.1656 -1.4465
 1071SOL     OW14671   1.433   4.178  14.178  0.2089 -0.2319 -0.2754
 1071SOL    HW114672   1.380   4.164  14.100 -0.6877  1.0986  0.1005
 1071SOL    HW214673   1.442   4.273  14.172  0.7756 -0.2031  0.9405
 1072SOL     OW14674   0.462   2.316   1.449 -0.0351  0.4004  0.5231
 1072SOL    HW114675   0.461   2.403   1.489  2.0540 -0.0839  1.6335
 1072SOL    HW214676   0.377   2.315   1.406 -1.0303  0.8214  2.4912
 1073SOL     OW14677   4.390   0.118   3.559  0.2337  0.3880 -0.1277
 1073SOL    HW114678   4.443   0.193   3.533  0.7079 -0.9490 -2.9666
 1073SOL    HW214679   4.402   0.051   3.492 -0.3212 -0.4277  0.5780
 1074SOL     OW14680   1.577   1.877  13.711 -0.1233  0.3319  0.3971
 1074SOL    HW114681   1.622   1.793  13.712  0.8861  0.8840  0.6197
 1074SOL    HW214682   1.498   1.839  13.750 -0.5600 -0.9403 -1.6773
 1075SOL     OW14683   4.399   0.707   7.781  0.2831 -0.0718  0.0592
 1075SOL    HW114684   4.484   0.664   7.773 -0.1574 -0.4632 -2.5384
 1075SOL    HW214685   4.360   0.648   7.845 -1.1522  1.3434  0.4810
 1076SOL     OW14686   2.289   3.029   9.086  0.2296 -0.5402  0.1693
 1076SOL    HW114687   2.325   3.110   9.052 -0.6432 -0.4117 -0.4583
 1076SOL    HW214688   2.202   3.066   9.103  0.9049  1.0637  0.0885
 1077SOL     OW14689   4.645   1.557  16.041  0.4430 -0.7536  0.5383
 1077SOL    HW114690   4.581   1.553  15.970 -0.0245 -0.1890  0.9290
 1077SOL    HW214691   4.591   1.585  16.115  0.5568  0.1533  0.2836
 1078SOL     OW14692   4.679   0.517   3.584 -0.2546  0.6217  0.3028
 1078SOL    HW114693   4.658   0.607   3.559 -1.6966  0.6223  1.5655
 1078SOL    HW214694   4.716   0.532   3.671 -0.2679 -0.8300  0.5575
 1079SOL     OW14695   1.142   1.053  15.311 -0.2019  0.2609  0.6154
 1079SOL    HW114696   1.089   1.110  15.256  0.7823 -0.9359 -1.5801
 1079SOL    HW214697   1.197   1.115  15.360  0.3657  0.6537 -0.5042
 1080SOL     OW14698   2.808   2.731   5.936 -0.0746  0.0290  0.6283
 1080SOL    HW114699   2.878   2.793   5.915 -0.1720 -0.1471 -0.2133
 1080SOL    HW214700   2.800   2.741   6.031  0.9344  0.2685  0.6817
 1081SOL     OW14701   3.126   2.641   2.595 -0.2637  0.6058 -0.1229
 1081SOL    HW114702   3.127   2.697   2.673 -1.7397 -0.2626  0.5015
 1081SOL    HW214703   3.056   2.679   2.543 -0.2556 -1.1126 -1.3872
 1082SOL     OW14704   1.322   3.346  13.565 -0.5828  0.2419 -0.4897
 1082SOL    HW114705   1.357   3.331  13.653 -2.5474 -0.2993  0.2037
 1082SOL    HW214706   1.254   3.407  13.594  0.5933  0.5604  1.5925
 1083SOL     OW14707   1.564   3.085   9.156 -0.3444 -0.5402 -0.0289
 1083SOL    HW114708   1.615   3.016   9.198 -0.3683  0.8753  2.3423
 1083SOL    HW214709   1.476   3.048   9.163 -0.4665  0.0377  1.4937
 1084SOL     OW14710   1.097   0.827  15.822 -0.3488  0.3884 -0.5891
 1084SOL    HW114711   1.045   0.833  15.742  0.0235  0.1172 -0.8528
 1084SOL    HW214712   1.023   0.818  15.882  1.0142 -0.1937  1.0189
 1085SOL     OW14713   4.272   4.605   6.392 -0.2099  0.5274 -0.2846
 1085SOL    HW114714   4.297   4.588   6.483  1.1191  0.7561 -0.6141
 1085SOL    HW214715   4.340   4.667   6.367  1.4412 -0.9215  0.6427
 1086SOL     OW14716   2.794   1.322   6.202  0.2889 -0.3085 -0.0306
 1086SOL    HW114717   2.747   1.251   6.158  0.5469 -0.8941  0.6399
 1086SOL    HW214718   2.726   1.387   6.220  1.8628  0.9778  1.2134
 1087SOL     OW14719   3.693   1.708   5.625  0.3391  0.3214  0.2461
 1087SOL    HW114720   3.647   1.737   5.546  1.4225 -0.2140 -0.5885
 1087SOL    HW214721   3.630   1.743   5.688  0.2460  0.4473  0.0845
 1088SOL     OW14722   0.812   3.489   5.150  0.3743  0.6579 -0.2235
 1088SOL    HW114723   0.777   3.424   5.211  1.0511 -0.6174 -1.1962
 1088SOL    HW214724   0.881   3.535   5.198  1.5119 -0.4303 -0.8014
 1089SOL     OW14725   1.785   2.505  10.138 -0.2652  0.4017 -0.1435
 1089SOL    HW114726   1.839   2.570  10.182 -0.4038  0.8137 -0.5908
 1089SOL    HW214727   1.714   2.495  10.203 -2.9686  1.3312 -2.9656
 1090SOL     OW14728   2.040   2.637   6.561  0.6995  0.2094 -0.4486
 1090SOL    HW114729   2.065   2.730   6.568  0.5390  0.2009  0.2860
 1090SOL    HW214730   2.075   2.604   6.479 -3.1506 -1.2317 -1.5018
 1091SOL     OW14731   0.395   2.341   7.911 -0.6593  0.5753 -0.7648
 1091SOL    HW114732   0.400   2.257   7.958  1.5616  0.9810 -0.2972
 1091SOL    HW214733   0.303   2.336   7.886 -1.2065 -0.6732  1.4574
 1092SOL     OW14734   3.286   0.461   3.249  0.4887  0.0422 -0.0621
 1092SOL    HW114735   3.213   0.419   3.202  0.1861  0.8165 -0.2841
 1092SOL    HW214736   3.236   0.530   3.292 -1.7391 -0.2047 -2.2118
 1093SOL     OW14737   3.438   1.412   3.197 -0.4572  0.2605 -0.3211
 1093SOL    HW114738   3.481   1.339   3.242 -1.7987 -1.5513 -2.0041
 1093SOL    HW214739   3.519   1.449   3.161 -0.2441  0.5832  0.4911
 1094SOL     OW14740   4.049   2.955   2.834  0.2403 -0.0207  0.2286
 1094SOL    HW114741   4.099   2.916   2.762  0.6517 -0.6890  0.8710
 1094SOL    HW214742   4.115   2.987   2.895  1.1146 -0.5514 -0.4400
 1095SOL     OW14743   3.534   1.084  17.366 -0.5415  0.1459 -0.5649
 1095SOL    HW114744   3.571   0.997  17.375 -2.1982 -0.5774 -0.8239
 1095SOL    HW214745   3.616   1.128  17.343 -0.4849  0.8162  0.9157
 1096SOL     OW14746   3.083   0.137   4.844 -0.2839  0.3099  0.2099
 1096SOL    HW114747   3.166   0.173   4.875 -0.5499 -1.4408  2.9552
 1096SOL    HW214748   3.099   0.046   4.820  1.2532  1.0995 -1.7447
 1097SOL     OW14749   1.360   0.954   3.323  0.0661  0.0468  0.1445
 1097SOL    HW114750   1.386   1.007   3.248 -0.2450 -0.6031 -0.4233
 1097SOL    HW214751   1.416   0.975   3.398 -0.8448  2.5968  0.0866
 1098SOL     OW14752   4.090   1.949   1.444 -0.0335 -0.5703 -0.4898
 1098SOL    HW114753   4.009   1.899   1.440  1.2808 -2.8168  1.3037
 1098SOL    HW214754   4.153   1.877   1.451  0.6873  0.2633  1.4814
 1099SOL     OW14755   3.205   1.088   5.629  0.1013  0.5683 -0.1651
 1099SOL    HW114756   3.193   1.027   5.556  0.9489  0.5271 -0.2671
 1099SOL    HW214757   3.267   1.042   5.685 -0.7406 -0.2865  0.0585
 1100SOL     OW14758   2.176   1.779  15.376  0.1091 -0.0705 -0.5754
 1100SOL    HW114759   2.129   1.841  15.320 -0.8082  0.0451  0.3225
 1100SOL    HW214760   2.238   1.842  15.412  1.2758 -1.2854 -0.4665
 1101SOL     OW14761   3.648   1.559  15.599  0.2704  0.7173  0.3235
 1101SOL    HW114762   3.588   1.603  15.659  0.8823  2.3641 -0.2509
 1101SOL    HW214763   3.730   1.566  15.649 -0.4527  0.2701  1.5515
 1102SOL     OW14764   3.051   3.664  14.740 -0.0688 -0.4938 -0.6771
 1102SOL    HW114765   3.068   3.753  14.770 -1.5922 -2.3079  5.5905
 1102SOL    HW214766   3.128   3.617  14.772  1.4168  1.7387 -0.9917
 1103SOL     OW14767   3.089   0.903   7.232 -0.1822  0.3918 -0.0340
 1103SOL    HW114768   3.116   0.926   7.321  2.1117 -0.6784 -0.4477
 1103SOL    HW214769   3.063   0.990   7.204 -2.1519 -0.3026 -0.3399
 1104SOL     OW14770   4.569   0.918   5.659 -0.4686 -0.5168  0.4471
 1104SOL    HW114771   4.589   0.994   5.605  1.9955 -1.5955 -0.1778
 1104SOL    HW214772   4.491   0.937   5.711 -0.8585  0.4680 -0.4982
 1105SOL     OW14773   0.528   3.575   4.134 -0.0654 -0.5124 -0.4452
 1105SOL    HW114774   0.524   3.530   4.050  0.2029  1.7628 -1.6622
 1105SOL    HW214775   0.615   3.614   4.133  0.1111 -0.8608  1.0483
 1106SOL     OW14776   0.971   2.403   5.923 -0.4554 -0.1416  0.5977
 1106SOL    HW114777   0.896   2.461   5.913 -0.3437  0.0865  1.0729
 1106SOL    HW214778   0.946   2.359   6.004  1.1941  0.4832  1.4397
 1107SOL     OW14779   1.165   1.378   8.755 -0.2235 -0.2463  0.4462
 1107SOL    HW114780   1.244   1.346   8.712 -0.7876 -1.3732  0.2512
 1107SOL    HW214781   1.101   1.356   8.687 -0.0698  0.5528  0.0493
 1108SOL     OW14782   3.947   1.247   0.326  0.2682  0.2439 -0.2724
 1108SOL    HW114783   4.022   1.293   0.364 -0.0870 -2.1909  3.3875
 1108SOL    HW214784   3.932   1.169   0.380 -0.0662 -0.5433 -1.5074
 1109SOL     OW14785   1.284   3.128   8.970 -0.6000 -0.0091 -0.4154
 1109SOL    HW114786   1.204   3.102   8.923 -0.1694  0.7026 -1.5601
 1109SOL    HW214787   1.245   3.088   9.048  0.6894 -1.3147 -0.4639
 1110SOL     OW14788   0.517   1.202   8.104  0.6681  0.0099  0.4200
 1110SOL    HW114789   0.590   1.180   8.046  0.1036 -0.3436 -0.1640
 1110SOL    HW214790   0.465   1.265   8.054  0.9426  1.1488  1.5992
 1111SOL     OW14791   4.251   1.499   7.204  0.2424 -0.2271 -0.3171
 1111SOL    HW114792   4.179   1.507   7.140  0.0121  1.8732  0.1889
 1111SOL    HW214793   4.212   1.435   7.263  1.3349  0.2325  0.8869
 1112SOL     OW14794   2.317   0.207   3.155  0.6443 -0.5238 -0.0257
 1112SOL    HW114795   2.297   0.154   3.232  1.1593  1.4681  1.4804
 1112SOL    HW214796   2.237   0.259   3.144  1.9573  1.9605  2.1847
 1113SOL     OW14797   4.311   3.065   6.177  0.3471  0.0979 -0.3110
 1113SOL    HW114798   4.254   3.035   6.106 -0.0996 -0.0642  0.1165
 1113SOL    HW214799   4.387   3.008   6.175 -0.3792 -0.7800 -2.2304
 1114SOL     OW14800   3.497   4.425   7.616 -0.1428 -0.0764 -0.3715
 1114SOL    HW114801   3.420   4.483   7.616 -2.3218 -2.9726  1.9365
 1114SOL    HW214802   3.460   4.340   7.639  1.3977 -1.0564 -1.5250
 1115SOL     OW14803   1.463   0.361  16.753 -0.1829 -0.3690 -0.3902
 1115SOL    HW114804   1.434   0.274  16.782 -0.2325  0.4087  1.8783
 1115SOL    HW214805   1.416   0.422  16.810  0.6163  0.6271 -0.8071
 1116SOL     OW14806   2.722   1.132  10.319 -0.0753  0.3404  0.1854
 1116SOL    HW114807   2.673   1.137  10.237  1.1988 -1.6541 -0.6814
 1116SOL    HW214808   2.729   1.227  10.335 -0.6478  0.2070  1.2739
 1117SOL     OW14809   2.160   3.099   6.791 -0.1847 -0.2895 -0.2076
 1117SOL    HW114810   2.241   3.150   6.790 -1.0799  1.1852  2.2025
 1117SOL    HW214811   2.100   3.174   6.794  0.9244  0.5832  0.1351
 1118SOL     OW14812   3.667   0.343  12.219  0.1832 -0.0609  0.2128
 1118SOL    HW114813   3.689   0.264  12.268 -0.9730 -0.5615 -0.0544
 1118SOL    HW214814   3.756   0.376  12.221  0.2723 -0.3984  1.8008
 1119SOL     OW14815   3.569   1.280   3.407  0.7483  0.1835  0.2826
 1119SOL    HW114816   3.624   1.224   3.352 -1.2550 -2.6767  1.1669
 1119SOL    HW214817   3.559   1.227   3.487 -1.7709 -2.8037 -2.0107
 1120SOL     OW14818   4.534   1.386  13.464 -0.6245  0.0405 -0.3219
 1120SOL    HW114819   4.586   1.464  13.449  0.5978 -0.5502  0.8762
 1120SOL    HW214820   4.445   1.422  13.464 -0.0382  1.4870 -0.5070
 1121SOL     OW14821   0.818   3.982   5.475 -0.4857  0.0413  0.5551
 1121SOL    HW114822   0.884   4.022   5.531  2.6531 -2.4234 -1.3762
 1121SOL    HW214823   0.784   4.052   5.420 -0.6838 -1.5179 -1.3145
 1122SOL     OW14824   0.727   2.646   1.322 -0.1418  0.0608 -0.0656
 1122SOL    HW114825   0.736   2.740   1.310 -0.5374  0.1163  0.0596
 1122SOL    HW214826   0.673   2.610   1.252 -0.6233  1.5740 -0.4582
 1123SOL     OW14827   1.845   3.126   7.523  0.4087  0.2861  0.4975
 1123SOL    HW114828   1.918   3.068   7.544 -0.8429 -1.3135  0.4641
 1123SOL    HW214829   1.778   3.099   7.586  0.3150 -1.2859 -0.2903
 1124SOL     OW14830   0.614   1.820   9.807  0.1143  0.5812 -0.6032
 1124SOL    HW114831   0.636   1.912   9.817  2.1011 -0.0399  0.7723
 1124SOL    HW214832   0.624   1.808   9.712 -3.4005  0.6635 -0.9662
 1125SOL     OW14833   2.669   2.523   8.823 -0.1167 -0.1444 -0.0202
 1125SOL    HW114834   2.676   2.516   8.919  0.6760  2.2562  0.1115
 1125SOL    HW214835   2.709   2.441   8.793  1.2848  0.2526  0.7422
 1126SOL     OW14836   2.127   0.293   6.461  0.1827  0.0920 -0.0347
 1126SOL    HW114837   2.204   0.253   6.421 -0.0845 -1.2240  0.7574
 1126SOL    HW214838   2.092   0.329   6.379 -0.8960  0.7942  0.7368
 1127SOL     OW14839   0.414   4.569  14.672 -0.5630 -0.2818 -0.1413
 1127SOL    HW114840   0.334   4.528  14.638 -0.9957 -1.3292  2.1989
 1127SOL    HW214841   0.386   4.657  14.648 -1.9733 -1.3915 -2.6278
 1128SOL     OW14842   2.536   0.272  10.423 -0.4631  0.0022  0.3152
 1128SOL    HW114843   2.574   0.282  10.336  0.4539  0.7761  0.8069
 1128SOL    HW214844   2.564   0.183  10.441  0.9557 -0.0652 -2.2250
 1129SOL     OW14845   2.478   4.285   1.680 -0.0406 -0.5258  0.3643
 1129SOL    HW114846   2.473   4.192   1.660  1.1910 -0.4207 -0.4389
 1129SOL    HW214847   2.567   4.303   1.649 -1.0996 -0.6236 -2.7655
 1130SOL     OW14848   2.156   2.648   2.862  0.2406  0.0736 -0.4051
 1130SOL    HW114849   2.234   2.695   2.834 -0.8192 -0.0005 -3.4773
 1130SOL    HW214850   2.164   2.570   2.807 -1.1543 -1.0702  0.9821
 1131SOL     OW14851   0.786   3.955   6.279 -0.3182 -0.1611 -0.0219
 1131SOL    HW114852   0.836   3.891   6.330  0.8461  1.7025  1.1768
 1131SOL    HW214853   0.806   4.032   6.333 -1.9167  0.4154 -0.2562
 1132SOL     OW14854   3.113   0.263   8.268 -0.5864  0.0850  0.3132
 1132SOL    HW114855   3.174   0.333   8.289  0.2018 -0.2591 -0.8286
 1132SOL    HW214856   3.036   0.318   8.282 -0.3380  0.8032 -1.1729
 1133SOL     OW14857   4.673   2.904   2.908 -0.1159 -0.3846  0.8148
 1133SOL    HW114858   4.680   2.808   2.903 -1.1935 -0.4070 -0.1929
 1133SOL    HW214859   4.578   2.908   2.916 -0.1427 -0.0691  0.3224
 1134SOL     OW14860   2.937   3.450   3.077  0.8689 -0.7363  0.0384
 1134SOL    HW114861   2.882   3.512   3.029 -1.8796 -0.9771  2.8890
 1134SOL    HW214862   2.996   3.511   3.121 -0.4768  1.7106 -1.5464
 1135SOL     OW14863   0.783   0.832   5.589  0.1828 -0.2668 -0.2949
 1135SOL    HW114864   0.867   0.877   5.600  0.4689 -0.7787 -0.3869
 1135SOL    HW214865   0.775   0.789   5.675 -0.5751  0.3353 -0.0664
 1136SOL     OW14866   1.234   4.568  15.420  0.1737 -0.5048 -0.2223
 1136SOL    HW114867   1.311   4.601  15.373 -0.6884  0.3692 -1.0416
 1136SOL    HW214868   1.193   4.540  15.338 -1.0784  0.0226  0.2136
 1137SOL     OW14869   4.704   0.135   6.879  0.5245  0.6096  0.2519
 1137SOL    HW114870   0.019   0.137   6.791 -0.9418 -2.2818 -0.4563
 1137SOL    HW214871   0.007   0.045   6.899 -1.6216 -0.1836 -0.4422
 1138SOL     OW14872   1.770   4.718   5.631 -0.3649 -0.1036 -0.5848
 1138SOL    HW114873   1.765   0.078   5.676 -0.6168 -0.0792 -0.6618
 1138SOL    HW214874   1.826   4.687   5.702 -0.4660  0.3175 -0.3214
 1139SOL     OW14875   0.560   3.671   0.620  0.4294  0.1493 -0.5491
 1139SOL    HW114876   0.585   3.621   0.698 -1.0976  0.3632  0.0804
 1139SOL    HW214877   0.552   3.600   0.557  1.7164  0.6736 -1.3146
 1140SOL     OW14878   4.060   2.901  11.033  0.1635  0.1185  0.2078
 1140SOL    HW114879   4.073   2.958  11.108  1.2239 -1.2023  1.0183
 1140SOL    HW214880   4.072   2.963  10.961 -0.7938  0.7160  0.5578
 1141SOL     OW14881   1.815   1.810   5.795  0.0651  0.2501 -0.5354
 1141SOL    HW114882   1.749   1.774   5.853  0.5416 -1.8834 -1.3170
 1141SOL    HW214883   1.885   1.749   5.818  0.0221  0.1776 -0.5986
 1142SOL     OW14884   4.656   2.218  13.335 -0.0510  0.2383 -0.0765
 1142SOL    HW114885   4.614   2.252  13.256 -1.2864 -0.4156  0.2929
 1142SOL    HW214886   4.691   2.139  13.293 -1.9028 -0.3837 -0.4160
 1143SOL     OW14887   2.196   2.529   8.472  0.5292  0.1460  0.5003
 1143SOL    HW114888   2.155   2.472   8.537  1.5899 -2.1374 -0.8320
 1143SOL    HW214889   2.291   2.533   8.487  0.4923 -0.7227  0.9892
 1144SOL     OW14890   3.254   1.186  13.222 -0.0438  0.3088 -0.3607
 1144SOL    HW114891   3.197   1.217  13.292  0.7510 -0.9937  0.8580
 1144SOL    HW214892   3.243   1.091  13.228  2.5279  0.0462  0.2016
 1145SOL     OW14893   4.637   2.282  16.259 -0.3107  0.2289 -0.2054
 1145SOL    HW114894   4.695   2.248  16.327 -1.9231 -1.1728  0.4638
 1145SOL    HW214895   4.553   2.252  16.293 -0.8169  0.3534 -1.3598
 1146SOL     OW14896   2.744   2.383   6.488 -0.4403  0.3185  0.7284
 1146SOL    HW114897   2.831   2.357   6.458 -0.3258  4.2041 -2.3431
 1146SOL    HW214898   2.709   2.299   6.460 -0.7547  0.9794 -0.8740
 1147SOL     OW14899   0.263   3.986   6.536 -0.3175 -0.1916  0.1146
 1147SOL    HW114900   0.295   3.915   6.480 -6.4566 -3.9715  1.4318
 1147SOL    HW214901   0.318   4.059   6.508  1.0762 -1.3243 -0.1483
 1148SOL     OW14902   0.530   2.213  14.454  0.6634  0.7882 -0.0536
 1148SOL    HW114903   0.594   2.190  14.386  2.3274  2.8161  0.8249
 1148SOL    HW214904   0.574   2.172  14.528 -1.0900  1.2325  1.2372
 1149SOL     OW14905   4.396   4.213   0.857  0.0702 -0.2164  0.0949
 1149SOL    HW114906   4.304   4.238   0.863 -0.0168 -0.6155  0.4267
 1149SOL    HW214907   4.411   4.180   0.946 -2.0088 -0.5274  0.3282
 1150SOL     OW14908   4.427   0.512   8.398  0.0571  0.2292 -0.2621
 1150SOL    HW114909   4.480   0.579   8.441 -1.6986  1.7408 -0.4435
 1150SOL    HW214910   4.432   0.546   8.309  0.6012 -1.8830 -1.0432
 1151SOL     OW14911   2.191   4.466   5.574 -0.4265  0.1937  0.4512
 1151SOL    HW114912   2.240   4.397   5.620 -1.0335  0.7292  1.9202
 1151SOL    HW214913   2.209   4.532   5.642  2.5036  0.6213 -0.7104
 1152SOL     OW14914   2.193   4.471   5.127  0.4045  0.4811 -0.1073
 1152SOL    HW114915   2.139   4.507   5.056 -0.8843  0.3937  0.8275
 1152SOL    HW214916   2.144   4.469   5.209 -0.0626 -2.7793 -0.4873
 1153SOL     OW14917   4.711   2.467   3.338 -1.1197 -0.1141 -0.0548
 1153SOL    HW114918   4.675   2.532   3.277 -1.9666  0.1760  0.7416
 1153SOL    HW214919   0.023   2.524   3.407 -0.1308 -0.3142 -0.4031
 1154SOL     OW14920   4.606   4.638   2.399 -0.0963  0.8361 -0.0610
 1154SOL    HW114921   4.601   4.718   2.347  1.6192  1.2182  0.3624
 1154SOL    HW214922   4.592   4.675   2.486 -1.2332  2.8846 -1.1127
 1155SOL     OW14923   2.492   2.832   8.566  0.2127 -0.0345  0.0255
 1155SOL    HW114924   2.421   2.861   8.623  0.2550  1.3074 -0.6029
 1155SOL    HW214925   2.475   2.738   8.560 -0.4326  0.0932 -0.1065
 1156SOL     OW14926   3.878   1.684   8.326  0.3099 -0.1790  0.4650
 1156SOL    HW114927   3.881   1.630   8.405  0.5188  3.9467  3.2715
 1156SOL    HW214928   3.837   1.622   8.266 -0.3365  0.9285 -0.2480
 1157SOL     OW14929   1.894   2.053   9.398  0.4397 -0.3367 -0.2139
 1157SOL    HW114930   1.951   2.060   9.475 -2.1129  2.9208  1.3945
 1157SOL    HW214931   1.944   2.090   9.325 -2.1020 -0.7778 -2.1954
 1158SOL     OW14932   1.865   2.564   5.262  0.4189 -0.0302 -0.1236
 1158SOL    HW114933   1.786   2.599   5.304 -0.9517 -1.5858 -1.3970
 1158SOL    HW214934   1.931   2.574   5.331  0.3389  0.3214 -0.0980
 1159SOL     OW14935   0.357   1.672  16.095 -0.7155  0.0682 -0.7712
 1159SOL    HW114936   0.382   1.715  16.013  1.5394 -1.5921 -0.9618
 1159SOL    HW214937   0.290   1.731  16.129 -0.0758  0.3506 -0.0044
 1160SOL     OW14938   2.344   3.417   8.304 -0.2513  0.2687  0.1195
 1160SOL    HW114939   2.335   3.372   8.388 -1.7432  0.7371  0.2128
 1160SOL    HW214940   2.377   3.343   8.253  0.6972  1.2792 -0.7279
 1161SOL     OW14941   2.534   3.188   3.913 -0.2611 -0.0299 -0.0583
 1161SOL    HW114942   2.451   3.237   3.913  0.3178  0.9615  0.0830
 1161SOL    HW214943   2.513   3.096   3.898  0.2483  0.0068 -0.9754
 1162SOL     OW14944   1.908   1.584   8.379 -0.3192  0.2961 -0.1534
 1162SOL    HW114945   1.923   1.490   8.369  2.9222  0.9451 -1.4781
 1162SOL    HW214946   1.932   1.608   8.468  0.7938  1.2984 -0.7228
 1163SOL     OW14947   4.153   1.930   5.801 -0.6263  0.0712  0.4289
 1163SOL    HW114948   4.227   1.869   5.797 -2.2941 -1.9488  0.8155
 1163SOL    HW214949   4.091   1.889   5.742  0.7113 -0.2775 -0.7336
 1164SOL     OW14950   1.503   0.183   8.600  0.1207  0.0153 -0.3091
 1164SOL    HW114951   1.466   0.128   8.669  0.2929  0.2103 -0.0623
 1164SOL    HW214952   1.462   0.267   8.622 -0.8762 -0.2109 -1.3029
 1165SOL     OW14953   1.190   3.055   6.943  0.1100 -0.0871 -0.3904
 1165SOL    HW114954   1.115   3.064   6.884 -0.9880 -0.5940  0.9384
 1165SOL    HW214955   1.160   3.115   7.012 -0.0277  0.0455 -0.5631
 1166SOL     OW14956   0.495   3.326   1.502  0.0876 -0.4992 -0.5355
 1166SOL    HW114957   0.517   3.370   1.419 -0.4994  0.8849  0.0298
 1166SOL    HW214958   0.546   3.246   1.492 -0.0815 -0.5490 -1.0163
 1167SOL     OW14959   4.583   0.163   2.272  0.0549 -0.0329  0.1473
 1167SOL    HW114960   4.567   0.254   2.246 -3.1213 -0.4446  0.5719
 1167SOL    HW214961   4.569   0.115   2.191 -2.9737 -0.4399  0.9101
 1168SOL     OW14962   2.889   3.148   6.289  0.9006 -0.0528  0.1024
 1168SOL    HW114963   2.837   3.135   6.210  0.2875 -0.6188  0.5921
 1168SOL    HW214964   2.844   3.086   6.348  1.9636  0.2409  1.2231
 1169SOL     OW14965   3.943   4.623  10.292  0.4249  0.0149 -0.0587
 1169SOL    HW114966   4.017   4.676  10.322  0.3082  0.3234 -0.3211
 1169SOL    HW214967   3.914   4.590  10.377 -1.5720  1.6386 -0.0949
 1170SOL     OW14968   1.260   2.717  10.094 -0.5022  0.1936 -0.0620
 1170SOL    HW114969   1.354   2.700  10.102 -1.4305 -4.3116  0.7908
 1170SOL    HW214970   1.216   2.675  10.168 -1.6102 -0.6960 -1.2247
 1171SOL     OW14971   3.915   2.985  15.600 -0.0752  0.3299  0.0495
 1171SOL    HW114972   3.869   2.906  15.572 -0.1205  0.8259 -1.2505
 1171SOL    HW214973   3.914   2.979  15.696 -1.1490 -1.4499 -0.0650
 1172SOL     OW14974   4.033   4.644  14.637  0.2991 -0.4928  0.3967
 1172SOL    HW114975   4.001   4.720  14.588  1.4178 -0.7531 -0.7496
 1172SOL    HW214976   4.127   4.655  14.621 -0.3736  2.4676 -1.2839
 1173SOL     OW14977   2.560   4.389   7.898 -0.2113  0.3223  0.1266
 1173SOL    HW114978   2.585   4.465   7.950  0.1209 -0.9678  1.8452
 1173SOL    HW214979   2.570   4.312   7.953 -0.3933  0.0405 -0.2397
 1174SOL     OW14980   2.820   4.514   8.224 -0.8513  0.0061  0.0695
 1174SOL    HW114981   2.813   4.569   8.302  1.4360 -0.5846  0.6892
 1174SOL    HW214982   2.880   4.564   8.169  1.3247 -1.8885  0.7182
 1175SOL     OW14983   0.471   3.104  12.122  0.3687 -0.0961 -0.3920
 1175SOL    HW114984   0.409   3.074  12.188  1.5194 -0.6987  0.4072
 1175SOL    HW214985   0.410   3.109  12.048 -0.7199 -0.5532  0.4740
 1176SOL     OW14986   4.466   3.154   1.099  0.8220 -0.0300  0.0021
 1176SOL    HW114987   4.379   3.194   1.096  1.1335  0.5469 -1.2626
 1176SOL    HW214988   4.446   3.077   1.045  0.8951  1.1073 -1.6364
 1177SOL     OW14989   0.203   4.173  10.235 -0.0323 -0.0508 -0.3838
 1177SOL    HW114990   0.213   4.089  10.279 -0.3858 -0.4938 -1.1559
 1177SOL    HW214991   0.120   4.203  10.273  0.3555  0.5574 -0.0120
 1178SOL     OW14992   0.085   4.168   8.026 -0.5889  0.2861 -0.2448
 1178SOL    HW114993   0.029   4.111   8.079 -0.5437 -1.2699 -1.8635
 1178SOL    HW214994   0.123   4.238   8.079 -0.1576  0.4222 -0.7398
 1179SOL     OW14995   3.133   3.846   2.477 -0.4484  0.5964 -0.1023
 1179SOL    HW114996   3.125   3.932   2.437  0.3508 -0.3290 -2.2478
 1179SOL    HW214997   3.037   3.838   2.472 -0.3134 -0.3142 -1.2448
 1180SOL     OW14998   3.112   4.393   4.250  0.5099 -0.7145  0.7921
 1180SOL    HW114999   3.033   4.440   4.224  0.2064 -1.3370  0.5910
 1180SOL    HW215000   3.177   4.442   4.199 -0.1545 -2.0627 -1.3435
 1181SOL     OW15001   0.607   0.485   4.001  0.9494 -0.9962 -0.3025
 1181SOL    HW115002   0.614   0.408   3.944  0.6363 -2.1433  1.1912
 1181SOL    HW215003   0.613   0.563   3.946 -1.5253 -1.4149 -1.1865
 1182SOL     OW15004   4.182   3.476  14.436  0.0767  0.2538 -0.6481
 1182SOL    HW115005   4.195   3.547  14.373  2.3932 -0.4741 -0.9823
 1182SOL    HW215006   4.135   3.420  14.374  0.1429  0.7235 -1.1227
 1183SOL     OW15007   3.405   0.340  17.371 -0.0047  0.6905  0.1697
 1183SOL    HW115008   3.413   0.431  17.400 -2.4444  0.4539  1.5301
 1183SOL    HW215009   3.362   0.345  17.285 -0.0799 -2.6255  0.0176
 1184SOL     OW15010   0.268   2.848   6.922  0.2310  0.1932  0.1858
 1184SOL    HW115011   0.289   2.754   6.920 -0.6206 -0.0501  2.1957
 1184SOL    HW215012   0.206   2.852   6.994 -0.6440  1.0408 -0.6172
 1185SOL     OW15013   4.415   3.017   9.523  0.2851  0.4219 -0.1084
 1185SOL    HW115014   4.503   3.013   9.558  0.0706  1.6583  0.5603
 1185SOL    HW215015   4.357   3.012   9.599  0.6516  0.5666  0.1767
 1186SOL     OW15016   3.874   2.666   7.017 -0.4472  0.1726  0.2370
 1186SOL    HW115017   3.811   2.696   7.082 -3.1173  2.3731 -3.3429
 1186SOL    HW215018   3.883   2.577   7.051  0.1132  0.4741  0.8612
 1187SOL     OW15019   4.068   4.458   9.058 -0.5348  0.5716 -0.2869
 1187SOL    HW115020   4.160   4.480   9.072 -0.7184  1.7234 -0.8844
 1187SOL    HW215021   4.072   4.370   9.022 -2.6287 -0.2857  1.5947
 1188SOL     OW15022   4.601   3.780   2.293 -0.0494 -0.6331  0.0682
 1188SOL    HW115023   4.682   3.788   2.344  0.5836 -1.2713 -0.8410
 1188SOL    HW215024   4.631   3.739   2.212  1.0681  1.2552 -0.4775
 1189SOL     OW15025   3.723   0.452   8.121 -0.2158 -0.7126 -0.0327
 1189SOL    HW115026   3.756   0.387   8.184  0.1000  0.5552  1.1173
 1189SOL    HW215027   3.662   0.401   8.068 -1.0201 -1.5291  1.6634
 1190SOL     OW15028   2.367   1.758   4.144  0.5061  0.2401  0.5929
 1190SOL    HW115029   2.430   1.687   4.157 -1.4203 -1.7149 -0.7163
 1190SOL    HW215030   2.307   1.727   4.076  0.9737 -1.0224  0.7500
 1191SOL     OW15031   3.933   4.664   8.735 -0.1002  0.2444  0.0952
 1191SOL    HW115032   4.025   4.636   8.734 -0.7367 -1.8203 -0.1132
 1191SOL    HW215033   3.900   4.635   8.820  0.1798 -1.1170 -0.2705
 1192SOL     OW15034   2.202   1.045   2.302  0.3712  0.4129 -0.1466
 1192SOL    HW115035   2.171   1.099   2.375  1.1258  0.4198  0.1629
 1192SOL    HW215036   2.294   1.069   2.308  0.0951  1.5299 -0.3240
 1193SOL     OW15037   1.635   4.016   1.725 -0.0887 -0.0743  0.4935
 1193SOL    HW115038   1.610   4.104   1.754 -2.4213 -0.2961 -0.8106
 1193SOL    HW215039   1.612   4.027   1.633 -0.6030 -0.1337  0.6127
 1194SOL     OW15040   0.067   3.118  15.928  0.3435  0.1035 -0.9554
 1194SOL    HW115041   0.066   3.032  15.969  0.3680  1.0323  0.9681
 1194SOL    HW215042   0.160   3.142  15.928  0.4842 -0.4472 -0.6836
 1195SOL     OW15043   0.047   0.329  16.268 -0.2932 -0.6938 -0.3576
 1195SOL    HW115044   0.110   0.299  16.203 -0.1048 -1.7831  0.3214
 1195SOL    HW215045   0.014   0.245  16.301 -0.2610 -1.4245 -2.1926
 1196SOL     OW15046   1.703   3.717   9.503  0.1624  0.2124 -0.6842
 1196SOL    HW115047   1.644   3.789   9.527 -1.0796 -0.7351 -0.8984
 1196SOL    HW215048   1.782   3.759   9.536  0.4550 -0.1386 -0.9458
 1197SOL     OW15049   3.848   1.665   6.166  0.5552  0.3401  0.2775
 1197SOL    HW115050   3.879   1.754   6.181  0.3995  0.4991 -0.3353
 1197SOL    HW215051   3.764   1.686   6.125  0.3686  0.1477  0.5627
 1198SOL     OW15052   1.716   3.831  16.827 -0.2173 -0.8071 -0.6276
 1198SOL    HW115053   1.628   3.835  16.865 -0.1540 -3.2964 -0.2323
 1198SOL    HW215054   1.752   3.763  16.884  0.2395  0.0037  0.0543
 1199SOL     OW15055   0.215   0.726   2.568 -0.1502  0.1670  0.1585
 1199SOL    HW115056   0.244   0.799   2.515 -2.0245  0.1260 -0.9513
 1199SOL    HW215057   0.119   0.721   2.563 -0.2208  0.6293  1.0906
 1200SOL     OW15058   4.709   1.035  15.702 -0.1956  0.0510  0.2697
 1200SOL    HW115059   0.010   0.943  15.716 -0.1339 -0.2274 -1.8033
 1200SOL    HW215060   0.021   1.059  15.788  0.8659 -1.7288  0.3438
 1201SOL     OW15061   3.475   0.996   6.269 -0.4654 -0.1373 -0.1612
 1201SOL    HW115062   3.527   1.075   6.255 -0.2390 -0.3920 -0.7395
 1201SOL    HW215063   3.411   1.025   6.335 -0.2381  1.2012 -0.5270
 1202SOL     OW15064   2.561   2.386  12.806 -0.7302 -0.2860 -0.0415
 1202SOL    HW115065   2.625   2.357  12.871  0.6890  1.4572 -0.6622
 1202SOL    HW215066   2.481   2.339  12.828  0.1615 -1.6868  0.1959
 1203SOL     OW15067   4.541   3.194   6.735 -0.2189 -0.0900 -0.0410
 1203SOL    HW115068   4.592   3.228   6.809 -1.1635  0.4560  0.3579
 1203SOL    HW215069   4.553   3.104   6.765 -0.6628 -0.1460 -0.0307
 1204SOL     OW15070   2.318   2.397  15.794  0.3279 -0.0872  0.2078
 1204SOL    HW115071   2.281   2.485  15.798  1.1816  0.2489  0.6930
 1204SOL    HW215072   2.394   2.420  15.741 -0.8556  0.9876 -1.0499
 1205SOL     OW15073   3.813   1.229   2.335  0.4371 -0.4380  0.4844
 1205SOL    HW115074   3.874   1.163   2.301  0.5193  1.2973 -2.7106
 1205SOL    HW215075   3.731   1.182   2.317 -0.6188  2.9692 -3.4120
 1206SOL     OW15076   0.746   1.325   8.458  0.1418  0.4012  0.0525
 1206SOL    HW115077   0.785   1.410   8.478 -3.8928  2.2632  0.0061
 1206SOL    HW215078   0.809   1.277   8.405 -0.6190 -1.6608  1.0386
 1207SOL     OW15079   1.833   0.457   5.547  0.2345 -0.3136 -0.2893
 1207SOL    HW115080   1.812   0.372   5.507 -1.3644 -0.1344  0.1546
 1207SOL    HW215081   1.902   0.430   5.608  0.0748  2.4445  1.1011
 1208SOL     OW15082   2.143   0.605   3.066 -0.0979  0.2604 -0.3695
 1208SOL    HW115083   2.131   0.510   3.073 -2.1049  0.5731  0.5342
 1208SOL    HW215084   2.057   0.625   3.103 -0.6083 -2.1003 -0.2510
 1209SOL     OW15085   0.640   3.811   8.127 -0.8043  0.1161  0.3903
 1209SOL    HW115086   0.561   3.817   8.074 -1.4028  1.2771  1.3972
 1209SOL    HW215087   0.610   3.742   8.187  0.3431  0.7993  1.7654
 1210SOL     OW15088   0.880   2.104   5.255  0.2127 -0.3699 -0.0582
 1210SOL    HW115089   0.926   2.186   5.272  0.1408 -0.2198 -0.6045
 1210SOL    HW215090   0.788   2.131   5.250  0.5366  0.8164  0.3237
 1211SOL     OW15091   3.925   1.229   6.226  0.1652  0.7936 -0.5711
 1211SOL    HW115092   3.947   1.312   6.267  2.2900  0.6168 -1.3591
 1211SOL    HW215093   3.905   1.250   6.135 -2.0532  1.8393  0.1492
 1212SOL     OW15094   3.904   0.781   4.845 -0.0538 -0.6749 -0.2093
 1212SOL    HW115095   3.895   0.726   4.768 -0.8008  0.0009 -0.6114
 1212SOL    HW215096   3.997   0.804   4.841 -0.3853  0.6851 -0.1432
 1213SOL     OW15097   1.508   2.841  15.626  0.2488 -0.3153 -0.0210
 1213SOL    HW115098   1.528   2.749  15.610 -1.0067 -0.5004 -0.5791
 1213SOL    HW215099   1.546   2.878  15.546 -2.3675  0.3736 -0.9626
 1214SOL     OW15100   2.008   1.358   5.377  0.7812  0.0017  0.1713
 1214SOL    HW115101   2.038   1.367   5.468  2.0187 -1.0825 -0.1275
 1214SOL    HW215102   1.917   1.334   5.391  0.9616 -1.4816 -1.3189
 1215SOL     OW15103   2.905   0.421   8.282  0.2456  0.7817  0.2738
 1215SOL    HW115104   2.828   0.394   8.232 -0.0613 -1.4894  1.9424
 1215SOL    HW215105   2.854   0.459   8.354 -2.9093 -1.1421 -0.9373
 1216SOL     OW15106   1.643   2.439   8.716  0.9205 -0.3046 -0.6868
 1216SOL    HW115107   1.612   2.351   8.693  1.4918 -0.7360  0.2128
 1216SOL    HW215108   1.700   2.469   8.645  0.2721 -0.2129 -1.1727
 1217SOL     OW15109   0.360   4.530   1.234  0.1084  0.1983  0.0765
 1217SOL    HW115110   0.386   4.451   1.186  4.8374  0.9856  1.2890
 1217SOL    HW215111   0.301   4.565   1.167 -3.0654 -2.7034  1.3591
 1218SOL     OW15112   1.576   4.120   3.576  0.2312 -0.2920 -0.0647
 1218SOL    HW115113   1.614   4.033   3.570  3.2383  0.8369  2.6279
 1218SOL    HW215114   1.567   4.124   3.671 -0.4697 -1.3254 -0.0939
 1219SOL     OW15115   2.308   0.308  10.047 -0.0170 -0.8645  0.1066
 1219SOL    HW115116   2.282   0.253  10.121 -0.6224 -0.6323  0.0639
 1219SOL    HW215117   2.365   0.248   9.999  1.0190 -0.5486  0.9365
 1220SOL     OW15118   4.574   4.653   0.079 -0.6206 -0.1157 -0.0263
 1220SOL    HW115119   4.520   4.699   0.143  0.5510  0.4252  0.5848
 1220SOL    HW215120   4.528   4.569   0.071  1.6926 -1.4689  0.6494
 1221SOL     OW15121   3.786   4.562   5.317  0.0325  0.0835  0.0132
 1221SOL    HW115122   3.824   4.648   5.299  0.9451  0.0111  1.6126
 1221SOL    HW215123   3.848   4.529   5.382 -1.1515  0.2549  1.2259
 1222SOL     OW15124   2.219   0.184   8.228 -0.3425  0.4262  0.0732
 1222SOL    HW115125   2.148   0.216   8.172 -0.1904 -2.0303 -1.5215
 1222SOL    HW215126   2.253   0.111   8.176  0.4650  1.0563 -0.2796
 1223SOL     OW15127   0.449   0.934   6.156  0.2229  0.4615 -0.1381
 1223SOL    HW115128   0.458   0.941   6.251 -0.4650  0.9305 -0.1126
 1223SOL    HW215129   0.356   0.919   6.144  0.7398 -0.1248 -3.3770
 1224SOL     OW15130   1.832   0.394   7.954 -0.0201 -0.1372  0.2198
 1224SOL    HW115131   1.784   0.432   7.880 -0.9715  2.4265  2.1607
 1224SOL    HW215132   1.920   0.425   7.931 -0.2526 -1.3490 -2.3343
 1225SOL     OW15133   2.412   0.806   8.810  0.4698  0.5711  0.0078
 1225SOL    HW115134   2.434   0.758   8.730 -2.4046  0.3464 -0.6413
 1225SOL    HW215135   2.423   0.895   8.779 -0.4775  0.0726 -1.7641
 1226SOL     OW15136   2.393   0.395  10.919 -0.0680  0.4034  0.1372
 1226SOL    HW115137   2.470   0.372  10.867 -1.3982 -0.2530 -1.5557
 1226SOL    HW215138   2.358   0.310  10.945  1.0987 -0.0762  0.1424
 1227SOL     OW15139   1.423   0.488   8.307  0.4915  0.3775  0.2555
 1227SOL    HW115140   1.483   0.427   8.265 -1.8709 -2.0911  0.4638
 1227SOL    HW215141   1.452   0.566   8.261  0.6086 -0.4825 -1.1122
 1228SOL     OW15142   0.988   2.683   4.852  0.2994  0.0162  0.0260
 1228SOL    HW115143   1.040   2.721   4.781 -0.0158 -0.4126 -0.4342
 1228SOL    HW215144   0.915   2.654   4.798  0.4111  1.4764 -0.8832
 1229SOL     OW15145   3.411   3.824  10.440 -0.2517 -0.0848 -0.1708
 1229SOL    HW115146   3.442   3.908  10.475  1.1439 -0.0139 -1.6083
 1229SOL    HW215147   3.384   3.846  10.351 -0.8658 -0.6834 -0.1363
 1230SOL     OW15148   0.785   0.689   5.818  0.5252 -0.3620 -0.0206
 1230SOL    HW115149   0.855   0.642   5.864  2.0517  2.8643  0.9109
 1230SOL    HW215150   0.772   0.759   5.882 -1.8850 -0.6988 -0.1500
 1231SOL     OW15151   3.144   0.677   6.895 -0.8045  0.3277 -0.4010
 1231SOL    HW115152   3.217   0.696   6.954  0.5297 -1.3010 -1.5597
 1231SOL    HW215153   3.118   0.767   6.875 -1.4153  0.0469 -0.8718
 1232SOL     OW15154   1.856   4.453   7.014 -0.1712  0.1150 -0.1040
 1232SOL    HW115155   1.884   4.372   7.058  0.2179 -0.2666 -1.0655
 1232SOL    HW215156   1.780   4.478   7.066  0.9616  0.3912  1.4315
 1233SOL     OW15157   1.767   0.082   6.845 -0.2293  0.3054 -0.3155
 1233SOL    HW115158   1.812   0.052   6.924 -0.4728 -0.2145 -0.3703
 1233SOL    HW215159   1.794   0.008   6.789  2.7446 -0.6290  2.3585
 1234SOL     OW15160   2.723   0.735   8.322 -0.5214  0.6259  0.0546
 1234SOL    HW115161   2.700   0.710   8.411  0.3629  0.4343  0.2342
 1234SOL    HW215162   2.643   0.723   8.271 -0.3638 -0.1577 -0.0159
 1235SOL     OW15163   4.574   3.275  16.000 -0.0006 -0.2827  0.3053
 1235SOL    HW115164   4.648   3.218  15.978  0.6739  1.3801 -1.7043
 1235SOL    HW215165   4.605   3.357  15.961 -1.1511  0.2278  0.4580
 1236SOL     OW15166   0.584   3.567   6.589  0.5362  0.1256  0.2667
 1236SOL    HW115167   0.518   3.504   6.618 -0.5172  0.8660 -0.5269
 1236SOL    HW215168   0.563   3.572   6.496 -2.7038  1.9790  1.0947
 1237SOL     OW15169   2.416   1.388   1.117  0.5035 -0.2518  0.3076
 1237SOL    HW115170   2.505   1.353   1.112  0.3411 -0.6032 -0.1168
 1237SOL    HW215171   2.430   1.466   1.170 -1.4378  0.6617 -0.5222
 1238SOL     OW15172   3.480   0.630   8.120  0.5148 -0.2584 -0.6779
 1238SOL    HW115173   3.423   0.634   8.044 -1.2699 -1.7335  0.5776
 1238SOL    HW215174   3.568   0.626   8.083  0.1318 -0.5549 -1.5563
 1239SOL     OW15175   4.061   1.710   3.910 -0.1319  0.0914  0.3999
 1239SOL    HW115176   4.102   1.707   3.824  0.7355  0.3664  0.8072
 1239SOL    HW215177   3.979   1.758   3.898 -0.7486 -1.5773 -2.0025
 1240SOL     OW15178   0.597   1.399   5.678 -0.1273 -0.1458  0.0042
 1240SOL    HW115179   0.629   1.387   5.588 -1.4356 -2.1396 -0.1830
 1240SOL    HW215180   0.621   1.492   5.681 -1.8041  0.2321  1.2078
 1241SOL     OW15181   4.274   2.315   5.778  0.1696  0.7650  0.0403
 1241SOL    HW115182   4.334   2.276   5.715 -1.9951 -2.1030 -0.1934
 1241SOL    HW215183   4.226   2.372   5.718  1.9410  0.5372 -1.5768
 1242SOL     OW15184   1.645   4.364   8.571  0.2158 -0.4352 -0.4750
 1242SOL    HW115185   1.698   4.412   8.635  0.5674 -1.5956  0.0915
 1242SOL    HW215186   1.704   4.320   8.510  0.4120 -0.1376 -0.4983
 1243SOL     OW15187   4.636   3.420  13.137  0.2794  0.1344 -0.7159
 1243SOL    HW115188   4.618   3.350  13.201  1.0164 -0.2233 -0.8990
 1243SOL    HW215189   4.590   3.384  13.062 -0.5012 -0.7290  0.1728
 1244SOL     OW15190   0.260   4.475  13.693 -0.0413 -0.8998  0.0273
 1244SOL    HW115191   0.210   4.445  13.617 -0.1436 -0.1331 -0.2026
 1244SOL    HW215192   0.347   4.481  13.655 -0.3854  0.6312 -0.5206
 1245SOL     OW15193   1.608   2.221   4.336  0.4221  0.8203 -0.2961
 1245SOL    HW115194   1.614   2.302   4.286  0.3876  0.3031 -1.1262
 1245SOL    HW215195   1.673   2.230   4.406 -2.8390  0.2881  2.8192
 1246SOL     OW15196   3.979   1.398  14.835 -0.2938 -0.0888 -0.6401
 1246SOL    HW115197   3.913   1.343  14.792 -0.6242  0.4334 -0.8062
 1246SOL    HW215198   4.032   1.337  14.884  0.3559 -0.4706 -1.8127
 1247SOL     OW15199   1.360   3.858   6.888 -0.4789  0.7544 -0.1770
 1247SOL    HW115200   1.377   3.837   6.980 -2.0164 -1.0776 -0.2874
 1247SOL    HW215201   1.264   3.860   6.888 -0.4786  0.3576 -1.6541
 1248SOL     OW15202   2.714   3.817   3.517  0.6473 -0.5924  0.7174
 1248SOL    HW115203   2.698   3.855   3.603 -1.6232 -0.2287  0.1560
 1248SOL    HW215204   2.724   3.724   3.535  0.2753 -0.4093  1.8889
 1249SOL     OW15205   2.473   3.759   5.276 -0.7044 -0.0769  0.1385
 1249SOL    HW115206   2.513   3.672   5.277  1.1370  0.7584 -0.7353
 1249SOL    HW215207   2.457   3.781   5.367 -1.7195 -1.5759  0.3283
 1250SOL     OW15208   2.313   4.394  10.117 -0.0728 -0.0342 -0.9349
 1250SOL    HW115209   2.221   4.370  10.112  0.0271 -0.6734  0.3235
 1250SOL    HW215210   2.313   4.429  10.206 -0.2211 -0.3131 -0.8229
 1251SOL     OW15211   1.245   0.244   5.641  0.0104  0.2384 -0.3643
 1251SOL    HW115212   1.319   0.191   5.672  0.7133  0.3365 -1.8596
 1251SOL    HW215213   1.231   0.198   5.558  0.6313  0.0728 -0.3764
 1252SOL     OW15214   0.456   3.569   7.078  0.4357 -0.0523  0.1087
 1252SOL    HW115215   0.424   3.642   7.131  0.1477 -1.6725  2.1694
 1252SOL    HW215216   0.372   3.522   7.071 -1.3911  2.8914  2.3331
 1253SOL     OW15217   1.816   1.932  12.601  0.2758  0.5773  0.1536
 1253SOL    HW115218   1.889   1.991  12.583  1.8219 -1.8702 -1.7230
 1253SOL    HW215219   1.840   1.898  12.688  1.6239  0.6596 -0.1752
 1254SOL     OW15220   3.019   1.828   6.452  0.2072  0.2102  0.3296
 1254SOL    HW115221   2.926   1.819   6.432  0.2263 -1.5182  1.0080
 1254SOL    HW215222   3.032   1.735   6.474  1.5943  0.1691 -0.6544
 1255SOL     OW15223   1.116   4.215  13.654  0.2247  0.3614  0.1136
 1255SOL    HW115224   1.127   4.193  13.747 -0.2017 -0.3726 -0.0135
 1255SOL    HW215225   1.061   4.293  13.660  1.3845  1.2405 -0.6225
 1256SOL     OW15226   4.656   1.596   2.171 -0.0888  0.0110  0.0173
 1256SOL    HW115227   4.581   1.654   2.156  0.3052 -0.2857 -3.1346
 1256SOL    HW215228   4.662   1.585   2.265  0.4528 -1.1183 -0.1579
 1257SOL     OW15229   0.011   3.370   7.830  0.1868  0.2997 -0.1347
 1257SOL    HW115230   4.723   3.276   7.821 -1.2324  0.4727 -0.0661
 1257SOL    HW215231   0.086   3.387   7.773 -1.2025  0.0843 -2.0203
 1258SOL     OW15232   2.144   2.659   7.972 -0.0881  0.6030 -0.3867
 1258SOL    HW115233   2.184   2.619   8.049 -0.0276  0.5390 -0.4511
 1258SOL    HW215234   2.195   2.739   7.966  1.2293 -0.4878 -3.6314
 1259SOL     OW15235   4.297   0.948   6.381  0.2754  0.3071 -0.3245
 1259SOL    HW115236   4.357   0.894   6.329  1.5158  1.3587  0.0003
 1259SOL    HW215237   4.209   0.947   6.343  0.4117  1.5378 -0.6794
 1260SOL     OW15238   4.043   0.038  10.691 -0.1801 -0.7350 -0.3542
 1260SOL    HW115239   3.962   0.056  10.737  0.0092  0.1325 -0.3642
 1260SOL    HW215240   4.109   0.047  10.760  0.0483 -0.8375 -0.5555
 1261SOL     OW15241   3.424   0.078   2.984  0.3317 -0.1816 -0.6833
 1261SOL    HW115242   3.373   0.121   2.915  0.0043 -1.5639 -1.3119
 1261SOL    HW215243   3.500   0.135   2.993  0.1739 -0.1389  0.4341
 1262SOL     OW15244   3.039   3.105   9.824  0.3589 -0.0232  0.1104
 1262SOL    HW115245   2.956   3.149   9.810  1.4416  1.8398 -0.4756
 1262SOL    HW215246   3.046   3.081   9.916  0.3843  2.6869  0.8033
 1263SOL     OW15247   2.031   2.029   0.391  0.4634 -0.7197 -0.0126
 1263SOL    HW115248   1.942   2.038   0.424  0.1923 -0.4102 -0.8322
 1263SOL    HW215249   2.033   1.937   0.364 -1.5771 -0.9465  0.6732
 1264SOL     OW15250   3.155   1.022   1.937 -0.1218  0.4950 -0.4863
 1264SOL    HW115251   3.060   1.021   1.924 -0.2217 -3.3705  0.8036
 1264SOL    HW215252   3.163   1.118   1.945 -0.4821  0.6692 -2.1601
 1265SOL     OW15253   3.602   0.409   7.259  0.1852 -0.1295 -0.1749
 1265SOL    HW115254   3.639   0.447   7.179 -0.1992 -1.7349 -1.1136
 1265SOL    HW215255   3.514   0.388   7.228  0.1241 -1.1149  0.6660
 1266SOL     OW15256   2.689   3.541   6.977  0.1027  0.1642 -0.3955
 1266SOL    HW115257   2.761   3.479   6.967  1.5389  1.3587  2.5364
 1266SOL    HW215258   2.655   3.537   6.887  2.5931 -0.2570 -1.3347
 1267SOL     OW15259   4.196   1.505  14.744 -0.7110  0.0944 -0.1262
 1267SOL    HW115260   4.245   1.426  14.767 -0.6049  0.5014  1.0376
 1267SOL    HW215261   4.108   1.467  14.747  0.0216 -1.4406  1.8110
 1268SOL     OW15262   1.400   0.993   7.514  0.2063  0.1489 -0.5431
 1268SOL    HW115263   1.452   1.016   7.437  2.1269  1.8159  1.2549
 1268SOL    HW215264   1.368   1.077   7.547 -0.5075  0.0551 -1.0074
 1269SOL     OW15265   0.935   2.457  16.256  0.0056 -0.1786  0.4289
 1269SOL    HW115266   1.002   2.510  16.213  0.0117 -1.0503 -0.6446
 1269SOL    HW215267   0.978   2.373  16.239  0.3495  0.0603  0.1357
 1270SOL     OW15268   4.193   3.855   8.788  0.2571  0.4826  0.7713
 1270SOL    HW115269   4.279   3.813   8.776  0.7808  1.3599  1.4603
 1270SOL    HW215270   4.139   3.781   8.818 -1.5493  0.5321 -2.4033
 1271SOL     OW15271   2.536   2.087   7.049  0.5238 -0.1311  0.1670
 1271SOL    HW115272   2.456   2.134   7.026 -1.0805 -2.7060  0.3978
 1271SOL    HW215273   2.612   2.134   7.015  0.7025 -0.4763  0.0902
 1272SOL     OW15274   3.549   4.378  14.526  0.1672  0.1446 -0.4103
 1272SOL    HW115275   3.634   4.341  14.552 -0.2580 -1.2847 -1.0751
 1272SOL    HW215276   3.531   4.429  14.605  1.3137 -0.2400  0.1027
 1273SOL     OW15277   0.274   4.507  14.910 -0.7676 -0.4415 -0.5275
 1273SOL    HW115278   0.324   4.531  14.832 -0.3603  0.3458 -0.0228
 1273SOL    HW215279   0.336   4.472  14.974  0.5685  1.5941 -0.7097
 1274SOL     OW15280   2.783   2.950   1.693  0.3328  0.0027 -0.4011
 1274SOL    HW115281   2.769   2.895   1.616  1.9793  0.7328 -1.2133
 1274SOL    HW215282   2.703   3.003   1.686 -0.7169 -1.6411 -0.7091
 1275SOL     OW15283   4.281   3.162   5.018 -0.4306 -0.1789  0.2381
 1275SOL    HW115284   4.270   3.173   4.924  0.0082 -0.2086  0.1826
 1275SOL    HW215285   4.348   3.229   5.034 -1.1063  1.1418 -2.4523
 1276SOL     OW15286   1.813   3.250  13.530 -0.4875  0.3669  0.2948
 1276SOL    HW115287   1.775   3.334  13.554  1.1818  1.2008  0.0759
 1276SOL    HW215288   1.750   3.222  13.464 -1.5524  0.8122  1.1205
 1277SOL     OW15289   2.066   1.413  12.944  0.1071 -0.0215 -0.3717
 1277SOL    HW115290   1.998   1.347  12.956  0.5075 -0.1803  1.0607
 1277SOL    HW215291   2.032   1.452  12.863 -0.0562  3.5121  1.3879
 1278SOL     OW15292   0.933   4.623   3.568 -0.2197  0.6621  0.5210
 1278SOL    HW115293   0.964   4.659   3.651  1.4825  0.5529 -0.0749
 1278SOL    HW215294   0.840   4.642   3.580 -0.1694  0.9821  0.3940
 1279SOL     OW15295   3.583   0.918   7.409 -0.4771 -0.2226  0.0135
 1279SOL    HW115296   3.596   0.912   7.504 -0.8803 -0.5848  0.0468
 1279SOL    HW215297   3.571   1.012   7.393 -2.3393 -0.3852  0.3930
 1280SOL     OW15298   4.182   3.256  16.589 -0.0341 -0.3484 -0.4044
 1280SOL    HW115299   4.185   3.278  16.496 -2.4671 -0.0200 -0.4100
 1280SOL    HW215300   4.146   3.167  16.591 -0.7503 -0.0632 -0.8274
 1281SOL     OW15301   2.793   1.263   9.860 -0.6074  0.1804  0.2052
 1281SOL    HW115302   2.855   1.211   9.809  0.9318  2.0992  0.1087
 1281SOL    HW215303   2.824   1.256   9.950  0.2057 -0.2413 -0.1083
 1282SOL     OW15304   2.632   4.372   5.140 -0.3031  0.1868 -0.0068
 1282SOL    HW115305   2.673   4.294   5.103 -0.1402 -1.0980  2.8777
 1282SOL    HW215306   2.712   4.423   5.139  0.2237 -0.6709 -1.9114
 1283SOL     OW15307   3.252   4.510   3.235 -0.1357 -0.0929  0.2052
 1283SOL    HW115308   3.194   4.498   3.311  1.6204  0.6883  1.6806
 1283SOL    HW215309   3.263   4.604   3.244  2.1014 -0.2055 -1.5964
 1284SOL     OW15310   3.112   1.321   7.599 -0.1966  0.0262  0.3978
 1284SOL    HW115311   3.037   1.265   7.579  0.1878 -0.1964 -0.4185
 1284SOL    HW215312   3.139   1.270   7.676  2.6027  2.1002  0.7774
 1285SOL     OW15313   1.436   1.593   4.246 -0.4533 -0.2753 -0.3639
 1285SOL    HW115314   1.467   1.621   4.333 -0.3783  1.8949 -1.0956
 1285SOL    HW215315   1.454   1.672   4.195 -2.3598  0.8084  0.6508
 1286SOL     OW15316   3.325   1.860   5.998  0.3970  0.3797 -0.1633
 1286SOL    HW115317   3.320   1.955   6.011 -1.1615  0.2009  0.4995
 1286SOL    HW215318   3.360   1.838   6.084  1.4538  0.8823 -0.4572
 1287SOL     OW15319   4.296   3.360   2.572 -0.5884  0.3678 -0.0097
 1287SOL    HW115320   4.304   3.298   2.645  0.9227  0.3169 -0.2295
 1287SOL    HW215321   4.352   3.430   2.604 -0.0679  0.0926 -0.3308
 1288SOL     OW15322   4.531   3.717  16.184 -0.1843  0.5543  0.2761
 1288SOL    HW115323   4.570   3.793  16.228  0.3190  0.2244  0.4085
 1288SOL    HW215324   4.514   3.762  16.102  1.8866  2.2965  0.7859
 1289SOL     OW15325   4.572   3.132   2.505  0.0165  0.1269 -0.2828
 1289SOL    HW115326   4.614   3.098   2.426 -0.3068  1.1085 -0.8721
 1289SOL    HW215327   4.534   3.215   2.477  0.3709 -0.0150 -1.1785
 1290SOL     OW15328   3.502   1.169  11.791  0.0526 -0.0296  0.1103
 1290SOL    HW115329   3.579   1.156  11.735 -1.1558  1.6207 -1.9519
 1290SOL    HW215330   3.496   1.088  11.842  0.1768 -0.3810 -0.4307
 1291SOL     OW15331   0.414   4.086  16.843  0.1793  0.0671  0.9235
 1291SOL    HW115332   0.503   4.060  16.865  0.3086 -0.9731 -0.8246
 1291SOL    HW215333   0.370   4.004  16.865 -0.5059  0.3207  0.5025
 1292SOL     OW15334   2.251   1.673   5.943  0.6011 -0.3222  0.3579
 1292SOL    HW115335   2.289   1.615   5.877  0.6719 -0.9699  0.9695
 1292SOL    HW215336   2.161   1.659   5.917 -0.8681  1.1416  4.5932
 1293SOL     OW15337   3.340   2.699   3.877 -0.1699 -0.8170 -0.0611
 1293SOL    HW115338   3.337   2.721   3.784  1.2787 -1.6529 -0.3024
 1293SOL    HW215339   3.287   2.766   3.921 -0.8508 -0.1472 -1.8990
 1294SOL     OW15340   2.099   3.170   2.466 -0.2696  0.4316  0.3595
 1294SOL    HW115341   2.045   3.228   2.519 -2.5459 -0.0533 -1.4645
 1294SOL    HW215342   2.046   3.145   2.391  0.8202 -0.2615 -0.1888
 1295SOL     OW15343   0.376   3.331  15.660 -0.1854  0.1495  0.5316
 1295SOL    HW115344   0.291   3.296  15.636  0.0539  0.9548 -1.4657
 1295SOL    HW215345   0.391   3.287  15.744 -0.5860 -0.4698  0.2754
 1296SOL     OW15346   1.396   0.592   5.991 -0.0204  1.0463 -0.2252
 1296SOL    HW115347   1.317   0.609   6.041 -1.7066 -1.1926 -2.1412
 1296SOL    HW215348   1.467   0.636   6.039 -1.4285  1.8737  1.0895
 1297SOL     OW15349   0.184   1.897  15.226 -0.4306  0.1544  0.1610
 1297SOL    HW115350   0.244   1.824  15.239  2.2047  2.3483  0.3783
 1297SOL    HW215351   0.112   1.862  15.174 -0.9151  0.5274  0.5843
 1298SOL     OW15352   2.093   1.739   1.729 -0.0810 -0.3360  0.3366
 1298SOL    HW115353   2.094   1.648   1.698 -0.4590 -0.5627  0.9582
 1298SOL    HW215354   2.074   1.774   1.643 -1.1246 -0.2731  0.5906
 1299SOL     OW15355   2.122   0.462   3.834  0.5100  0.6662  0.3338
 1299SOL    HW115356   2.160   0.379   3.804  1.6925  0.5934  2.0222
 1299SOL    HW215357   2.087   0.509   3.758  0.8390 -4.5225 -3.0409
 1300SOL     OW15358   3.968   3.640   1.819 -0.0239 -0.5728 -0.2477
 1300SOL    HW115359   3.979   3.732   1.842 -0.4064 -0.4451 -0.5746
 1300SOL    HW215360   4.038   3.634   1.754 -0.9028 -2.7676 -0.9825
 1301SOL     OW15361   0.553   0.226   6.090 -0.0001 -0.1701 -0.2087
 1301SOL    HW115362   0.497   0.299   6.116 -0.7440 -1.3785  1.5977
 1301SOL    HW215363   0.575   0.263   6.005 -1.6903  0.7679 -0.2357
 1302SOL     OW15364   2.207   1.339   2.087  0.3729 -0.7888 -0.1053
 1302SOL    HW115365   2.258   1.323   2.166 -1.0026  0.1711  0.9797
 1302SOL    HW215366   2.232   1.265   2.032  2.2078  0.4230 -0.9053
 1303SOL     OW15367   0.398   2.389   4.414 -0.0860 -0.7421 -0.7707
 1303SOL    HW115368   0.340   2.355   4.482 -0.0315 -2.3977 -1.5475
 1303SOL    HW215369   0.374   2.482   4.414 -0.3638 -0.8139 -0.9174
 1304SOL     OW15370   3.651   3.272   6.583  0.1937 -0.2118  0.1296
 1304SOL    HW115371   3.712   3.282   6.510 -0.5088 -2.0011 -0.7019
 1304SOL    HW215372   3.621   3.182   6.568  0.0868 -0.2035  0.3004
 1305SOL     OW15373   2.574   4.632   6.225 -0.2791 -0.2043 -0.0628
 1305SOL    HW115374   2.615   4.691   6.161  0.4191 -1.8055 -1.1006
 1305SOL    HW215375   2.611   4.664   6.308  0.1363  1.3508 -0.8466
 1306SOL     OW15376   3.774   4.013  17.502 -0.1008  0.4682 -0.1113
 1306SOL    HW115377   3.832   3.957  17.451 -0.5058  1.1034 -1.2562
 1306SOL    HW215378   3.745   3.956  17.573 -1.0330  0.5358 -0.4356
 1307SOL     OW15379   2.775   4.449   0.802 -0.2943 -0.3123 -0.0501
 1307SOL    HW115380   2.700   4.396   0.830 -1.0174  0.7943  0.1269
 1307SOL    HW215381   2.849   4.390   0.817 -0.6631 -0.4001  1.4163
 1308SOL     OW15382   3.725   3.835   2.728 -0.5839  0.2211  0.0327
 1308SOL    HW115383   3.642   3.853   2.773 -1.7926 -2.1315 -1.2499
 1308SOL    HW215384   3.791   3.879   2.782  0.9481 -1.7504 -0.2426
 1309SOL     OW15385   1.659   4.167  16.300 -0.0552 -0.3279 -0.4688
 1309SOL    HW115386   1.687   4.122  16.379 -1.7747  1.1027  0.9431
 1309SOL    HW215387   1.703   4.117  16.231  1.6488  1.0993 -0.4099
 1310SOL     OW15388   4.722   2.440   8.246 -0.2500 -0.1871  0.3677
 1310SOL    HW115389   4.660   2.473   8.181  1.0443  0.2092 -0.6666
 1310SOL    HW215390   0.079   2.486   8.221 -0.4709 -1.0744 -1.9769
 1311SOL     OW15391   0.905   4.495   6.424 -0.1967  0.0680 -0.1507
 1311SOL    HW115392   0.954   4.424   6.465 -0.5397  0.4699  0.9351
 1311SOL    HW215393   0.964   4.569   6.440 -2.2441  1.5648  0.4150
 1312SOL     OW15394   4.002   1.507   7.459 -0.1918  0.0156  0.1804
 1312SOL    HW115395   4.061   1.449   7.410 -1.3467 -0.0335 -1.1767
 1312SOL    HW215396   3.978   1.458   7.537  0.8420 -0.7237  0.0407
 1313SOL     OW15397   2.950   3.972  14.828  0.0978  0.0818 -0.0386
 1313SOL    HW115398   2.942   3.990  14.922  0.6640 -1.6200  0.3461
 1313SOL    HW215399   3.042   3.945  14.831  0.3164  0.5185 -2.7193
 1314SOL     OW15400   2.997   2.777  15.596 -0.8847 -0.1627 -0.0032
 1314SOL    HW115401   3.048   2.807  15.520 -1.7470 -0.5560 -0.7305
 1314SOL    HW215402   3.009   2.683  15.583 -0.6512 -0.2462  0.8189
 1315SOL     OW15403   3.183   1.656   2.180 -0.6301 -0.0404  0.3341
 1315SOL    HW115404   3.168   1.639   2.087  3.2197 -1.4640 -0.0539
 1315SOL    HW215405   3.097   1.687   2.206 -1.5311 -2.0905 -0.2169
 1316SOL     OW15406   3.685   3.017   5.135 -0.2167  0.0236  0.0427
 1316SOL    HW115407   3.723   3.103   5.119 -0.6927 -0.0431 -1.3988
 1316SOL    HW215408   3.646   3.030   5.222  0.1740  0.2404  0.1869
 1317SOL     OW15409   1.139   1.651   2.054 -0.0760  0.3162 -0.1631
 1317SOL    HW115410   1.052   1.688   2.037 -0.2975  0.9342  2.2934
 1317SOL    HW215411   1.129   1.612   2.141 -0.9176 -0.2093 -0.4948
 1318SOL     OW15412   2.531   0.444   9.422  0.2703 -0.6799 -0.7929
 1318SOL    HW115413   2.512   0.407   9.335 -0.5688  1.6382 -1.6085
 1318SOL    HW215414   2.484   0.528   9.420 -1.4114 -1.6658 -3.0802
 1319SOL     OW15415   4.295   2.326   1.880 -0.0648 -0.1945  0.3331
 1319SOL    HW115416   4.372   2.304   1.933  1.9677  0.8339 -2.1835
 1319SOL    HW215417   4.220   2.290   1.929 -0.4850 -0.2116 -0.3296
 1320SOL     OW15418   1.740   2.522   4.997 -0.1686 -0.3395 -0.0766
 1320SOL    HW115419   1.687   2.601   4.988  0.7811  0.1002 -1.7889
 1320SOL    HW215420   1.760   2.536   5.089  0.4637  3.2229 -0.7666
 1321SOL     OW15421   1.632   4.093   0.990  0.3256  0.5454  0.6538
 1321SOL    HW115422   1.571   4.047   1.047  0.4868  1.6077  1.6781
 1321SOL    HW215423   1.706   4.109   1.049 -0.2116 -0.0649  1.4842
 1322SOL     OW15424   1.995   0.013  15.884  0.7867 -0.1249 -0.1268
 1322SOL    HW115425   1.991   0.104  15.852  0.4539  0.1606  0.7256
 1322SOL    HW215426   1.906   4.722  15.850 -0.3507  3.8429  1.0783
 1323SOL     OW15427   3.316   2.869  13.518  0.2638  0.6867  0.4293
 1323SOL    HW115428   3.341   2.957  13.545  0.0470  1.2600 -1.2116
 1323SOL    HW215429   3.306   2.877  13.423  0.0862 -0.6348  0.3317
 1324SOL     OW15430   0.537   2.079   4.404 -0.5288  0.2113 -0.1463
 1324SOL    HW115431   0.620   2.080   4.357  0.1750 -1.5180  1.0648
 1324SOL    HW215432   0.549   2.015   4.474 -0.7494  0.9257  0.5416
 1325SOL     OW15433   0.557   3.056   0.856  0.0372  0.1257  0.3697
 1325SOL    HW115434   0.579   3.010   0.774 -0.0354 -0.6358  0.7726
 1325SOL    HW215435   0.496   2.991   0.890 -0.3082  0.2238 -0.0609
 1326SOL     OW15436   2.356   3.067   3.638  0.7652  0.4815 -0.3808
 1326SOL    HW115437   2.274   3.018   3.632  1.4129 -0.2597 -3.1194
 1326SOL    HW215438   2.391   3.020   3.714 -2.3271 -2.9264 -1.0966
 1327SOL     OW15439   3.799   0.625   9.247 -0.3945  0.5376  0.8846
 1327SOL    HW115440   3.741   0.701   9.242 -2.0452 -0.7415  0.6786
 1327SOL    HW215441   3.829   0.642   9.336  0.5826 -0.3557  0.7258
 1328SOL     OW15442   3.058   4.287   9.067 -0.4202  0.0832 -0.5380
 1328SOL    HW115443   2.989   4.230   9.035 -0.0174  0.1012 -1.4428
 1328SOL    HW215444   3.107   4.234   9.129  0.1854 -0.9943 -1.9473
 1329SOL     OW15445   3.045   4.455  16.616  0.4752 -0.2085 -0.1757
 1329SOL    HW115446   3.073   4.517  16.683  0.9893 -0.0318 -0.5570
 1329SOL    HW215447   2.997   4.387  16.663 -0.3616 -0.5700 -1.5595
 1330SOL     OW15448   4.003   4.185   8.968 -0.2484 -0.3272  0.5850
 1330SOL    HW115449   3.910   4.208   8.974 -0.2543 -0.5134  1.2359
 1330SOL    HW215450   3.995   4.093   8.943 -0.1983 -0.5028  1.2044
 1331SOL     OW15451   2.039   4.427   7.426  0.0105  0.3671 -0.2924
 1331SOL    HW115452   2.054   4.407   7.519 -1.4540  0.1584 -0.0982
 1331SOL    HW215453   1.959   4.476   7.443  0.5571  0.6397  1.5492
 1332SOL     OW15454   2.847   3.358   6.487 -0.2105  0.5151 -0.5059
 1332SOL    HW115455   2.844   3.283   6.428  1.1576 -0.0215  0.1003
 1332SOL    HW215456   2.928   3.405   6.464  0.8567 -1.5459 -0.9429
 1333SOL     OW15457   0.534   1.742   6.670  0.1771  0.0929 -0.4232
 1333SOL    HW115458   0.527   1.664   6.726  0.1211 -1.2861 -2.3648
 1333SOL    HW215459   0.559   1.696   6.590 -2.2184 -1.2888 -0.3814
 1334SOL     OW15460   2.258   3.074   1.747 -0.2486 -0.6770  0.1594
 1334SOL    HW115461   2.282   3.155   1.792  3.1350 -0.2548 -2.4722
 1334SOL    HW215462   2.322   3.063   1.677 -1.3836  0.6532 -1.0917
 1335SOL     OW15463   3.402   0.263   5.682  0.0197 -0.1173  0.8205
 1335SOL    HW115464   3.375   0.313   5.606  0.3506 -0.5792  0.4006
 1335SOL    HW215465   3.326   0.244   5.737 -0.2278 -0.4616  0.3590
 1336SOL     OW15466   0.403   0.509   4.198  0.2839  0.1053 -0.2519
 1336SOL    HW115467   0.475   0.501   4.136 -1.2061 -1.7573 -1.7304
 1336SOL    HW215468   0.424   0.584   4.254  1.3360  0.3891 -1.0201
 1337SOL     OW15469   2.640   4.553   9.809 -0.1269  0.6387 -0.4419
 1337SOL    HW115470   2.589   4.528   9.732 -0.9445 -1.5475  0.8267
 1337SOL    HW215471   2.626   4.479   9.868  1.4919  0.0585 -0.7947
 1338SOL     OW15472   4.535   0.488   4.218  0.5433  0.3110 -0.0886
 1338SOL    HW115473   4.589   0.441   4.281 -0.1594  0.5241  0.6756
 1338SOL    HW215474   4.577   0.460   4.136  1.1689  1.0960 -0.0410
 1339SOL     OW15475   2.043   1.075  12.763  0.2404  0.1799 -0.4379
 1339SOL    HW115476   2.094   1.107  12.837 -2.1792  3.6851 -0.2814
 1339SOL    HW215477   1.957   1.108  12.788  0.7460  1.3246 -0.2069
 1340SOL     OW15478   1.496   4.100   3.022  0.3484  0.2648  0.7194
 1340SOL    HW115479   1.521   4.009   3.037  0.6549  0.3688  0.8376
 1340SOL    HW215480   1.544   4.100   2.939 -0.8480  0.1210  0.0368
 1341SOL     OW15481   0.008   1.348   2.613 -0.0239 -0.3243 -0.1970
 1341SOL    HW115482   4.639   1.370   2.620  0.5073  2.4496 -1.6339
 1341SOL    HW215483   0.004   1.264   2.569  0.6060 -0.3023 -0.3030
 1342SOL     OW15484   0.568   4.467   7.502  0.2584 -0.0760  0.1492
 1342SOL    HW115485   0.639   4.407   7.483  0.0353 -0.4342  0.4596
 1342SOL    HW215486   0.506   4.439   7.434  0.8391 -0.8741 -0.0469
 1343SOL     OW15487   3.221   2.419  13.702 -0.0123 -0.2186 -0.4513
 1343SOL    HW115488   3.218   2.359  13.628 -4.4660 -0.3439 -0.1539
 1343SOL    HW215489   3.227   2.503  13.656  1.6001 -0.0412  0.0629
 1344SOL     OW15490   0.075   2.820   7.652  0.6039 -0.3422 -0.1180
 1344SOL    HW115491   0.102   2.798   7.742 -2.9001 -0.2794  0.9343
 1344SOL    HW215492   4.709   2.850   7.667  0.7629 -0.2259  0.6156
 1345SOL     OW15493   3.862   1.797   0.150  0.3949  0.0878 -0.6699
 1345SOL    HW115494   3.944   1.756   0.123  0.9910  1.5013 -0.9568
 1345SOL    HW215495   3.826   1.726   0.203 -0.0337  0.2004 -0.8094
 1346SOL     OW15496   3.472   2.615  13.528  0.0085  0.0715 -0.3370
 1346SOL    HW115497   3.400   2.678  13.520 -1.5110 -1.5500  0.5517
 1346SOL    HW215498   3.536   2.658  13.472  1.9942 -1.9406  0.3730
 1347SOL     OW15499   2.332   3.303   4.599 -0.0211 -0.2911  0.1881
 1347SOL    HW115500   2.292   3.390   4.598 -0.9457 -0.7120  0.2783
 1347SOL    HW215501   2.324   3.279   4.506  0.4190  0.4619 -0.0476
 1348SOL     OW15502   3.764   2.324  13.865 -0.3125 -0.0949 -0.2526
 1348SOL    HW115503   3.676   2.359  13.847 -0.0686 -0.4131 -2.0647
 1348SOL    HW215504   3.750   2.230  13.853 -3.2997  0.0127  2.3179
 1349SOL     OW15505   1.643   3.739   6.919  0.1653 -0.2601  0.3938
 1349SOL    HW115506   1.554   3.762   6.890  0.5991  1.1673  0.1984
 1349SOL    HW215507   1.656   3.801   6.991  0.0825 -1.1830  1.2083
 1350SOL     OW15508   3.855   4.135   4.479 -0.3391  0.1430 -0.0946
 1350SOL    HW115509   3.898   4.105   4.399  0.2072 -1.9410  0.9819
 1350SOL    HW215510   3.772   4.089   4.477 -0.6881  0.6387  2.6596
 1351SOL     OW15511   2.587   4.057   7.703 -0.2796  0.1772  0.1687
 1351SOL    HW115512   2.664   4.114   7.701 -0.8371  0.9458  0.4637
 1351SOL    HW215513   2.597   4.031   7.794  2.0971 -1.7437 -0.6494
 1352SOL     OW15514   2.525   3.605   4.931 -0.1482 -0.0348 -0.0513
 1352SOL    HW115515   2.497   3.651   4.852 -0.2457  1.8678  1.0964
 1352SOL    HW215516   2.547   3.683   4.982 -1.4566  0.2923  0.0025
 1353SOL     OW15517   3.975   1.230   6.942 -0.1065 -0.4854  0.0211
 1353SOL    HW115518   4.012   1.317   6.954 -2.1137  0.9802 -4.2978
 1353SOL    HW215519   3.973   1.232   6.847  1.5418 -0.3516 -0.0077
 1354SOL     OW15520   2.663   3.064   0.156  0.1590 -0.2538  0.6835
 1354SOL    HW115521   2.638   3.022   0.073 -0.0599 -0.2167  0.7299
 1354SOL    HW215522   2.689   3.148   0.116 -1.8131 -0.7686 -1.7053
 1355SOL     OW15523   4.560   1.641  15.617  0.4279 -0.0777 -0.4801
 1355SOL    HW115524   4.599   1.560  15.584  0.9171 -0.5986  1.3757
 1355SOL    HW215525   4.606   1.704  15.561 -2.1849 -0.4363 -2.9994
 1356SOL     OW15526   4.485   0.369   5.452  0.4912 -0.5833  1.2055
 1356SOL    HW115527   4.569   0.356   5.497  0.2833  1.3465  2.1633
 1356SOL    HW215528   4.458   0.451   5.493  0.3986 -0.6898  1.3593
 1357SOL     OW15529   3.191   0.497   1.348 -0.1032  0.0152 -0.1117
 1357SOL    HW115530   3.175   0.494   1.442  1.8285  1.1236  0.2428
 1357SOL    HW215531   3.102   0.494   1.314  0.3517  1.7927 -1.4721
 1358SOL     OW15532   3.620   2.751   7.381 -0.1264  0.3979 -0.5105
 1358SOL    HW115533   3.693   2.741   7.442 -0.0516  0.2856 -0.6190
 1358SOL    HW215534   3.548   2.728   7.441  0.4832 -1.6579 -0.5476
 1359SOL     OW15535   1.325   2.109   3.126  0.3409 -0.4678 -0.1950
 1359SOL    HW115536   1.367   2.024   3.138 -0.0523 -0.3148  2.4398
 1359SOL    HW215537   1.367   2.158   3.197 -0.8524  1.0835 -0.5361
 1360SOL     OW15538   3.194   1.475  15.680 -0.3441  0.0245  0.5097
 1360SOL    HW115539   3.249   1.461  15.758 -0.1553 -1.7222  0.0668
 1360SOL    HW215540   3.109   1.476  15.723 -0.4883 -0.2922  0.2366
 1361SOL     OW15541   0.612   1.323   8.760  0.2257  0.8959 -0.1958
 1361SOL    HW115542   0.583   1.372   8.682 -0.8069  0.6265  0.0238
 1361SOL    HW215543   0.538   1.338   8.818  0.3913 -0.9834  0.4699
 1362SOL     OW15544   0.431   2.651   8.002  0.4131 -0.5186  0.3195
 1362SOL    HW115545   0.411   2.608   8.085 -1.2087 -1.3840 -0.5149
 1362SOL    HW215546   0.351   2.637   7.952  1.9920 -1.9733 -1.8164
 1363SOL     OW15547   1.688   1.431   4.649 -0.0038  0.0622  0.1106
 1363SOL    HW115548   1.604   1.467   4.622 -0.5241  0.5947  2.4106
 1363SOL    HW215549   1.736   1.511   4.674  1.7879 -1.0361  0.2130
 1364SOL     OW15550   2.642   3.634  14.315  0.2521  0.2466  0.4088
 1364SOL    HW115551   2.606   3.682  14.241  0.3649  0.5067  0.5211
 1364SOL    HW215552   2.616   3.690  14.388  0.2005  0.3490  0.3107
 1365SOL     OW15553   0.355   1.513   8.095 -0.3557  0.5469 -0.2396
 1365SOL    HW115554   0.383   1.604   8.086 -0.4316  0.5724 -0.2189
 1365SOL    HW215555   0.403   1.471   8.024 -0.6477 -0.4190  0.1312
 1366SOL     OW15556   3.841   0.599   5.302  0.1970  0.2292  0.2304
 1366SOL    HW115557   3.844   0.551   5.219 -1.3774 -1.4756  1.1572
 1366SOL    HW215558   3.750   0.628   5.299 -0.3498 -1.1623  3.2451
 1367SOL     OW15559   4.301   1.749   4.578 -0.8696  0.0416 -0.2485
 1367SOL    HW115560   4.263   1.697   4.507 -0.5512 -0.5606  0.0208
 1367SOL    HW215561   4.393   1.757   4.551 -1.2416  1.4760 -1.1102
 1368SOL     OW15562   3.982   0.953  14.607 -0.0721 -0.1699 -0.2348
 1368SOL    HW115563   4.074   0.971  14.624  0.0352  1.4563 -2.6070
 1368SOL    HW215564   3.986   0.923  14.517 -0.0103 -2.7576  0.6345
 1369SOL     OW15565   4.681   3.645   5.034  0.2433 -0.0549  0.3574
 1369SOL    HW115566   0.020   3.714   5.013 -1.2428  1.0958 -0.3088
 1369SOL    HW215567   4.647   3.622   4.948  1.2169 -0.6162  0.1247
 1370SOL     OW15568   2.675   0.182   8.606 -0.3095 -0.9752  0.2013
 1370SOL    HW115569   2.586   0.188   8.640  0.3990  0.4884  1.7995
 1370SOL    HW215570   2.725   0.221   8.677 -0.4218  2.2950 -1.4982
 1371SOL     OW15571   0.521   4.028   6.949 -0.2841  0.0284  0.0417
 1371SOL    HW115572   0.440   4.063   6.911 -1.0317 -0.7406  0.9285
 1371SOL    HW215573   0.515   3.942   6.907 -2.9560  0.7148 -0.9959
 1372SOL     OW15574   0.738   2.011   4.000  0.1138 -0.2605  0.0722
 1372SOL    HW115575   0.803   1.949   4.032  2.6157  3.2530  1.7963
 1372SOL    HW215576   0.778   2.093   4.030 -1.0528  0.7108 -1.0130
 1373SOL     OW15577   2.682   0.537   8.018  0.5544  0.1480  0.6659
 1373SOL    HW115578   2.637   0.564   7.938  1.4161 -1.7944 -0.4646
 1373SOL    HW215579   2.621   0.573   8.082 -0.0244 -0.0308  0.2130
 1374SOL     OW15580   1.237   4.539   6.651 -0.3220  0.3689 -0.1236
 1374SOL    HW115581   1.328   4.525   6.626 -0.6906  0.1987 -1.4099
 1374SOL    HW215582   1.226   4.480   6.725 -0.8741 -0.2971 -0.7386
 1375SOL     OW15583   3.235   0.421   6.830  0.0032 -0.2794  0.9315
 1375SOL    HW115584   3.322   0.389   6.855 -0.1655 -0.7203  0.9605
 1375SOL    HW215585   3.219   0.501   6.880  0.5688  1.4451 -1.6680
 1376SOL     OW15586   2.775   3.603  10.384  0.3264 -0.3230 -0.0285
 1376SOL    HW115587   2.826   3.556  10.317 -4.4813 -2.8634 -1.9389
 1376SOL    HW215588   2.806   3.693  10.378 -0.5978  0.0339  0.5005
 1377SOL     OW15589   1.426   1.632   6.965  0.9187  0.4231  0.0478
 1377SOL    HW115590   1.375   1.710   6.986  0.1305 -0.0397 -0.1547
 1377SOL    HW215591   1.454   1.609   7.054 -2.2479  3.4690  1.8287
 1378SOL     OW15592   3.957   2.168   7.333  0.3792 -0.0006  0.3438
 1378SOL    HW115593   3.904   2.111   7.389  0.4569  0.2362  0.6608
 1378SOL    HW215594   3.964   2.105   7.262  1.1218 -1.7919  1.9954
 1379SOL     OW15595   2.545   0.722   6.532 -0.2864  0.1418  0.1764
 1379SOL    HW115596   2.482   0.661   6.494  0.4471 -0.9001  0.6360
 1379SOL    HW215597   2.504   0.729   6.619 -1.6343  1.5547 -0.5527
 1380SOL     OW15598   1.261   3.841   5.629  0.4293  0.1932 -0.5814
 1380SOL    HW115599   1.171   3.810   5.625 -0.3094  2.0615  1.2557
 1380SOL    HW215600   1.287   3.814   5.541 -0.5225  0.2965 -0.8939
 1381SOL     OW15601   0.437   2.834   1.021  0.1818 -0.0389 -0.2585
 1381SOL    HW115602   0.413   2.782   0.944  1.3703 -0.1287 -0.5766
 1381SOL    HW215603   0.420   2.772   1.092  0.7642  0.1528  0.0562
 1382SOL     OW15604   4.485   3.158   8.731 -0.3934  0.5229  0.2502
 1382SOL    HW115605   4.541   3.194   8.662 -0.7573  0.1272 -0.2569
 1382SOL    HW215606   4.498   3.063   8.727  0.5950  0.6602  0.2271
 1383SOL     OW15607   0.481   3.160   5.214  0.6560  0.5846  0.4319
 1383SOL    HW115608   0.571   3.134   5.233  0.7413 -1.0268 -2.0965
 1383SOL    HW215609   0.452   3.071   5.197 -0.8146  0.3565  4.1223
 1384SOL     OW15610   2.570   3.252   2.075 -0.0302  0.1488  0.3638
 1384SOL    HW115611   2.587   3.310   2.149 -1.8371 -0.8030  1.5471
 1384SOL    HW215612   2.508   3.191   2.116 -1.2363  0.0337 -1.6667
 1385SOL     OW15613   1.784   2.426   2.863 -0.3235  0.1903 -0.0871
 1385SOL    HW115614   1.704   2.477   2.848 -0.0704 -0.3185 -3.1451
 1385SOL    HW215615   1.831   2.442   2.781  0.7249  0.0039  0.4770
 1386SOL     OW15616   2.165   3.272   3.457  0.3982 -0.5018  0.1473
 1386SOL    HW115617   2.226   3.201   3.437  1.2367 -0.1898  1.6436
 1386SOL    HW215618   2.090   3.223   3.490 -0.1960  0.7768  0.7003
 1387SOL     OW15619   3.310   2.738   1.022  0.2894 -0.2046 -0.4297
 1387SOL    HW115620   3.306   2.791   1.101 -3.0043  0.3353 -0.9861
 1387SOL    HW215621   3.223   2.754   0.985  0.7426  2.5789 -0.2815
 1388SOL     OW15622   3.003   0.611   4.816 -0.6428  0.3549 -0.2542
 1388SOL    HW115623   3.015   0.706   4.808 -0.0867  0.1783 -1.4749
 1388SOL    HW215624   2.956   0.606   4.899 -0.1119 -3.2004 -0.1752
 1389SOL     OW15625   0.017   2.266   6.973  0.4207  0.6737 -0.5633
 1389SOL    HW115626   0.005   2.359   6.953  0.1481  1.0368  1.2484
 1389SOL    HW215627   4.651   2.242   6.997 -0.1286  2.4441 -0.8726
 1390SOL     OW15628   2.501   2.241  10.345 -0.0528  0.3146  0.0458
 1390SOL    HW115629   2.590   2.238  10.311  0.1481 -0.7958  0.6851
 1390SOL    HW215630   2.503   2.179  10.418 -0.5559  0.5175  0.2349
 1391SOL     OW15631   0.520   1.301   4.952  0.2745  0.6763  0.2152
 1391SOL    HW115632   0.539   1.290   5.045 -2.1324 -2.3502  0.3539
 1391SOL    HW215633   0.478   1.387   4.947 -2.9086 -1.0173 -2.1604
 1392SOL     OW15634   1.593   0.153   6.646  0.2055 -0.1263  0.1877
 1392SOL    HW115635   1.649   0.137   6.722 -0.1153  0.6191  0.5897
 1392SOL    HW215636   1.588   0.249   6.643 -3.4113 -0.2950  0.5171
 1393SOL     OW15637   4.431   1.409   1.822  0.1432  0.0797  0.2846
 1393SOL    HW115638   4.403   1.448   1.904 -2.7895 -0.1816 -0.5846
 1393SOL    HW215639   4.519   1.446   1.815  0.9772 -2.1352 -0.8938
 1394SOL     OW15640   4.280   3.346  17.681  0.3391  0.0035  0.3704
 1394SOL    HW115641   4.271   3.424  17.627  1.3806  1.4167  2.2009
 1394SOL    HW215642   4.327   3.289  17.620 -1.9283 -1.8326  0.3402
 1395SOL     OW15643   4.689   0.793   3.555 -0.3609  1.0238 -0.5071
 1395SOL    HW115644   4.716   0.856   3.489  3.5954  0.4973  0.5855
 1395SOL    HW215645   4.678   0.862   3.621 -0.0181 -0.3064  0.9557
 1396SOL     OW15646   3.902   4.431   3.285 -0.0283  0.3658 -0.1565
 1396SOL    HW115647   3.929   4.512   3.241  1.4106  1.3361  2.4735
 1396SOL    HW215648   3.908   4.373   3.210  1.2337 -0.9950  1.0137
 1397SOL     OW15649   4.228   1.114  15.193  0.5188 -0.0461 -0.2455
 1397SOL    HW115650   4.153   1.116  15.253  0.0519  0.4007 -0.8510
 1397SOL    HW215651   4.297   1.096  15.257  0.4127  1.8540  0.4121
 1398SOL     OW15652   4.354   3.183   9.267 -0.4502 -0.3179  0.4404
 1398SOL    HW115653   4.425   3.243   9.290  0.1999 -0.6169 -0.8556
 1398SOL    HW215654   4.397   3.137   9.196  0.7589 -0.4275  1.2474
 1399SOL     OW15655   4.664   1.436   0.227  0.6388  0.0215 -0.0605
 1399SOL    HW115656   4.573   1.414   0.206  0.9465 -1.2543 -0.0537
 1399SOL    HW215657   4.716   1.356   0.230  1.5980  0.7153  1.6803
 1400SOL     OW15658   3.687   4.357   5.169 -0.5680 -0.0242  0.6435
 1400SOL    HW115659   3.724   4.441   5.198  1.7414 -0.9861  0.4726
 1400SOL    HW215660   3.746   4.316   5.105 -1.1642  1.6225 -0.9766
 1401SOL     OW15661   2.740   1.488   9.679 -0.5809  0.1275  0.5094
 1401SOL    HW115662   2.724   1.582   9.674  0.1812  0.0236 -3.4620
 1401SOL    HW215663   2.729   1.474   9.773 -0.7380 -0.0432  0.4670
 1402SOL     OW15664   3.065   3.901   3.003 -0.3334  0.3036  0.0000
 1402SOL    HW115665   3.116   3.838   3.054 -1.4535  1.9278  3.1320
 1402SOL    HW215666   3.075   3.971   3.068 -1.1826  0.8654 -0.4755
 1403SOL     OW15667   4.640   3.946  11.186  0.1606 -0.0876 -0.3004
 1403SOL    HW115668   4.706   3.992  11.134  0.4107 -0.8169 -0.6196
 1403SOL    HW215669   4.561   3.998  11.169 -0.1519 -1.0289 -1.6715
 1404SOL     OW15670   0.615   4.458   2.281 -0.9361 -0.5940 -0.2508
 1404SOL    HW115671   0.600   4.446   2.375 -1.5269  1.8461 -0.0355
 1404SOL    HW215672   0.694   4.406   2.266 -0.0063  1.1680 -1.5567
 1405SOL     OW15673   0.128   0.370  13.730 -0.3423 -0.0394 -0.0283
 1405SOL    HW115674   0.148   0.277  13.724 -0.6575 -0.1436  0.5327
 1405SOL    HW215675   0.208   0.405  13.690 -0.7479 -0.8259 -1.5221
 1406SOL     OW15676   2.122   3.780   3.430 -0.4007 -0.7330 -0.2747
 1406SOL    HW115677   2.069   3.788   3.350  1.5922 -0.9829 -1.6166
 1406SOL    HW215678   2.213   3.789   3.402 -0.1626 -1.5927  0.2377
 1407SOL     OW15679   1.311   1.190   6.862  0.6902 -0.6572 -0.5839
 1407SOL    HW115680   1.235   1.212   6.915  1.9064  1.0561  0.4497
 1407SOL    HW215681   1.323   1.095   6.867  1.2940 -0.6803 -2.5376
 1408SOL     OW15682   2.126   4.617   3.880 -0.1249  0.1296 -0.6058
 1408SOL    HW115683   2.033   4.634   3.894 -0.1484 -0.9113  0.5699
 1408SOL    HW215684   2.122   4.521   3.873  1.5171  0.0275 -0.2493
 1409SOL     OW15685   1.837   3.621   7.244 -0.2344 -0.0862 -0.0704
 1409SOL    HW115686   1.925   3.615   7.207 -0.5458 -2.2084 -0.4660
 1409SOL    HW215687   1.782   3.585   7.174 -0.1631 -0.3190 -0.0059
 1410SOL     OW15688   4.483   4.030   9.011  0.0899  0.1126 -0.4600
 1410SOL    HW115689   4.431   3.951   9.000  0.1442 -0.0667  0.5826
 1410SOL    HW215690   4.529   4.046   8.929 -0.9958 -2.3512 -1.5546
 1411SOL     OW15691   2.245   2.453   4.635  0.2513  0.0298 -0.1441
 1411SOL    HW115692   2.177   2.519   4.650  0.4061  0.2355 -0.3416
 1411SOL    HW215693   2.271   2.479   4.547  0.7725  0.6081  0.1833
 1412SOL     OW15694   3.199   2.231   2.763  0.1662 -0.5314  0.1738
 1412SOL    HW115695   3.157   2.310   2.727  1.7199  0.9140  1.5099
 1412SOL    HW215696   3.125   2.170   2.767  0.3887 -0.8709 -1.2717
 1413SOL     OW15697   2.757   3.575   2.561 -0.2272 -0.1783  0.0197
 1413SOL    HW115698   2.695   3.646   2.579 -1.0976 -1.4641  2.0928
 1413SOL    HW215699   2.831   3.619   2.520 -0.6155 -1.6008 -2.1750
 1414SOL     OW15700   1.885   4.519  17.628  0.2001  0.7682  0.1149
 1414SOL    HW115701   1.793   4.501  17.645  0.6797 -1.4829  0.3934
 1414SOL    HW215702   1.879   4.530  17.533  0.0805 -3.3254 -0.3439
 1415SOL     OW15703   3.165   0.202   5.780 -0.2000 -0.0686 -0.2418
 1415SOL    HW115704   3.161   0.287   5.738  0.0011 -0.5856 -1.3243
 1415SOL    HW215705   3.130   0.233   5.863 -1.2312 -0.6844 -0.4506
 1416SOL     OW15706   4.428   0.004   0.337 -0.5592 -0.0284 -0.1142
 1416SOL    HW115707   4.470   4.649   0.372  0.2914  0.1366 -0.7687
 1416SOL    HW215708   4.388   0.023   0.421  0.9946  0.3744  0.5402
 1417SOL     OW15709   2.875   4.312  10.744 -0.1977 -0.6263  0.1577
 1417SOL    HW115710   2.941   4.357  10.798 -0.7206  1.0127 -0.5784
 1417SOL    HW215711   2.799   4.313  10.801 -0.8165 -0.9331 -0.6675
 1418SOL     OW15712   3.500   1.558  11.670 -0.4067 -0.0297 -0.6241
 1418SOL    HW115713   3.431   1.494  11.652 -0.8330  0.2153  0.1113
 1418SOL    HW215714   3.554   1.559  11.591 -1.4716  2.9946 -1.3114
 1419SOL     OW15715   2.644   2.087   9.131  0.1351  0.2990 -0.0129
 1419SOL    HW115716   2.722   2.054   9.086 -1.0712 -0.5569 -1.4870
 1419SOL    HW215717   2.660   2.052   9.219  0.4771 -1.5052 -0.7904
 1420SOL     OW15718   3.476   1.338  10.944 -0.2279 -0.0984  0.0199
 1420SOL    HW115719   3.534   1.308  11.014 -1.7367 -2.9773  0.0360
 1420SOL    HW215720   3.497   1.432  10.938  1.1399 -0.3975  0.2630
 1421SOL     OW15721   1.511   0.622   9.186 -0.4860  0.1628 -0.0763
 1421SOL    HW115722   1.422   0.590   9.174 -1.1389  2.3342 -1.1594
 1421SOL    HW215723   1.503   0.718   9.189 -0.1039  0.1075  2.7486
 1422SOL     OW15724   0.820   1.148   5.811 -0.0796 -0.7877 -0.6993
 1422SOL    HW115725   0.801   1.233   5.851  1.8479  0.0343 -1.5275
 1422SOL    HW215726   0.751   1.090   5.843 -0.4281  0.3091  0.5596
 1423SOL     OW15727   3.860   2.683  14.559  0.3346  0.4619  0.1137
 1423SOL    HW115728   3.836   2.590  14.557  0.6633  0.3876 -0.3033
 1423SOL    HW215729   3.904   2.695  14.644  1.5205 -1.8416 -0.1682
 1424SOL     OW15730   3.442   0.551  10.683  0.3008  0.0461  0.0580
 1424SOL    HW115731   3.366   0.496  10.664  0.7198 -0.0184 -1.3789
 1424SOL    HW215732   3.478   0.571  10.597  2.5083  0.3215  1.0378
 1425SOL     OW15733   2.092   1.250   1.760  0.5805  0.3156 -0.1115
 1425SOL    HW115734   2.131   1.191   1.825  0.4244 -0.6454 -0.8942
 1425SOL    HW215735   2.050   1.188   1.701 -1.0204 -0.0427  1.4090
 1426SOL     OW15736   3.354   1.604   6.149  0.7824  0.1916  0.2449
 1426SOL    HW115737   3.383   1.525   6.196  1.6374  0.3963  0.0555
 1426SOL    HW215738   3.290   1.568   6.088  0.2958  1.0108  0.2732
 1427SOL     OW15739   3.831   1.074   3.720  0.5803 -0.0207  0.0536
 1427SOL    HW115740   3.921   1.103   3.710  0.1215  0.5597 -2.5893
 1427SOL    HW215741   3.805   1.094   3.810 -0.1495 -1.0402  0.0793
 1428SOL     OW15742   0.512   3.014   8.461 -0.4375 -0.1624 -0.1743
 1428SOL    HW115743   0.465   3.097   8.462  1.8887  1.1699 -0.1430
 1428SOL    HW215744   0.602   3.042   8.480  0.1709 -1.1516 -1.5244
 1429SOL     OW15745   4.514   2.059  10.543 -0.2648  0.0744 -0.3342
 1429SOL    HW115746   4.508   1.982  10.486  1.2055  0.8911 -1.6054
 1429SOL    HW215747   4.436   2.040  10.595 -1.4684  0.9039 -1.8354
 1430SOL     OW15748   3.752   3.933   7.200 -0.2290  0.6775  0.0863
 1430SOL    HW115749   3.715   3.918   7.113  2.0216 -0.4066 -0.6942
 1430SOL    HW215750   3.743   4.028   7.208  1.2220  0.5852  2.9367
 1431SOL     OW15751   2.141   3.517   5.278 -0.4980  0.1321 -0.2680
 1431SOL    HW115752   2.187   3.532   5.361 -0.5077 -2.8811  0.2773
 1431SOL    HW215753   2.086   3.595   5.284 -0.5307  0.1218 -0.4534
 1432SOL     OW15754   3.955   2.991   8.730 -0.3562 -0.2826 -0.1058
 1432SOL    HW115755   3.992   2.918   8.779  0.6705 -0.5232 -1.2463
 1432SOL    HW215756   3.948   2.947   8.645 -1.0135  0.2783 -0.3409
 1433SOL     OW15757   2.829   1.476   2.054  0.1100  0.5343  0.6403
 1433SOL    HW115758   2.875   1.465   2.137  1.1635  2.2286  0.2945
 1433SOL    HW215759   2.767   1.405   2.068  0.0981  0.2706 -0.8049
 1434SOL     OW15760   1.014   1.391   2.464 -0.4474 -0.1369  0.2074
 1434SOL    HW115761   1.021   1.430   2.376 -0.5594 -1.1421 -0.2494
 1434SOL    HW215762   1.043   1.302   2.445 -1.3602 -0.4306  0.2004
 1435SOL     OW15763   1.683   1.476   0.514 -0.0407 -0.0911  0.0317
 1435SOL    HW115764   1.699   1.456   0.606 -0.7793  1.6808  0.5287
 1435SOL    HW215765   1.747   1.546   0.497  0.5115 -0.3426  1.1161
 1436SOL     OW15766   1.325   4.214   7.991  0.4829 -0.6778  0.4584
 1436SOL    HW115767   1.400   4.260   7.953  1.4985 -2.0785  0.7430
 1436SOL    HW215768   1.263   4.286   8.001 -1.2290 -2.2575  1.2936
 1437SOL     OW15769   3.774   2.016   5.563 -0.1146 -0.0132  0.0471
 1437SOL    HW115770   3.814   1.931   5.581  1.0672  0.1859 -1.6369
 1437SOL    HW215771   3.820   2.076   5.621 -2.4748  1.2032  0.6848
 1438SOL     OW15772   3.388   4.189  13.719  0.1545 -0.2334  0.0192
 1438SOL    HW115773   3.475   4.151  13.728  0.6113  0.7984 -0.0556
 1438SOL    HW215774   3.410   4.245  13.644 -2.5393  0.8524  0.0435
 1439SOL     OW15775   0.577   0.245   3.875  0.0499 -0.4728 -0.2583
 1439SOL    HW115776   0.546   0.155   3.876 -0.3273 -0.3549 -1.8639
 1439SOL    HW215777   0.514   0.285   3.815 -0.3958 -0.1971  0.3892
 1440SOL     OW15778   3.071   1.146  15.757 -0.1968  0.4805  0.2849
 1440SOL    HW115779   2.983   1.159  15.721  0.2737 -2.7864 -2.0504
 1440SOL    HW215780   3.131   1.185  15.694  0.4896 -0.9164  0.0713
 1441SOL     OW15781   2.031   4.059   7.464  0.0669 -0.2162 -0.0819
 1441SOL    HW115782   1.944   4.027   7.440 -0.5988  0.9009  0.8477
 1441SOL    HW215783   2.045   4.117   7.390  0.3673 -0.4462 -0.2110
 1442SOL     OW15784   2.407   1.719   5.415  0.0258  0.1446 -0.4379
 1442SOL    HW115785   2.354   1.641   5.401 -2.0012  1.5924 -0.7537
 1442SOL    HW215786   2.403   1.716   5.510  1.3781  2.4937 -0.2960
 1443SOL     OW15787   4.131   3.600   3.469 -0.5137  0.6360 -0.2790
 1443SOL    HW115788   4.058   3.541   3.487 -0.7931  0.4294 -2.1520
 1443SOL    HW215789   4.119   3.668   3.536 -0.1948  1.9352 -1.5363
 1444SOL     OW15790   2.302   3.348   5.016  0.5055 -0.5460 -0.4751
 1444SOL    HW115791   2.390   3.327   4.984  0.8824  0.9897 -0.4527
 1444SOL    HW215792   2.239   3.320   4.949  0.2742  0.4106 -0.6626
 1445SOL     OW15793   1.043   3.555   2.575  0.8578 -0.4408 -0.6106
 1445SOL    HW115794   0.964   3.608   2.582  2.0057  1.1234  0.4787
 1445SOL    HW215795   1.002   3.468   2.572 -1.5449  0.6565  0.7215
 1446SOL     OW15796   3.748   0.039   3.488  0.1237 -0.0032  0.1893
 1446SOL    HW115797   3.662   0.011   3.456 -0.2192 -0.9769  2.0025
 1446SOL    HW215798   3.785   4.677   3.508 -1.7385 -0.2723  2.4687
 1447SOL     OW15799   2.993   4.717  13.510 -1.0568  0.0094  0.8208
 1447SOL    HW115800   3.080   4.709  13.549  0.5822  0.6786 -2.6981
 1447SOL    HW215801   2.954   0.074  13.544  0.0768 -0.1152  2.3754
 1448SOL     OW15802   3.955   3.581   4.169 -0.5396  0.3739 -0.0497
 1448SOL    HW115803   3.908   3.617   4.245  0.5430 -2.6213  2.0754
 1448SOL    HW215804   3.881   3.533   4.131 -2.1986  1.4162  1.8373
 1449SOL     OW15805   1.227   0.135   6.422 -0.4064  0.2872  0.1563
 1449SOL    HW115806   1.309   0.087   6.433 -0.1975  0.8187  0.9441
 1449SOL    HW215807   1.256   0.219   6.386 -1.0180  0.4791  0.1204
 1450SOL     OW15808   2.504   1.239   9.824  0.0654  0.2088 -0.0338
 1450SOL    HW115809   2.543   1.223   9.738  0.3128  2.7116 -0.4090
 1450SOL    HW215810   2.566   1.305   9.857  0.8026 -1.0290  1.0722
 1451SOL     OW15811   2.860   0.090  10.331 -0.6612  0.3179 -0.3234
 1451SOL    HW115812   2.861   0.179  10.296  1.5425  0.5530  0.3604
 1451SOL    HW215813   2.854   0.031  10.255  1.8438  0.8893 -0.9504
 1452SOL     OW15814   1.180   0.590   4.950 -0.2997 -0.1035 -0.2381
 1452SOL    HW115815   1.131   0.672   4.961 -1.3006 -0.8364  0.7107
 1452SOL    HW215816   1.122   0.537   5.004  0.9558 -0.1679  1.0754
 1453SOL     OW15817   0.135   1.760   7.100  0.5837  0.2632  0.1132
 1453SOL    HW115818   0.152   1.775   7.193  1.2379 -0.7022  0.1414
 1453SOL    HW215819   0.131   1.666   7.086  0.3370  0.2091  0.5714
 1454SOL     OW15820   2.686   0.989   9.186  0.3706 -0.4457  0.1133
 1454SOL    HW115821   2.741   0.932   9.240  2.0845  1.1602  0.0872
 1454SOL    HW215822   2.613   0.936   9.154 -1.0267  0.3049  2.0801
 1455SOL     OW15823   2.273   3.251  11.187 -0.1792  0.0057 -0.0058
 1455SOL    HW115824   2.348   3.282  11.135 -0.9622 -0.0067 -1.1437
 1455SOL    HW215825   2.318   3.215  11.264 -2.1352  1.6516  1.9070
 1456SOL     OW15826   0.179   0.048   0.308 -0.0993 -0.0811  0.0318
 1456SOL    HW115827   0.218   0.120   0.358  1.4123 -0.8610 -0.0040
 1456SOL    HW215828   0.088   0.075   0.311 -0.7653 -2.4994  2.3660
 1457SOL     OW15829   0.119   3.075   7.586 -0.5162  0.2266 -0.0662
 1457SOL    HW115830   0.109   2.984   7.614  0.9818 -0.4626 -1.7557
 1457SOL    HW215831   0.087   3.123   7.663 -0.2657 -0.6661  0.5949
 1458SOL     OW15832   4.401   4.673   0.917  0.3270 -0.1578  0.8005
 1458SOL    HW115833   4.431   0.036   0.891 -0.8125  0.3798  1.3054
 1458SOL    HW215834   4.326   4.689   0.974  0.3051 -1.9701  1.2924
 1459SOL     OW15835   3.340   0.691   4.907 -0.3171  0.2698  0.3420
 1459SOL    HW115836   3.261   0.727   4.945  0.1945  0.5492  1.1485
 1459SOL    HW215837   3.397   0.689   4.984  0.7952  1.7145 -0.4353
 1460SOL     OW15838   1.582   2.140  13.557  0.0698 -0.2188  0.3487
 1460SOL    HW115839   1.593   2.094  13.641  0.5441 -1.3156 -0.3215
 1460SOL    HW215840   1.552   2.071  13.498  0.7507 -1.3874  1.3699
 1461SOL     OW15841   1.827   1.651   4.905 -0.4092 -0.0862 -0.2116
 1461SOL    HW115842   1.870   1.624   4.986  0.2722 -1.3579 -1.0060
 1461SOL    HW215843   1.883   1.605   4.843  0.9622  1.2479  0.0280
 1462SOL     OW15844   1.946   1.110   3.431  0.0997 -0.6316  0.1099
 1462SOL    HW115845   1.893   1.067   3.364 -0.5490  1.9601 -1.0142
 1462SOL    HW215846   1.989   1.180   3.381  0.0361  1.0224  2.3789
 1463SOL     OW15847   3.618   4.379   6.985  0.8504 -0.4244 -0.5942
 1463SOL    HW115848   3.697   4.431   6.970  0.9508 -0.4979 -0.3290
 1463SOL    HW215849   3.647   4.289   7.004 -0.8964 -0.9757 -0.5358
 1464SOL     OW15850   3.562   3.160   3.011 -0.7191  0.4386  0.0622
 1464SOL    HW115851   3.524   3.112   2.937 -0.6136  1.3563 -0.5822
 1464SOL    HW215852   3.650   3.169   2.975 -0.5633 -0.0483  0.3218
 1465SOL     OW15853   0.081   0.858   9.786 -0.1019  0.4868 -0.7425
 1465SOL    HW115854   0.100   0.907   9.866 -0.3236 -1.3640  0.4450
 1465SOL    HW215855   0.167   0.825   9.758 -1.4013 -3.4081 -0.1247
 1466SOL     OW15856   3.372   1.836   7.995  0.1052 -0.1500  0.3039
 1466SOL    HW115857   3.299   1.866   8.050 -1.2027  1.4347 -2.2726
 1466SOL    HW215858   3.339   1.858   7.907 -2.3573 -0.6911  1.0723
 1467SOL     OW15859   2.543   3.423   0.465 -0.8336 -0.3400 -0.2050
 1467SOL    HW115860   2.617   3.385   0.417  0.1014  1.5208 -0.2234
 1467SOL    HW215861   2.592   3.488   0.515 -0.9362  0.4503 -1.1238
 1468SOL     OW15862   4.516   3.182   2.998 -1.0647  0.2322  0.0440
 1468SOL    HW115863   4.442   3.238   3.022  1.9323  3.1783  2.4483
 1468SOL    HW215864   4.506   3.105   3.053  0.2912  1.8916  2.6254
 1469SOL     OW15865   3.396   2.269   4.124 -0.1018  0.3280  0.4803
 1469SOL    HW115866   3.382   2.364   4.126  0.6707  0.4708 -1.4490
 1469SOL    HW215867   3.309   2.233   4.109  0.2941 -0.3024 -0.2834
 1470SOL     OW15868   0.064   3.909  13.151  0.5609 -0.1323  0.0690
 1470SOL    HW115869   0.075   3.839  13.215  0.3468 -0.5070 -0.3088
 1470SOL    HW215870   4.706   3.953  13.175 -0.1255 -1.5736  0.3400
 1471SOL     OW15871   3.572   3.430   2.389 -0.3964  0.0073  0.9034
 1471SOL    HW115872   3.612   3.480   2.460  0.2855  1.7009 -0.6919
 1471SOL    HW215873   3.530   3.501   2.340 -1.6867  0.0920  2.1363
 1472SOL     OW15874   2.571   3.169   3.509  0.2528  0.6298 -0.4464
 1472SOL    HW115875   2.500   3.142   3.567  0.4921 -0.7492 -0.7821
 1472SOL    HW215876   2.610   3.088   3.475 -2.2415 -0.7241 -0.0822
 1473SOL     OW15877   2.229   4.344   6.528 -0.6550 -0.1100  0.4681
 1473SOL    HW115878   2.173   4.320   6.602 -0.7447 -1.0862  0.0905
 1473SOL    HW215879   2.169   4.314   6.460 -0.5114 -0.2501  0.4037
 1474SOL     OW15880   3.221   3.275   4.449  0.5572 -0.0482  0.2663
 1474SOL    HW115881   3.205   3.216   4.523  0.0661 -2.5122 -1.7898
 1474SOL    HW215882   3.149   3.338   4.442 -1.0475 -1.8188  0.5690
 1475SOL     OW15883   4.555   2.556   7.451 -0.2618  0.0217  0.0621
 1475SOL    HW115884   4.594   2.532   7.367  1.3152 -1.3625  1.1904
 1475SOL    HW215885   4.631   2.582   7.503  0.6362 -0.0032 -1.2425
 1476SOL     OW15886   1.818   0.809   1.732  0.3256 -0.5791 -0.2278
 1476SOL    HW115887   1.813   0.718   1.762  0.2626 -1.0212 -1.5771
 1476SOL    HW215888   1.849   0.803   1.641 -0.8303  0.7560 -0.7160
 1477SOL     OW15889   2.225   2.460   3.377  0.1327  0.5947  0.1258
 1477SOL    HW115890   2.196   2.547   3.403 -0.9258  1.4487 -4.0388
 1477SOL    HW215891   2.276   2.486   3.300 -2.8059  0.2950 -1.9171
 1478SOL     OW15892   1.698   2.439   3.488 -0.0792 -0.2668  0.1167
 1478SOL    HW115893   1.790   2.414   3.495  0.3499  1.7058  1.6796
 1478SOL    HW215894   1.693   2.472   3.578 -2.1759  1.2160 -0.5231
 1479SOL     OW15895   0.256   0.652   6.803 -0.2470 -0.4870  0.4632
 1479SOL    HW115896   0.282   0.723   6.745  1.1376 -2.3379 -1.1514
 1479SOL    HW215897   0.331   0.644   6.862  0.3424  0.5864 -0.1407
 1480SOL     OW15898   0.194   0.429  14.537 -0.1858  0.1701  0.4640
 1480SOL    HW115899   0.151   0.382  14.466 -0.5477 -0.3206  1.0135
 1480SOL    HW215900   0.148   0.513  14.541 -1.2516 -0.3959  0.0632
 1481SOL     OW15901   4.491   3.265  12.934  0.3514  0.8596 -0.3050
 1481SOL    HW115902   4.468   3.175  12.959 -0.7184  2.1456  3.4469
 1481SOL    HW215903   4.575   3.246  12.893  0.3387 -0.9305  0.4542
 1482SOL     OW15904   2.455   0.605  13.505 -0.3173 -0.2177 -0.4125
 1482SOL    HW115905   2.471   0.671  13.572  0.9172 -0.4395 -0.4990
 1482SOL    HW215906   2.419   0.658  13.433  1.7371 -1.5072 -2.3744
 1483SOL     OW15907   0.177   2.328   0.455 -0.2417 -0.3295 -0.9354
 1483SOL    HW115908   0.209   2.245   0.491  0.1324  0.1348 -0.1896
 1483SOL    HW215909   0.233   2.359   0.384 -0.8405  2.5649 -0.1354
 1484SOL     OW15910   0.538   1.022   2.108  0.0349 -0.1246  0.1420
 1484SOL    HW115911   0.587   0.995   2.030  0.0108  1.3127 -0.3729
 1484SOL    HW215912   0.495   0.940   2.133 -0.8286  0.3936  0.3544
 1485SOL     OW15913   4.309   1.437   4.786  0.0863  0.3086  0.5594
 1485SOL    HW115914   4.246   1.376   4.748 -0.2112  1.1637 -0.3147
 1485SOL    HW215915   4.305   1.404   4.876 -0.2221  1.8366  1.1140
 1486SOL     OW15916   2.392   1.664   5.030  0.3436 -0.0770 -0.5400
 1486SOL    HW115917   2.325   1.703   5.086  1.8850 -1.1879  2.1278
 1486SOL    HW215918   2.374   1.570   5.037  1.7025 -0.4111 -1.5696
 1487SOL     OW15919   4.306   1.617   4.006  0.0265  0.1513  0.0299
 1487SOL    HW115920   4.214   1.640   3.995  0.2835  0.0923 -2.2068
 1487SOL    HW215921   4.342   1.681   4.067 -0.7528 -0.0425  0.6940
 1488SOL     OW15922   4.379   3.623   8.201  0.7460  1.0326 -0.1818
 1488SOL    HW115923   4.399   3.644   8.292  1.1605 -2.5310  0.5438
 1488SOL    HW215924   4.455   3.569   8.177  0.7187  0.2171  1.5460
 1489SOL     OW15925   0.164   4.298  11.762 -0.0170  0.2264 -0.0640
 1489SOL    HW115926   0.197   4.255  11.841 -0.7385 -0.3995 -0.1063
 1489SOL    HW215927   0.236   4.355  11.734 -0.6016  0.9113 -0.1430
 1490SOL     OW15928   0.380   2.775  12.148 -0.1935 -0.1386 -0.4769
 1490SOL    HW115929   0.429   2.830  12.087  0.7000 -0.0278  0.3265
 1490SOL    HW215930   0.410   2.810  12.232 -0.8579 -1.5833  0.3675
 1491SOL     OW15931   0.047   3.454   6.848 -0.7329  0.0630 -0.1821
 1491SOL    HW115932   0.102   3.375   6.849 -0.7062  0.0773 -1.7123
 1491SOL    HW215933   0.076   3.495   6.767 -0.9564 -0.6155 -0.6124
 1492SOL     OW15934   2.149   3.258  16.770  0.2553  0.4092  0.3174
 1492SOL    HW115935   2.172   3.272  16.862  0.2715 -1.3425  0.5687
 1492SOL    HW215936   2.088   3.185  16.781 -1.4407  1.8664  0.8400
 1493SOL     OW15937   4.008   2.847   4.064  0.2151  0.3309 -0.3538
 1493SOL    HW115938   3.939   2.911   4.082  1.2143  1.6545 -1.1481
 1493SOL    HW215939   4.049   2.881   3.984 -0.1485 -0.1653 -0.7510
 1494SOL     OW15940   2.756   3.312  12.776  0.6332  0.0810  0.1574
 1494SOL    HW115941   2.696   3.325  12.850 -2.1460  2.6899 -2.6029
 1494SOL    HW215942   2.704   3.341  12.702  0.4333  0.5726  0.4883
 1495SOL     OW15943   2.907   3.603   5.136  0.4505  0.0632 -0.7146
 1495SOL    HW115944   2.871   3.688   5.110 -1.1217 -0.2199  0.4924
 1495SOL    HW215945   2.915   3.563   5.049  2.2320 -0.1381 -0.4468
 1496SOL     OW15946   2.839   0.165   2.486  0.1231  0.4844 -0.0417
 1496SOL    HW115947   2.755   0.126   2.509  0.1197  1.2732  1.3384
 1496SOL    HW215948   2.817   0.221   2.412  0.1690  1.1280  0.4273
 1497SOL     OW15949   2.377   0.490   6.487 -0.2924  0.0286 -0.1774
 1497SOL    HW115950   2.416   0.413   6.529 -0.2459 -0.0019 -0.2739
 1497SOL    HW215951   2.284   0.467   6.484 -0.9542  2.6596 -0.1095
 1498SOL     OW15952   2.773   3.483   9.260  0.4857  0.2238 -0.0044
 1498SOL    HW115953   2.691   3.437   9.244  0.5801  0.3468 -0.8558
 1498SOL    HW215954   2.830   3.441   9.196  1.3496  0.9699  0.2638
 1499SOL     OW15955   4.393   2.539   2.771  0.2610 -0.2642 -0.1925
 1499SOL    HW115956   4.478   2.495   2.762 -0.2341 -1.6621  1.8660
 1499SOL    HW215957   4.394   2.597   2.847 -0.0470 -2.1321  1.2475
 1500SOL     OW15958   1.437   2.814   6.800 -0.2485  0.2926 -0.2436
 1500SOL    HW115959   1.428   2.896   6.752 -0.5330  0.3802 -0.0388
 1500SOL    HW215960   1.524   2.788   6.769  0.4199 -0.0556  1.9358
 1501SOL     OW15961   4.545   1.571   6.360 -0.0492  0.1149 -0.2914
 1501SOL    HW115962   4.633   1.606   6.350  0.1528 -0.2780  0.0866
 1501SOL    HW215963   4.508   1.647   6.404  1.7750  0.9223 -0.1629
 1502SOL     OW15964   3.111   2.267   4.002 -1.1129  0.5244  0.4464
 1502SOL    HW115965   3.054   2.200   4.039 -0.1349  0.8394  2.5126
 1502SOL    HW215966   3.096   2.341   4.060  1.0801  1.6506 -0.4075
 1503SOL     OW15967   1.893   4.575   6.032 -0.4865 -0.0671  0.4428
 1503SOL    HW115968   1.806   4.552   6.064 -1.1404  0.1328 -1.2051
 1503SOL    HW215969   1.863   4.603   5.946 -1.9371  1.9082  1.5925
 1504SOL     OW15970   1.012   3.006   6.589 -0.2556 -0.6705 -0.5709
 1504SOL    HW115971   0.980   3.056   6.664  1.2439  0.7692 -0.8946
 1504SOL    HW215972   0.944   3.019   6.523 -0.4532  1.7304  0.1059
 1505SOL     OW15973   1.588   1.621   5.131 -0.7291 -0.1363  0.6130
 1505SOL    HW115974   1.660   1.575   5.174 -1.7366 -2.1386  0.2130
 1505SOL    HW215975   1.574   1.542   5.078  2.0270  0.3103 -0.7881
 1506SOL     OW15976   1.793   4.091   4.412  0.3027 -0.2882  0.1838
 1506SOL    HW115977   1.782   4.186   4.408  5.5130  0.2318 -1.5406
 1506SOL    HW215978   1.702   4.061   4.407  0.6759 -1.1011 -1.5913
 1507SOL     OW15979   0.253   2.776   5.544 -0.1696 -0.2040 -0.5525
 1507SOL    HW115980   0.204   2.706   5.501 -3.5285  2.3123 -0.8564
 1507SOL    HW215981   0.245   2.758   5.637  2.5877 -2.1635 -0.7221
 1508SOL     OW15982   1.461   2.489   9.872  0.6835 -0.5382 -0.1530
 1508SOL    HW115983   1.385   2.448   9.831 -0.1416  0.1659  0.6658
 1508SOL    HW215984   1.429   2.519   9.957  3.5629 -2.0967  1.4642
 1509SOL     OW15985   0.608   1.624   1.571  0.5601  0.4948 -0.1132
 1509SOL    HW115986   0.556   1.668   1.503  0.3699 -1.5055 -1.2668
 1509SOL    HW215987   0.546   1.556   1.598  0.2972  0.1206 -1.6885
 1510SOL     OW15988   4.291   2.946  11.889  0.2544  0.9380  0.0141
 1510SOL    HW115989   4.201   2.973  11.906  0.1626  0.7750 -0.2139
 1510SOL    HW215990   4.279   2.940  11.794  0.8706 -5.1080  0.3582
 1511SOL     OW15991   3.370   4.520   2.470  0.3750 -0.0375 -0.7414
 1511SOL    HW115992   3.302   4.583   2.493 -0.0275  0.0000 -2.0182
 1511SOL    HW215993   3.416   4.524   2.553 -0.2529 -2.0699 -0.2817
 1512SOL     OW15994   0.393   4.107   3.211  0.5302 -0.6416  0.2650
 1512SOL    HW115995   0.410   4.022   3.170 -2.9074 -1.2267  0.0125
 1512SOL    HW215996   0.298   4.095   3.222  0.5203  0.4320  1.3907
 1513SOL     OW15997   1.064   3.760   4.103  0.1932 -0.0772  0.2829
 1513SOL    HW115998   1.117   3.807   4.039 -0.6092 -0.1910 -0.4632
 1513SOL    HW215999   1.137   3.717   4.147 -0.8749 -0.8803  1.2844
 1514SOL     OW16000   0.737   2.476   7.646  0.5417  0.3995 -0.0552
 1514SOL    HW116001   0.717   2.456   7.737  0.0089 -0.0992 -0.2821
 1514SOL    HW216002   0.735   2.388   7.608  0.7553 -0.0555  0.9950
 1515SOL     OW16003   2.833   2.216   3.870 -0.1010 -0.0459 -0.6480
 1515SOL    HW116004   2.914   2.196   3.918  0.4900 -0.6469 -1.8974
 1515SOL    HW216005   2.836   2.311   3.875  1.5758 -0.1307 -0.0264
 1516SOL     OW16006   3.870   1.498  12.472 -0.4428 -0.2213 -0.0821
 1516SOL    HW116007   3.860   1.403  12.482 -0.7017 -0.0051  1.6902
 1516SOL    HW216008   3.789   1.533  12.509 -0.4216  0.3946 -0.6169
 1517SOL     OW16009   3.409   0.613  17.448  1.0834 -0.1691 -0.1152
 1517SOL    HW116010   3.378   0.703  17.447 -1.5883 -1.0829  1.1475
 1517SOL    HW216011   3.392   0.599  17.541  1.4051  0.8094  0.0895
 1518SOL     OW16012   3.890   0.981   4.136 -0.1125 -0.2774  0.0148
 1518SOL    HW116013   3.900   1.042   4.062  1.0252  1.3377  1.5016
 1518SOL    HW216014   3.829   0.912   4.111 -1.6275  0.8460  0.6263
 1519SOL     OW16015   1.806   2.425  16.357 -0.1672  0.4565  0.7232
 1519SOL    HW116016   1.756   2.454  16.280  0.9621  0.8670  0.1449
 1519SOL    HW216017   1.738   2.375  16.402 -2.6343  3.6792  0.6384
 1520SOL     OW16018   0.109   1.245   4.859 -0.0649 -0.3960 -0.0201
 1520SOL    HW116019   0.078   1.158   4.833  1.6602 -0.8405 -0.6074
 1520SOL    HW216020   0.070   1.268   4.943  0.3201 -1.0577  0.3376
 1521SOL     OW16021   3.112   1.822   8.066 -0.2209  0.1541  0.7010
 1521SOL    HW116022   3.034   1.845   8.015 -0.9475 -0.7626  1.4130
 1521SOL    HW216023   3.098   1.886   8.136 -0.0708  1.4839 -0.4859
 1522SOL     OW16024   3.492   0.566   1.532  0.3475  0.3509 -0.2596
 1522SOL    HW116025   3.527   0.483   1.499  1.5861  0.7424  0.0611
 1522SOL    HW216026   3.516   0.627   1.463  0.9487  0.7104  0.2654
 1523SOL     OW16027   3.638   3.708   5.806 -0.0831  0.1579 -0.1470
 1523SOL    HW116028   3.697   3.760   5.750  2.0176 -0.9399  1.0442
 1523SOL    HW216029   3.583   3.659   5.745  1.0442 -0.1749 -0.9039
 1524SOL     OW16030   0.982   0.230   7.205 -0.0422  0.4568  0.1069
 1524SOL    HW116031   0.984   0.139   7.178 -0.5625  0.7643 -0.9847
 1524SOL    HW216032   0.900   0.250   7.161  0.1805  0.6641 -0.2123
 1525SOL     OW16033   2.916   0.825   9.873 -0.1015 -0.0805 -0.3477
 1525SOL    HW116034   2.851   0.786   9.931 -0.1818 -0.6230 -0.7964
 1525SOL    HW216035   2.955   0.739   9.856  1.3661  0.2905  1.2627
 1526SOL     OW16036   3.671   0.381   6.279  0.5299 -0.0330  0.5247
 1526SOL    HW116037   3.653   0.370   6.372  0.8640 -3.4620  0.1872
 1526SOL    HW216038   3.758   0.419   6.284  1.3964 -2.0099  0.7038
 1527SOL     OW16039   1.269   1.839   6.761  0.1564 -0.7040  0.2802
 1527SOL    HW116040   1.306   1.891   6.833 -1.2791 -0.2850  0.7221
 1527SOL    HW216041   1.175   1.837   6.784 -0.3966  0.3000 -1.9247
 1528SOL     OW16042   1.513   0.520  13.631  0.0473  0.2095  0.8783
 1528SOL    HW116043   1.523   0.548  13.540  0.5661 -0.2671  0.7839
 1528SOL    HW216044   1.600   0.480  13.638 -0.5230 -1.0119  0.9936
 1529SOL     OW16045   3.905   0.760  16.195  0.1864 -0.6406 -0.1522
 1529SOL    HW116046   3.982   0.792  16.241  0.0101 -1.6431  0.8493
 1529SOL    HW216047   3.955   0.742  16.116  0.4981 -1.7587  0.3000
 1530SOL     OW16048   4.605   4.178   9.931  1.0065  0.0140 -0.2625
 1530SOL    HW116049   4.698   4.162   9.951  0.7577 -2.6295 -1.2628
 1530SOL    HW216050   4.599   4.203   9.839 -0.9189 -0.3765 -0.2401
 1531SOL     OW16051   2.826   3.959  14.599  0.2919  0.1614 -0.3291
 1531SOL    HW116052   2.820   3.865  14.579 -1.8713  0.2029  0.1011
 1531SOL    HW216053   2.880   3.965  14.677 -0.1044 -0.4992 -0.0020
 1532SOL     OW16054   3.645   4.318   2.525  0.1256  0.0189 -0.0187
 1532SOL    HW116055   3.556   4.286   2.540  0.5162 -1.1256 -0.1747
 1532SOL    HW216056   3.689   4.314   2.610 -0.9530 -1.4408  0.4557
 1533SOL     OW16057   0.851   2.615   0.163 -1.1212  0.0748  0.4948
 1533SOL    HW116058   0.881   2.528   0.137  0.9332  1.1915 -0.8317
 1533SOL    HW216059   0.902   2.626   0.244 -1.1434  1.2188  0.3515
 1534SOL     OW16060   3.574   3.034   5.390  0.1530 -0.2821 -1.1793
 1534SOL    HW116061   3.578   2.979   5.468 -0.0045  0.4239 -0.6765
 1534SOL    HW216062   3.557   3.121   5.426 -1.4260 -0.6459 -1.0344
 1535SOL     OW16063   3.874   1.986   1.779  0.4366 -0.5475 -0.1776
 1535SOL    HW116064   3.842   2.028   1.700  0.1133 -2.1688 -0.9043
 1535SOL    HW216065   3.821   1.906   1.779 -1.2337  0.5567 -0.9850
 1536SOL     OW16066   1.312   0.697  11.910 -0.0789  0.4950  0.0385
 1536SOL    HW116067   1.279   0.694  11.820 -0.4996  0.0622  0.2098
 1536SOL    HW216068   1.403   0.726  11.905  0.0577  0.2210  0.9701
 1537SOL     OW16069   0.460   0.315  14.607 -0.5160  0.4696  0.7524
 1537SOL    HW116070   0.486   0.386  14.666 -1.3768  0.7279  0.8078
 1537SOL    HW216071   0.367   0.330  14.596 -0.3355 -0.5370 -2.0348
 1538SOL     OW16072   2.275   2.282  12.469 -0.0535 -0.3643  0.1770
 1538SOL    HW116073   2.216   2.264  12.542  1.1437 -0.0555  1.2363
 1538SOL    HW216074   2.323   2.358  12.504 -1.1616 -0.0279  0.9431
 1539SOL     OW16075   1.303   1.588   4.953 -0.1505 -0.2865 -0.2215
 1539SOL    HW116076   1.244   1.532   4.903  0.5284 -0.8310 -0.4119
 1539SOL    HW216077   1.274   1.570   5.042 -2.1524  0.1892 -0.7885
 1540SOL     OW16078   2.239   4.194   5.308  0.3371 -0.4108 -0.1910
 1540SOL    HW116079   2.229   4.161   5.219 -0.7809 -0.0454 -0.1976
 1540SOL    HW216080   2.157   4.170   5.351 -0.0610 -0.4035 -0.9506
 1541SOL     OW16081   3.664   4.232   3.503  0.1351  0.0412 -0.1032
 1541SOL    HW116082   3.624   4.256   3.586 -1.1729  1.4429 -1.1371
 1541SOL    HW216083   3.600   4.257   3.436 -1.4552 -0.5834  1.1783
 1542SOL     OW16084   3.355   4.148   2.541 -0.8155 -0.1929 -0.0665
 1542SOL    HW116085   3.329   4.125   2.452  2.5974 -1.0653 -0.8741
 1542SOL    HW216086   3.285   4.207   2.567  0.5741  0.5871  1.9329
 1543SOL     OW16087   2.045   4.049   5.447 -0.0270  0.6225 -0.2878
 1543SOL    HW116088   1.959   4.006   5.444  0.0408  0.4968 -0.4144
 1543SOL    HW216089   2.037   4.118   5.513 -1.1873  0.5353 -0.3283
 1544SOL     OW16090   1.512   3.070   6.990  0.1854  0.0585  0.3732
 1544SOL    HW116091   1.510   3.141   6.925 -0.0903  0.3361  0.6865
 1544SOL    HW216092   1.418   3.052   6.983  0.2507  0.3372 -1.2401
 1545SOL     OW16093   1.903   0.448  16.848  0.5308  0.0060 -0.0208
 1545SOL    HW116094   1.840   0.376  16.841 -1.1046  1.3981  0.1356
 1545SOL    HW216095   1.854   0.515  16.800 -2.3848 -2.5576 -0.6104
 1546SOL     OW16096   4.423   2.602  14.185 -0.1431 -0.2780 -0.3506
 1546SOL    HW116097   4.354   2.655  14.224  0.5590  0.2034  0.2304
 1546SOL    HW216098   4.374   2.548  14.122 -1.0548  0.2838 -0.1195
 1547SOL     OW16099   2.180   3.354   7.734  0.3676 -0.8598  0.2370
 1547SOL    HW116100   2.086   3.361   7.750  0.3430 -2.0448  0.6192
 1547SOL    HW216101   2.195   3.296   7.660  2.0208  0.8369 -0.7730
 1548SOL     OW16102   4.067   4.367  10.157 -0.3866  0.1877  0.4724
 1548SOL    HW116103   3.984   4.333  10.124 -0.0884  1.0516 -1.1360
 1548SOL    HW216104   4.037   4.411  10.237 -1.4152  2.8297 -1.3675
 1549SOL     OW16105   1.444   0.583   2.785  0.0810  0.0761 -0.4890
 1549SOL    HW116106   1.510   0.594   2.717  1.5187 -1.7773  0.5792
 1549SOL    HW216107   1.385   0.516   2.750 -1.3063  0.4560  1.1270
 1550SOL     OW16108   1.297   0.046   5.438 -0.3066  0.4230  0.7332
 1550SOL    HW116109   1.211   0.009   5.459  0.1029 -0.3391  1.0458
 1550SOL    HW216110   1.287   0.045   5.342 -0.5513  0.2521  0.7609
 1551SOL     OW16111   3.973   3.406  13.500  0.3957 -0.4736 -0.5316
 1551SOL    HW116112   3.989   3.375  13.411 -1.2829  2.0029 -1.6526
 1551SOL    HW216113   3.936   3.323  13.532 -0.1711  0.4442  1.1737
 1552SOL     OW16114   0.288   0.604   9.177 -0.5845  1.0031 -0.4692
 1552SOL    HW116115   0.246   0.585   9.261  0.2539  2.1604  0.2100
 1552SOL    HW216116   0.375   0.622   9.213 -0.5837  0.9655 -0.4521
 1553SOL     OW16117   3.029   3.849   1.441  0.2111 -0.4979 -0.5103
 1553SOL    HW116118   2.998   3.940   1.439  0.5194 -0.4188 -2.0116
 1553SOL    HW216119   3.116   3.857   1.402 -0.7299  1.7290 -2.1742
 1554SOL     OW16120   4.158   1.527  12.272 -0.1011 -0.7379  0.4912
 1554SOL    HW116121   4.151   1.596  12.338  0.0570  0.2006 -0.4689
 1554SOL    HW216122   4.252   1.509  12.277  0.3396  1.2068 -0.8408
 1555SOL     OW16123   4.387   4.621   6.669  0.1044 -0.4164  0.4855
 1555SOL    HW116124   4.474   4.629   6.629 -0.1891 -0.5058 -0.1758
 1555SOL    HW216125   4.405   4.599   6.760 -1.3914  0.3709  0.9695
 1556SOL     OW16126   0.537   0.746   6.794 -0.4448  0.0244  0.2862
 1556SOL    HW116127   0.487   0.714   6.719 -0.2434 -0.3045  0.2946
 1556SOL    HW216128   0.572   0.823   6.750  0.4669 -1.0098 -0.7923
 1557SOL     OW16129   1.031   1.758   9.658 -0.2497 -0.4209  0.0933
 1557SOL    HW116130   1.031   1.845   9.620  1.2567 -0.3816  0.1682
 1557SOL    HW216131   1.104   1.765   9.720  0.9884  1.7972 -1.6240
 1558SOL     OW16132   0.247   2.414   4.108  0.0530 -0.0563  0.3921
 1558SOL    HW116133   0.250   2.319   4.100  2.6126 -0.1795  2.3570
 1558SOL    HW216134   0.156   2.426   4.083  0.1157 -0.6939 -0.1220
 1559SOL     OW16135   2.274   1.126   4.811  0.1887 -0.0034 -0.3511
 1559SOL    HW116136   2.311   1.197   4.864  1.0358 -1.2486  0.7062
 1559SOL    HW216137   2.190   1.152   4.772 -0.6355  0.3737  1.6849
 1560SOL     OW16138   1.661   0.929   8.932  0.0729  0.1034 -0.3215
 1560SOL    HW116139   1.637   0.957   8.844  0.3453 -0.2091 -0.4965
 1560SOL    HW216140   1.755   0.944   8.946  0.1071 -1.7403  1.4667
 1561SOL     OW16141   3.148   1.012  12.287 -0.0690 -0.1625  0.3833
 1561SOL    HW116142   3.100   1.076  12.340 -0.4165 -1.4591  1.6364
 1561SOL    HW216143   3.222   0.996  12.345  1.9905 -0.1210 -2.2663
 1562SOL     OW16144   1.577   1.273   6.133 -0.4919 -0.4190  0.1212
 1562SOL    HW116145   1.599   1.219   6.057  0.3248 -0.7219  0.5868
 1562SOL    HW216146   1.588   1.207   6.201 -2.3557 -0.4120  0.4379
 1563SOL     OW16147   0.895   2.387   2.894 -0.0865  0.4949 -0.4017
 1563SOL    HW116148   0.840   2.311   2.910 -0.4071  0.5684 -1.1483
 1563SOL    HW216149   0.880   2.409   2.802 -1.6960 -0.9405 -0.4708
 1564SOL     OW16150   2.289   2.893   7.991  0.0785 -0.4968  1.0259
 1564SOL    HW116151   2.381   2.878   8.010  0.1688 -1.5659 -0.2165
 1564SOL    HW216152   2.258   2.945   8.065  1.3347  0.6578  0.7476
 1565SOL     OW16153   3.808   3.189  13.650 -0.1193  0.3643  0.5214
 1565SOL    HW116154   3.763   3.158  13.571 -0.3529  1.2543  0.3028
 1565SOL    HW216155   3.853   3.115  13.690 -2.9142 -1.2957  0.5763
 1566SOL     OW16156   1.032   2.793  10.921 -0.4540  0.4101  0.2907
 1566SOL    HW116157   1.082   2.843  10.985 -0.9237 -0.8368  1.6247
 1566SOL    HW216158   1.087   2.721  10.890 -0.5769 -0.9130  3.1823
 1567SOL     OW16159   2.674   1.653   0.148  0.0141  0.7844 -0.2598
 1567SOL    HW116160   2.649   1.613   0.231 -1.3747 -2.3188 -2.1623
 1567SOL    HW216161   2.766   1.669   0.166  1.1347 -2.9860 -2.4870
 1568SOL     OW16162   2.021   2.243   7.077 -0.1649  0.4890 -0.3962
 1568SOL    HW116163   2.018   2.234   7.172  0.4534 -1.8750 -0.5904
 1568SOL    HW216164   2.088   2.176   7.060 -0.5912 -0.0277 -0.0636
 1569SOL     OW16165   4.533   0.933   2.094 -0.1363 -0.2602  0.0012
 1569SOL    HW116166   4.590   1.009   2.107  1.3725 -1.1966 -1.1980
 1569SOL    HW216167   4.591   0.860   2.113  1.2100  0.7780 -0.0964
 1570SOL     OW16168   1.706   2.945   8.075 -0.5760  0.2487 -0.4964
 1570SOL    HW116169   1.639   2.886   8.109  0.3059 -0.7959 -0.5820
 1570SOL    HW216170   1.772   2.877   8.065 -1.0444  0.3408 -4.3386
 1571SOL     OW16171   3.468   3.625   0.751 -0.6233  0.5239 -0.0360
 1571SOL    HW116172   3.426   3.704   0.717 -3.2960 -0.2530  1.4974
 1571SOL    HW216173   3.557   3.636   0.716 -1.3785  1.8237 -1.5435
 1572SOL     OW16174   0.770   0.236   8.844  0.3649 -0.3985  0.3522
 1572SOL    HW116175   0.694   0.252   8.789  1.5267  0.8982 -0.8650
 1572SOL    HW216176   0.739   0.280   8.923  0.0964  0.4102 -0.2107
 1573SOL     OW16177   2.190   0.264   2.839  0.0412 -0.2715 -0.4570
 1573SOL    HW116178   2.272   0.289   2.797 -0.8239 -0.1328 -2.0356
 1573SOL    HW216179   2.211   0.191   2.899  2.1927  2.5513  2.2611
 1574SOL     OW16180   0.815   1.827   5.274 -0.3010  0.5270  0.5345
 1574SOL    HW116181   0.784   1.917   5.263 -0.9241  0.0523 -1.5066
 1574SOL    HW216182   0.839   1.833   5.366  0.5196  0.2960  0.3319
 1575SOL     OW16183   3.441   0.942  14.727 -0.1521  0.0003  0.0909
 1575SOL    HW116184   3.411   0.882  14.795 -0.7155 -1.0554 -1.0711
 1575SOL    HW216185   3.364   0.998  14.714  0.2520  0.2439 -1.2468
 1576SOL     OW16186   1.748   4.205   7.763  0.2244 -0.7710  0.4081
 1576SOL    HW116187   1.824   4.150   7.743  2.1016  2.4222 -1.3610
 1576SOL    HW216188   1.735   4.247   7.677  2.0270  2.9851  1.9716
 1577SOL     OW16189   2.665   4.608   5.821  0.2707 -0.4702 -0.0246
 1577SOL    HW116190   2.718   4.563   5.886  1.8899 -0.4502 -1.3224
 1577SOL    HW216191   2.718   4.608   5.741  2.3299  2.7406  1.3735
 1578SOL     OW16192   1.885   2.806   5.851  0.4543 -0.2369  0.4746
 1578SOL    HW116193   1.848   2.725   5.886  0.9889  1.2865  4.5744
 1578SOL    HW216194   1.908   2.769   5.766 -0.7857  0.1709 -0.0423
 1579SOL     OW16195   0.280   2.277  10.626  0.2055  0.0142 -0.3106
 1579SOL    HW116196   0.342   2.233  10.569 -1.5238  0.0918 -2.2535
 1579SOL    HW216197   0.192   2.246  10.603  0.8662 -2.5429  0.6546
 1580SOL     OW16198   1.039   1.826   9.134 -0.2345  0.0212 -0.1011
 1580SOL    HW116199   0.983   1.797   9.207  0.7272 -2.3415 -0.3185
 1580SOL    HW216200   1.106   1.874   9.183  0.4477  0.8581 -1.8866
 1581SOL     OW16201   2.585   4.580  16.607 -0.4939 -0.1463  0.4754
 1581SOL    HW116202   2.612   4.584  16.516 -1.5219  1.0907  0.2209
 1581SOL    HW216203   2.630   4.658  16.640  0.1752 -0.4817  0.3531
 1582SOL     OW16204   2.940   4.336   6.933  0.9859  0.1258 -0.9674
 1582SOL    HW116205   2.979   4.323   7.020 -2.1700  0.9560  0.5771
 1582SOL    HW216206   2.955   4.249   6.897 -0.7212 -0.1097 -1.1072
 1583SOL     OW16207   2.389   2.749   6.122 -0.1197  0.0260  0.6769
 1583SOL    HW116208   2.375   2.816   6.055  0.4023 -1.6131 -1.0831
 1583SOL    HW216209   2.316   2.763   6.182  0.2466 -2.5979  1.7114
 1584SOL     OW16210   4.298   3.296   6.339  0.1733  0.0910 -0.4460
 1584SOL    HW116211   4.304   3.226   6.274 -1.0186 -2.1908  1.8527
 1584SOL    HW216212   4.391   3.311   6.355  0.0590  1.9055 -1.5025
 1585SOL     OW16213   4.579   4.039   0.150 -0.0967  0.0893  0.4587
 1585SOL    HW116214   4.655   4.005   0.197  0.0969  1.2319  0.9660
 1585SOL    HW216215   4.598   4.132   0.157 -0.0374  0.0755  0.4849
 1586SOL     OW16216   3.564   2.017   1.808  0.0782 -0.0989 -0.2260
 1586SOL    HW116217   3.613   2.099   1.811 -0.9174  0.5255 -1.0983
 1586SOL    HW216218   3.597   1.977   1.889 -2.6359 -1.2644  0.3087
 1587SOL     OW16219   1.482   4.145   5.939 -0.3194 -0.4472 -0.5336
 1587SOL    HW116220   1.521   4.058   5.927  1.0295 -0.1986  1.9254
 1587SOL    HW216221   1.394   4.132   5.906 -1.6764  1.5063  2.3351
 1588SOL     OW16222   3.313   3.685   4.610 -0.1746  0.2384  0.1237
 1588SOL    HW116223   3.306   3.779   4.624 -1.1610 -0.0344  1.4530
 1588SOL    HW216224   3.271   3.640   4.684 -0.8342 -0.2544 -0.5397
 1589SOL     OW16225   0.373   0.056   9.682  0.0890 -0.7149  0.6102
 1589SOL    HW116226   0.411   4.707   9.731  0.5408 -0.7280  0.2334
 1589SOL    HW216227   0.380   0.011   9.598 -0.2629 -1.6990  1.1079
 1590SOL     OW16228   2.412   4.209   2.234  0.1928  0.1193 -0.1376
 1590SOL    HW116229   2.324   4.171   2.229 -0.4490  1.6288 -0.5585
 1590SOL    HW216230   2.437   4.165   2.315 -1.4285 -1.4434 -0.4871
 1591SOL     OW16231   1.803   2.038   5.471  0.5739 -0.8310 -0.3336
 1591SOL    HW116232   1.838   1.995   5.393  1.0681 -1.5623  0.2899
 1591SOL    HW216233   1.867   2.105   5.495  1.3669 -2.0561  0.9134
 1592SOL     OW16234   4.104   0.675   1.017 -0.0180  0.2760  0.4838
 1592SOL    HW116235   4.083   0.648   0.928  0.8513 -0.1077  0.3950
 1592SOL    HW216236   4.184   0.624   1.023  0.4569  1.0987  1.1847
 1593SOL     OW16237   2.705   0.165  14.670  0.0410  0.1754 -0.1795
 1593SOL    HW116238   2.732   0.254  14.693  1.1570 -0.8893  2.6750
 1593SOL    HW216239   2.776   0.122  14.719 -2.9900 -2.1481  2.1321
 1594SOL     OW16240   0.470   4.253  14.461  0.0444  0.4911  0.1978
 1594SOL    HW116241   0.485   4.169  14.418 -0.1803  1.1783 -1.2136
 1594SOL    HW216242   0.376   4.267  14.468  0.2358  1.9232 -0.0597
 1595SOL     OW16243   4.278   3.960  16.291  0.0080  0.0104  0.1801
 1595SOL    HW116244   4.338   4.028  16.259 -0.1642  0.4216  0.7313
 1595SOL    HW216245   4.256   3.925  16.204  2.3837  0.6818 -0.7040
 1596SOL     OW16246   4.265   0.430   4.235 -0.3964 -0.0652 -0.3906
 1596SOL    HW116247   4.356   0.460   4.239 -0.4154  0.1545 -1.6725
 1596SOL    HW216248   4.209   0.498   4.197  0.9233 -0.8901 -3.7774
 1597SOL     OW16249   1.466   4.528  14.147 -0.2792 -0.1715 -0.3523
 1597SOL    HW116250   1.512   4.466  14.204  2.0351  2.1785  0.3538
 1597SOL    HW216251   1.475   4.612  14.194  1.6097  0.0616 -1.1296
 1598SOL     OW16252   0.905   4.205   0.959  0.2268 -0.5776 -1.1778
 1598SOL    HW116253   0.862   4.236   0.880 -0.8129  1.7618  0.3257
 1598SOL    HW216254   0.898   4.286   1.008  0.8064 -0.3048 -1.5484
 1599SOL     OW16255   2.185   0.601  12.665  0.0643  0.3999  0.4098
 1599SOL    HW116256   2.197   0.696  12.669  1.6328  0.1572  1.3414
 1599SOL    HW216257   2.150   0.596  12.576 -2.0063  0.3084  1.2224
 1600SOL     OW16258   3.331   4.538  16.172 -0.5985  0.0303 -0.2126
 1600SOL    HW116259   3.339   4.443  16.186 -0.0751  0.2260  0.8000
 1600SOL    HW216260   3.344   4.536  16.078 -3.1956  0.6575 -0.5751
 1601SOL     OW16261   1.515   0.626   6.512 -0.4579  0.4383  0.2046
 1601SOL    HW116262   1.486   0.589   6.596  0.2590 -0.8114 -0.1057
 1601SOL    HW216263   1.599   0.586   6.493 -0.6517  0.5994 -0.9891
 1602SOL     OW16264   2.061   0.894   5.007 -0.5025  0.3238  0.1825
 1602SOL    HW116265   1.983   0.842   5.022  0.3688 -0.7474  0.9764
 1602SOL    HW216266   2.066   0.951   5.084 -1.0213  0.7935 -0.1288
 1603SOL     OW16267   1.240   3.035  16.639  0.3169  0.0542  0.5166
 1603SOL    HW116268   1.208   3.025  16.729  0.0154 -0.5334  0.3376
 1603SOL    HW216269   1.206   3.123  16.619  0.7462  0.0613 -0.1865
 1604SOL     OW16270   1.753   1.273   0.325 -0.0416 -0.0524  0.3100
 1604SOL    HW116271   1.729   1.326   0.401 -1.4270  0.3813 -0.4504
 1604SOL    HW216272   1.782   1.193   0.370  0.6191 -0.2495 -0.4704
 1605SOL     OW16273   4.060   2.554   6.715 -0.1106 -0.5015  0.2888
 1605SOL    HW116274   3.991   2.500   6.677  0.6210 -0.6536 -0.8603
 1605SOL    HW216275   4.100   2.491   6.776  0.1875 -0.4125  0.1877
 1606SOL     OW16276   4.491   3.905   4.001 -0.8458  0.1112 -0.2323
 1606SOL    HW116277   4.493   3.911   4.096  1.4695 -0.0843 -0.2808
 1606SOL    HW216278   4.563   3.848   3.975  0.6103  0.9379  1.9596
 1607SOL     OW16279   3.448   1.690   2.254 -0.4530 -0.4658  0.3795
 1607SOL    HW116280   3.356   1.700   2.229 -0.4407  1.0317  0.9211
 1607SOL    HW216281   3.465   1.615   2.197  0.1728 -0.0476  0.0170
 1608SOL     OW16282   3.961   1.939   7.168  0.4522 -0.4036 -0.1312
 1608SOL    HW116283   3.947   1.860   7.221  1.6447 -0.9141 -0.5903
 1608SOL    HW216284   3.882   1.928   7.115 -1.0015 -0.4597  2.0353
 1609SOL     OW16285   3.072   1.001   6.207  0.0349 -0.6545 -0.5898
 1609SOL    HW116286   2.989   0.954   6.196 -1.2092  1.0010  1.6981
 1609SOL    HW216287   3.084   1.040   6.121  0.3532  0.3509 -0.0772
 1610SOL     OW16288   1.372   2.114   6.065 -0.5093  0.0743  0.5364
 1610SOL    HW116289   1.397   2.134   6.155  2.3788  0.3487 -0.3375
 1610SOL    HW216290   1.349   2.202   6.036 -1.2052 -0.2717  0.0286
 1611SOL     OW16291   4.305   0.321  17.066 -0.0260  0.0963  0.0024
 1611SOL    HW116292   4.390   0.356  17.090  0.8639 -1.7577 -0.4210
 1611SOL    HW216293   4.280   0.375  16.991  0.5948 -1.6558 -1.4718
 1612SOL     OW16294   3.444   4.082   9.141 -0.1585 -0.2229 -0.5965
 1612SOL    HW116295   3.351   4.071   9.162 -0.5503 -1.7743 -3.1349
 1612SOL    HW216296   3.467   4.097   9.233  0.5594 -1.5765 -0.5494
 1613SOL     OW16297   1.789   2.027   6.281 -0.1600 -0.6814 -0.8129
 1613SOL    HW116298   1.772   2.076   6.362  1.7715 -0.5440 -0.4781
 1613SOL    HW216299   1.711   1.973   6.273  0.5075 -1.7830  0.1568
 1614SOL     OW16300   2.681   1.754   8.007 -0.0951  0.0897  0.0940
 1614SOL    HW116301   2.608   1.815   7.997  1.5748  2.0909  0.0675
 1614SOL    HW216302   2.637   1.669   7.996 -2.8537  1.2164  2.5647
 1615SOL     OW16303   3.137   0.550   0.280  0.2333  0.5468  0.3128
 1615SOL    HW116304   3.086   0.610   0.333  0.2130 -0.9907  2.0181
 1615SOL    HW216305   3.116   0.586   0.194  0.5777 -1.6353 -0.6873
 1616SOL     OW16306   0.317   3.942   3.856 -0.3164  0.4643  0.2220
 1616SOL    HW116307   0.342   3.868   3.801  0.7365  1.1342 -0.2106
 1616SOL    HW216308   0.333   3.913   3.946 -0.3448 -3.1685 -0.9259
 1617SOL     OW16309   1.641   1.257   6.605 -0.3964  0.9564 -0.7693
 1617SOL    HW116310   1.649   1.230   6.514  1.4208 -0.0503 -0.3185
 1617SOL    HW216311   1.557   1.222   6.634  0.1554 -0.4227 -0.8636
 1618SOL     OW16312   2.113   0.196  15.485 -0.4371 -0.3268 -0.0916
 1618SOL    HW116313   2.142   0.232  15.569  0.4700 -2.0023  0.2943
 1618SOL    HW216314   2.117   0.102  15.503 -1.5842 -0.4753 -0.5937
 1619SOL     OW16315   1.861   4.154   7.101  0.9803  0.3123  0.7604
 1619SOL    HW116316   1.844   4.062   7.080 -0.8974  0.8456 -0.0941
 1619SOL    HW216317   1.810   4.176   7.180  2.0234  2.0252  0.9537
 1620SOL     OW16318   1.662   0.002  16.009 -0.1721 -0.3211 -0.2360
 1620SOL    HW116319   1.567   0.013  15.997 -0.5435  1.4248  4.1894
 1620SOL    HW216320   1.691   4.682  15.929 -1.3759 -1.5900  0.0191
 1621SOL     OW16321   4.552   3.178  16.375  0.0857 -0.4020  0.1656
 1621SOL    HW116322   4.518   3.264  16.351  0.9048  0.3441  1.6910
 1621SOL    HW216323   4.548   3.129  16.293  1.8947  1.4832 -1.0818
 1622SOL     OW16324   0.916   1.499  15.177 -0.0061 -0.0241 -0.2130
 1622SOL    HW116325   0.895   1.450  15.097  1.1692  0.4800 -0.8435
 1622SOL    HW216326   0.918   1.583  15.130  1.8732 -0.5132 -1.0065
 1623SOL     OW16327   0.334   3.888   8.297  0.1037  0.3185 -0.0037
 1623SOL    HW116328   0.358   3.864   8.386  0.1532 -0.8664 -0.3470
 1623SOL    HW216329   0.394   3.832   8.248 -1.5087 -1.0153 -0.4401
 1624SOL     OW16330   2.138   2.095   3.541 -0.2033 -0.2218  0.1992
 1624SOL    HW116331   2.103   2.155   3.606 -1.9161 -1.0119 -0.0099
 1624SOL    HW216332   2.118   2.014   3.586 -0.7517  0.5875  1.3963
 1625SOL     OW16333   1.413   4.193  15.709  0.4792  0.1124  0.0642
 1625SOL    HW116334   1.347   4.137  15.668 -0.9440  1.6719  0.2441
 1625SOL    HW216335   1.498   4.153  15.691  0.7519  1.0439 -0.6493
 1626SOL     OW16336   2.200   1.057   7.941 -0.4734  0.2940 -0.1936
 1626SOL    HW116337   2.109   1.034   7.922 -0.2606 -1.4353  0.8269
 1626SOL    HW216338   2.198   1.150   7.960  0.2379 -0.3526  3.0651
 1627SOL     OW16339   0.722   0.122   2.222 -0.0250  0.4120  0.2268
 1627SOL    HW116340   0.664   0.058   2.181  2.8502 -0.5088 -2.3833
 1627SOL    HW216341   0.684   0.204   2.189 -0.9068 -0.5392 -1.1539
 1628SOL     OW16342   1.469   1.630   5.645 -0.5826 -0.3139 -0.2140
 1628SOL    HW116343   1.491   1.716   5.608 -0.7862  0.4351  1.3736
 1628SOL    HW216344   1.410   1.650   5.719 -0.1171 -0.1230  0.1049
 1629SOL     OW16345   1.714   1.231  11.151 -0.1420 -0.0777 -0.2144
 1629SOL    HW116346   1.787   1.289  11.172 -0.4530  0.6324 -1.0775
 1629SOL    HW216347   1.642   1.287  11.180  0.6514  1.9048 -2.0930
 1630SOL     OW16348   0.430   0.661   6.552 -0.0141  0.4791 -0.4869
 1630SOL    HW116349   0.509   0.611   6.529 -0.8285 -1.6962  1.4949
 1630SOL    HW216350   0.368   0.619   6.492  1.0987  0.5347 -1.6781
 1631SOL     OW16351   2.672   1.089   6.128  0.0172 -0.1085 -0.6151
 1631SOL    HW116352   2.657   1.063   6.037 -2.5958 -0.1092 -0.1669
 1631SOL    HW216353   2.593   1.064   6.175 -0.5049  0.1564 -1.3607
 1632SOL     OW16354   2.820   0.725   1.050  0.4067 -0.5253  0.4274
 1632SOL    HW116355   2.895   0.726   1.110  0.4472  2.1269  0.3578
 1632SOL    HW216356   2.760   0.680   1.109  2.4129 -1.4269  1.7639
 1633SOL     OW16357   1.435   0.976   9.677 -0.1256  0.1668  0.0463
 1633SOL    HW116358   1.458   0.938   9.761  0.2812 -0.9149 -0.5586
 1633SOL    HW216359   1.341   0.960   9.687 -0.1083 -0.0799 -0.1809
 1634SOL     OW16360   4.488   2.500   5.255 -0.1033  0.1732 -0.4714
 1634SOL    HW116361   4.404   2.545   5.243 -0.5188 -0.2620  0.9094
 1634SOL    HW216362   4.514   2.517   5.164  0.6037  0.9913 -0.1229
 1635SOL     OW16363   0.494   3.614   9.598 -0.7351  0.6279 -0.3019
 1635SOL    HW116364   0.564   3.600   9.661  0.9989 -0.9824 -2.5445
 1635SOL    HW216365   0.441   3.675   9.649  1.2813  2.2876 -0.2102
 1636SOL     OW16366   2.655   1.358   8.673  0.5110 -0.4405  0.1270
 1636SOL    HW116367   2.676   1.410   8.595 -1.9429 -0.1280 -0.3435
 1636SOL    HW216368   2.744   1.350   8.705 -0.6255 -1.7272  2.8891
 1637SOL     OW16369   0.714   1.954  14.395 -0.0989  0.0237  0.1574
 1637SOL    HW116370   0.782   1.887  14.389 -0.6012 -0.6442  1.9260
 1637SOL    HW216371   0.759   2.016  14.452 -1.4906  0.5300  0.7160
 1638SOL     OW16372   2.669   2.874   0.939 -0.0094  0.1097  0.0144
 1638SOL    HW116373   2.596   2.895   0.879  0.6721 -0.0943 -0.8862
 1638SOL    HW216374   2.655   2.935   1.011  1.3585  1.7870 -1.1396
 1639SOL     OW16375   2.482   0.220   5.287 -0.6477 -0.0216  0.1216
 1639SOL    HW116376   2.499   0.160   5.215 -0.9985 -0.8780  0.7505
 1639SOL    HW216377   2.389   0.198   5.295  0.1187 -3.0938  0.3049
 1640SOL     OW16378   1.821   3.759   8.598  0.3446  0.7888  0.9276
 1640SOL    HW116379   1.787   3.697   8.662  2.5685 -1.0701  0.3203
 1640SOL    HW216380   1.830   3.841   8.646 -1.5611  1.8441 -0.4965
 1641SOL     OW16381   2.858   3.827   4.708 -0.5863  0.1988  0.2646
 1641SOL    HW116382   2.848   3.735   4.687  1.9753  0.2695 -1.3783
 1641SOL    HW216383   2.940   3.848   4.663  0.2342 -2.7649  0.4132
 1642SOL     OW16384   4.704   1.094   9.085  0.1362  0.3085  0.0063
 1642SOL    HW116385   4.683   1.002   9.101  0.0944  0.1433 -1.0113
 1642SOL    HW216386   0.073   1.081   9.063  0.4478  1.6808  0.5057
 1643SOL     OW16387   2.846   3.743   0.088 -0.0042  0.3762 -0.0290
 1643SOL    HW116388   2.813   3.667   0.041 -0.9179 -0.3485  1.8042
 1643SOL    HW216389   2.768   3.799   0.080  0.7210  0.8826 -3.4050
 1644SOL     OW16390   1.626   1.315   9.547  0.0778  0.8791 -0.1954
 1644SOL    HW116391   1.586   1.247   9.493  1.2468 -0.2091  0.2868
 1644SOL    HW216392   1.551   1.372   9.563  0.2163  1.3085 -1.0811
 1645SOL     OW16393   2.391   2.703  16.177  0.2998 -0.1476  0.7325
 1645SOL    HW116394   2.412   2.795  16.161 -0.6736 -0.2074 -0.9306
 1645SOL    HW216395   2.447   2.669  16.107 -1.9575  0.9718 -1.6506
 1646SOL     OW16396   0.837   2.454  16.553  0.0973  0.6698  0.2296
 1646SOL    HW116397   0.770   2.408  16.501  0.7888  0.5693 -0.5782
 1646SOL    HW216398   0.908   2.448  16.489 -0.1258 -1.8077  0.2055
 1647SOL     OW16399   0.448   2.006   8.784 -0.0916  0.0142  0.3978
 1647SOL    HW116400   0.371   2.055   8.813 -0.0130 -0.9595  2.2596
 1647SOL    HW216401   0.413   1.972   8.701 -0.0375  1.2949 -0.1459
 1648SOL     OW16402   1.207   2.682   3.210  0.2557  0.9274  0.2447
 1648SOL    HW116403   1.230   2.603   3.161 -1.0773  1.1209 -0.6844
 1648SOL    HW216404   1.142   2.655   3.275  0.2560  1.0717  0.3046
 1649SOL     OW16405   1.268   4.012   5.210 -0.7939 -0.6833  0.1557
 1649SOL    HW116406   1.219   4.084   5.171 -0.2328  0.3260  1.3414
 1649SOL    HW216407   1.326   3.973   5.144  0.5402 -2.1091  2.1660
 1650SOL     OW16408   1.759   4.266  13.686 -0.3878  0.1520  0.6361
 1650SOL    HW116409   1.692   4.211  13.726 -2.0684 -0.6622 -3.2923
 1650SOL    HW216410   1.702   4.295  13.616 -0.4242 -1.2327  0.0890
 1651SOL     OW16411   2.218   1.605   0.154 -0.7559  0.1032  0.0747
 1651SOL    HW116412   2.200   1.516   0.183  0.2271  0.3465  1.4239
 1651SOL    HW216413   2.271   1.626   0.231  0.5125 -1.2006 -0.4486
 1652SOL     OW16414   3.788   0.218   9.921  0.1416 -0.0840 -0.0779
 1652SOL    HW116415   3.784   0.126   9.896 -1.1766 -0.3077  0.9354
 1652SOL    HW216416   3.768   0.207  10.014  1.2056  2.4010  0.4532
 1653SOL     OW16417   2.826   1.696   6.305 -0.3384 -0.2129 -0.2251
 1653SOL    HW116418   2.867   1.609   6.306 -0.3408 -0.2285 -1.3294
 1653SOL    HW216419   2.736   1.668   6.321  0.1341 -1.4731  0.2639
 1654SOL     OW16420   4.649   0.893   7.099 -0.2371 -0.2048 -0.4886
 1654SOL    HW116421   4.564   0.923   7.133 -1.2571 -3.6277  0.0110
 1654SOL    HW216422   4.608   0.844   7.027  1.3839 -0.7254 -1.0569
 1655SOL     OW16423   0.397   0.954   7.832  0.0311  0.3232 -0.0921
 1655SOL    HW116424   0.371   0.868   7.865 -1.1700  0.7374  0.0562
 1655SOL    HW216425   0.377   0.925   7.743 -1.9737 -0.2301  0.5381
 1656SOL     OW16426   0.815   1.937   2.483 -0.1474 -0.1321  0.4676
 1656SOL    HW116427   0.850   1.921   2.570 -0.4201 -1.5434  0.3306
 1656SOL    HW216428   0.726   1.907   2.504 -0.9977  0.2097 -2.6578
 1657SOL     OW16429   2.998   1.983  17.010  0.1624  0.4343 -0.2520
 1657SOL    HW116430   2.954   2.021  17.086  1.9243  0.7087  0.6561
 1657SOL    HW216431   3.080   1.954  17.051 -0.1338  1.8704  1.3869
 1658SOL     OW16432   3.971   1.966   2.083  0.4700  0.5287 -0.2727
 1658SOL    HW116433   3.879   1.972   2.109  1.0302  0.8807  1.6372
 1658SOL    HW216434   3.977   1.888   2.029  0.4026 -0.3790  1.0439
 1659SOL     OW16435   2.436   3.896   2.166 -0.0762  0.5922 -0.4917
 1659SOL    HW116436   2.369   3.895   2.098  0.7859  0.3438 -1.3407
 1659SOL    HW216437   2.390   3.861   2.242  0.9831  1.3664  0.5145
 1660SOL     OW16438   1.734   4.612  15.785 -0.0350 -0.1122  0.6238
 1660SOL    HW116439   1.745   4.517  15.775 -1.8065 -0.4174  1.4423
 1660SOL    HW216440   1.647   4.611  15.744  0.3645  0.9296 -0.2303
 1661SOL     OW16441   4.101   3.444   4.801 -0.2341  0.4842  0.0190
 1661SOL    HW116442   4.159   3.409   4.733  2.0043  0.3365  2.0119
 1661SOL    HW216443   4.128   3.535   4.810  0.7260  0.2672 -0.6410
 1662SOL     OW16444   1.642   1.682   5.958 -0.0523 -0.0411 -0.1999
 1662SOL    HW116445   1.578   1.611   5.966 -0.9525  0.7550 -0.3911
 1662SOL    HW216446   1.611   1.749   6.019 -0.5395 -0.8807  0.4775
 1663SOL     OW16447   3.882   2.590   5.228 -0.0733  0.7516 -0.1033
 1663SOL    HW116448   3.917   2.670   5.268 -0.4104  0.3889  0.8904
 1663SOL    HW216449   3.788   2.606   5.229  0.2035  2.4120 -0.3711
 1664SOL     OW16450   0.056   3.461   9.498  0.2623 -0.0868 -0.6611
 1664SOL    HW116451   0.127   3.418   9.451  2.9585 -0.3664  3.7768
 1664SOL    HW216452   0.079   3.436   9.587 -0.2257  2.0996  0.0881
 1665SOL     OW16453   3.440   1.285  14.430 -0.1124 -0.1828 -0.3576
 1665SOL    HW116454   3.507   1.249  14.488  0.8726 -1.6394 -2.4002
 1665SOL    HW216455   3.359   1.271  14.479 -0.2155 -1.4096 -0.8693
 1666SOL     OW16456   4.530   0.195  14.620  0.0731  0.1909 -0.0708
 1666SOL    HW116457   4.610   0.143  14.628  0.3871  0.8097  0.7710
 1666SOL    HW216458   4.508   0.192  14.527 -0.2323 -1.5537  0.0446
 1667SOL     OW16459   3.084   1.566   6.607  0.3395  0.0624 -0.1305
 1667SOL    HW116460   3.001   1.527   6.580 -0.3094  1.7091 -0.4989
 1667SOL    HW216461   3.039   1.634   6.657  1.3284  0.4790  0.1995
 1668SOL     OW16462   3.695   2.973   3.193 -0.1854 -0.2442 -0.5216
 1668SOL    HW116463   3.777   2.950   3.150 -0.1778 -1.7889  0.3257
 1668SOL    HW216464   3.660   3.037   3.132  0.1898  1.7867  1.3541
 1669SOL     OW16465   3.807   3.193   5.607 -0.0911 -0.0796 -0.2400
 1669SOL    HW116466   3.885   3.248   5.613 -0.4137  0.6663 -2.7793
 1669SOL    HW216467   3.849   3.117   5.567  2.0390 -0.1185  2.0646
 1670SOL     OW16468   4.593   0.209  10.009  0.2100 -0.0957  0.0362
 1670SOL    HW116469   4.648   0.266  10.062 -2.6813  0.5184  2.3795
 1670SOL    HW216470   4.520   0.207  10.071  0.5311  0.8984  0.4367
 1671SOL     OW16471   0.117   3.759   4.226 -0.4035  0.2298  0.3455
 1671SOL    HW116472   0.095   3.681   4.278 -0.6202  0.1132  0.0780
 1671SOL    HW216473   0.119   3.818   4.302 -1.8395 -0.2355  0.7491
 1672SOL     OW16474   4.484   3.669   8.435 -0.3254  0.3071  0.0185
 1672SOL    HW116475   4.563   3.704   8.476  1.2491 -2.7779 -0.3725
 1672SOL    HW216476   4.483   3.582   8.475 -0.8210 -0.6928 -2.1988
 1673SOL     OW16477   4.210   3.489  17.129  0.2116 -0.2334 -0.5378
 1673SOL    HW116478   4.165   3.413  17.169 -1.9473  0.2012 -2.1263
 1673SOL    HW216479   4.275   3.441  17.078 -0.6988 -0.4462 -1.4997
 1674SOL     OW16480   2.987   0.991  12.723  0.0663 -0.0645  0.6509
 1674SOL    HW116481   2.999   1.003  12.817 -1.6173  0.6251  0.7898
 1674SOL    HW216482   3.031   0.907  12.712 -2.4787 -1.3296 -0.0521
 1675SOL     OW16483   4.503   0.408  10.361 -0.0645 -0.1397 -0.2566
 1675SOL    HW116484   4.533   0.464  10.433  0.7025  1.5544 -1.9016
 1675SOL    HW216485   4.560   0.421  10.285 -1.3062  1.8524 -0.8400
 1676SOL     OW16486   1.843   2.723  13.890  0.7604  0.1811  0.9736
 1676SOL    HW116487   1.823   2.711  13.797 -2.7038 -1.2671  1.8993
 1676SOL    HW216488   1.901   2.799  13.891  0.5873  0.3570 -1.8903
 1677SOL     OW16489   2.229   2.127  12.707  0.1798  0.7241 -0.4242
 1677SOL    HW116490   2.146   2.150  12.748  0.2180 -0.2931  0.2304
 1677SOL    HW216491   2.298   2.168  12.758 -0.9715  0.5204  1.2727
 1678SOL     OW16492   4.528   0.383   8.097  0.0313 -0.4583 -0.2439
 1678SOL    HW116493   4.476   0.464   8.090  1.8562  0.5359 -2.4104
 1678SOL    HW216494   4.601   0.420   8.146 -1.4008  0.5342  1.1143
 1679SOL     OW16495   4.069   3.614   7.631 -0.7918  0.0148 -0.3783
 1679SOL    HW116496   4.028   3.530   7.609  0.7112 -0.2810 -2.1369
 1679SOL    HW216497   4.160   3.585   7.639 -2.0637 -3.8477  0.1065
 1680SOL     OW16498   1.950   0.344   7.615  0.7946  0.0715  0.3447
 1680SOL    HW116499   1.880   0.280   7.613  0.8335  0.0830 -1.6354
 1680SOL    HW216500   1.989   0.318   7.531 -0.0453  0.0236 -0.0264
 1681SOL     OW16501   3.327   1.168   2.483  0.0653  0.3854  0.1120
 1681SOL    HW116502   3.249   1.118   2.460 -0.9329  2.6177 -1.4059
 1681SOL    HW216503   3.288   1.239   2.536  0.1579 -0.4491  1.2923
 1682SOL     OW16504   2.600   1.813   9.555 -0.5221  0.5168  0.0405
 1682SOL    HW116505   2.666   1.823   9.624 -1.6959 -1.7880  1.5313
 1682SOL    HW216506   2.519   1.792   9.603  0.1770 -0.2293  0.9068
 1683SOL     OW16507   3.572   1.939   8.620 -0.2398 -0.2286  0.7610
 1683SOL    HW116508   3.584   1.898   8.534  1.2927  1.3607  0.2337
 1683SOL    HW216509   3.621   1.885   8.681  0.5303  0.9558  1.1797
 1684SOL     OW16510   0.227   2.693   5.167  0.1208  0.1000  0.0567
 1684SOL    HW116511   0.272   2.617   5.204 -1.3109  0.2791  2.1837
 1684SOL    HW216512   0.141   2.656   5.148 -0.0776  0.5503  0.0803
 1685SOL     OW16513   4.415   0.634   8.120 -0.2966 -0.2717  0.2143
 1685SOL    HW116514   4.482   0.699   8.099  0.3383 -0.1275  2.6323
 1685SOL    HW216515   4.335   0.684   8.103 -0.1039 -0.0316  0.0118
 1686SOL     OW16516   4.071   4.301  11.133 -0.1381 -0.0520 -0.0989
 1686SOL    HW116517   4.051   4.355  11.057  0.4300  1.4918  0.8603
 1686SOL    HW216518   4.036   4.215  11.109  1.7957 -0.3810 -1.7262
 1687SOL     OW16519   2.897   0.763   4.561 -0.0549  0.3697 -0.0020
 1687SOL    HW116520   2.868   0.779   4.650  0.7920 -1.0433  0.5370
 1687SOL    HW216521   2.843   0.688   4.536 -1.5810  1.7621 -0.8705
 1688SOL     OW16522   2.576   1.278   7.513 -0.1072 -0.1701 -0.4101
 1688SOL    HW116523   2.629   1.254   7.437  0.9482 -1.0264  0.6133
 1688SOL    HW216524   2.503   1.321   7.468  0.9470 -1.5407 -3.4373
 1689SOL     OW16525   0.572   0.574   7.604  0.2714  0.2466 -0.0060
 1689SOL    HW116526   0.584   0.541   7.693 -1.5917  0.6064  0.3775
 1689SOL    HW216527   0.605   0.499   7.555  1.2057  1.2472 -0.9024
 1690SOL     OW16528   3.673   3.315   3.771 -0.7097 -0.0852  0.1993
 1690SOL    HW116529   3.610   3.262   3.723 -1.7277  2.5042 -1.3323
 1690SOL    HW216530   3.621   3.340   3.847 -0.0905  1.2208  0.2106
 1691SOL     OW16531   1.924   3.844  13.611  0.1855  0.0042 -0.0092
 1691SOL    HW116532   1.964   3.769  13.654 -1.6381 -1.4881 -0.9278
 1691SOL    HW216533   1.947   3.821  13.521  0.4008  0.1108  0.0184
 1692SOL     OW16534   0.923   1.565   6.685  0.5906  0.4806  0.8124
 1692SOL    HW116535   0.867   1.539   6.611 -0.9150  0.2353  2.0241
 1692SOL    HW216536   0.942   1.480   6.724 -0.2590 -0.4346 -0.7392
 1693SOL     OW16537   3.081   0.864   0.328  0.7909 -1.1618 -0.1550
 1693SOL    HW116538   3.146   0.876   0.259  0.4928 -1.3346 -0.4641
 1693SOL    HW216539   3.144   0.855   0.399  1.5035 -2.1775 -0.9080
 1694SOL     OW16540   0.130   1.209   8.482 -0.3853 -0.1727  0.2011
 1694SOL    HW116541   0.050   1.208   8.533 -1.1862 -0.0897 -1.0575
 1694SOL    HW216542   0.108   1.148   8.412  1.0010 -2.3818  1.6955
 1695SOL     OW16543   0.410   0.989   8.470 -0.3597 -0.2629  0.0824
 1695SOL    HW116544   0.390   1.082   8.457  0.6440 -0.0445  0.1240
 1695SOL    HW216545   0.502   0.977   8.446  0.9346  0.4945  4.6288
 1696SOL     OW16546   1.234   2.208  13.513  0.0419 -0.2034  0.1225
 1696SOL    HW116547   1.241   2.237  13.604 -0.8676  1.0403 -0.2138
 1696SOL    HW216548   1.240   2.113  13.522  0.5161 -0.4787 -3.1521
 1697SOL     OW16549   3.644   0.861   6.910  0.1351  0.1007  0.2888
 1697SOL    HW116550   3.587   0.835   6.982  0.7738  0.8509  1.0749
 1697SOL    HW216551   3.670   0.944   6.949  1.2211  0.2049 -0.6640
 1698SOL     OW16552   1.595   0.379   4.301  0.5004 -0.1424 -0.7256
 1698SOL    HW116553   1.670   0.333   4.340  1.4521  1.6317 -0.4768
 1698SOL    HW216554   1.635   0.465   4.290  3.5693 -1.3595  0.9669
 1699SOL     OW16555   3.764   3.161   2.386  0.1584 -0.0463  0.3417
 1699SOL    HW116556   3.752   3.160   2.481  0.9837  0.8004  0.4564
 1699SOL    HW216557   3.805   3.247   2.392  0.2820 -0.2361  2.1774
 1700SOL     OW16558   2.670   2.532   0.287 -0.5541 -0.1080  0.2208
 1700SOL    HW116559   2.656   2.626   0.299  0.0481 -0.0889  0.8169
 1700SOL    HW216560   2.685   2.515   0.381  0.3008  1.4269  0.3565
 1701SOL     OW16561   4.379   2.475   1.670  0.0508  0.3661 -0.5462
 1701SOL    HW116562   4.463   2.496   1.710 -0.5272  1.5213  0.0703
 1701SOL    HW216563   4.346   2.423   1.743 -2.3058  1.7967 -0.6026
 1702SOL     OW16564   0.522   2.620   8.293  0.4356  0.3895  0.1796
 1702SOL    HW116565   0.529   2.711   8.262 -2.4266  0.6486  0.3802
 1702SOL    HW216566   0.580   2.631   8.368 -0.0592 -1.3727  0.8242
 1703SOL     OW16567   2.641   1.725  15.878 -0.1575 -0.1369 -0.5787
 1703SOL    HW116568   2.675   1.658  15.938  0.8002 -1.1710 -2.3063
 1703SOL    HW216569   2.580   1.768  15.938  1.2493  0.1611  0.6591
 1704SOL     OW16570   1.031   3.423   5.560 -0.1332  0.1346  0.0846
 1704SOL    HW116571   0.943   3.433   5.522 -0.1164  0.6061  0.1746
 1704SOL    HW216572   1.010   3.444   5.651  1.5109  0.0166  0.4801
 1705SOL     OW16573   0.037   0.783  15.786  0.4275 -0.0796 -0.5386
 1705SOL    HW116574   0.084   0.721  15.730  2.3273 -1.1034  2.1380
 1705SOL    HW216575   4.702   0.722  15.832  3.1574 -1.1619  1.5216
 1706SOL     OW16576   2.108   1.630  15.594  0.1433 -0.5726  1.0615
 1706SOL    HW116577   2.090   1.700  15.656 -2.8732 -0.8885  0.5256
 1706SOL    HW216578   2.132   1.691  15.525 -2.3040 -2.5437 -1.5348
 1707SOL     OW16579   0.943   3.673   6.971  0.6855 -0.1675  0.0914
 1707SOL    HW116580   0.865   3.618   6.963  0.2272  0.5221 -0.2152
 1707SOL    HW216581   0.898   3.755   6.993  0.7086  0.4036 -2.0113
 1708SOL     OW16582   0.699   0.184   6.820  1.4184 -0.2656  0.0518
 1708SOL    HW116583   0.733   0.267   6.786 -0.6900 -0.1289 -1.7700
 1708SOL    HW216584   0.665   0.138   6.743  0.6059  0.1052  0.1864
 1709SOL     OW16585   0.533   0.817  12.049  0.0855  0.3112  0.0928
 1709SOL    HW116586   0.526   0.892  12.107  2.3298 -1.2317  2.3240
 1709SOL    HW216587   0.523   0.745  12.111 -3.4430  2.3888  1.9169
 1710SOL     OW16588   0.423   3.737  12.535 -0.0174 -0.2027  0.0862
 1710SOL    HW116589   0.388   3.734  12.624 -1.2185  0.5742 -0.3575
 1710SOL    HW216590   0.381   3.656  12.506 -0.5423  0.7842 -1.9129
 1711SOL     OW16591   1.835   3.993  16.158 -0.5317  0.0424 -0.3731
 1711SOL    HW116592   1.786   3.920  16.119  0.7982 -0.1537 -1.6713
 1711SOL    HW216593   1.900   4.008  16.090  0.5788 -0.0829  0.6758
 1712SOL     OW16594   3.780   4.402   2.121  0.2909 -1.4336 -0.0625
 1712SOL    HW116595   3.737   4.452   2.191 -0.4914 -0.2511 -1.3707
 1712SOL    HW216596   3.870   4.394   2.152 -0.3050 -0.9615  1.7771
 1713SOL     OW16597   2.575   0.848   4.432 -0.1585  0.2344  0.1550
 1713SOL    HW116598   2.623   0.926   4.407  0.3901  0.3099  1.4116
 1713SOL    HW216599   2.548   0.879   4.518 -1.6168  1.1145 -0.6356
 1714SOL     OW16600   1.965   3.062   4.141 -0.1164  0.3888  0.3210
 1714SOL    HW116601   1.897   3.129   4.153 -0.8465 -0.5936  1.5808
 1714SOL    HW216602   1.919   3.000   4.085 -0.6638  1.2076 -0.1446
 1715SOL     OW16603   2.348   3.712   6.630  0.0049 -0.6983 -0.1505
 1715SOL    HW116604   2.276   3.648   6.636 -1.8704  1.3080 -1.6801
 1715SOL    HW216605   2.305   3.796   6.616  0.1382 -1.0688 -2.7513
 1716SOL     OW16606   0.422   2.419   0.341  0.3438 -0.7366  0.4306
 1716SOL    HW116607   0.493   2.356   0.355  0.8447 -0.3387 -0.3085
 1716SOL    HW216608   0.429   2.435   0.247  0.9463  1.3201  0.8181
 1717SOL     OW16609   3.962   4.600   8.244 -0.1227  0.2585  0.4091
 1717SOL    HW116610   3.903   4.592   8.319 -2.0189 -1.7846 -1.3065
 1717SOL    HW216611   4.043   4.571   8.286  0.5680 -0.6941 -1.5485
 1718SOL     OW16612   3.364   1.993   2.982  0.1950  0.0240 -0.8166
 1718SOL    HW116613   3.321   1.932   2.922 -2.4834  1.3305 -0.2645
 1718SOL    HW216614   3.368   2.068   2.922  0.6519  1.4941  1.0484
 1719SOL     OW16615   1.817   0.975   7.606 -0.0937  0.0716  0.0854
 1719SOL    HW116616   1.849   1.051   7.557  0.8102  0.9339  2.0504
 1719SOL    HW216617   1.814   0.900   7.546  1.7243 -1.7175  2.2070
 1720SOL     OW16618   2.045   2.414   2.446  0.2239 -0.0823  0.0244
 1720SOL    HW116619   2.107   2.348   2.477 -0.5726 -1.3343 -1.0310
 1720SOL    HW216620   2.018   2.371   2.365  0.9712  0.8522 -0.7187
 1721SOL     OW16621   3.574   1.352   8.144  0.4525 -0.1722 -0.1440
 1721SOL    HW116622   3.621   1.430   8.115 -1.5994  1.3014  0.4997
 1721SOL    HW216623   3.490   1.391   8.170  1.1376  1.2716 -0.1291
 1722SOL     OW16624   4.504   0.861  15.174 -0.2986 -0.1806 -0.4875
 1722SOL    HW116625   4.447   0.906  15.237  0.6775  0.4937 -0.0861
 1722SOL    HW216626   4.593   0.885  15.200  0.0353 -0.5334 -1.3058
 1723SOL     OW16627   1.399   2.512   3.057 -0.3812 -0.5193 -0.1683
 1723SOL    HW116628   1.419   2.567   2.982  0.6792 -1.5970 -0.6766
 1723SOL    HW216629   1.322   2.462   3.031 -1.9319  0.6398  2.1363
 1724SOL     OW16630   2.165   2.345  14.732  0.1301 -0.0002  0.1981
 1724SOL    HW116631   2.182   2.256  14.699  1.4535  0.1803  0.3695
 1724SOL    HW216632   2.070   2.355  14.727  0.0014 -0.9866  0.6616
 1725SOL     OW16633   0.026   3.056  17.408  0.4731 -0.0590  0.2877
 1725SOL    HW116634   4.703   3.035  17.489 -1.6898  0.1634 -0.8963
 1725SOL    HW216635   0.024   2.977  17.354  1.6602  0.6949 -0.8631
 1726SOL     OW16636   3.273   2.634   3.154  0.4717  0.3624  0.7084
 1726SOL    HW116637   3.329   2.562   3.124 -0.6254  0.9289 -2.7154
 1726SOL    HW216638   3.191   2.590   3.175  0.3566  0.6788  0.9129
 1727SOL     OW16639   3.191   2.148   5.743 -0.8851  0.2107  0.1002
 1727SOL    HW116640   3.108   2.120   5.780 -0.8603  3.3494  2.5415
 1727SOL    HW216641   3.236   2.076   5.699 -0.1618 -0.4933  2.0096
 1728SOL     OW16642   3.585   3.315   8.760  0.1377  0.1056  1.0259
 1728SOL    HW116643   3.518   3.274   8.813 -0.4146 -1.0778 -0.5880
 1728SOL    HW216644   3.652   3.349   8.819  1.6202  0.4511 -0.8425
 1729SOL     OW16645   2.650   0.903  13.910  0.2959  0.3415 -0.6368
 1729SOL    HW116646   2.613   0.952  13.984 -1.7062  0.5335 -1.7698
 1729SOL    HW216647   2.684   0.825  13.955 -0.6584  1.4164  1.9556
 1730SOL     OW16648   3.533   0.406   5.165 -0.6711 -0.5541 -0.3922
 1730SOL    HW116649   3.440   0.415   5.146 -0.1950  0.9011 -2.0189
 1730SOL    HW216650   3.541   0.471   5.235 -0.8346 -1.8794  0.8506
 1731SOL     OW16651   2.913   2.731   2.445  0.2744  0.4759  0.2464
 1731SOL    HW116652   2.969   2.756   2.373 -0.2091  0.5418 -0.1085
 1731SOL    HW216653   2.836   2.696   2.401  1.9656 -1.3814 -1.1739
 1732SOL     OW16654   4.401   2.652   5.730  0.3917  0.4327 -0.2190
 1732SOL    HW116655   4.333   2.687   5.672  2.0309 -0.9684 -2.9682
 1732SOL    HW216656   4.459   2.723   5.701 -0.3845  0.9687 -0.4527
 1733SOL     OW16657   4.329   2.930   5.155  0.0425  0.1882 -0.0374
 1733SOL    HW116658   4.337   3.005   5.096  0.4505  0.7060  0.6731
 1733SOL    HW216659   4.251   2.963   5.201 -0.6146 -1.7417  0.2257
 1734SOL     OW16660   2.994   2.315   3.231  0.4448  0.6162 -0.1315
 1734SOL    HW116661   3.082   2.348   3.248  1.0138  0.0251 -1.9666
 1734SOL    HW216662   2.955   2.384   3.177  1.9281  0.0212 -1.9218
 1735SOL     OW16663   3.071   4.078   6.612 -0.3783  0.1294 -0.7989
 1735SOL    HW116664   3.062   4.095   6.706  0.3111 -0.4470 -0.6349
 1735SOL    HW216665   3.163   4.055   6.608 -0.1949  0.8675 -0.8110
 1736SOL     OW16666   2.670   2.351  13.508 -0.2065  0.5907 -0.0556
 1736SOL    HW116667   2.616   2.346  13.587  0.9219  0.5005  0.7041
 1736SOL    HW216668   2.753   2.374  13.549  1.2549  0.2097 -2.7780
 1737SOL     OW16669   3.706   0.455   2.258 -0.1734  0.0498 -0.3376
 1737SOL    HW116670   3.658   0.425   2.180  2.7027 -2.4409 -1.1370
 1737SOL    HW216671   3.634   0.428   2.315 -0.3696 -0.6075 -0.9030
 1738SOL     OW16672   0.394   4.080   5.709  0.0639 -0.0631  0.6872
 1738SOL    HW116673   0.370   4.027   5.632 -3.4574  1.3484  0.8342
 1738SOL    HW216674   0.483   4.049   5.729  0.3037  0.3086  0.2028
 1739SOL     OW16675   2.269   0.253   8.938 -0.3900  0.1126 -0.4631
 1739SOL    HW116676   2.190   0.218   8.980 -1.5534  1.3029 -1.6600
 1739SOL    HW216677   2.230   0.271   8.853 -1.2745 -1.8314 -0.4818
 1740SOL     OW16678   0.919   0.414   8.381 -0.5224 -0.0990 -0.3751
 1740SOL    HW116679   1.009   0.429   8.413 -1.0003  2.5122 -0.3093
 1740SOL    HW216680   0.928   0.319   8.372  0.5420  0.0225 -0.6258
 1741SOL     OW16681   2.412   2.753   2.887 -0.6588 -0.0515  0.1511
 1741SOL    HW116682   2.440   2.803   2.964 -0.0487 -0.2419  0.0526
 1741SOL    HW216683   2.369   2.826   2.842  1.1150  2.2670  2.2076
 1742SOL     OW16684   0.496   3.283   8.292  0.2572 -0.2241 -0.0518
 1742SOL    HW116685   0.556   3.283   8.366  1.1090  2.6989 -0.7411
 1742SOL    HW216686   0.559   3.319   8.230 -1.1812 -0.2852 -1.5566
 1743SOL     OW16687   2.865   2.339  11.162  0.1771 -0.5540  0.1365
 1743SOL    HW116688   2.860   2.415  11.221 -2.7829  1.4292 -2.6528
 1743SOL    HW216689   2.916   2.374  11.089 -0.4215  1.5312  0.7056
 1744SOL     OW16690   2.811   0.368   2.809  0.6217  0.4458  0.2344
 1744SOL    HW116691   2.794   0.283   2.768 -1.3022  1.1054 -0.3421
 1744SOL    HW216692   2.897   0.390   2.774  0.2352  1.4795 -0.0859
 1745SOL     OW16693   2.692   1.136  16.691  0.5823 -0.3788 -0.7435
 1745SOL    HW116694   2.766   1.164  16.745  0.1328 -2.2793  0.8602
 1745SOL    HW216695   2.713   1.047  16.665  3.1193  0.5540 -1.8707
 1746SOL     OW16696   0.683   4.375   1.979  0.0663  0.7437  0.0606
 1746SOL    HW116697   0.744   4.395   2.051 -0.4517  0.1961  0.6523
 1746SOL    HW216698   0.719   4.290   1.956 -2.3025 -0.7887  2.0009
 1747SOL     OW16699   2.021   2.088  17.580 -0.4753 -0.3152 -0.0638
 1747SOL    HW116700   1.944   2.061  17.530 -0.3474  0.5953 -0.7528
 1747SOL    HW216701   2.030   2.176  17.544 -2.4419 -0.2268 -0.3578
 1748SOL     OW16702   2.533   2.386  13.734  0.2018  0.1573  0.5251
 1748SOL    HW116703   2.586   2.417  13.807  2.3589 -1.3507 -0.4027
 1748SOL    HW216704   2.474   2.459  13.713 -0.5684 -0.7951 -0.6319
 1749SOL     OW16705   0.640   4.192   6.540  0.1700  0.5834 -0.2121
 1749SOL    HW116706   0.711   4.199   6.477  0.2854 -0.0246 -0.1456
 1749SOL    HW216707   0.639   4.099   6.564  0.6153  1.1364  1.8872
 1750SOL     OW16708   0.430   1.897   7.709 -0.5349 -0.2158 -0.0333
 1750SOL    HW116709   0.339   1.925   7.706  0.7833  3.7863 -2.6676
 1750SOL    HW216710   0.475   1.981   7.716 -2.9865  1.0864  0.2901
 1751SOL     OW16711   2.224   0.513  11.120  0.1164  1.0984 -0.0589
 1751SOL    HW116712   2.254   0.496  11.031 -1.5631 -1.7411 -0.0730
 1751SOL    HW216713   2.305   0.528  11.167  0.0364 -1.5211  0.8972
 1752SOL     OW16714   3.395   0.622   0.120  0.3526  0.6656 -0.1455
 1752SOL    HW116715   3.479   0.642   0.161 -0.2948  1.3619  0.8370
 1752SOL    HW216716   3.351   0.703   0.145  0.8310  0.4227  1.5095
 1753SOL     OW16717   2.989   0.883   8.830 -0.5678  0.2774  0.1567
 1753SOL    HW116718   3.002   0.856   8.739 -2.4581 -0.8818  0.2348
 1753SOL    HW216719   3.058   0.948   8.846 -0.5061  0.3482 -0.3746
 1754SOL     OW16720   3.869   1.448  15.742 -0.1361  0.0576 -0.4737
 1754SOL    HW116721   3.962   1.468  15.729  0.1757 -1.5258 -0.6510
 1754SOL    HW216722   3.868   1.366  15.792  0.5531  0.9038  0.9372
 1755SOL     OW16723   4.301   0.573   5.308 -0.6538  0.2321  0.3775
 1755SOL    HW116724   4.353   0.561   5.388 -1.6357 -1.3894  0.7747
 1755SOL    HW216725   4.272   0.483   5.294 -1.8779  0.5852  0.6701
 1756SOL     OW16726   1.758   1.135   9.980 -0.4116  0.5520 -0.3005
 1756SOL    HW116727   1.743   1.186  10.060  0.3878 -1.4831  1.1624
 1756SOL    HW216728   1.692   1.180   9.928 -0.2718  0.9616 -0.1243
 1757SOL     OW16729   4.210   4.610   8.741  0.0402 -0.5680 -0.4791
 1757SOL    HW116730   4.291   4.575   8.703  0.4795 -0.1947  0.1158
 1757SOL    HW216731   4.169   4.535   8.784 -0.9539 -0.0902 -0.5927
 1758SOL     OW16732   3.564   1.374   3.859  0.1261 -0.3287  0.0274
 1758SOL    HW116733   3.598   1.461   3.838  0.2449 -0.6072 -0.9393
 1758SOL    HW216734   3.646   1.324   3.850 -0.0970 -0.8704  0.9545
 1759SOL     OW16735   3.857   2.146   3.904 -0.0839  0.1805 -0.8484
 1759SOL    HW116736   3.782   2.192   3.942  0.7462  1.7972 -1.1835
 1759SOL    HW216737   3.921   2.177   3.969 -0.1461  1.1092 -1.2413
 1760SOL     OW16738   0.796   4.531   1.733  0.4376  0.2150  0.1210
 1760SOL    HW116739   0.777   4.622   1.758 -3.5697 -0.3650 -0.7129
 1760SOL    HW216740   0.767   4.483   1.810  0.1449 -0.4603 -0.4122
 1761SOL     OW16741   1.350   2.988   8.735  0.1946  0.0674  0.1212
 1761SOL    HW116742   1.331   3.078   8.764 -1.2845 -0.5693  1.0793
 1761SOL    HW216743   1.369   2.941   8.816 -2.1337 -0.8279  0.1224
 1762SOL     OW16744   0.293   4.427   6.831  0.1954  0.0371  0.4023
 1762SOL    HW116745   0.354   4.409   6.759  1.2984 -0.8031  1.5494
 1762SOL    HW216746   0.218   4.376   6.801  0.0113  0.5393  0.0127
 1763SOL     OW16747   2.642   4.525   8.717 -0.3621 -0.0535  0.0609
 1763SOL    HW116748   2.630   4.460   8.648  0.4362  1.2382 -1.2667
 1763SOL    HW216749   2.570   4.585   8.700  0.4941  1.5558  2.0578
 1764SOL     OW16750   0.294   4.050  15.687  0.2471 -0.5689 -0.2163
 1764SOL    HW116751   0.385   4.024  15.694  0.4279 -0.0312 -0.6169
 1764SOL    HW216752   0.247   3.967  15.693  1.2932 -1.3328 -2.8748
 1765SOL     OW16753   3.525   1.301  13.880  0.3254 -0.0843  0.6144
 1765SOL    HW116754   3.469   1.328  13.807  0.6460  0.0594  0.4190
 1765SOL    HW216755   3.487   1.336  13.961 -0.5415 -3.0458  1.4758
 1766SOL     OW16756   4.317   2.883   1.517 -0.1609  0.2092 -0.1741
 1766SOL    HW116757   4.266   2.963   1.531 -1.0525 -0.3337 -0.3070
 1766SOL    HW216758   4.380   2.916   1.453 -0.9173  1.1627 -0.4215
 1767SOL     OW16759   1.458   2.367   8.120  0.2136 -0.3466  0.1789
 1767SOL    HW116760   1.484   2.286   8.075 -0.5397  0.4740 -1.7165
 1767SOL    HW216761   1.401   2.335   8.189 -0.3571  0.0368 -0.1168
 1768SOL     OW16762   2.448   2.935   3.848 -0.0248  0.2707  0.2126
 1768SOL    HW116763   2.391   2.934   3.925 -1.2259 -0.2579 -0.6857
 1768SOL    HW216764   2.486   2.847   3.852  0.4028  0.4625  0.3821
 1769SOL     OW16765   1.244   1.315  14.560  0.1107 -0.5756  0.6268
 1769SOL    HW116766   1.165   1.310  14.613  0.3145 -0.9390  0.8941
 1769SOL    HW216767   1.213   1.286  14.474  0.1169 -0.8483  0.7154
 1770SOL     OW16768   2.403   4.283   5.703  0.3458 -0.1062  0.0792
 1770SOL    HW116769   2.421   4.359   5.759  1.8683 -0.6230  0.2971
 1770SOL    HW216770   2.469   4.289   5.634 -0.4126  1.6350 -0.4848
 1771SOL     OW16771   2.582   2.331   4.805 -0.2027  0.3534  0.5886
 1771SOL    HW116772   2.492   2.359   4.820  0.0192  1.9011 -0.9785
 1771SOL    HW216773   2.577   2.292   4.718  0.1157  1.5979  0.0100
 1772SOL     OW16774   0.175   3.310   4.808 -0.1581  0.6000 -0.4488
 1772SOL    HW116775   0.188   3.401   4.833  0.5447 -0.1961  2.0958
 1772SOL    HW216776   0.141   3.320   4.720  2.2402 -2.1560 -1.6951
 1773SOL     OW16777   1.170   2.226   7.983 -0.2441 -0.0880  0.1479
 1773SOL    HW116778   1.079   2.247   7.962  0.1378  1.0927 -0.3594
 1773SOL    HW216779   1.177   2.246   8.076  0.7171 -0.6047  0.1834
 1774SOL     OW16780   1.712   2.670   6.443  0.4699 -0.8037 -0.2114
 1774SOL    HW116781   1.696   2.732   6.514 -1.6028 -0.5731 -0.8977
 1774SOL    HW216782   1.778   2.605   6.471  2.6567  0.7842 -1.6711
 1775SOL     OW16783   1.311   1.439   2.470  0.1295 -0.2790  0.3481
 1775SOL    HW116784   1.382   1.472   2.416 -0.2431  0.1077  0.0962
 1775SOL    HW216785   1.247   1.422   2.400 -0.7611  3.5142  0.2793
 1776SOL     OW16786   2.711   1.977   3.776 -0.1175 -0.4267  0.4392
 1776SOL    HW116787   2.729   2.045   3.842 -1.2010 -1.4835  1.8093
 1776SOL    HW216788   2.761   1.899   3.802  0.4190 -0.4265 -0.5904
 1777SOL     OW16789   0.378   1.082   3.111  0.6271 -0.2609 -0.4765
 1777SOL    HW116790   0.421   1.167   3.121 -1.4377  0.6242  0.8643
 1777SOL    HW216791   0.393   1.084   3.017  0.8046 -0.1427 -0.4446
 1778SOL     OW16792   3.345   1.380  10.465  0.0326  0.2957 -0.6689
 1778SOL    HW116793   3.310   1.303  10.510  0.3952  1.6352  1.9105
 1778SOL    HW216794   3.329   1.361  10.373 -1.1252 -0.0174 -0.3978
 1779SOL     OW16795   1.380   2.096   0.200 -0.0306 -0.1243  0.4476
 1779SOL    HW116796   1.469   2.103   0.167  0.2344 -3.2817  0.4822
 1779SOL    HW216797   1.382   2.009   0.240  1.2948 -0.7734 -1.0376
 1780SOL     OW16798   3.245   3.094   5.278  0.1071 -0.3425  0.2383
 1780SOL    HW116799   3.303   3.028   5.316  3.0812  1.1756 -1.6653
 1780SOL    HW216800   3.280   3.091   5.189 -2.7890 -2.5293 -0.8230
 1781SOL     OW16801   2.452   4.059   5.421 -0.4764 -0.2857 -0.0362
 1781SOL    HW116802   2.374   4.110   5.397  0.2723  1.1608  0.5980
 1781SOL    HW216803   2.523   4.120   5.401  1.4316 -2.9809 -1.5260
 1782SOL     OW16804   3.617   1.803   2.037  0.0437 -0.1233  0.6129
 1782SOL    HW116805   3.566   1.729   2.070  1.5622 -1.8584 -0.9201
 1782SOL    HW216806   3.700   1.756   2.028 -0.2437 -0.9143  1.9615
 1783SOL     OW16807   2.004   0.448   2.340  0.2857  0.0513  0.0998
 1783SOL    HW116808   2.059   0.438   2.262 -1.2731 -0.8091 -0.8816
 1783SOL    HW216809   1.953   0.527   2.320 -1.3093 -0.4440  2.2298
 1784SOL     OW16810   1.992   0.695   9.103 -0.5643  0.6890 -0.4056
 1784SOL    HW116811   1.958   0.626   9.045  1.9895  0.3661 -1.5196
 1784SOL    HW216812   1.935   0.677   9.178  1.0934  0.1754  0.7281
 1785SOL     OW16813   2.628   1.485   3.451  0.0221 -0.4202  0.5465
 1785SOL    HW116814   2.630   1.501   3.356  1.2818 -2.1772  0.2669
 1785SOL    HW216815   2.635   1.574   3.485  0.5688 -1.2140  2.4860
 1786SOL     OW16816   1.481   1.056   4.919 -0.6704 -0.1830  0.5598
 1786SOL    HW116817   1.464   1.128   4.859  0.5828 -0.0301  0.4011
 1786SOL    HW216818   1.492   0.980   4.862 -1.3549 -1.0344  1.5477
 1787SOL     OW16819   2.344   3.003   6.415  0.0605 -0.1209 -0.4561
 1787SOL    HW116820   2.313   3.093   6.424  0.5641  0.2472 -2.3695
 1787SOL    HW216821   2.283   2.979   6.345  0.1596 -2.8988  0.4412
 1788SOL     OW16822   3.610   1.658   3.714  0.3363  0.1974  1.0467
 1788SOL    HW116823   3.582   1.639   3.625  2.7964 -0.9723  0.5100
 1788SOL    HW216824   3.538   1.706   3.754 -0.5167 -0.0867 -0.1437
 1789SOL     OW16825   3.443   0.178   2.459  0.1141  0.4474 -0.0917
 1789SOL    HW116826   3.436   0.269   2.431 -2.1436 -0.5789 -2.8802
 1789SOL    HW216827   3.390   0.137   2.390  0.6902 -1.5704  0.6798
 1790SOL     OW16828   1.094   0.757   5.560 -0.3068 -0.1776  0.3930
 1790SOL    HW116829   1.173   0.753   5.614 -1.2185  0.2903  1.7687
 1790SOL    HW216830   1.065   0.847   5.572  1.1523  0.0309  2.3509
 1791SOL     OW16831   1.898   3.575   4.307  0.4584 -0.2410 -0.1026
 1791SOL    HW116832   1.877   3.662   4.341  1.5060 -0.0083 -0.0237
 1791SOL    HW216833   1.979   3.587   4.256 -0.0125  0.2027 -0.7382
 1792SOL     OW16834   3.205   4.621   9.128 -0.6112  0.1985  0.4108
 1792SOL    HW116835   3.177   4.709   9.154 -0.1976 -0.4733  3.1752
 1792SOL    HW216836   3.289   4.648   9.092 -1.1585  0.7592 -0.4562
 1793SOL     OW16837   0.201   3.965   4.425  0.1118  0.3687 -0.2081
 1793SOL    HW116838   0.208   3.890   4.486  2.5741 -1.0527 -2.2292
 1793SOL    HW216839   0.141   4.027   4.465 -1.4791 -2.0754  1.2396
 1794SOL     OW16840   3.717   2.162  11.603 -0.4791  0.0895 -0.2790
 1794SOL    HW116841   3.647   2.124  11.550 -0.5182  0.0778 -0.2187
 1794SOL    HW216842   3.786   2.096  11.591  2.3143  2.8749  0.4877
 1795SOL     OW16843   2.452   4.440   5.338  0.1141 -0.1323 -0.4024
 1795SOL    HW116844   2.369   4.392   5.346  1.2692 -2.2753 -1.0979
 1795SOL    HW216845   2.481   4.400   5.256  1.8471  1.3282 -0.4987
 1796SOL     OW16846   4.113   0.690   8.597  0.7119 -0.3114  0.0946
 1796SOL    HW116847   4.092   0.625   8.664  0.0121 -0.4742 -0.2868
 1796SOL    HW216848   4.074   0.638   8.527  0.1580  0.0836  0.1122
 1797SOL     OW16849   0.324   2.918   6.198  0.0463 -0.1725  0.5346
 1797SOL    HW116850   0.301   2.931   6.106  2.4670  0.5951  0.0275
 1797SOL    HW216851   0.290   2.830   6.216 -0.0180 -0.0320  1.0884
 1798SOL     OW16852   4.488   2.731   3.016  0.5005 -0.2693  0.4965
 1798SOL    HW116853   4.434   2.674   3.070 -0.2036 -0.5880 -0.5491
 1798SOL    HW216854   4.556   2.665   3.005  0.0385 -0.6308 -0.1614
 1799SOL     OW16855   4.287   1.086   3.462  0.0435  0.2347  0.3109
 1799SOL    HW116856   4.304   1.157   3.400 -1.1186  0.5445  0.3375
 1799SOL    HW216857   4.381   1.071   3.474  0.4738  1.1561 -1.8385
 1800SOL     OW16858   0.861   0.956   5.095 -0.8256  0.1100  0.1677
 1800SOL    HW116859   0.790   0.919   5.147 -0.7864 -0.8579 -0.4849
 1800SOL    HW216860   0.810   1.007   5.032  1.1771  1.0416 -0.7136
 1801SOL     OW16861   4.304   0.027  12.656  0.3830  0.2264 -0.1586
 1801SOL    HW116862   4.244   4.678  12.673 -1.4988  1.3315 -2.1074
 1801SOL    HW216863   4.349   0.018  12.740 -2.0123  4.2332  1.5763
 1802SOL     OW16864   2.579   1.109   2.682  0.2035 -0.1612  0.6588
 1802SOL    HW116865   2.608   1.070   2.764 -2.8996 -1.4012  1.1563
 1802SOL    HW216866   2.499   1.156   2.707 -0.4037 -0.5243 -0.5627
 1803SOL     OW16867   1.342   2.186   8.547  0.6396 -0.5077 -0.8795
 1803SOL    HW116868   1.414   2.166   8.607 -1.4515 -1.4815  1.2936
 1803SOL    HW216869   1.264   2.163   8.598  0.9845 -1.4796 -0.7924
 1804SOL     OW16870   1.577   4.097  13.848  0.7408 -0.0449 -0.3987
 1804SOL    HW116871   1.503   4.142  13.888  1.0602 -1.5538  1.9173
 1804SOL    HW216872   1.618   4.061  13.927 -1.5810 -2.7571 -0.4434
 1805SOL     OW16873   2.624   1.869  13.777 -0.2784 -0.0927  0.2082
 1805SOL    HW116874   2.621   1.944  13.836  3.0075 -1.7732  2.5210
 1805SOL    HW216875   2.707   1.830  13.805 -1.1125 -1.8007  0.2901
 1806SOL     OW16876   2.233   1.237   8.703  0.4049 -0.4621 -0.7668
 1806SOL    HW116877   2.284   1.283   8.769  2.1045 -2.2637 -0.8274
 1806SOL    HW216878   2.160   1.210   8.758  1.3236 -0.5324  0.4055
 1807SOL     OW16879   0.177   2.969   1.912 -0.2319 -0.0875 -0.0266
 1807SOL    HW116880   0.239   2.963   1.838  0.6678 -0.2219  0.7369
 1807SOL    HW216881   0.091   2.940   1.882 -0.2634  0.1613 -0.1726
 1808SOL     OW16882   2.330   1.288   5.447 -0.0489  0.0525 -0.0197
 1808SOL    HW116883   2.281   1.205   5.445 -1.4105  0.8659 -0.1026
 1808SOL    HW216884   2.390   1.284   5.521 -0.5815 -0.4277  0.3953
 1809SOL     OW16885   2.970   3.857  17.524  0.1107 -0.3860  0.2115
 1809SOL    HW116886   2.970   3.858  17.620  0.8071  1.5624  0.1883
 1809SOL    HW216887   3.008   3.944  17.511  0.9114 -0.6849  0.6043
 1810SOL     OW16888   2.731   4.491   1.873  0.4459 -0.5996 -0.2044
 1810SOL    HW116889   2.799   4.424   1.870  0.9258 -0.1977  2.0015
 1810SOL    HW216890   2.654   4.458   1.920  0.4511  0.9318  0.8463
 1811SOL     OW16891   2.976   2.851  13.144 -0.5639  0.0199 -0.1843
 1811SOL    HW116892   2.905   2.915  13.147 -1.7772 -1.2921 -0.4631
 1811SOL    HW216893   2.965   2.825  13.235  0.8394 -0.3576 -0.1316
 1812SOL     OW16894   4.221   1.455   6.615 -0.0142 -0.2980 -0.3956
 1812SOL    HW116895   4.156   1.386   6.623 -0.2909 -0.0499 -0.5082
 1812SOL    HW216896   4.260   1.425   6.533  0.3117 -2.9778  0.7376
 1813SOL     OW16897   0.102   3.259   2.053  0.3523 -0.1363 -0.5089
 1813SOL    HW116898   0.108   3.344   2.097 -1.1405 -1.0577  1.4352
 1813SOL    HW216899   0.196   3.246   2.040  0.5797  1.1718 -0.1919
 1814SOL     OW16900   1.365   0.013   3.737  0.6322  0.1093 -0.1082
 1814SOL    HW116901   1.401   4.648   3.746 -1.9243 -1.0434 -1.4193
 1814SOL    HW216902   1.292   0.011   3.799  0.0377 -0.4839 -0.8286
 1815SOL     OW16903   0.816   0.319  17.472  0.6284 -0.3814 -0.1668
 1815SOL    HW116904   0.826   0.376  17.396 -2.1476  1.7733  1.0722
 1815SOL    HW216905   0.818   0.238  17.422 -0.7354 -1.5605  1.6917
 1816SOL     OW16906   3.381   4.291   6.084  0.3156  1.0261  0.0912
 1816SOL    HW116907   3.431   4.316   6.161 -0.7731  0.0714  1.1127
 1816SOL    HW216908   3.437   4.230   6.037  0.2807  0.7329  0.4285
 1817SOL     OW16909   3.109   4.310   4.541 -0.7467 -0.5412 -0.2146
 1817SOL    HW116910   3.200   4.325   4.517  0.4142 -5.5235  1.1469
 1817SOL    HW216911   3.070   4.315   4.454 -0.3248  1.5726 -0.2735
 1818SOL     OW16912   0.443   4.086   2.257  0.0214  0.3331  0.3132
 1818SOL    HW116913   0.355   4.064   2.225  0.6554 -1.2193 -0.3546
 1818SOL    HW216914   0.450   4.178   2.232 -0.7441 -0.4439 -2.8638
 1819SOL     OW16915   2.365   3.519   4.349  0.8557 -0.1513  0.4218
 1819SOL    HW116916   2.423   3.443   4.354  2.7017  1.2232 -0.1698
 1819SOL    HW216917   2.416   3.597   4.368  1.3799 -0.2013 -0.7984
 1820SOL     OW16918   2.112   1.289  13.347  0.0484  0.1036 -0.4809
 1820SOL    HW116919   2.022   1.319  13.360  0.8273  1.9366  0.6626
 1820SOL    HW216920   2.097   1.195  13.342 -1.6141  0.3055  0.7835
 1821SOL     OW16921   4.207   1.708   4.819  0.0956 -0.0265 -0.6124
 1821SOL    HW116922   4.234   1.739   4.732  3.0590 -2.8890 -0.7139
 1821SOL    HW216923   4.229   1.615   4.812  0.1335  0.1407 -2.8899
 1822SOL     OW16924   3.765   3.165   0.058 -0.2701  0.8923 -0.5283
 1822SOL    HW116925   3.770   3.071   0.043  2.0759  0.3384  3.7883
 1822SOL    HW216926   3.856   3.190   0.072 -0.3960  0.8948  0.2791
 1823SOL     OW16927   0.079   4.719   4.688 -0.2435 -0.1714  0.4675
 1823SOL    HW116928   0.002   4.688   4.735 -0.2697 -1.4004 -0.3734
 1823SOL    HW216929   0.082   4.661   4.612  0.8865  1.0306 -0.4266
 1824SOL     OW16930   0.806   4.002   9.551 -0.1090  0.2627  0.9037
 1824SOL    HW116931   0.809   3.926   9.608 -1.1011 -0.8859 -0.5884
 1824SOL    HW216932   0.745   3.971   9.485  0.4436 -1.0238  1.0062
 1825SOL     OW16933   4.411   0.033   6.005 -0.1044  0.0652 -0.3271
 1825SOL    HW116934   4.493   0.082   6.013  0.0006 -0.8331  4.3176
 1825SOL    HW216935   4.349   0.103   6.025 -1.4792 -0.8727 -1.3222
 1826SOL     OW16936   1.603   3.153   5.898 -0.6039  0.0321  0.1092
 1826SOL    HW116937   1.623   3.082   5.837 -2.3973 -1.0480  0.7621
 1826SOL    HW216938   1.530   3.111   5.945  1.6673 -1.6259  2.1844
 1827SOL     OW16939   2.622   4.094  10.779  0.6292 -0.2106  0.4000
 1827SOL    HW116940   2.696   4.065  10.831  0.9899 -2.2307 -1.2366
 1827SOL    HW216941   2.607   4.184  10.807  2.4484  0.2711 -0.1770
 1828SOL     OW16942   2.754   0.348  13.989  0.2836  0.1307 -0.8014
 1828SOL    HW116943   2.829   0.295  14.017 -0.2070  0.0650  0.3567
 1828SOL    HW216944   2.692   0.277  13.974  1.1092 -0.4286 -1.6120
 1829SOL     OW16945   1.586   1.386   4.998 -0.7167  0.2614  0.4232
 1829SOL    HW116946   1.557   1.380   4.907  0.8029 -3.4283  0.1862
 1829SOL    HW216947   1.571   1.295   5.026  2.6299 -0.0403  1.3107
 1830SOL     OW16948   2.315   1.906   9.483 -0.6669  0.2484 -0.4933
 1830SOL    HW116949   2.314   1.828   9.538  0.4200 -0.4971 -1.5372
 1830SOL    HW216950   2.379   1.967   9.518 -1.7648  0.9160  0.3609
 1831SOL     OW16951   4.686   3.536  15.540  0.2844 -0.2253  0.0177
 1831SOL    HW116952   4.718   3.538  15.450  0.2073 -0.6029 -0.0200
 1831SOL    HW216953   0.039   3.572  15.584  0.7915 -0.0391 -1.0131
 1832SOL     OW16954   3.322   0.557  17.182 -0.1871  0.3563  0.6582
 1832SOL    HW116955   3.361   0.596  17.261 -1.5206  2.2852  0.3571
 1832SOL    HW216956   3.335   0.619  17.110 -1.9433  0.2839  0.2853
 1833SOL     OW16957   2.637   1.549   0.402 -0.7361 -0.1792 -0.2174
 1833SOL    HW116958   2.587   1.479   0.443  2.2515 -1.0155  1.9468
 1833SOL    HW216959   2.720   1.545   0.449  0.2967  0.8023 -1.9787
 1834SOL     OW16960   0.201   1.892   3.019  0.4594 -0.5631  1.0208
 1834SOL    HW116961   0.211   1.981   2.988 -0.8871 -1.7814 -2.9638
 1834SOL    HW216962   0.110   1.896   3.050  0.0320  2.3318 -0.5777
 1835SOL     OW16963   4.063   1.579  12.827  0.3035 -0.2811  0.0222
 1835SOL    HW116964   4.133   1.640  12.852 -0.7718  0.8358  0.3640
 1835SOL    HW216965   4.053   1.600  12.734  1.6832 -1.1478 -0.3171
 1836SOL     OW16966   0.852   4.198   6.387 -0.2292 -0.1564 -0.5104
 1836SOL    HW116967   0.902   4.227   6.463  0.6723 -0.8594 -0.8410
 1836SOL    HW216968   0.914   4.240   6.327 -0.0598  2.1722  1.2866
 1837SOL     OW16969   3.262   3.243   7.878  0.1970  0.3082  0.4670
 1837SOL    HW116970   3.254   3.229   7.783  2.3394 -3.2744  0.7963
 1837SOL    HW216971   3.174   3.266   7.906 -0.4336  0.1602 -1.3977
 1838SOL     OW16972   4.426   1.865   6.797  0.7075  0.4841 -0.0566
 1838SOL    HW116973   4.479   1.856   6.875 -0.1549 -1.9483  0.2448
 1838SOL    HW216974   4.382   1.780   6.800  0.0662  0.8729  1.6398
 1839SOL     OW16975   1.407   4.545   1.323  0.4235 -0.0115 -0.4094
 1839SOL    HW116976   1.480   4.580   1.374 -0.3913  0.7483  0.2368
 1839SOL    HW216977   1.453   4.490   1.259 -0.1744  0.8832 -1.6104
 1840SOL     OW16978   0.417   3.172  11.689 -0.2674  0.0135  0.0622
 1840SOL    HW116979   0.472   3.250  11.696 -1.1282  0.3900  2.6057
 1840SOL    HW216980   0.351   3.187  11.757 -0.1075  0.0564  0.2052
 1841SOL     OW16981   4.328   2.166   3.831  0.3977 -0.3026 -0.2299
 1841SOL    HW116982   4.293   2.117   3.757 -0.0205 -1.8907  1.0308
 1841SOL    HW216983   4.402   2.112   3.857  2.2739  1.8976 -0.9957
 1842SOL     OW16984   1.669   0.405   2.241 -0.4628  0.6887  0.1422
 1842SOL    HW116985   1.707   0.473   2.297  0.3587  0.0914  0.3173
 1842SOL    HW216986   1.600   0.446   2.190  1.2610  2.3155 -0.8582
 1843SOL     OW16987   0.567   3.798   1.488 -0.3082  0.5824 -0.2918
 1843SOL    HW116988   0.525   3.715   1.513 -1.4487  0.6187 -2.0515
 1843SOL    HW216989   0.558   3.852   1.566 -3.1618  0.1140 -0.2969
 1844SOL     OW16990   2.718   3.999  17.388  0.3985  0.2581 -0.0867
 1844SOL    HW116991   2.779   3.927  17.401  0.7743  0.3843 -1.1132
 1844SOL    HW216992   2.739   4.034  17.301 -0.6686 -0.6184 -0.6988
 1845SOL     OW16993   2.299   2.866   8.743  0.2071  0.6922  0.0166
 1845SOL    HW116994   2.210   2.890   8.769 -0.5374 -1.3560 -0.6971
 1845SOL    HW216995   2.317   2.788   8.796  0.7348  0.4256 -0.5539
 1846SOL     OW16996   4.481   2.906  10.388 -0.6922  0.0650 -0.5967
 1846SOL    HW116997   4.470   2.948  10.302 -1.9338  0.2490 -0.3437
 1846SOL    HW216998   4.401   2.922  10.438 -0.1339 -3.3284  1.3835
 1847SOL     OW16999   1.467   0.731   4.902 -0.7611 -0.0478  0.3935
 1847SOL    HW117000   1.434   0.765   4.819 -0.2982 -0.1111  0.1836
 1847SOL    HW217001   1.387   0.716   4.952 -2.4728  0.9001 -2.0268
 1848SOL     OW17002   4.151   3.202   0.513 -0.4791  0.3410  0.1068
 1848SOL    HW117003   4.191   3.195   0.426  0.1368 -0.6564  0.4668
 1848SOL    HW217004   4.212   3.263   0.555 -1.5846  1.0097  0.7480
 1849SOL     OW17005   3.604   0.731   0.273 -0.3836  0.1638  0.0708
 1849SOL    HW117006   3.681   0.787   0.263 -0.8112  0.8809  0.7369
 1849SOL    HW217007   3.653   0.648   0.278 -0.5480  0.1470  1.5644
 1850SOL     OW17008   2.708   4.603  16.353  0.5688 -0.0289  0.8829
 1850SOL    HW117009   2.667   4.557  16.280  2.2741 -1.3432  0.7671
 1850SOL    HW217010   2.799   4.575  16.351  0.7699  0.6907  0.0914
 1851SOL     OW17011   3.222   4.126   2.892  0.3575 -0.2837  0.2405
 1851SOL    HW117012   3.215   4.038   2.854  2.3286 -0.5266  0.4303
 1851SOL    HW217013   3.200   4.183   2.818 -1.0416 -0.8489  0.2059
 1852SOL     OW17014   4.035   3.079   6.326 -0.1558 -0.0293 -0.1525
 1852SOL    HW117015   4.130   3.089   6.330 -0.1289 -0.6162  0.7620
 1852SOL    HW217016   4.020   3.032   6.408 -0.4281  1.0431  0.4099
 1853SOL     OW17017   0.630   0.272  17.047  0.3100 -0.4422 -0.1109
 1853SOL    HW117018   0.671   0.189  17.025 -0.6244 -1.0159  0.3390
 1853SOL    HW217019   0.691   0.339  17.016  2.5591 -2.7111 -0.5440
 1854SOL     OW17020   1.722   3.116   0.276 -0.3598  0.0695  0.2970
 1854SOL    HW117021   1.679   3.201   0.265 -4.5173 -1.5623  3.8060
 1854SOL    HW217022   1.740   3.107   0.369  1.7387 -2.4364 -0.3542
 1855SOL     OW17023   0.498   1.495   2.393  0.6811  0.6134  0.5755
 1855SOL    HW117024   0.458   1.409   2.401  4.0053 -1.0425 -0.9146
 1855SOL    HW217025   0.588   1.474   2.416  0.4466 -0.7506  0.2375
 1856SOL     OW17026   1.542   0.246   6.195  0.1711 -0.5078 -0.0268
 1856SOL    HW117027   1.457   0.282   6.218  0.3800 -0.3399  0.5014
 1856SOL    HW217028   1.587   0.244   6.279  0.3543  0.4887 -0.0937
 1857SOL     OW17029   2.568   0.576   4.687 -0.5304 -0.5772  0.0613
 1857SOL    HW117030   2.645   0.536   4.648  0.0577  0.7046 -0.1014
 1857SOL    HW217031   2.506   0.583   4.614  0.3936  1.8465 -0.4807
 1858SOL     OW17032   0.990   3.532   6.462  0.5215  0.4092  0.3835
 1858SOL    HW117033   1.037   3.450   6.443  0.0914  0.8584 -2.5627
 1858SOL    HW217034   0.929   3.508   6.532 -0.2253  3.0018  0.6114
 1859SOL     OW17035   3.888   0.997   3.001 -0.4384  0.2575 -0.7134
 1859SOL    HW117036   3.860   0.982   2.911 -0.0001  0.9526 -0.9641
 1859SOL    HW217037   3.803   1.005   3.045  0.0914  0.2881  0.3121
 1860SOL     OW17038   0.100   2.219   2.701  0.2539  0.0312  0.0060
 1860SOL    HW117039   0.167   2.263   2.648  0.6999  0.9031  1.2943
 1860SOL    HW217040   0.140   2.219   2.788  0.7434 -0.9297 -0.2235
 1861SOL     OW17041   0.708   3.566  13.971  0.1051  0.1628 -0.0080
 1861SOL    HW117042   0.792   3.568  13.924  0.3348 -1.4391  0.3253
 1861SOL    HW217043   0.722   3.639  14.031 -0.3140 -0.0531  0.3471
 1862SOL     OW17044   0.961   1.322   5.431 -0.0571  0.2806  0.6666
 1862SOL    HW117045   0.937   1.400   5.381  1.1758 -0.6821 -1.4457
 1862SOL    HW217046   1.051   1.334   5.462 -0.0420 -1.8042  1.4430
 1863SOL     OW17047   3.103   2.002   4.813 -0.2558 -0.0599  0.1021
 1863SOL    HW117048   3.030   1.949   4.782 -1.6785  1.6322  0.5450
 1863SOL    HW217049   3.104   1.960   4.899 -0.6327 -1.6992 -0.6917
 1864SOL     OW17050   2.289   2.026   8.571 -0.0422 -0.5578  0.5836
 1864SOL    HW117051   2.338   1.953   8.533 -1.1633 -1.2052  0.3825
 1864SOL    HW217052   2.290   1.995   8.662 -0.6989  0.8935  1.0754
 1865SOL     OW17053   0.839   0.827  13.072  0.1257 -0.4976  0.3379
 1865SOL    HW117054   0.871   0.877  12.997  0.5494 -0.2048  0.7105
 1865SOL    HW217055   0.745   0.845  13.067  0.0325 -0.6940  1.3522
 1866SOL     OW17056   1.740   0.111   7.348  0.3361  0.0862  0.0201
 1866SOL    HW117057   1.732   0.163   7.428  3.1258  1.1046 -0.3369
 1866SOL    HW217058   1.660   0.139   7.305  1.1108  3.2122  0.6106
 1867SOL     OW17059   0.021   4.453   2.773  0.3944 -0.4719  0.2840
 1867SOL    HW117060   4.718   4.363   2.754  0.3331 -0.1304 -1.2231
 1867SOL    HW217061   4.718   4.461   2.865  1.7090  0.2455  0.6030
 1868SOL     OW17062   1.451   2.416   2.380 -0.0916  0.0972  0.1091
 1868SOL    HW117063   1.476   2.507   2.368 -0.3685  0.2445  0.6664
 1868SOL    HW217064   1.431   2.424   2.473  0.6395 -1.2201  0.3767
 1869SOL     OW17065   0.194   2.433   2.091 -0.2070 -0.1959  0.2432
 1869SOL    HW117066   0.192   2.386   2.008  0.9035  2.7088 -1.4526
 1869SOL    HW217067   0.288   2.422   2.106 -0.2258  0.1796  0.6427
 1870SOL     OW17068   1.969   3.693   2.973  0.1214 -0.0092 -0.4306
 1870SOL    HW117069   1.922   3.638   2.910  0.0306  0.2941 -0.6277
 1870SOL    HW217070   1.983   3.777   2.929  0.2017  0.3749  0.3226
 1871SOL     OW17071   0.304   0.367   6.400 -0.3135  0.9615 -0.2791
 1871SOL    HW117072   0.353   0.394   6.322  0.4841 -1.0971 -0.4819
 1871SOL    HW217073   0.364   0.327   6.463  0.3418 -0.8480 -2.0745
 1872SOL     OW17074   0.216   3.551  14.621  0.1991 -0.2274  0.3482
 1872SOL    HW117075   0.154   3.507  14.562  2.0907 -1.4996 -0.6820
 1872SOL    HW217076   0.275   3.594  14.559  0.7544  0.3065  1.2544
 1873SOL     OW17077   3.045   0.278   8.559  0.1985 -0.0540 -0.7455
 1873SOL    HW117078   3.007   0.192   8.574 -0.0429  0.0236 -0.9103
 1873SOL    HW217079   3.130   0.250   8.524 -0.6606  0.0717 -2.9188
 1874SOL     OW17080   3.138   3.265   6.266 -0.3139 -0.1246  0.7428
 1874SOL    HW117081   3.057   3.226   6.298 -1.7403  0.4019 -2.2232
 1874SOL    HW217082   3.123   3.256   6.172 -0.0713 -0.2035  0.7095
 1875SOL     OW17083   3.262   0.456  17.664  0.3036  0.1598  0.0390
 1875SOL    HW117084   3.312   0.498   0.037 -0.0329 -0.0677  0.4156
 1875SOL    HW217085   3.181   0.507  17.668  1.4801  1.9952  0.6866
 1876SOL     OW17086   1.152   0.392  17.537 -0.2398 -0.1280 -0.8686
 1876SOL    HW117087   1.187   0.350  17.459  1.2223  0.1447 -0.3570
 1876SOL    HW217088   1.068   0.424  17.503 -0.0209  2.7742  1.3399
 1877SOL     OW17089   4.260   0.272  14.049 -0.3737 -0.3893  0.1550
 1877SOL    HW117090   4.321   0.254  14.121 -0.3651  0.3648  0.3352
 1877SOL    HW217091   4.195   0.205  14.070 -0.2411 -0.6677 -0.3395
 1878SOL     OW17092   2.615   4.489   9.323 -0.0537  0.4017 -0.5661
 1878SOL    HW117093   2.618   4.532   9.238 -0.7882  0.2449 -0.6663
 1878SOL    HW217094   2.691   4.433   9.309 -0.8911 -0.3173 -2.1136
 1879SOL     OW17095   3.996   1.621   8.859 -0.4145 -0.2794 -0.2116
 1879SOL    HW117096   4.044   1.624   8.942  0.3980 -0.7597 -0.6748
 1879SOL    HW217097   3.958   1.533   8.865 -0.0809 -0.4917 -1.1898
 1880SOL     OW17098   1.395   2.209  10.536  0.0535 -0.2250 -0.3933
 1880SOL    HW117099   1.395   2.284  10.477 -0.5640 -0.9956 -1.3936
 1880SOL    HW217100   1.468   2.155  10.505 -0.2165 -0.1135 -1.2262
 1881SOL     OW17101   4.466   4.416   7.142 -0.3024  0.1223 -0.2907
 1881SOL    HW117102   4.463   4.407   7.237 -0.3213  0.4361 -0.2627
 1881SOL    HW217103   4.420   4.337   7.114 -0.0515 -0.6391  1.4511
 1882SOL     OW17104   1.749   1.353   2.124 -0.3016 -0.6170 -0.6703
 1882SOL    HW117105   1.721   1.439   2.094 -1.8022 -0.9990 -0.3636
 1882SOL    HW217106   1.672   1.298   2.106 -1.4837  0.8900 -0.2519
 1883SOL     OW17107   2.509   2.279   8.949 -0.1334  0.4949 -0.3021
 1883SOL    HW117108   2.549   2.215   9.008  1.1666  3.7644  2.4366
 1883SOL    HW217109   2.531   2.356   9.002 -1.0316  1.5969 -1.5290
 1884SOL     OW17110   0.808   3.679   9.223 -0.1448  0.1994  0.0787
 1884SOL    HW117111   0.771   3.634   9.299  0.6433  0.7976  0.8097
 1884SOL    HW217112   0.725   3.718   9.193 -0.3396  0.7128  1.2794
 1885SOL     OW17113   3.273   0.694   7.130  0.2351  0.3555 -0.4505
 1885SOL    HW117114   3.210   0.750   7.174  0.0351 -1.3722  1.4923
 1885SOL    HW217115   3.360   0.733   7.140 -0.1654  1.5016 -1.5068
 1886SOL     OW17116   4.209   2.223   2.552  0.0731  0.1093  0.0904
 1886SOL    HW117117   4.135   2.191   2.502  1.4952  0.4859 -2.2356
 1886SOL    HW217118   4.170   2.292   2.605 -2.3872  0.2607 -1.9453
 1887SOL     OW17119   1.982   3.045   2.852 -0.3679 -0.4903 -0.8122
 1887SOL    HW117120   1.947   2.967   2.810 -0.9296  0.3644 -1.9281
 1887SOL    HW217121   1.951   3.041   2.942  0.0840  2.8170 -0.5069
 1888SOL     OW17122   3.984   0.541   8.408  0.6251 -0.4316  0.2001
 1888SOL    HW117123   3.905   0.495   8.436 -0.9273  1.8796 -0.4116
 1888SOL    HW217124   3.964   0.564   8.317  1.2233  1.6590  0.5949
 1889SOL     OW17125   1.972   1.583   5.116  0.4234 -0.4751  0.0728
 1889SOL    HW117126   2.048   1.639   5.132 -0.8446  1.3676 -0.3290
 1889SOL    HW217127   1.985   1.512   5.179  0.5965  0.5746  1.2143
 1890SOL     OW17128   0.541   1.790  15.905  0.4330  0.0883 -0.3266
 1890SOL    HW117129   0.470   1.820  15.847 -0.8299 -0.8105  0.7493
 1890SOL    HW217130   0.568   1.875  15.940 -2.2672  0.4042  0.9967
 1891SOL     OW17131   4.051   0.457   4.818  0.2052  0.3290  0.3738
 1891SOL    HW117132   3.999   0.429   4.742  0.6276 -2.6089  1.1589
 1891SOL    HW217133   4.136   0.485   4.785  1.2795 -0.8194  2.1561
 1892SOL     OW17134   1.525   2.307   3.218  0.2440 -0.1280  0.4531
 1892SOL    HW117135   1.486   2.361   3.150  0.5709  1.4018  1.4955
 1892SOL    HW217136   1.618   2.328   3.208 -0.3331  2.1547 -0.0420
 1893SOL     OW17137   2.359   2.158   5.106 -0.4231 -0.4542  0.3844
 1893SOL    HW117138   2.422   2.089   5.126 -1.4918 -0.9967  1.8910
 1893SOL    HW217139   2.314   2.166   5.190 -0.8725 -0.3531  0.1374
 1894SOL     OW17140   3.179   4.556  14.939  0.1431 -0.3683 -0.0832
 1894SOL    HW117141   3.194   4.513  15.024  0.1780 -3.6337 -1.7430
 1894SOL    HW217142   3.084   4.568  14.947  0.2000  0.4403 -0.7248
 1895SOL     OW17143   1.200   0.885   6.476 -0.3792 -0.1928 -0.4687
 1895SOL    HW117144   1.183   0.919   6.388  1.3283 -0.1763 -0.7941
 1895SOL    HW217145   1.141   0.940   6.527 -1.1357 -0.1556 -1.3799
 1896SOL     OW17146   3.056   1.597   3.118 -0.3569 -0.4746 -0.1393
 1896SOL    HW117147   2.997   1.669   3.140 -0.5965 -0.9532  0.8094
 1896SOL    HW217148   2.996   1.523   3.107 -0.6466 -0.2251 -0.2191
 1897SOL     OW17149   4.065   4.458   0.086 -0.0034 -0.7938  0.1689
 1897SOL    HW117150   4.072   4.492   0.175  1.1118 -2.5209  0.7333
 1897SOL    HW217151   3.978   4.483   0.057  1.5163  1.3452 -2.5867
 1898SOL     OW17152   1.248   1.928   6.510 -0.1440  0.0827 -0.4116
 1898SOL    HW117153   1.285   1.852   6.464  1.9449 -0.7856  2.7533
 1898SOL    HW217154   1.252   1.906   6.603 -0.3146 -1.3797 -0.7526
 1899SOL     OW17155   2.101   1.361   4.284 -0.2193  0.9758 -0.1938
 1899SOL    HW117156   2.088   1.268   4.302  1.4978  0.7894  0.0633
 1899SOL    HW217157   2.195   1.361   4.267 -0.5828  2.7178 -2.1283
 1900SOL     OW17158   0.972   3.922   9.250  0.3388  0.5088 -0.0711
 1900SOL    HW117159   0.899   3.984   9.251 -0.1182 -0.0488  1.1903
 1900SOL    HW217160   0.924   3.840   9.258  2.9772 -1.0600 -0.3988
 1901SOL     OW17161   1.231   2.354   5.037  0.0416 -0.4566 -0.1681
 1901SOL    HW117162   1.207   2.311   4.956 -3.0445  0.9019  0.0342
 1901SOL    HW217163   1.268   2.285   5.092 -2.2880  0.1250  2.1141
 1902SOL     OW17164   3.697   0.668   8.330  0.1793 -0.1603 -0.2862
 1902SOL    HW117165   3.654   0.605   8.272 -0.8098 -0.1216  0.4009
 1902SOL    HW217166   3.689   0.620   8.412  1.3674 -0.3714 -0.2928
 1903SOL     OW17167   4.271   3.533   9.488  0.1315  0.7704  0.2298
 1903SOL    HW117168   4.223   3.600   9.440 -1.0290 -0.4303 -0.2838
 1903SOL    HW217169   4.361   3.565   9.479 -0.1880  1.3875 -0.7452
 1904SOL     OW17170   3.263   4.584   4.082  0.0362  0.3320 -0.4858
 1904SOL    HW117171   3.348   4.609   4.120  1.0145 -0.2476 -2.2641
 1904SOL    HW217172   3.234   4.668   4.045 -0.0150  0.6077  0.1805
 1905SOL     OW17173   2.160   1.076   6.649 -0.0048 -0.1777 -0.0633
 1905SOL    HW117174   2.113   0.993   6.652 -2.2348  0.9677 -2.8352
 1905SOL    HW217175   2.241   1.044   6.611  0.8639  1.0478  0.7537
 1906SOL     OW17176   1.292   3.793  15.476  0.1847 -0.2400  0.0792
 1906SOL    HW117177   1.370   3.800  15.421 -0.1119 -0.0653 -0.3110
 1906SOL    HW217178   1.237   3.739  15.420  0.8635  1.1584 -1.9211
 1907SOL     OW17179   0.159   1.813   8.280 -0.0533 -0.7056  0.6872
 1907SOL    HW117180   0.129   1.807   8.371  1.6531 -1.4957  1.1844
 1907SOL    HW217181   0.081   1.854   8.242 -1.0176 -0.6860  2.6642
 1908SOL     OW17182   3.293   3.047  16.607 -0.2679 -0.2695  0.3138
 1908SOL    HW117183   3.242   3.037  16.688  1.5764 -3.2295  1.0960
 1908SOL    HW217184   3.263   3.135  16.582  1.8513  0.0483 -1.0615
 1909SOL     OW17185   0.263   3.247  14.466 -0.7705 -0.3243  0.3512
 1909SOL    HW117186   0.264   3.155  14.442 -2.2506 -0.3989  0.5537
 1909SOL    HW217187   0.169   3.260  14.480 -0.7067  1.6579 -1.0228
 1910SOL     OW17188   2.632   0.499   3.869 -0.4779 -0.1793  0.7159
 1910SOL    HW117189   2.539   0.512   3.886 -0.6354 -1.7635  1.0034
 1910SOL    HW217190   2.634   0.405   3.854 -1.5454 -0.1364  0.3419
 1911SOL     OW17191   0.374   1.800   3.769  0.0811  0.4152 -0.4206
 1911SOL    HW117192   0.351   1.801   3.862  0.9750 -0.5063 -0.1860
 1911SOL    HW217193   0.467   1.821   3.776  0.0057  0.8192 -0.6375
 1912SOL     OW17194   1.255   1.950   8.868 -0.4286 -0.3347  0.4417
 1912SOL    HW117195   1.273   2.025   8.924 -2.0187  0.0918  0.3677
 1912SOL    HW217196   1.190   1.901   8.918 -1.1362 -0.7805 -0.8997
 1913SOL     OW17197   2.741   0.897  16.604 -0.6217 -0.1488 -0.3097
 1913SOL    HW117198   2.704   0.845  16.534 -0.2433  0.8428 -1.2457
 1913SOL    HW217199   2.773   0.827  16.661  0.1366  0.0117 -0.5418
 1914SOL     OW17200   2.455   2.959   6.825  0.5224  0.4605 -0.0532
 1914SOL    HW117201   2.411   2.948   6.909  1.7991 -0.6130  0.4564
 1914SOL    HW217202   2.447   3.053   6.808  0.6899  0.6705  1.0565
 1915SOL     OW17203   3.100   4.617   6.949  0.1986  0.4910 -0.7377
 1915SOL    HW117204   3.032   4.552   6.933  0.6852 -0.3751  0.7305
 1915SOL    HW217205   3.057   4.689   6.903 -2.2918 -0.1157  0.5826
 1916SOL     OW17206   2.287   1.686   7.899  0.1794  0.3140 -0.0691
 1916SOL    HW117207   2.309   1.693   7.992 -3.7331  2.9215  0.7021
 1916SOL    HW217208   2.208   1.632   7.900 -1.3709  2.5605  1.4039
 1917SOL     OW17209   4.222   2.490   4.663  0.3152 -0.1734  0.1079
 1917SOL    HW117210   4.199   2.408   4.708 -0.0642 -1.0199 -1.5883
 1917SOL    HW217211   4.138   2.515   4.624 -0.2956  0.6954  2.0060
 1918SOL     OW17212   3.725   0.147  17.335  0.0780  0.3778 -0.3707
 1918SOL    HW117213   3.791   0.122  17.400  0.2594  0.3102 -0.5833
 1918SOL    HW217214   3.771   0.119  17.256 -2.0250 -1.2963 -1.0190
 1919SOL     OW17215   0.770   4.634   4.444  0.4327 -0.3553  0.4635
 1919SOL    HW117216   0.788   4.555   4.392  0.3555  0.9660 -1.5638
 1919SOL    HW217217   0.852   4.674   4.471 -0.4026  0.4971  1.7121
 1920SOL     OW17218   1.141   3.285  13.979  0.5830 -0.3446 -0.8178
 1920SOL    HW117219   1.221   3.235  13.989  1.1929  0.7400 -0.2211
 1920SOL    HW217220   1.124   3.272  13.886  1.5729 -2.5035 -0.6895
 1921SOL     OW17221   3.325   2.783   4.225  0.0933 -0.0251  0.3342
 1921SOL    HW117222   3.274   2.822   4.295 -1.2043 -1.7287  0.3448
 1921SOL    HW217223   3.326   2.849   4.156 -1.2118 -2.4224 -1.9903
 1922SOL     OW17224   2.929   2.540  14.836  0.3545 -0.1029 -0.3917
 1922SOL    HW117225   2.859   2.591  14.795  1.1754  2.3763  1.2716
 1922SOL    HW217226   3.007   2.577  14.796  1.9619 -2.6955  0.3797
 1923SOL     OW17227   3.077   4.356   5.539  0.5760 -0.2983 -0.1410
 1923SOL    HW117228   3.164   4.393   5.554  1.2326 -1.9623  0.2321
 1923SOL    HW217229   3.093   4.351   5.445  2.2553 -1.2425  0.1987
 1924SOL     OW17230   2.679   1.585   2.826 -0.1253  0.5950  1.0805
 1924SOL    HW117231   2.606   1.523   2.830  0.8988 -0.6682  0.0935
 1924SOL    HW217232   2.666   1.641   2.903 -0.6241  1.2985  0.4918
 1925SOL     OW17233   2.421   0.830  12.478 -0.4140 -0.4371  0.0889
 1925SOL    HW117234   2.408   0.844  12.385  0.2578 -1.8839 -0.2211
 1925SOL    HW217235   2.341   0.861  12.519 -0.8503  0.4889 -1.4734
 1926SOL     OW17236   0.324   1.662  15.282  0.1851  0.5805 -0.0752
 1926SOL    HW117237   0.414   1.660  15.251 -0.1732 -2.1828 -0.9462
 1926SOL    HW217238   0.315   1.578  15.327 -2.0324  1.2298  0.7029
 1927SOL     OW17239   1.516   2.156   3.452  0.0336  0.3245 -0.4222
 1927SOL    HW117240   1.528   2.205   3.370  1.0718  1.8546  0.6340
 1927SOL    HW217241   1.600   2.172   3.495  0.7463 -1.4436 -1.1688
 1928SOL     OW17242   2.242   2.355  14.304 -0.8195  0.3741  0.6104
 1928SOL    HW117243   2.155   2.383  14.332 -2.0039 -1.7169 -0.9845
 1928SOL    HW217244   2.248   2.275  14.356 -1.9372  0.3527  0.7048
 1929SOL     OW17245   0.092   1.709   5.265  0.6501  0.2785 -0.3712
 1929SOL    HW117246   0.158   1.645   5.237  0.4490 -0.3691  0.6225
 1929SOL    HW217247   0.049   1.718   5.180 -0.9211 -0.8320  0.3103
 1930SOL     OW17248   3.190   2.446   3.437 -0.3526 -0.3848 -0.2539
 1930SOL    HW117249   3.157   2.385   3.504 -0.0022 -1.9092 -1.4790
 1930SOL    HW217250   3.276   2.471   3.470 -0.0074 -1.7785 -0.1269
 1931SOL     OW17251   1.265   0.606  13.502 -0.2170  0.0727  0.2477
 1931SOL    HW117252   1.258   0.699  13.482 -1.0960  0.2818  1.5391
 1931SOL    HW217253   1.238   0.594  13.593  1.5607  0.8702  0.8927
 1932SOL     OW17254   4.664   2.326   5.359 -0.2976 -0.0610  0.0593
 1932SOL    HW117255   0.019   2.334   5.305 -1.6939 -0.2261 -2.0122
 1932SOL    HW217256   4.607   2.394   5.322 -0.9541 -0.9803 -0.6228
 1933SOL     OW17257   3.243   0.186  17.672  0.4560  0.3114  0.2343
 1933SOL    HW117258   3.254   0.281  17.670 -0.1016  0.3464 -1.6227
 1933SOL    HW217259   3.301   0.141  17.611  0.5452  1.1751 -0.3164
 1934SOL     OW17260   0.672   0.026   7.294  0.3683 -0.3814 -0.4795
 1934SOL    HW117261   0.656   0.118   7.274 -0.7240 -0.7056 -1.0779
 1934SOL    HW217262   0.614   4.702   7.235 -2.1525  2.2120 -0.0682
 1935SOL     OW17263   1.849   1.800   6.595  0.4868  0.5405 -0.6470
 1935SOL    HW117264   1.761   1.762   6.589  0.5102  0.1855  1.1463
 1935SOL    HW217265   1.887   1.751   6.668  1.2580 -1.7577 -2.6227
 1936SOL     OW17266   3.109   0.948  10.161  0.1217 -0.5077 -0.6036
 1936SOL    HW117267   3.071   0.962  10.247  0.2227 -3.3113 -0.1017
 1936SOL    HW217268   3.201   0.930  10.179 -0.4668 -1.9094  1.0196
 1937SOL     OW17269   3.807   2.732   7.560  0.1565  0.3692 -0.6674
 1937SOL    HW117270   3.815   2.641   7.589  1.9561  0.7808  0.1850
 1937SOL    HW217271   3.887   2.751   7.510 -0.9732 -2.0258 -3.4282
 1938SOL     OW17272   1.658   1.601  15.493 -0.7585  0.3708  0.5041
 1938SOL    HW117273   1.716   1.664  15.451 -0.0292  0.2494  1.3237
 1938SOL    HW217274   1.574   1.622  15.451  1.2765  2.4242 -2.5432
 1939SOL     OW17275   3.394   0.918   8.288  0.2497  0.4682  0.1703
 1939SOL    HW117276   3.387   0.868   8.206 -1.4966 -2.3883  2.0616
 1939SOL    HW217277   3.487   0.914   8.310  0.7609  0.8406 -1.9220
 1940SOL     OW17278   1.890   1.110  10.684  0.2030  0.0113 -0.3571
 1940SOL    HW117279   1.878   1.016  10.699  0.1545 -0.0341 -0.6817
 1940SOL    HW217280   1.966   1.107  10.627 -0.5151 -1.9274 -1.2393
 1941SOL     OW17281   2.316   1.319   4.511  0.2808  0.4320  0.1672
 1941SOL    HW117282   2.389   1.280   4.464  1.3644 -0.0097  2.2396
 1941SOL    HW217283   2.238   1.277   4.474  0.2823  1.5622 -1.1294
 1942SOL     OW17284   4.291   2.732   6.684  0.4904 -0.2837  0.6200
 1942SOL    HW117285   4.215   2.675   6.687  0.5996 -0.4756 -0.2863
 1942SOL    HW217286   4.331   2.717   6.598 -0.9150  1.2139 -0.2860
 1943SOL     OW17287   2.701   3.968   2.262 -0.0933  0.3197 -0.5374
 1943SOL    HW117288   2.662   4.041   2.310  1.1963  0.2844  0.5493
 1943SOL    HW217289   2.626   3.927   2.219 -0.1071  0.8813 -1.0553
 1944SOL     OW17290   3.289   2.123   5.097 -0.7695  0.0401  0.2734
 1944SOL    HW117291   3.353   2.192   5.110 -1.5393  0.3907  2.1870
 1944SOL    HW217292   3.221   2.156   5.156 -2.0885 -0.9694 -0.6631
 1945SOL     OW17293   4.427   3.103   0.613  0.2218 -0.1062  0.1367
 1945SOL    HW117294   4.368   3.171   0.647 -2.4324 -1.2328 -2.2681
 1945SOL    HW217295   4.475   3.173   0.568  2.5645  0.1411  3.0492
 1946SOL     OW17296   3.914   0.515   6.268 -0.1324 -0.4691  0.1880
 1946SOL    HW117297   3.998   0.513   6.314  0.1966 -0.2371 -0.4051
 1946SOL    HW217298   3.947   0.530   6.180 -0.0610  0.9715  0.4525
 1947SOL     OW17299   0.382   3.855   4.124  0.4299  0.3513 -0.0121
 1947SOL    HW117300   0.443   3.790   4.158 -0.6654 -0.7980 -0.2690
 1947SOL    HW217301   0.301   3.824   4.165  0.7256 -1.6257 -0.9225
 1948SOL     OW17302   3.883   1.288   5.500 -0.4725  0.2258  0.1652
 1948SOL    HW117303   3.968   1.315   5.464  0.6611 -0.3703  2.3897
 1948SOL    HW217304   3.908   1.204   5.539  0.7999 -0.0722 -1.2601
 1949SOL     OW17305   0.787   1.089  17.597 -0.2391 -0.6305  0.1620
 1949SOL    HW117306   0.852   1.019  17.610  1.3431  1.1467  1.7749
 1949SOL    HW217307   0.714   1.034  17.626  0.1655 -0.8401  0.7652
 1950SOL     OW17308   2.367   0.660   2.655 -0.0341  0.2303  0.8238
 1950SOL    HW117309   2.332   0.749   2.649 -0.6748  0.0607  2.0320
 1950SOL    HW217310   2.295   0.601   2.637  0.8293 -0.4008 -0.5173
 1951SOL     OW17311   1.209   4.174   5.471  0.2883  0.2977  0.2945
 1951SOL    HW117312   1.169   4.104   5.522 -0.9975  0.9970  0.2533
 1951SOL    HW217313   1.132   4.215   5.433 -1.1504 -1.2989  1.4891
 1952SOL     OW17314   0.962   0.482   5.099 -0.3814 -0.2986 -0.5005
 1952SOL    HW117315   0.906   0.558   5.083 -1.4040 -0.3490  2.7512
 1952SOL    HW217316   0.907   0.422   5.050 -0.3805 -2.5170  2.2188
 1953SOL     OW17317   3.533   2.472   8.705  0.0183 -0.8012  0.4758
 1953SOL    HW117318   3.492   2.389   8.730  0.6336 -1.3775 -0.4075
 1953SOL    HW217319   3.454   2.525   8.713 -0.8022 -1.6041 -2.2425
 1954SOL     OW17320   2.032   3.961  15.200 -0.1687 -0.3338  0.2057
 1954SOL    HW117321   2.074   3.942  15.116  0.3427  0.1369  0.3535
 1954SOL    HW217322   1.952   4.002  15.170 -0.5537 -0.5188  0.9729
 1955SOL     OW17323   3.629   1.224   6.248 -0.1721 -0.2131 -0.2128
 1955SOL    HW117324   3.720   1.220   6.219  0.5987  3.3767  1.7125
 1955SOL    HW217325   3.584   1.269   6.177  1.1070 -1.6754 -1.9346
 1956SOL     OW17326   2.269   4.575   8.362  0.1177 -0.8664  0.0241
 1956SOL    HW117327   2.336   4.543   8.301 -0.5456  0.1405 -1.2361
 1956SOL    HW217328   2.300   4.661   8.389 -1.0976 -0.9519  1.6989
 1957SOL     OW17329   0.759   1.752   7.517  0.3150 -0.5927 -0.4814
 1957SOL    HW117330   0.691   1.815   7.493  3.7338  2.4107 -2.2503
 1957SOL    HW217331   0.826   1.778   7.455  2.4037 -2.5106  0.9551
 1958SOL     OW17332   1.291   4.424   6.306 -0.0170  0.1623  0.8338
 1958SOL    HW117333   1.241   4.471   6.372 -0.6473  1.2394 -0.4152
 1958SOL    HW217334   1.376   4.416   6.349 -0.5637 -1.1216  1.6644
 1959SOL     OW17335   2.122   2.642   4.077 -0.2670 -0.0467 -0.2860
 1959SOL    HW117336   2.078   2.587   4.142 -0.0209 -1.2120 -1.1175
 1959SOL    HW217337   2.214   2.616   4.077 -0.3728 -0.4119 -0.4102
 1960SOL     OW17338   0.198   2.936   6.675 -0.2512  0.2659 -0.2379
 1960SOL    HW117339   0.114   2.907   6.638 -0.4295 -0.8792  1.0747
 1960SOL    HW217340   0.199   2.889   6.759 -3.7097  0.0995 -0.2863
 1961SOL     OW17341   4.379   4.264   2.689  0.1657  0.2566  0.1550
 1961SOL    HW117342   4.395   4.213   2.769  1.3810  0.1038 -0.1933
 1961SOL    HW217343   4.370   4.354   2.720 -1.4776 -0.4413  1.7130
 1962SOL     OW17344   1.037   3.314   6.812 -0.1104 -0.4772  0.2886
 1962SOL    HW117345   1.064   3.310   6.904 -2.1311  1.2267  0.9411
 1962SOL    HW217346   1.079   3.397   6.788  0.3470 -0.0541  2.5146
 1963SOL     OW17347   4.190   3.365   8.699  0.5562 -0.1995  0.4252
 1963SOL    HW117348   4.236   3.295   8.652 -1.9564  0.0360 -2.4108
 1963SOL    HW217349   4.102   3.326   8.701 -0.1934  1.5112  0.7250
 1964SOL     OW17350   2.200   1.319   3.867  0.0566 -0.1759  0.0700
 1964SOL    HW117351   2.143   1.319   3.790  2.5461 -2.1286 -1.7333
 1964SOL    HW217352   2.243   1.235   3.855  1.6419  0.5374  0.8240
 1965SOL     OW17353   2.423   1.371  15.228 -0.4390  0.4327  0.4918
 1965SOL    HW117354   2.416   1.443  15.291 -0.5029 -1.1601  2.3138
 1965SOL    HW217355   2.394   1.296  15.280 -2.4644 -0.8928 -2.5258
 1966SOL     OW17356   4.136   0.859  16.303  0.9521  0.5652 -0.4214
 1966SOL    HW117357   4.170   0.817  16.382  1.9175 -1.9051 -2.1559
 1966SOL    HW217358   4.167   0.950  16.306  0.8364  0.5896  0.0021
 1967SOL     OW17359   2.284   3.272  17.016  0.2913  0.3062  0.6393
 1967SOL    HW117360   2.284   3.366  17.037  2.0586  0.1707  1.2832
 1967SOL    HW217361   2.289   3.246  17.107  0.2691 -1.9338 -0.0034
 1968SOL     OW17362   1.477   0.336   3.319 -0.5609 -0.4539  0.2043
 1968SOL    HW117363   1.505   0.423   3.347 -1.1689 -0.9490  2.3697
 1968SOL    HW217364   1.458   0.339   3.225 -1.5796  1.4945  0.4837
 1969SOL     OW17365   3.409   4.516  15.901 -0.7361  0.6368  0.2815
 1969SOL    HW117366   3.362   4.474  15.829 -0.7847  0.4033  0.4495
 1969SOL    HW217367   3.400   4.610  15.883  0.3914  0.5619 -0.7037
 1970SOL     OW17368   3.205   3.035   1.931 -0.0103  0.1860 -0.4446
 1970SOL    HW117369   3.146   3.090   1.983  0.8401  1.0331 -0.3769
 1970SOL    HW217370   3.150   2.967   1.894 -0.6423 -0.3586  1.5074
 1971SOL     OW17371   1.012   2.672   0.392  0.6247 -0.3307 -0.7237
 1971SOL    HW117372   0.963   2.611   0.447 -0.6419 -0.3492 -1.8569
 1971SOL    HW217373   1.000   2.757   0.434  1.8365  0.1043 -1.2640
 1972SOL     OW17374   0.999   1.067   4.760  0.0308  0.4909 -0.1225
 1972SOL    HW117375   0.905   1.051   4.758  0.1769 -0.2204 -1.0536
 1972SOL    HW217376   1.036   0.990   4.716 -1.2940 -0.2400  0.0319
 1973SOL     OW17377   3.367   3.548  13.107  0.4738 -0.1502  0.4517
 1973SOL    HW117378   3.312   3.471  13.097  2.2844 -1.6412  1.9881
 1973SOL    HW217379   3.371   3.560  13.202 -0.7452 -0.7014  0.5700
 1974SOL     OW17380   2.624   1.564   9.906  0.4115  0.0987  0.3482
 1974SOL    HW117381   2.627   1.531   9.996 -2.8397  1.3387  0.9128
 1974SOL    HW217382   2.605   1.657   9.924 -2.5508 -0.6348  0.9967
 1975SOL     OW17383   0.285   2.149  14.386 -0.5067 -0.3354  0.0175
 1975SOL    HW117384   0.251   2.238  14.396 -0.1547  0.1473 -2.9581
 1975SOL    HW217385   0.379   2.163  14.384 -0.3247 -1.3956  1.3937
 1976SOL     OW17386   2.919   4.032   7.596 -0.3085 -0.0754 -0.2376
 1976SOL    HW117387   2.866   4.110   7.615 -0.1630  0.5354 -2.3422
 1976SOL    HW217388   3.001   4.060   7.636  0.3040 -0.6054 -1.1060
 1977SOL     OW17389   0.121   1.206   7.749  0.0606  0.7324 -0.5280
 1977SOL    HW117390   0.038   1.243   7.780  1.1172  1.2551  1.6916
 1977SOL    HW217391   0.100   1.168   7.664 -0.2974  0.0106 -0.1303
 1978SOL     OW17392   4.494   0.647   0.783  0.2111  0.3894 -0.0833
 1978SOL    HW117393   4.572   0.595   0.762 -1.5081 -3.1211  2.2565
 1978SOL    HW217394   4.535   0.705   0.847  0.1194  0.4337 -0.0653
 1979SOL     OW17395   2.675   4.517  16.109  0.1701 -0.2922 -0.6677
 1979SOL    HW117396   2.593   4.540  16.064 -0.2086  3.8525  2.2159
 1979SOL    HW217397   2.732   4.532  16.033  0.0549  0.5444 -0.5876
 1980SOL     OW17398   2.152   3.351  17.585  0.2594 -0.4630 -0.1421
 1980SOL    HW117399   2.074   3.308  17.620  1.8785 -0.5965  3.3081
 1980SOL    HW217400   2.195   3.271  17.554 -0.4784  0.1831 -2.7818
 1981SOL     OW17401   0.872   4.637   2.295  0.1284 -0.0925 -0.2567
 1981SOL    HW117402   0.817   4.714   2.281 -0.1853  0.0649  1.8625
 1981SOL    HW217403   0.841   4.599   2.377  2.7215 -2.7546 -0.5001
 1982SOL     OW17404   4.540   2.818   0.626 -0.5288  0.3097 -0.2292
 1982SOL    HW117405   4.513   2.909   0.609 -1.6351  0.3589  1.7773
 1982SOL    HW217406   4.486   2.777   0.559 -0.5219  0.0094 -0.0468
 1983SOL     OW17407   2.336   1.630   3.365  0.2409 -0.2405  0.7187
 1983SOL    HW117408   2.371   1.541   3.353  0.7464  0.2300 -1.3499
 1983SOL    HW217409   2.391   1.676   3.302 -0.9534  1.1862  0.7369
 1984SOL     OW17410   2.996   2.519   6.015 -0.4903  0.5971 -0.0740
 1984SOL    HW117411   2.953   2.590   5.967 -1.0718  0.1799 -0.1691
 1984SOL    HW217412   3.023   2.456   5.949  1.4660  3.2767 -1.8605
 1985SOL     OW17413   1.153   3.305   2.019  0.5354  0.3364  0.0746
 1985SOL    HW117414   1.098   3.227   2.007  0.3620  0.6946 -1.5414
 1985SOL    HW217415   1.109   3.356   1.951 -0.8892  0.3561  1.0019
 1986SOL     OW17416   3.036   2.775   6.239  0.4564  0.0366 -0.0841
 1986SOL    HW117417   2.954   2.823   6.237  0.5445  0.1720 -0.4223
 1986SOL    HW217418   3.107   2.836   6.221  0.7362  0.3476  2.0227
 1987SOL     OW17419   3.292   1.942   7.381 -0.1185 -0.4843  0.1266
 1987SOL    HW117420   3.229   1.878   7.416 -1.8630  0.1119 -1.9138
 1987SOL    HW217421   3.313   1.998   7.455  1.0700  0.0117 -0.5852
 1988SOL     OW17422   3.828   2.169  10.609  0.2042 -0.4661 -0.3326
 1988SOL    HW117423   3.919   2.141  10.607 -0.4501 -2.6373 -0.4688
 1988SOL    HW217424   3.817   2.195  10.518 -1.3599  2.2223  0.6362
 1989SOL     OW17425   3.672   1.479   6.733  0.3084 -0.1123 -0.1604
 1989SOL    HW117426   3.620   1.478   6.814  0.3107 -1.9026 -0.1873
 1989SOL    HW217427   3.664   1.388   6.704  0.7897  0.0311 -0.7276
 1990SOL     OW17428   3.004   0.682   7.408  0.0532 -0.6350  0.4042
 1990SOL    HW117429   2.948   0.725   7.473 -0.6508 -0.5209 -0.2864
 1990SOL    HW217430   3.028   0.761   7.360 -4.8385  0.3823 -0.3951
 1991SOL     OW17431   1.111   4.369  15.552  1.3912 -0.9323 -0.5242
 1991SOL    HW117432   1.139   4.456  15.522 -3.2425  1.6700  2.6395
 1991SOL    HW217433   1.124   4.322  15.470 -1.0401  0.3486 -1.6360
 1992SOL     OW17434   4.185   4.185   8.417  0.3614 -0.9877  0.5244
 1992SOL    HW117435   4.190   4.097   8.380  1.2093 -1.1354  0.9918
 1992SOL    HW217436   4.214   4.174   8.507  0.0362  0.0673  0.7462
 1993SOL     OW17437   4.309   2.923   5.915 -1.0332 -0.4909 -0.1598
 1993SOL    HW117438   4.397   2.916   5.952 -0.4112 -3.3623 -2.2248
 1993SOL    HW217439   4.328   2.959   5.829  0.1457  3.0751  1.6192
 1994SOL     OW17440   3.261   4.623   7.596  0.1911  0.0426  0.2798
 1994SOL    HW117441   3.322   4.656   7.530 -0.2302 -0.5017 -0.3842
 1994SOL    HW217442   3.196   4.691   7.615  1.3007  1.6963 -1.8861
 1995SOL     OW17443   1.903   3.548   2.757 -0.4820 -0.4117 -0.4427
 1995SOL    HW117444   1.908   3.457   2.727  0.0106 -0.5314  0.0075
 1995SOL    HW217445   1.919   3.599   2.678  1.0091  1.1820  0.8838
 1996SOL     OW17446   0.008   2.329   2.971 -0.1354  0.1571 -0.1537
 1996SOL    HW117447   0.010   2.305   3.064  3.3255  2.1875  0.2827
 1996SOL    HW217448   4.654   2.282   2.940 -1.5602  1.1203  1.9106
 1997SOL     OW17449   0.675   3.699   3.841 -0.2253  0.0761  0.0186
 1997SOL    HW117450   0.736   3.640   3.797 -0.0152  0.2987  0.0121
 1997SOL    HW217451   0.713   3.697   3.929  0.1737  1.1970 -0.1358
 1998SOL     OW17452   2.272   1.133   9.760 -0.2502  0.4093 -0.0054
 1998SOL    HW117453   2.239   1.194   9.695 -1.0204 -0.5099 -0.4744
 1998SOL    HW217454   2.363   1.157   9.774  0.2368 -0.5938 -1.6031
 1999SOL     OW17455   2.807   2.470  11.425  0.7516 -0.3538 -0.0193
 1999SOL    HW117456   2.833   2.478  11.517  0.3265 -1.1184  0.1742
 1999SOL    HW217457   2.835   2.552  11.386 -1.9598  0.2840 -0.6618
 2000SOL     OW17458   2.385   3.036   1.099  0.7686 -0.0073  0.5677
 2000SOL    HW117459   2.349   3.077   1.177 -0.4478 -4.6859  2.4834
 2000SOL    HW217460   2.476   3.065   1.108  0.1001  1.7062  1.8061
 2001SOL     OW17461   2.142   3.573  16.808 -1.0513  0.2878  0.1664
 2001SOL    HW117462   2.133   3.548  16.900  0.4529 -1.6198 -0.2079
 2001SOL    HW217463   2.236   3.588  16.806 -0.7284 -2.1058 -2.2038
 2002SOL     OW17464   3.527   1.262   8.461 -0.2289 -0.0038 -0.7365
 2002SOL    HW117465   3.559   1.196   8.523  0.8407  1.0485 -0.1849
 2002SOL    HW217466   3.574   1.238   8.382  0.5231 -0.6873 -0.0867
 2003SOL     OW17467   1.054   4.396   5.411  0.0130 -0.1719  0.3052
 2003SOL    HW117468   1.013   4.481   5.429  2.2313  0.6497  1.4962
 2003SOL    HW217469   1.105   4.417   5.334 -0.9166  0.2955 -0.1837
 2004SOL     OW17470   0.928   2.138  14.889  0.3660 -0.6291 -0.3921
 2004SOL    HW117471   0.854   2.169  14.941 -0.6528 -1.8776 -1.1000
 2004SOL    HW217472   0.905   2.051  14.855  1.2459 -1.0026 -0.0287
 2005SOL     OW17473   4.705   0.076  12.155  0.3405 -0.5996  0.1721
 2005SOL    HW117474   4.676   0.042  12.240  1.6132 -0.3431  0.7066
 2005SOL    HW217475   4.643   0.025  12.103  0.3195  0.9517 -1.3153
 2006SOL     OW17476   0.296   3.458  16.596  0.1865 -0.0365  0.2883
 2006SOL    HW117477   0.377   3.469  16.546 -0.2739  0.6334 -0.2988
 2006SOL    HW217478   0.230   3.523  16.572  0.0599 -0.6317 -0.9602
 2007SOL     OW17479   2.416   3.463  17.677  0.2421  0.0637 -0.3028
 2007SOL    HW117480   2.448   3.373  17.682 -0.6630 -0.1643  1.6329
 2007SOL    HW217481   2.334   3.457  17.627 -0.7557 -1.0179  1.4749
 2008SOL     OW17482   2.354   0.669   5.197 -0.2771 -0.4628 -0.4848
 2008SOL    HW117483   2.372   0.682   5.104  1.6681 -0.9892 -0.1800
 2008SOL    HW217484   2.300   0.590   5.202 -1.4877  0.5586  2.6246
 2009SOL     OW17485   0.119   0.185  12.822 -0.2723 -0.0116  0.0962
 2009SOL    HW117486   0.080   0.193  12.735 -1.7197 -1.9990  0.5622
 2009SOL    HW217487   0.046   0.141  12.865 -0.1739 -1.6592 -1.4213
 2010SOL     OW17488   3.737   2.772   5.020  0.3260  0.1778  0.2722
 2010SOL    HW117489   3.783   2.826   4.955 -2.6789  2.0729 -0.2881
 2010SOL    HW217490   3.719   2.848   5.075  0.3061  0.4504 -0.1054
 2011SOL     OW17491   4.068   0.662   7.569  0.0429  0.0815 -0.4046
 2011SOL    HW117492   4.142   0.629   7.620  1.1435 -0.3353 -2.2732
 2011SOL    HW217493   3.997   0.599   7.578  0.1935  0.1492  1.2649
 2012SOL     OW17494   1.359   2.734   7.033 -0.6473  0.0374  0.4907
 2012SOL    HW117495   1.392   2.787   6.961 -1.1390  2.1159  1.7915
 2012SOL    HW217496   1.406   2.652   7.022  2.9058  1.8935  1.9022
 2013SOL     OW17497   3.819   3.748   4.379 -0.2965 -0.1101 -0.3194
 2013SOL    HW117498   3.873   3.797   4.441  0.5147 -4.0146  2.0295
 2013SOL    HW217499   3.733   3.753   4.421 -1.9152 -0.4022 -3.5744
 2014SOL     OW17500   0.969   1.937   3.363 -0.0605 -0.4336 -0.1992
 2014SOL    HW117501   0.968   1.853   3.317  0.2088 -1.4122  1.5936
 2014SOL    HW217502   0.877   1.956   3.344 -0.2217 -1.2003 -0.1525
 2015SOL     OW17503   0.117   3.684   9.338  0.2504 -0.2049 -0.1417
 2015SOL    HW117504   0.090   3.594   9.355  1.0408 -0.5390 -0.6547
 2015SOL    HW217505   0.136   3.712   9.428  1.5696 -0.3133 -0.3807
 2016SOL     OW17506   4.400   0.031   5.042 -0.0117  0.0939 -0.1102
 2016SOL    HW117507   4.398   0.118   5.083  2.6247  0.8683 -1.6627
 2016SOL    HW217508   4.372   4.696   5.112  0.6167  0.0524  0.1039
 2017SOL     OW17509   0.102   4.294   3.144 -0.7265  0.2034 -0.7402
 2017SOL    HW117510   0.190   4.328   3.157  0.1823 -1.5901 -2.1204
 2017SOL    HW217511   0.116   4.202   3.168  0.9037  0.4283 -0.8476
 2018SOL     OW17512   4.665   3.083   7.821  0.2038 -0.3821  0.1639
 2018SOL    HW117513   4.625   2.997   7.826  0.3561 -0.3431  1.9420
 2018SOL    HW217514   4.597   3.136   7.780  1.2046  1.9515  1.5195
 2019SOL     OW17515   3.207   1.478   3.910  0.0854  0.3812  0.2860
 2019SOL    HW117516   3.141   1.482   3.980  0.6575  1.1370  0.7858
 2019SOL    HW217517   3.158   1.451   3.833 -2.7245  2.8146  1.2128
 2020SOL     OW17518   1.907   4.300  14.735 -0.0675 -0.1536  0.4019
 2020SOL    HW117519   1.895   4.266  14.824 -1.3037  0.5205  0.4969
 2020SOL    HW217520   1.961   4.377  14.753  1.9397 -1.5103  0.1894
 2021SOL     OW17521   2.502   4.072   3.307 -0.0118  0.2081 -0.1066
 2021SOL    HW117522   2.520   4.155   3.351  1.6248 -0.8629  1.2845
 2021SOL    HW217523   2.444   4.029   3.371  2.8505 -0.9749  1.7078
 2022SOL     OW17524   3.666   1.572  12.820 -0.1274 -0.0063  0.5054
 2022SOL    HW117525   3.656   1.600  12.730 -0.2766 -1.0250  0.2019
 2022SOL    HW217526   3.712   1.488  12.814 -2.2344 -1.0702 -0.8763
 2023SOL     OW17527   3.963   1.006  15.692 -0.2459  0.1714 -0.0239
 2023SOL    HW117528   3.944   1.078  15.752 -1.5240  0.1294 -0.3849
 2023SOL    HW217529   4.057   1.006  15.711  0.2591  2.3962 -2.5605
 2024SOL     OW17530   3.347   2.822   5.686  0.8383  0.9019 -0.1802
 2024SOL    HW117531   3.411   2.893   5.679  1.5611  0.2857  0.1231
 2024SOL    HW217532   3.326   2.810   5.593 -2.0554  0.6476  0.5044
 2025SOL     OW17533   0.003   4.301   0.192  0.9434  0.2271 -0.2799
 2025SOL    HW117534   0.022   4.254   0.111  0.4629  0.9892 -0.8388
 2025SOL    HW217535   4.702   4.391   0.168  2.4616  0.3699 -1.2980
 2026SOL     OW17536   4.376   4.110   1.596  0.2542 -0.0026  0.1531
 2026SOL    HW117537   4.409   4.085   1.682 -0.0732  2.1142  0.9009
 2026SOL    HW217538   4.367   4.205   1.606  0.5336  0.0437 -0.0706
 2027SOL     OW17539   3.194   1.380   6.440  0.5791  0.1416 -0.3016
 2027SOL    HW117540   3.147   1.423   6.511 -0.4094  2.8456 -2.5674
 2027SOL    HW217541   3.134   1.313   6.408 -0.2957  1.4785 -1.4849
 2028SOL     OW17542   2.413   3.443   3.128  0.2878 -0.0774  0.0359
 2028SOL    HW117543   2.336   3.428   3.073  0.6230  0.3515 -0.5485
 2028SOL    HW217544   2.453   3.357   3.121  3.1171  1.2672 -0.3150
 2029SOL     OW17545   3.845   2.634   8.624  0.0362  0.4427  0.1388
 2029SOL    HW117546   3.812   2.558   8.575  0.7229  1.4571 -1.8785
 2029SOL    HW217547   3.913   2.604   8.684  0.3510 -0.3659 -0.6244
 2030SOL     OW17548   2.076   1.072   6.117  0.0005 -0.3749  0.4330
 2030SOL    HW117549   2.131   1.120   6.055 -0.3779 -1.6336 -0.8830
 2030SOL    HW217550   2.131   0.998   6.144  0.3574 -1.0357 -2.0721
 2031SOL     OW17551   4.330   2.431   3.896  0.2642  0.0047  0.2049
 2031SOL    HW117552   4.331   2.412   3.990  0.2530  0.1162  0.2280
 2031SOL    HW217553   4.325   2.340   3.867  2.8725  0.0309 -0.4021
 2032SOL     OW17554   1.083   2.789   5.432  0.0721 -0.3679  0.4525
 2032SOL    HW117555   1.030   2.822   5.505  0.8544 -1.8897  1.7085
 2032SOL    HW217556   1.055   2.840   5.356  1.2006  0.6238  0.6997
 2033SOL     OW17557   4.688   0.809   7.760 -0.3258 -0.2862 -0.3653
 2033SOL    HW117558   4.635   0.883   7.729  0.0662 -0.1578 -0.7350
 2033SOL    HW217559   0.036   0.849   7.808  2.2852 -1.1173 -3.5786
 2034SOL     OW17560   1.520   3.086   4.943  0.4571 -1.1457 -0.3386
 2034SOL    HW117561   1.556   3.142   5.012  0.7694 -0.8274 -0.7630
 2034SOL    HW217562   1.445   3.144   4.927  0.2268 -0.8878  1.6069
 2035SOL     OW17563   1.690   4.027   2.842 -0.3148 -0.0251 -0.5712
 2035SOL    HW117564   1.760   4.089   2.821 -0.4336 -0.6276 -2.7490
 2035SOL    HW217565   1.695   3.963   2.771 -0.1191  2.3750 -2.7303
 2036SOL     OW17566   2.326   1.820  15.807 -0.0208 -0.0959  0.2897
 2036SOL    HW117567   2.335   1.914  15.815 -0.6807 -0.0808  0.8734
 2036SOL    HW217568   2.399   1.808  15.747 -1.7856 -2.4244 -1.4041
 2037SOL     OW17569   0.534   4.640  17.562  0.2587  0.7326 -0.8858
 2037SOL    HW117570   0.608   4.585  17.539  0.1421 -0.2478  1.0728
 2037SOL    HW217571   0.527   4.681  17.476 -1.6892  3.0164  0.3391
 2038SOL     OW17572   1.039   3.148   8.062 -0.1110  0.3657 -0.0924
 2038SOL    HW117573   1.084   3.064   8.066 -0.7943  0.0688  1.7125
 2038SOL    HW217574   1.087   3.198   8.129 -1.6841  0.5916  0.8711
 2039SOL     OW17575   3.505   2.826   8.303  0.6586 -0.0930 -0.0137
 2039SOL    HW117576   3.425   2.820   8.354  1.5643 -2.4818  1.1442
 2039SOL    HW217577   3.559   2.802   8.378  1.7899  0.0739 -0.7685
 2040SOL     OW17578   0.277   1.857   3.533 -0.2671 -0.4165 -0.0545
 2040SOL    HW117579   0.188   1.824   3.529 -0.3862 -0.0011 -0.9601
 2040SOL    HW217580   0.301   1.819   3.618 -0.7779 -1.5533 -0.4287
 2041SOL     OW17581   4.079   2.602  15.839  0.7572 -0.2371 -0.8134
 2041SOL    HW117582   3.998   2.560  15.870 -0.0632  0.6166 -1.8278
 2041SOL    HW217583   4.072   2.671  15.905  0.8181  0.5306 -1.6125
 2042SOL     OW17584   0.345   2.893   2.682 -0.2761  0.3211  0.6570
 2042SOL    HW117585   0.274   2.929   2.629  0.1355 -0.3574 -0.3365
 2042SOL    HW217586   0.303   2.911   2.767  1.5165  0.2442  1.5674
 2043SOL     OW17587   3.626   4.489   6.186 -0.0403 -0.0586 -0.0026
 2043SOL    HW117588   3.585   4.573   6.207  0.3191 -0.0673  0.7282
 2043SOL    HW217589   3.613   4.438   6.266 -0.4342 -0.6962 -0.4671
 2044SOL     OW17590   3.211   1.322  10.059 -0.2038 -0.0768  0.2214
 2044SOL    HW117591   3.168   1.387  10.115  0.1933  0.8070 -0.5014
 2044SOL    HW217592   3.267   1.276  10.122 -1.1126  0.1992  1.2413
 2045SOL     OW17593   4.476   3.608  15.703 -0.0166  0.2283 -1.0606
 2045SOL    HW117594   4.540   3.584  15.637 -0.3329 -2.6123 -0.3141
 2045SOL    HW217595   4.459   3.701  15.684 -0.1209  0.1505 -1.3523
 2046SOL     OW17596   2.534   4.024   2.801  0.1774 -0.0109 -0.1989
 2046SOL    HW117597   2.502   4.054   2.886 -0.1797  0.1183 -0.3804
 2046SOL    HW217598   2.457   3.972   2.779  0.6260 -1.3292  1.3171
 2047SOL     OW17599   3.233   0.439   9.194 -0.6293 -0.0258  0.3873
 2047SOL    HW117600   3.312   0.476   9.233 -0.1276  1.9090 -2.4533
 2047SOL    HW217601   3.218   0.503   9.125 -0.8347 -0.8541 -0.3392
 2048SOL     OW17602   1.295   0.719   4.550 -0.1570  0.1923 -0.3730
 2048SOL    HW117603   1.316   0.627   4.534 -1.9013 -0.1640 -0.6697
 2048SOL    HW217604   1.308   0.757   4.463 -0.1046  0.1762 -0.3721
 2049SOL     OW17605   4.017   3.757   2.241  0.4584 -0.5276  1.0155
 2049SOL    HW117606   4.022   3.790   2.331 -1.6730 -1.3352  1.4354
 2049SOL    HW217607   4.080   3.819   2.204 -0.5617  0.7286  1.3750
 2050SOL     OW17608   3.657   0.822   2.339 -0.1528 -0.0490 -0.2680
 2050SOL    HW117609   3.629   0.895   2.395 -0.5261 -0.9990  0.7855
 2050SOL    HW217610   3.642   0.870   2.258  0.3126  0.1256 -0.2538
 2051SOL     OW17611   0.332   2.600  16.535 -0.1585 -0.0148  0.5299
 2051SOL    HW117612   0.241   2.573  16.535  0.3834 -1.8600  1.9472
 2051SOL    HW217613   0.382   2.519  16.528 -1.1960 -0.7928  2.3472
 2052SOL     OW17614   3.718   0.051   3.784 -0.1233  1.2604  0.1189
 2052SOL    HW117615   3.696   4.685   3.761  1.4948 -0.3311  4.7624
 2052SOL    HW217616   3.671   0.107   3.723  2.5443  1.5086 -1.7179
 2053SOL     OW17617   2.232   4.216   8.007  0.1403 -0.0390  0.0080
 2053SOL    HW117618   2.244   4.190   8.098  1.4524 -1.6412 -0.6046
 2053SOL    HW217619   2.319   4.194   7.971  0.9673 -0.9081  2.5781
 2054SOL     OW17620   3.589   2.277  11.120 -0.0090  0.3099  0.3201
 2054SOL    HW117621   3.500   2.292  11.088 -0.6163 -1.7502  1.0329
 2054SOL    HW217622   3.641   2.314  11.049 -0.5641  0.5450  0.0425
 2055SOL     OW17623   0.192   2.080  15.425 -0.0349 -0.6025 -0.1357
 2055SOL    HW117624   0.256   2.024  15.469 -1.5210 -1.3157  1.1282
 2055SOL    HW217625   0.178   2.031  15.343 -0.1530 -3.1678  1.4082
 2056SOL     OW17626   0.738   0.216   0.169  0.1006  0.5260  0.5151
 2056SOL    HW117627   0.718   0.227   0.262  2.3960 -1.5221  1.2411
 2056SOL    HW217628   0.784   0.132   0.171 -0.2610  0.3428  1.0754
 2057SOL     OW17629   1.586   0.611   5.595  0.4232 -0.0536 -0.1354
 2057SOL    HW117630   1.524   0.550   5.554 -0.0968  1.3032 -1.3610
 2057SOL    HW217631   1.668   0.572   5.564  0.2873 -2.5890  2.6937
 2058SOL     OW17632   1.235   4.453  13.465  0.1295 -0.3644 -0.4100
 2058SOL    HW117633   1.235   4.371  13.416 -0.3947 -1.3693  1.2524
 2058SOL    HW217634   1.166   4.434  13.529  3.3010  1.2906  3.5341
 2059SOL     OW17635   3.121   2.889   9.180 -0.4255  0.0380  0.4110
 2059SOL    HW117636   3.183   2.959   9.159  0.9519 -0.7167  1.8980
 2059SOL    HW217637   3.171   2.835   9.241  0.1400 -1.8585 -1.7403
 2060SOL     OW17638   2.629   0.741   8.592  0.6001  0.2427 -0.7328
 2060SOL    HW117639   2.660   0.832   8.589 -0.3315  0.5339 -1.4925
 2060SOL    HW217640   2.679   0.706   8.666  0.5708  2.0223  0.1488
 2061SOL     OW17641   3.514   3.773   3.034 -0.5300  0.1061  0.4204
 2061SOL    HW117642   3.462   3.844   3.073  2.3072  0.6920  3.1612
 2061SOL    HW217643   3.448   3.708   3.011 -0.6197 -0.3237  1.8861
 2062SOL     OW17644   0.206   1.529   3.936  0.2443  0.4062  0.0866
 2062SOL    HW117645   0.133   1.590   3.938 -1.4927 -1.6342 -0.9402
 2062SOL    HW217646   0.202   1.501   3.844  0.1693  0.6525  0.0165
 2063SOL     OW17647   4.613   2.983   1.840  0.4665 -0.1517  0.2349
 2063SOL    HW117648   4.587   3.072   1.818  0.0769 -0.2077  0.4655
 2063SOL    HW217649   4.546   2.925   1.802 -0.1053 -0.0798  1.1472
 2064SOL     OW17650   4.277   2.735   5.486  0.3447  0.0973  0.5874
 2064SOL    HW117651   4.357   2.686   5.468 -1.6601 -2.6226 -0.9850
 2064SOL    HW217652   4.217   2.734   5.412  1.5111 -2.0290 -0.3280
 2065SOL     OW17653   0.847   4.332   5.132  0.0125  0.4780 -0.0912
 2065SOL    HW117654   0.940   4.355   5.121 -0.2239  2.3871  1.9692
 2065SOL    HW217655   0.827   4.257   5.076  0.3622  0.0817  0.3192
 2066SOL     OW17656   2.266   2.688  11.644 -0.1718  0.1435  0.0569
 2066SOL    HW117657   2.360   2.697  11.627 -0.2969 -0.2927 -0.8668
 2066SOL    HW217658   2.237   2.653  11.560  1.0130  0.1250 -0.3504
 2067SOL     OW17659   3.224   3.349  15.973  0.1170 -0.4109  0.4033
 2067SOL    HW117660   3.254   3.417  15.912 -3.5280  0.5471 -0.3755
 2067SOL    HW217661   3.262   3.275  15.926 -0.7968 -1.4178  1.2590
 2068SOL     OW17662   0.744   2.792   4.464 -0.2472 -0.7311 -0.1127
 2068SOL    HW117663   0.828   2.815   4.425 -0.5236  0.0581 -0.2431
 2068SOL    HW217664   0.737   2.707   4.421  0.0072 -0.8204  0.0229
 2069SOL     OW17665   4.141   1.608  11.364 -0.3324  0.1000 -0.3969
 2069SOL    HW117666   4.196   1.621  11.287  1.4104  0.7641  0.9557
 2069SOL    HW217667   4.083   1.535  11.343  1.8970 -1.5057 -0.9457
 2070SOL     OW17668   0.817   0.568   2.773 -0.1716 -0.6554  0.3640
 2070SOL    HW117669   0.822   0.656   2.812 -2.3034 -1.3118  2.0971
 2070SOL    HW217670   0.772   0.595   2.693 -0.3917 -0.9072  0.4064
 2071SOL     OW17671   3.162   1.093  15.223  0.1065 -0.0197  0.0046
 2071SOL    HW117672   3.156   1.148  15.301 -0.2277  2.9108 -2.1111
 2071SOL    HW217673   3.072   1.094  15.191 -0.3295  1.8675  1.2955
 2072SOL     OW17674   1.530   0.524  13.368  0.3837  0.4346  0.4529
 2072SOL    HW117675   1.498   0.438  13.339  0.1027  1.2060 -1.5739
 2072SOL    HW217676   1.585   0.553  13.295 -1.0635  0.4976 -0.6257
 2073SOL     OW17677   3.553   1.604   4.169 -0.1704 -0.1256  0.2745
 2073SOL    HW117678   3.534   1.695   4.147 -0.2475 -0.3335 -0.5215
 2073SOL    HW217679   3.637   1.608   4.214  0.1700  0.1638 -0.3912
 2074SOL     OW17680   4.199   1.301   7.411 -0.0795  0.7558  0.0510
 2074SOL    HW117681   4.272   1.238   7.408  0.2611  1.0049  2.5937
 2074SOL    HW217682   4.128   1.248   7.375 -0.3963  0.7376  0.6994
 2075SOL     OW17683   2.404   0.086  17.541 -0.1415 -0.1003 -0.0847
 2075SOL    HW117684   2.400   0.169  17.587  0.4893 -0.5668  0.8144
 2075SOL    HW217685   2.476   0.108  17.482 -2.8276  1.9010 -2.6139
 2076SOL     OW17686   2.724   2.691   5.629 -0.4607 -0.1491 -0.1627
 2076SOL    HW117687   2.727   2.688   5.724 -0.8476 -4.1561 -0.2934
 2076SOL    HW217688   2.707   2.599   5.607  1.0413 -0.1283 -1.4301
 2077SOL     OW17689   1.066   0.186   9.526 -0.8084 -0.2021  0.4229
 2077SOL    HW117690   1.008   0.114   9.502 -0.6067  0.0484 -0.8326
 2077SOL    HW217691   1.079   0.235   9.445 -1.5061 -1.4937 -0.4525
 2078SOL     OW17692   0.275   2.971   1.243 -0.0782  0.6502  0.7503
 2078SOL    HW117693   0.331   2.909   1.196  0.8847  1.2513  1.1091
 2078SOL    HW217694   0.189   2.929   1.238 -0.0700  0.7081  0.1029
 2079SOL     OW17695   0.205   2.363   1.793  0.6293 -0.7169  0.1151
 2079SOL    HW117696   0.183   2.311   1.716 -0.3859 -2.2419  1.4387
 2079SOL    HW217697   0.298   2.377   1.774  0.8987 -1.2039  1.0403
 2080SOL     OW17698   2.672   1.273   2.998  0.4571 -0.1998 -0.2751
 2080SOL    HW117699   2.615   1.320   2.938 -1.6178 -1.6804  0.5056
 2080SOL    HW217700   2.685   1.187   2.958 -0.2417 -0.4554  0.0344
 2081SOL     OW17701   0.850   3.165   5.768 -0.0669 -0.1942  0.2716
 2081SOL    HW117702   0.796   3.173   5.689 -1.1155  2.4477  1.2610
 2081SOL    HW217703   0.784   3.167   5.838 -0.4473  0.1891 -0.0919
 2082SOL     OW17704   3.885   3.816   7.672  0.0557 -0.4567  0.1912
 2082SOL    HW117705   3.906   3.835   7.764  0.2787  0.9730 -0.1513
 2082SOL    HW217706   3.953   3.753   7.649 -0.6978 -1.6511  1.2666
 2083SOL     OW17707   0.117   0.650   4.412  0.5795  0.3814 -0.3456
 2083SOL    HW117708   0.075   0.719   4.362 -0.0107 -0.2682 -0.7487
 2083SOL    HW217709   0.091   0.580   4.353  0.8115  0.5601 -0.6598
 2084SOL     OW17710   3.049   3.883   5.689  0.6835  0.2551  0.2005
 2084SOL    HW117711   3.010   3.971   5.686 -2.5861 -1.2379 -1.2769
 2084SOL    HW217712   3.138   3.900   5.719  0.0570 -2.2118  3.4074
 2085SOL     OW17713   2.591   0.533  16.172  0.0233 -0.3382  0.0564
 2085SOL    HW117714   2.552   0.557  16.088  0.0726  0.9767  0.4155
 2085SOL    HW217715   2.578   0.438  16.172  0.6548 -0.4274 -0.4695
 2086SOL     OW17716   4.338   4.270  11.214 -0.1157  0.4174  0.4430
 2086SOL    HW117717   4.249   4.246  11.191 -0.0648 -0.2184  0.8849
 2086SOL    HW217718   4.356   4.190  11.264 -0.7868  0.5121  0.8426
 2087SOL     OW17719   2.570   4.038  13.745 -0.0827 -0.2850 -0.8555
 2087SOL    HW117720   2.493   3.996  13.706 -1.0967  0.3662  0.4481
 2087SOL    HW217721   2.634   4.038  13.674 -0.9493 -1.3547 -1.6429
 2088SOL     OW17722   1.726   1.678   9.633 -0.1896  0.2994 -0.6429
 2088SOL    HW117723   1.747   1.765   9.667  0.6395 -0.1718  0.0956
 2088SOL    HW217724   1.705   1.628   9.713  1.9751  1.5995  0.7560
 2089SOL     OW17725   0.440   4.123   7.648  0.0879  0.1390 -0.3610
 2089SOL    HW117726   0.468   4.213   7.628  0.8337  0.1113  0.5314
 2089SOL    HW217727   0.358   4.137   7.695 -0.1294 -2.4766  0.0028
 2090SOL     OW17728   3.302   3.441   8.755  0.2645  0.4473  0.1729
 2090SOL    HW117729   3.317   3.374   8.822  3.2448 -1.2866 -2.2454
 2090SOL    HW217730   3.252   3.510   8.799 -1.0009 -1.0870  1.1304
 2091SOL     OW17731   2.368   4.105   9.925 -0.5789  0.4760 -0.9150
 2091SOL    HW117732   2.280   4.140   9.935 -0.3045  0.2369  2.2900
 2091SOL    HW217733   2.414   4.137  10.003 -0.3806 -0.1700 -0.7655
 2092SOL     OW17734   4.019   2.458   5.955 -0.5571 -0.2263  0.0435
 2092SOL    HW117735   4.023   2.541   5.907  1.6378 -1.5715 -2.1645
 2092SOL    HW217736   4.087   2.483   6.018 -1.2893 -2.0488  1.5457
 2093SOL     OW17737   3.832   1.364   1.013 -0.4169 -0.2076  0.3289
 2093SOL    HW117738   3.905   1.308   0.986  0.2606  1.9509 -2.3883
 2093SOL    HW217739   3.782   1.299   1.062 -0.6382  0.2337  0.6862
 2094SOL     OW17740   3.490   1.723  16.636 -0.3245 -0.0003 -0.0663
 2094SOL    HW117741   3.395   1.713  16.634 -0.3967  0.5512  1.3014
 2094SOL    HW217742   3.512   1.806  16.679 -1.5904 -0.1122  0.7697
 2095SOL     OW17743   4.260   3.468  16.708  0.4011  0.3538 -0.3793
 2095SOL    HW117744   4.245   3.383  16.665  0.2587  0.4158 -0.4544
 2095SOL    HW217745   4.179   3.507  16.674 -1.6645 -1.2634  2.6249
 2096SOL     OW17746   3.876   0.776  14.001 -0.2045 -0.3228 -0.3258
 2096SOL    HW117747   3.934   0.768  13.926 -1.3049  0.7420 -1.3025
 2096SOL    HW217748   3.860   0.683  14.019 -0.7367 -0.1402  0.1640
 2097SOL     OW17749   3.621   1.929  10.442  0.2404  0.1988 -0.3461
 2097SOL    HW117750   3.640   1.957  10.353  0.8615 -0.6193 -0.4728
 2097SOL    HW217751   3.528   1.910  10.432  0.0794 -0.0230  1.4923
 2098SOL     OW17752   4.189   1.392   5.881  0.5465 -0.4015 -0.1206
 2098SOL    HW117753   4.173   1.394   5.975  0.3456  1.0451 -0.1909
 2098SOL    HW217754   4.284   1.397   5.874  0.7261 -0.2697  2.5434
 2099SOL     OW17755   0.325   4.127  10.551  0.1403  0.0399 -0.0970
 2099SOL    HW117756   0.278   4.154  10.630 -1.1425 -1.2745 -0.3888
 2099SOL    HW217757   0.250   4.128  10.491  1.3548 -0.4350 -1.6016
 2100SOL     OW17758   3.432   1.965  11.167 -0.3676  0.2034  0.0059
 2100SOL    HW117759   3.400   1.943  11.079 -0.1437  2.3916 -0.6005
 2100SOL    HW217760   3.388   1.895  11.215  1.2550 -0.2100  0.9057
 2101SOL     OW17761   3.630   0.347   1.420 -0.1020  0.0358  0.4573
 2101SOL    HW117762   3.645   0.295   1.499 -0.1848 -0.2626  0.2771
 2101SOL    HW217763   3.707   0.332   1.366 -0.8638 -0.0939 -0.6111
 2102SOL     OW17764   1.542   4.401  14.759  0.1704  0.8665 -0.1813
 2102SOL    HW117765   1.589   4.461  14.701  0.1696  0.4844 -0.5816
 2102SOL    HW217766   1.455   4.398  14.718  0.0450 -1.6070  0.2699
 2103SOL     OW17767   3.668   3.633   8.322 -0.1072  0.5372  0.6403
 2103SOL    HW117768   3.603   3.637   8.392 -0.3414 -1.0773  0.5159
 2103SOL    HW217769   3.716   3.554   8.344  0.2485  0.0392 -1.8788
 2104SOL     OW17770   4.269   0.155   4.154  0.7536 -0.4004  0.0429
 2104SOL    HW117771   4.359   0.126   4.139  2.1150  3.0541  1.4661
 2104SOL    HW217772   4.281   0.249   4.166 -1.1213  0.0359 -1.5514
 2105SOL     OW17773   2.058   2.677  10.088  0.3098  0.5604  0.0846
 2105SOL    HW117774   2.022   2.667  10.000  1.1491 -0.3764 -0.1560
 2105SOL    HW217775   2.132   2.621  10.062 -0.1529 -0.6966  1.5184
 2106SOL     OW17776   0.977   2.151   2.361 -0.6653  0.0172  0.0385
 2106SOL    HW117777   0.950   2.133   2.452  0.6519 -1.3284  0.1599
 2106SOL    HW217778   1.035   2.226   2.378 -0.9866  0.3704 -0.4536
 2107SOL     OW17779   0.689   2.605   0.482 -0.2235  0.0324 -0.1480
 2107SOL    HW117780   0.761   2.587   0.542 -1.0957 -2.9324  0.0110
 2107SOL    HW217781   0.679   2.518   0.444  2.2662  0.6280 -2.1536
 2108SOL     OW17782   1.861   3.138  12.911 -0.0676 -0.3386  0.2281
 2108SOL    HW117783   1.929   3.084  12.870  1.6560  1.0727  1.2040
 2108SOL    HW217784   1.912   3.207  12.955  0.4287 -0.1750 -0.5946
 2109SOL     OW17785   2.626   4.222   8.822  0.2041  0.0474  0.5637
 2109SOL    HW117786   2.559   4.238   8.889 -1.4171  0.3048 -1.1366
 2109SOL    HW217787   2.568   4.223   8.746  0.4772 -1.1626  0.3523
 2110SOL     OW17788   0.109   3.556  14.004 -0.1860  0.3728  0.0513
 2110SOL    HW117789   0.018   3.585  13.999 -0.8757 -1.5722  1.1448
 2110SOL    HW217790   0.091   3.478  14.057  0.8269  1.4223  1.9367
 2111SOL     OW17791   1.390   1.695   6.399  0.3388 -0.8039  0.2842
 2111SOL    HW117792   1.336   1.664   6.326 -1.5127  2.5057  0.2064
 2111SOL    HW217793   1.451   1.624   6.415  1.7116 -0.1650 -2.0382
 2112SOL     OW17794   2.633   1.301   2.103  0.1765 -0.6752 -0.4901
 2112SOL    HW117795   2.577   1.349   2.164  2.4613  1.8041 -0.3457
 2112SOL    HW217796   2.575   1.231   2.073 -0.6989  0.2149 -0.8724
 2113SOL     OW17797   1.743   1.104   8.024 -0.4482  0.2404 -0.0434
 2113SOL    HW117798   1.756   1.199   8.026 -0.4905  0.2545 -0.5463
 2113SOL    HW217799   1.822   1.075   7.979  0.1696  1.1702  0.4343
 2114SOL     OW17800   3.838   1.884   7.892 -0.5717 -0.1143 -0.3538
 2114SOL    HW117801   3.805   1.795   7.887 -1.2534  0.1167  0.0670
 2114SOL    HW217802   3.933   1.877   7.879 -0.4086 -0.9325  1.3331
 2115SOL     OW17803   2.416   1.080  16.742  0.2793 -0.0737 -0.4002
 2115SOL    HW117804   2.501   1.119  16.723  0.9380 -1.9805 -1.2706
 2115SOL    HW217805   2.398   1.033  16.661 -0.2595 -1.3700  0.4790
 2116SOL     OW17806   3.015   3.108   2.325  0.2824  0.0726 -0.1229
 2116SOL    HW117807   2.999   3.197   2.356  0.3308 -0.5308  1.6174
 2116SOL    HW217808   3.095   3.082   2.370  0.7397 -1.4632 -1.8360
 2117SOL     OW17809   0.694   3.059   4.702  0.3985 -0.2563 -0.2644
 2117SOL    HW117810   0.737   2.988   4.750  3.0675  1.6219  0.1201
 2117SOL    HW217811   0.679   3.121   4.773  0.1931  0.6269 -1.0750
 2118SOL     OW17812   0.358   3.087  16.149  0.4469 -0.2654  0.6614
 2118SOL    HW117813   0.406   3.066  16.229  2.6742  0.0915 -0.5523
 2118SOL    HW217814   0.308   3.007  16.133 -0.2216  0.4197 -0.6909
 2119SOL     OW17815   3.945   3.716   6.729  0.4658 -0.0148 -0.4251
 2119SOL    HW117816   3.918   3.628   6.701  1.1009 -0.3061 -0.1297
 2119SOL    HW217817   4.008   3.701   6.799 -0.3760 -4.0073 -0.4872
 2120SOL     OW17818   3.377   4.714   5.216 -0.1853 -0.7490  0.5246
 2120SOL    HW117819   3.396   0.009   5.308 -0.3317  0.9486  0.1966
 2120SOL    HW217820   3.456   0.024   5.174 -1.3930 -0.1683 -1.2474
 2121SOL     OW17821   1.707   0.305   2.570  0.6164  0.3933 -0.1324
 2121SOL    HW117822   1.788   0.330   2.614  0.4064 -0.7605  0.8990
 2121SOL    HW217823   1.724   0.229   2.514 -0.9681 -0.2361  0.2346
 2122SOL     OW17824   1.920   0.963   8.942 -0.7124  0.7406 -0.2644
 2122SOL    HW117825   1.943   0.930   9.029 -1.3827  1.6487  0.2530
 2122SOL    HW217826   1.966   0.897   8.890  1.1316  0.7143  1.3935
 2123SOL     OW17827   1.070   3.783  15.658  0.0484  0.1071  0.3403
 2123SOL    HW117828   1.118   3.701  15.671  1.3412  0.6321 -1.1196
 2123SOL    HW217829   1.147   3.815  15.612  1.4847 -1.2699  1.7813
 2124SOL     OW17830   4.565   1.606   3.267 -0.0565  0.3660 -0.3458
 2124SOL    HW117831   4.524   1.615   3.353 -0.6882 -3.2538 -0.2765
 2124SOL    HW217832   4.505   1.547   3.222 -2.0176  2.0136  0.1546
 2125SOL     OW17833   1.217   4.585  12.219  0.2069 -0.1704 -0.2166
 2125SOL    HW117834   1.227   4.578  12.314  0.6619  1.1961 -0.1747
 2125SOL    HW217835   1.203   4.495  12.187 -0.4515  0.2239 -1.0534
 2126SOL     OW17836   0.472   2.378  12.569  0.3459 -0.2783 -0.4115
 2126SOL    HW117837   0.552   2.431  12.573 -1.4170  2.4041 -0.8806
 2126SOL    HW217838   0.407   2.448  12.570 -0.5543 -1.1065 -0.9840
 2127SOL     OW17839   2.938   0.081   6.862  0.4074  0.7147  0.1440
 2127SOL    HW117840   2.883   0.146   6.906 -1.5591  0.0146 -1.2644
 2127SOL    HW217841   3.012   0.135   6.834  0.9585 -0.7661 -1.2639
 2128SOL     OW17842   2.447   3.162   6.191 -0.1044  0.1435  0.0480
 2128SOL    HW117843   2.418   3.207   6.270  0.2821 -2.2996  1.5802
 2128SOL    HW217844   2.376   3.099   6.174 -0.8930  0.9153  0.4838
 2129SOL     OW17845   0.733   3.657   3.061  0.0017 -0.4466  0.0546
 2129SOL    HW117846   0.727   3.565   3.085  1.2711 -0.3933  0.5588
 2129SOL    HW217847   0.819   3.658   3.018  0.3151  2.6431  0.7698
 2130SOL     OW17848   1.719   3.000   5.724  0.1054 -0.5188  0.0528
 2130SOL    HW117849   1.803   2.970   5.760 -0.0776 -1.1410 -0.0342
 2130SOL    HW217850   1.702   2.920   5.674  2.7275 -0.1950 -1.3536
 2131SOL     OW17851   2.132   1.540   9.286  0.0461 -0.1756  0.0099
 2131SOL    HW117852   2.135   1.611   9.221 -2.2259 -1.4681 -1.5042
 2131SOL    HW217853   2.202   1.550   9.349 -0.9712 -1.2374  1.2955
 2132SOL     OW17854   1.814   1.896  13.467  0.0564  0.3015 -0.2748
 2132SOL    HW117855   1.822   1.882  13.561  0.7956 -2.2170 -0.7120
 2132SOL    HW217856   1.907   1.883  13.448  0.5206 -0.8380  2.8067
 2133SOL     OW17857   0.281   3.283   0.512  0.5028 -0.3786  0.3452
 2133SOL    HW117858   0.284   3.202   0.462  0.7256 -0.2335  0.1215
 2133SOL    HW217859   0.231   3.254   0.588 -2.6619 -1.2504 -2.0557
 2134SOL     OW17860   2.218   2.996  11.642 -0.0613 -0.0160  0.4964
 2134SOL    HW117861   2.308   3.015  11.671  0.1813  1.7335 -1.4486
 2134SOL    HW217862   2.200   2.911  11.683  0.9155 -2.0174 -3.2157
 2135SOL     OW17863   0.441   2.816  10.421 -0.0794  0.2358  0.2157
 2135SOL    HW117864   0.456   2.900  10.377 -0.8990 -0.3079 -1.1018
 2135SOL    HW217865   0.531   2.783  10.427  0.4223  1.6411  0.4082
 2136SOL     OW17866   3.605   1.104  14.599  0.1040 -0.3878  0.3804
 2136SOL    HW117867   3.596   1.041  14.527 -1.4162 -0.8904  0.9986
 2136SOL    HW217868   3.546   1.064  14.663 -1.7454  1.0638 -0.4086
 2137SOL     OW17869   1.521   0.920   9.176 -0.5571 -0.0135 -0.4048
 2137SOL    HW117870   1.443   0.933   9.121 -0.3987  0.3121 -0.5518
 2137SOL    HW217871   1.585   0.916   9.105 -0.8683  1.3007 -0.7740
 2138SOL     OW17872   1.479   2.499   7.003 -0.2808 -0.0274  0.1237
 2138SOL    HW117873   1.544   2.468   7.066  1.0140  1.5456 -0.4422
 2138SOL    HW217874   1.403   2.451   7.038  1.1825 -3.0410 -0.8496
 2139SOL     OW17875   2.746   2.227   6.912  0.1720 -0.7133 -0.3682
 2139SOL    HW117876   2.830   2.192   6.942  0.1708 -0.1550  0.2859
 2139SOL    HW217877   2.772   2.318   6.896 -0.0922 -0.5827 -0.0468
 2140SOL     OW17878   4.299   4.003   6.852 -0.9807  0.2230  0.5636
 2140SOL    HW117879   4.276   3.952   6.774  2.5675  0.5527 -0.6961
 2140SOL    HW217880   4.335   3.929   6.901 -2.8931  0.2154  1.9693
 2141SOL     OW17881   0.214   2.449   0.797 -0.4745 -0.2949 -0.3130
 2141SOL    HW117882   0.287   2.423   0.741  0.7811  2.1257  0.1830
 2141SOL    HW217883   0.141   2.397   0.763  0.1714 -0.4224 -1.4940
 2142SOL     OW17884   1.486   3.742   2.852 -0.2093  0.8615  0.1149
 2142SOL    HW117885   1.430   3.679   2.807  0.1620  0.1821  0.6180
 2142SOL    HW217886   1.438   3.823   2.834 -1.1292  0.2620 -0.1202
 2143SOL     OW17887   2.988   1.984   0.037 -0.0933 -0.4092 -0.6778
 2143SOL    HW117888   3.052   2.056   0.031  0.2024 -0.8615 -2.7199
 2143SOL    HW217889   3.028   1.931   0.106 -1.5599  0.6096  0.9804
 2144SOL     OW17890   1.780   2.313   9.455 -0.5697  0.3827 -0.5761
 2144SOL    HW117891   1.863   2.308   9.502 -2.0441 -0.0525  1.9641
 2144SOL    HW217892   1.730   2.240   9.492 -0.3102  1.0052  0.9776
 2145SOL     OW17893   0.864   2.718   8.359 -0.2731  0.5032  0.2082
 2145SOL    HW117894   0.824   2.792   8.404 -1.2188  1.4962 -2.2614
 2145SOL    HW217895   0.955   2.743   8.342 -0.5893 -1.1137 -3.9210
 2146SOL     OW17896   0.294   1.878   8.601 -0.1558  0.3814 -0.3527
 2146SOL    HW117897   0.306   1.787   8.627  0.6581 -0.1700 -2.6335
 2146SOL    HW217898   0.209   1.900   8.639  1.0115 -1.2455  3.1905
 2147SOL     OW17899   1.051   3.669  14.881 -0.1677  0.1518 -0.3293
 2147SOL    HW117900   1.006   3.673  14.797 -1.3180 -0.0471  0.2797
 2147SOL    HW217901   1.095   3.584  14.879 -1.7538 -0.7268  2.5094
 2148SOL     OW17902   0.991   2.396   0.398  0.2415 -0.0603  0.7508
 2148SOL    HW117903   0.960   2.399   0.488 -1.8949  0.1477  0.0136
 2148SOL    HW217904   1.077   2.432   0.417  0.0599 -0.2630  1.9151
 2149SOL     OW17905   3.333   1.107   5.206  0.3487 -0.3466  0.0881
 2149SOL    HW117906   3.335   1.127   5.113  0.5393 -0.0722  0.1517
 2149SOL    HW217907   3.425   1.086   5.217  0.6815  1.7888  1.4063
 2150SOL     OW17908   3.405   3.738   6.976 -0.6125  0.5274 -0.3389
 2150SOL    HW117909   3.378   3.670   7.037  2.2082 -0.6754 -0.4044
 2150SOL    HW217910   3.444   3.800   7.038  0.2947 -1.7679  1.3810
 2151SOL     OW17911   0.030   0.390  14.076  0.2352 -0.1001 -0.1302
 2151SOL    HW117912   0.051   0.425  14.163  1.6887 -0.2770 -0.4085
 2151SOL    HW217913   0.044   0.468  14.022  0.0906 -0.3175 -0.4803
 2152SOL     OW17914   2.671   3.378  11.383 -0.0085  0.2464 -0.4991
 2152SOL    HW117915   2.761   3.397  11.408  0.0450 -2.3361  1.2525
 2152SOL    HW217916   2.673   3.283  11.384 -2.9698  0.1965  1.4384
 2153SOL     OW17917   2.048   0.395   6.227  0.5341  0.0477 -0.5123
 2153SOL    HW117918   1.998   0.476   6.223  0.0617 -0.2146  0.1151
 2153SOL    HW217919   2.118   0.419   6.166  0.6057  1.7772  0.2536
 2154SOL     OW17920   0.680   2.909   5.181  0.6183 -0.5385 -0.6841
 2154SOL    HW117921   0.733   2.878   5.108 -0.0015 -0.3237 -1.2252
 2154SOL    HW217922   0.590   2.902   5.149  0.2685 -0.9678  0.3964
 2155SOL     OW17923   0.854   2.393   9.878  0.3858  0.0715 -0.6266
 2155SOL    HW117924   0.876   2.392   9.971  0.4062 -0.8151 -0.6398
 2155SOL    HW217925   0.888   2.307   9.851 -1.5024 -1.2119  1.0362
 2156SOL     OW17926   3.508   1.035   5.466 -0.2698  0.0269 -0.7450
 2156SOL    HW117927   3.544   1.100   5.527  1.3872 -2.2343  0.6877
 2156SOL    HW217928   3.520   1.076   5.380 -0.7990  0.0908 -0.7944
 2157SOL     OW17929   1.292   1.057   7.899  0.3646 -0.2266  0.0558
 2157SOL    HW117930   1.330   1.098   7.821 -1.0406 -0.2206 -0.6186
 2157SOL    HW217931   1.339   1.111   7.963  1.3603  2.2292 -2.7578
 2158SOL     OW17932   0.847   3.695   6.038 -0.2402 -0.4719  0.3262
 2158SOL    HW117933   0.766   3.744   6.023  0.4738  1.6601  3.2761
 2158SOL    HW217934   0.927   3.744   6.017 -0.1164 -1.9085 -2.5333
 2159SOL     OW17935   2.624   4.613   9.079  0.2182 -0.0237  0.1595
 2159SOL    HW117936   2.554   4.617   9.014  1.6919 -0.6929 -1.4469
 2159SOL    HW217937   2.701   4.600   9.024  1.4903 -0.2005  1.9928
 2160SOL     OW17938   4.335   2.866   1.059  0.4559  0.3740  0.4571
 2160SOL    HW117939   4.278   2.892   1.132 -0.7654 -1.4319  0.1366
 2160SOL    HW217940   4.298   2.905   0.979  0.9815 -0.5006 -0.2055
 2161SOL     OW17941   4.176   1.336   2.853 -0.0080  0.0632 -0.3357
 2161SOL    HW117942   4.129   1.322   2.770  1.1176  0.0247 -0.9567
 2161SOL    HW217943   4.250   1.277   2.841 -0.0696 -0.1269  0.1886
 2162SOL     OW17944   4.289   1.317   2.298 -0.0171  0.0881 -0.0394
 2162SOL    HW117945   4.311   1.382   2.231 -0.5592  0.3481  0.0322
 2162SOL    HW217946   4.236   1.250   2.254  1.2981  0.6978 -2.5505
 2163SOL     OW17947   0.106   4.029   5.093  0.1367 -0.2414  0.4391
 2163SOL    HW117948   0.033   4.087   5.117 -2.2818 -3.3132  0.5249
 2163SOL    HW217949   0.171   4.097   5.079 -1.0429  0.8338  0.1404
 2164SOL     OW17950   1.768   3.540   5.298  0.2916 -0.3903 -0.1355
 2164SOL    HW117951   1.819   3.559   5.377  0.0704  0.6150 -0.2292
 2164SOL    HW217952   1.830   3.485   5.250  0.2255 -1.6049  1.1639
 2165SOL     OW17953   1.627   4.489   0.006 -0.3342  0.0599 -0.3033
 2165SOL    HW117954   1.572   4.551   0.053  0.0230 -0.8917  1.3634
 2165SOL    HW217955   1.592   4.408   0.044  0.3393 -0.4253 -0.7014
 2166SOL     OW17956   1.558   2.861  13.100 -0.0142 -0.2121  0.0217
 2166SOL    HW117957   1.580   2.936  13.045  1.2439 -0.6316 -0.0436
 2166SOL    HW217958   1.516   2.804  13.035 -0.5792  2.7532 -2.2229
 2167SOL     OW17959   3.613   4.412   7.330  0.5071 -0.0886  0.1209
 2167SOL    HW117960   3.637   4.504   7.342  2.1912 -0.3868 -1.0437
 2167SOL    HW217961   3.550   4.397   7.400  3.1894  1.8611  2.9722
 2168SOL     OW17962   4.432   0.215   6.870  0.3822  0.5106  0.7285
 2168SOL    HW117963   4.521   0.192   6.898  1.5851  2.4610 -1.4808
 2168SOL    HW217964   4.398   0.224   6.959  0.2753  4.3557  0.3283
 2169SOL     OW17965   3.215   3.426  16.245  0.8853  0.0124 -0.4685
 2169SOL    HW117966   3.216   3.424  16.149 -0.5870 -1.1473 -0.4563
 2169SOL    HW217967   3.215   3.521  16.259 -0.6699  0.2186 -1.9169
 2170SOL     OW17968   4.259   2.576   7.388 -0.0491 -0.0656 -0.3368
 2170SOL    HW117969   4.212   2.496   7.364 -0.0327  0.0435 -0.7443
 2170SOL    HW217970   4.341   2.540   7.422 -0.2196 -0.6158 -0.5098
 2171SOL     OW17971   4.044   2.198   4.119  0.2573 -0.6495  0.2785
 2171SOL    HW117972   4.118   2.187   4.059  1.3309  0.2993  1.4153
 2171SOL    HW217973   4.019   2.108   4.138  0.0554 -0.3114  1.6477
 2172SOL     OW17974   3.646   2.395   6.971 -0.1981 -0.0589  0.4109
 2172SOL    HW117975   3.606   2.455   7.034  0.4574 -1.0247  1.7503
 2172SOL    HW217976   3.590   2.409   6.895  0.1989  1.3008  0.3651
 2173SOL     OW17977   2.823   2.644   4.446 -0.1785 -0.4778  0.0418
 2173SOL    HW117978   2.846   2.722   4.497 -0.4336  1.1808 -2.3678
 2173SOL    HW217979   2.806   2.597   4.527  1.2531 -0.4018  0.3861
 2174SOL     OW17980   0.662   2.313  11.434 -0.3671  0.3931 -0.0889
 2174SOL    HW117981   0.667   2.386  11.495  2.3668  0.4014 -0.3158
 2174SOL    HW217982   0.755   2.303  11.413 -0.5621  2.7574 -2.1415
 2175SOL     OW17983   4.651   1.922   8.178 -0.0063  0.0200 -0.1810
 2175SOL    HW117984   4.578   1.862   8.165  0.4245 -0.3999 -0.6934
 2175SOL    HW217985   4.628   1.972   8.100  1.5240  0.8123 -0.1308
 2176SOL     OW17986   0.624   2.727   2.994 -0.4397  0.0318 -0.3637
 2176SOL    HW117987   0.686   2.655   3.004  0.4601  1.0815  1.5840
 2176SOL    HW217988   0.678   2.795   2.955  0.4303 -1.2614 -1.4255
 2177SOL     OW17989   1.663   3.483   7.097 -0.0468  0.2812 -0.0760
 2177SOL    HW117990   1.591   3.502   7.037 -0.2843  0.2756  0.2039
 2177SOL    HW217991   1.684   3.391   7.084  0.1530  0.5779 -1.7638
 2178SOL     OW17992   1.049   2.939   8.566  0.0993  0.0202 -0.1209
 2178SOL    HW117993   1.131   2.891   8.581  0.9339  1.9118  1.4094
 2178SOL    HW217994   1.065   3.013   8.625 -1.0023 -0.8241  1.2228
 2179SOL     OW17995   3.412   3.021   9.096 -0.3028 -0.1387 -0.2576
 2179SOL    HW117996   3.471   2.948   9.113  1.3556  0.9678 -1.2351
 2179SOL    HW217997   3.410   3.011   9.001 -0.8634 -1.1204 -0.1442
 2180SOL     OW17998   1.102   4.584   6.168  0.4120 -0.2478  0.1573
 2180SOL    HW117999   1.144   4.662   6.135 -0.0352  0.8735  2.2210
 2180SOL    HW218000   1.178   4.553   6.218 -0.3296 -2.0427  0.1976
 2181SOL     OW18001   1.107   1.325   7.010  0.0067 -0.1817  0.0220
 2181SOL    HW118002   1.134   1.314   7.101 -1.0446 -1.4342  0.1796
 2181SOL    HW218003   1.024   1.364   7.036 -0.8055 -0.6919 -1.7999
 2182SOL     OW18004   4.344   0.284   3.892  0.6594 -0.1237 -0.1366
 2182SOL    HW118005   4.293   0.364   3.874  1.1355 -0.0897 -1.3167
 2182SOL    HW218006   4.432   0.317   3.875  0.8775  0.1117  1.4175
 2183SOL     OW18007   1.529   4.673   2.493  0.6062  0.2850 -0.1482
 2183SOL    HW118008   1.601   4.715   2.445  0.5997  1.2391  0.6622
 2183SOL    HW218009   1.581   4.649   2.570 -2.8534 -2.6314  1.2945
 2184SOL     OW18010   2.115   2.726   5.234 -0.0435 -0.1833 -0.6020
 2184SOL    HW118011   2.126   2.652   5.174 -0.4242 -1.4559  0.8956
 2184SOL    HW218012   2.173   2.787   5.189 -0.4370  1.1116  0.6728
 2185SOL     OW18013   2.388   1.661   0.370 -0.3981  0.6112  0.3078
 2185SOL    HW118014   2.344   1.714   0.437  0.3102 -0.2108  1.4239
 2185SOL    HW218015   2.480   1.664   0.397 -0.7377 -0.7553  1.6407
 2186SOL     OW18016   1.136   1.778   8.096  0.0273 -0.4866 -0.3073
 2186SOL    HW118017   1.073   1.720   8.139 -0.8782  0.6555 -0.0924
 2186SOL    HW218018   1.103   1.777   8.006 -1.0101  0.2172  0.0644
 2187SOL     OW18019   3.686   0.652   4.646  0.0872 -0.2375 -0.0848
 2187SOL    HW118020   3.600   0.659   4.606 -0.1706 -1.5553  0.2443
 2187SOL    HW218021   3.737   0.649   4.566 -0.0318 -0.7042 -0.1432
 2188SOL     OW18022   3.703   1.027  16.542 -0.6523 -0.1653  0.5979
 2188SOL    HW118023   3.658   1.097  16.590  0.1522  0.0933  0.9830
 2188SOL    HW218024   3.670   0.948  16.585 -1.6337  0.4729  1.0116
 2189SOL     OW18025   4.585   2.037   5.883 -0.5931 -0.2209 -0.1422
 2189SOL    HW118026   4.612   1.946   5.889 -0.7701 -0.4486 -2.7156
 2189SOL    HW218027   4.554   2.037   5.792  3.7968 -0.3833 -1.6138
 2190SOL     OW18028   0.630   0.351  15.210  0.1546 -0.4058  0.5653
 2190SOL    HW118029   0.706   0.392  15.250 -0.4837 -1.8249  3.1830
 2190SOL    HW218030   0.676   0.270  15.186  1.1392 -0.7255  3.6347
 2191SOL     OW18031   1.509   3.158   7.299  0.0845  0.3470 -0.1014
 2191SOL    HW118032   1.517   3.130   7.208 -1.5460  0.1091 -0.1680
 2191SOL    HW218033   1.594   3.202   7.304 -0.1489  0.7911 -0.0026
 2192SOL     OW18034   2.907   2.492   0.792  0.5453 -0.1996 -0.0885
 2192SOL    HW118035   2.874   2.504   0.881 -1.8988 -0.1034 -1.0319
 2192SOL    HW218036   2.907   2.581   0.757 -2.9334 -0.7553 -1.4201
 2193SOL     OW18037   2.833   0.277   4.961 -0.1387  0.0384 -0.3000
 2193SOL    HW118038   2.768   0.252   4.896 -0.9885  0.8628  0.2325
 2193SOL    HW218039   2.917   0.249   4.924 -1.2419  0.4511 -3.1813
 2194SOL     OW18040   1.147   4.212   4.994  0.1967  0.2866  0.2547
 2194SOL    HW118041   1.217   4.172   4.943 -2.2353 -1.4908 -1.6231
 2194SOL    HW218042   1.085   4.232   4.925 -0.4640  0.5595  0.9278
 2195SOL     OW18043   0.522   1.248   3.565 -0.0473 -0.3559 -0.3568
 2195SOL    HW118044   0.528   1.172   3.507 -0.9679 -1.1410  0.5693
 2195SOL    HW218045   0.459   1.212   3.627 -0.7473 -1.3276 -1.6279
 2196SOL     OW18046   2.775   3.614   0.530  0.4947 -0.3342  0.5501
 2196SOL    HW118047   2.807   3.614   0.620 -1.9198  0.6548  1.4231
 2196SOL    HW218048   2.751   3.707   0.531 -0.2620 -0.5657  2.7264
 2197SOL     OW18049   3.784   0.070   7.844  0.2260  0.0791 -1.0944
 2197SOL    HW118050   3.855   0.055   7.908 -1.1046  0.3024  0.4442
 2197SOL    HW218051   3.808   0.163   7.835 -1.4827  0.5875 -0.3746
 2198SOL     OW18052   4.426   4.000   5.456  0.1713 -0.5619 -0.0103
 2198SOL    HW118053   4.381   3.968   5.377  1.2537  1.0113 -1.2709
 2198SOL    HW218054   4.400   4.092   5.451  2.1662 -0.0131 -0.6037
 2199SOL     OW18055   3.220   2.440   7.300 -0.1595 -0.3221 -0.1430
 2199SOL    HW118056   3.126   2.430   7.284 -0.4088  0.9781  0.5437
 2199SOL    HW218057   3.265   2.367   7.256  0.8624  0.1228  0.1601
 2200SOL     OW18058   3.703   0.246   6.022 -0.2196  0.1507  0.5915
 2200SOL    HW118059   3.686   0.299   6.100 -0.8780 -0.7029  1.0309
 2200SOL    HW218060   3.691   0.314   5.956  0.6047 -1.0220 -0.7578
 2201SOL     OW18061   0.523   1.087   3.857 -0.2032 -0.0342  0.1610
 2201SOL    HW118062   0.490   1.164   3.903 -4.4377 -1.9774  0.3430
 2201SOL    HW218063   0.608   1.119   3.825 -0.7694  0.9423 -0.3672
 2202SOL     OW18064   0.196   3.651   6.121  0.0786 -0.0675  0.3541
 2202SOL    HW118065   0.189   3.619   6.031  0.9753  0.5068  0.0781
 2202SOL    HW218066   0.239   3.578   6.166  3.1056  0.9204 -0.9687
 2203SOL     OW18067   1.445   2.324  13.384 -0.5216  0.1867  0.4830
 2203SOL    HW118068   1.508   2.294  13.450 -0.4796  2.4416  1.4662
 2203SOL    HW218069   1.367   2.285  13.424 -0.0824 -0.8319  0.3538
 2204SOL     OW18070   1.550   3.459  16.195  0.0433  0.0335 -0.1830
 2204SOL    HW118071   1.490   3.414  16.255  1.4712  0.3432  1.4932
 2204SOL    HW218072   1.611   3.390  16.167  1.2220  1.3576 -0.8669
 2205SOL     OW18073   1.341   2.183   6.765 -0.2840  0.2326 -0.3266
 2205SOL    HW118074   1.399   2.139   6.702  1.7919  2.1485  0.2736
 2205SOL    HW218075   1.356   2.276   6.748  1.4816  0.1678  0.9442
 2206SOL     OW18076   0.631   3.571   2.734 -0.0389  0.1287  0.0327
 2206SOL    HW118077   0.585   3.647   2.699  0.0244  0.1085 -0.0951
 2206SOL    HW218078   0.697   3.609   2.791 -0.1612 -0.5632  0.6482
 2207SOL     OW18079   2.489   1.055   6.547 -0.1378 -0.1527  0.3045
 2207SOL    HW118080   2.520   1.033   6.634  1.8071  0.6488 -0.1826
 2207SOL    HW218081   2.462   1.147   6.555  1.8548  0.2483  2.4405
 2208SOL     OW18082   2.709   3.484   4.258  0.3324  0.0738  0.5412
 2208SOL    HW118083   2.700   3.562   4.313 -0.0996 -1.5966  2.8636
 2208SOL    HW218084   2.759   3.429   4.319  1.9367 -0.1862 -0.9861
 2209SOL     OW18085   0.441   2.189   6.100 -0.2367  0.0410 -0.6534
 2209SOL    HW118086   0.392   2.271   6.103 -1.1526 -0.4965 -0.6035
 2209SOL    HW218087   0.383   2.137   6.045 -1.8232  0.8919  0.2108
 2210SOL     OW18088   0.715   1.755  15.619 -0.4684  0.9617  0.2359
 2210SOL    HW118089   0.695   1.814  15.691 -0.9381  1.5389 -0.3779
 2210SOL    HW218090   0.803   1.730  15.647  0.5494  0.9078 -2.9290
 2211SOL     OW18091   3.834   4.133   6.649  0.8707 -0.2030 -0.7501
 2211SOL    HW118092   3.766   4.067   6.659  0.0907  0.2838 -2.7952
 2211SOL    HW218093   3.818   4.176   6.733 -1.9378  0.5331 -1.6760
 2212SOL     OW18094   1.448   2.521   8.499 -0.0624 -0.0248 -0.1754
 2212SOL    HW118095   1.510   2.464   8.545 -0.3512  0.5037  0.8637
 2212SOL    HW218096   1.460   2.604   8.545 -0.0572  1.3883 -2.6832
 2213SOL     OW18097   2.722   3.297   3.154 -0.5179  0.4238  0.1616
 2213SOL    HW118098   2.801   3.346   3.133 -1.3007  0.6856 -2.2065
 2213SOL    HW218099   2.746   3.224   3.097  1.8118  2.0348 -0.8982
 2214SOL     OW18100   3.246   3.236  14.122  0.4826  0.3138 -0.4608
 2214SOL    HW118101   3.151   3.249  14.116  0.5177  0.7338 -0.0590
 2214SOL    HW218102   3.273   3.255  14.211 -0.3403 -1.3382  0.1549
 2215SOL     OW18103   2.161   3.606   4.180 -0.2765 -0.7172 -0.1069
 2215SOL    HW118104   2.196   3.676   4.125 -2.1169 -0.3215 -0.7850
 2215SOL    HW218105   2.242   3.575   4.220 -0.2666 -0.6706 -0.0916
 2216SOL     OW18106   3.973   2.444   2.126 -0.1835 -0.0640  0.3142
 2216SOL    HW118107   3.917   2.417   2.199 -0.6714  0.6186  0.1968
 2216SOL    HW218108   4.002   2.532   2.151  1.8623 -0.7901  0.5156
 2217SOL     OW18109   0.098   2.312   2.389  0.4269  0.4403  0.0551
 2217SOL    HW118110   0.044   2.237   2.365  0.9039  0.1323 -0.0412
 2217SOL    HW218111   0.031   2.379   2.375 -0.1873  0.0106  0.8915
 2218SOL     OW18112   2.220   4.580  12.697 -0.1652 -0.5955 -0.4052
 2218SOL    HW118113   2.170   4.561  12.618  0.3759 -2.9386 -0.1760
 2218SOL    HW218114   2.241   4.669  12.671 -1.6214 -0.5628 -1.4495
 2219SOL     OW18115   1.934   2.044   5.778 -0.2309  0.2828 -0.0468
 2219SOL    HW118116   1.905   2.100   5.705 -1.6797 -0.4020  0.0129
 2219SOL    HW218117   1.881   1.965   5.773  0.4737 -0.2298  0.5114
 2220SOL     OW18118   0.894   3.713   7.598  0.7204  0.4469  0.6075
 2220SOL    HW118119   0.938   3.639   7.640  2.5616  0.2478 -1.6940
 2220SOL    HW218120   0.954   3.738   7.528  0.5419 -1.5514 -0.2520
 2221SOL     OW18121   4.401   2.214   2.354  0.1005  0.3678  0.0931
 2221SOL    HW118122   4.369   2.302   2.337  1.5584  0.6140 -1.3859
 2221SOL    HW218123   4.341   2.185   2.423  0.7555 -2.6437 -0.5774
 2222SOL     OW18124   2.011   4.541   4.934  0.1046  0.2282  1.0161
 2222SOL    HW118125   1.978   4.501   4.854 -0.5113 -1.3750  2.0568
 2222SOL    HW218126   1.963   4.622   4.952  0.1828  1.1373 -2.8511
 2223SOL     OW18127   4.437   0.669   6.794  0.9086  0.8120 -0.3324
 2223SOL    HW118128   4.514   0.637   6.841  0.9252  1.3825  0.0376
 2223SOL    HW218129   4.475   0.744   6.748 -0.1800  0.6446 -1.5024
 2224SOL     OW18130   3.794   1.609   4.887  0.5542 -0.2093 -0.4023
 2224SOL    HW118131   3.739   1.544   4.930  0.4258 -0.4802 -0.9671
 2224SOL    HW218132   3.851   1.649   4.952 -1.3356  0.5133  0.7771
 2225SOL     OW18133   4.121   4.572  12.657 -0.5033 -0.3216  0.0647
 2225SOL    HW118134   4.078   4.516  12.721  2.1757 -3.7611 -1.1075
 2225SOL    HW218135   4.040   4.598  12.612  0.6963 -0.1585 -2.0329
 2226SOL     OW18136   1.030   1.276  15.853  0.0616  0.2591 -0.5440
 2226SOL    HW118137   0.936   1.265  15.867  0.4075  0.8359  2.3065
 2226SOL    HW218138   1.018   1.334  15.777  1.3888  0.3813 -0.6561
 2227SOL     OW18139   0.680   2.559   2.502 -0.0626  0.1960  0.1619
 2227SOL    HW118140   0.603   2.520   2.459  0.5620 -2.0261  1.0331
 2227SOL    HW218141   0.642   2.603   2.578  0.4154  0.7659  0.0627
 2228SOL     OW18142   2.571   2.704   5.387 -0.3493  0.2847  0.4282
 2228SOL    HW118143   2.652   2.684   5.340 -0.5066  1.0784 -0.1827
 2228SOL    HW218144   2.607   2.716   5.474 -0.6284 -1.0699  0.7260
 2229SOL     OW18145   0.436   2.606  11.842  0.4761 -0.1715  0.0122
 2229SOL    HW118146   0.461   2.699  11.849 -0.9881  0.0856  1.6742
 2229SOL    HW218147   0.378   2.589  11.916  0.6730 -0.9789 -0.0237
 2230SOL     OW18148   0.325   0.150   1.291 -0.4007 -0.0948 -0.0898
 2230SOL    HW118149   0.387   0.175   1.222  0.5114 -0.9348  0.4124
 2230SOL    HW218150   0.337   0.226   1.348  1.3540 -0.4286 -0.0004
 2231SOL     OW18151   0.856   4.520   1.267 -0.2371  0.1419  0.6463
 2231SOL    HW118152   0.823   4.456   1.330 -0.9840  3.1293  3.2559
 2231SOL    HW218153   0.786   4.585   1.275  1.3176  1.7990  0.8051
 2232SOL     OW18154   0.634   1.350   3.854  0.3662 -0.0684  0.2388
 2232SOL    HW118155   0.646   1.407   3.930  1.1904 -1.1004  0.8657
 2232SOL    HW218156   0.577   1.399   3.793  1.0097  1.2382  0.6791
 2233SOL     OW18157   2.652   3.687   2.034  0.4273  0.6303  0.1717
 2233SOL    HW118158   2.651   3.600   1.992 -0.7092 -0.0111  1.5221
 2233SOL    HW218159   2.577   3.679   2.093 -0.4831  0.1596 -1.0269
 2234SOL     OW18160   2.536   2.732  15.649  0.3368  0.2098  0.3617
 2234SOL    HW118161   2.467   2.772  15.595  1.1826  0.5769 -0.4452
 2234SOL    HW218162   2.503   2.768  15.731 -0.5054 -3.7125  1.7422
 2235SOL     OW18163   1.170   0.147   2.325 -0.1096  0.1249  0.1977
 2235SOL    HW118164   1.208   0.074   2.275 -1.8481  0.4379 -1.5892
 2235SOL    HW218165   1.250   0.185   2.361  0.2203  0.2643 -0.6632
 2236SOL     OW18166   2.612   0.772   6.013  0.5301 -0.0225 -0.0444
 2236SOL    HW118167   2.517   0.775   5.996  0.5977  2.3342 -0.0107
 2236SOL    HW218168   2.613   0.687   6.058 -1.0739  1.4367  2.7735
 2237SOL     OW18169   2.807   0.359   8.797 -0.2067 -0.0058 -0.0772
 2237SOL    HW118170   2.723   0.354   8.843  0.4663 -0.9495  1.0503
 2237SOL    HW218171   2.866   0.341   8.870  0.6059  0.1588 -0.6824
 2238SOL     OW18172   2.822   0.387   3.456  0.4753  0.8857 -0.1116
 2238SOL    HW118173   2.885   0.372   3.526 -0.1518 -1.3342 -0.0178
 2238SOL    HW218174   2.763   0.452   3.494 -2.1597 -0.2575 -2.2201
 2239SOL     OW18175   0.643   2.207   7.681  0.7537  0.1839 -0.6101
 2239SOL    HW118176   0.708   2.155   7.632  0.0444  0.1663 -1.5236
 2239SOL    HW218177   0.672   2.181   7.768 -1.0164  3.0597  0.8219
 2240SOL     OW18178   2.970   3.352   2.422 -0.1365 -0.0923  0.3331
 2240SOL    HW118179   2.891   3.398   2.393  1.0331  0.5468 -1.8233
 2240SOL    HW218180   2.961   3.361   2.516  1.1185  0.8034  0.3628
 2241SOL     OW18181   2.362   2.214   4.553 -0.1390  0.1582  0.0397
 2241SOL    HW118182   2.351   2.297   4.600 -0.5082  0.8835 -1.3328
 2241SOL    HW218183   2.332   2.236   4.465  2.6027  0.8774 -0.7005
 2242SOL     OW18184   3.726   3.989   7.926 -0.5414 -0.1272 -0.0561
 2242SOL    HW118185   3.711   4.002   8.020  0.5194 -1.0431  0.2448
 2242SOL    HW218186   3.790   3.919   7.936  1.0763  1.0670 -2.1433
 2243SOL     OW18187   3.174   1.536   8.012 -0.3279 -0.7076  0.5263
 2243SOL    HW118188   3.104   1.510   7.952  0.4270 -1.5576  0.0044
 2243SOL    HW218189   3.159   1.630   8.007  0.8439 -0.6729 -2.3287
 2244SOL     OW18190   4.449   4.429   4.638  0.6573 -0.2405  0.3908
 2244SOL    HW118191   4.360   4.444   4.669  1.2636  0.8235  1.6173
 2244SOL    HW218192   4.471   4.494   4.572 -1.6071  2.2061  2.0378
 2245SOL     OW18193   2.343   1.718   4.513  0.0777  0.3315  0.3462
 2245SOL    HW118194   2.380   1.638   4.549 -1.4146 -1.4222 -2.0294
 2245SOL    HW218195   2.249   1.700   4.518  0.1886  0.7121  4.2606
 2246SOL     OW18196   4.722   1.689   3.972 -0.7023  0.3110 -0.5198
 2246SOL    HW118197   4.647   1.691   3.913 -0.6938  2.7515 -0.4546
 2246SOL    HW218198   0.030   1.778   3.962 -2.2964  1.0449  0.8739
 2247SOL     OW18199   4.172   0.717   5.636 -0.0707  0.2441  0.9726
 2247SOL    HW118200   4.144   0.629   5.660  0.6227  0.0622  1.1238
 2247SOL    HW218201   4.090   0.750   5.598 -0.2662  1.3475  2.3471
 2248SOL     OW18202   0.594   4.712  14.289 -0.0142 -0.4981 -0.3194
 2248SOL    HW118203   0.646   0.049  14.237  2.1461 -0.7922  1.5027
 2248SOL    HW218204   0.595   0.025  14.378 -3.0982  1.1278 -0.9726
 2249SOL     OW18205   1.730   1.991  14.381  0.3321  0.1525 -0.5601
 2249SOL    HW118206   1.661   2.053  14.357 -0.5546 -0.9827 -1.0068
 2249SOL    HW218207   1.794   2.061  14.377 -0.2400  0.6857 -0.2488
 2250SOL     OW18208   2.222   2.801   3.318  0.1872 -0.1391  0.2493
 2250SOL    HW118209   2.139   2.848   3.322  0.9007  1.0819  1.0321
 2250SOL    HW218210   2.281   2.876   3.312 -1.3891  1.1983  1.2878
 2251SOL     OW18211   2.482   0.338   2.753 -1.0620  1.0235 -0.0202
 2251SOL    HW118212   2.483   0.365   2.661  1.7246 -0.0406 -0.2956
 2251SOL    HW218213   2.553   0.276   2.768 -3.2448 -1.3783  0.4878
 2252SOL     OW18214   2.626   3.096   8.865  0.0774 -0.1933 -0.4595
 2252SOL    HW118215   2.632   3.014   8.816  0.8178 -0.7080  0.4802
 2252SOL    HW218216   2.566   3.066   8.934 -0.1446 -1.2695 -1.1305
 2253SOL     OW18217   1.312   4.612  16.324 -0.4722  0.0668  0.2475
 2253SOL    HW118218   1.363   4.569  16.255  2.3556  0.3380  2.1739
 2253SOL    HW218219   1.339   4.701  16.298  1.2942 -0.3407  0.6910
 2254SOL     OW18220   2.928   2.427   2.652  0.6205  0.0484 -0.2387
 2254SOL    HW118221   3.010   2.472   2.635 -1.3159  3.0080 -1.7909
 2254SOL    HW218222   2.870   2.503   2.665  2.2496  1.0065  1.5762
 2255SOL     OW18223   0.469   2.371   2.381  0.1124 -0.4454 -0.0600
 2255SOL    HW118224   0.473   2.394   2.289  1.5449  1.7339  0.5616
 2255SOL    HW218225   0.428   2.285   2.366 -3.4098  1.2977 -0.3129
 2256SOL     OW18226   1.891   1.261   9.674 -0.0717  0.0678 -0.1441
 2256SOL    HW118227   1.964   1.271   9.612 -0.8096 -1.4639 -1.2473
 2256SOL    HW218228   1.816   1.277   9.617 -0.0830 -2.9219 -0.9346
 2257SOL     OW18229   3.372   2.386   6.025  0.3163  0.0736 -0.5938
 2257SOL    HW118230   3.443   2.433   6.069  2.8509 -2.6112 -1.8130
 2257SOL    HW218231   3.356   2.443   5.950 -0.2570 -0.2880 -0.7462
 2258SOL     OW18232   0.163   0.068  14.884 -0.4451  0.9830 -0.3470
 2258SOL    HW118233   0.146   0.157  14.854 -0.6184  0.1849 -2.6221
 2258SOL    HW218234   0.226   0.033  14.821  0.7123  2.1533  0.1664
 2259SOL     OW18235   3.587   2.073  13.556  0.0190  0.3799  0.0652
 2259SOL    HW118236   3.496   2.096  13.539 -0.3701 -0.6558  0.7616
 2259SOL    HW218237   3.599   1.980  13.538  1.7269  0.3794  1.1357
 2260SOL     OW18238   2.018   4.544  12.483 -0.1843  0.7308  0.1408
 2260SOL    HW118239   1.926   4.566  12.469 -1.1184 -3.6711 -0.4587
 2260SOL    HW218240   2.012   4.455  12.518  0.0754  1.4684  2.0998
 2261SOL     OW18241   1.027   3.929   8.977 -0.4213 -0.1052 -0.3905
 2261SOL    HW118242   1.007   4.023   8.976 -2.1259 -0.4510  0.3310
 2261SOL    HW218243   1.025   3.925   9.073  1.0781 -0.4021 -0.3687
 2262SOL     OW18244   1.020   2.100   7.388 -0.3770  0.3920  0.3275
 2262SOL    HW118245   1.084   2.170   7.396  0.8236 -0.7792  0.9844
 2262SOL    HW218246   1.035   2.073   7.298  0.0940  3.3776 -0.4962
 2263SOL     OW18247   3.831   1.609   1.960 -0.2777  0.7664 -0.5845
 2263SOL    HW118248   3.748   1.575   1.927 -0.1744  0.8410 -0.9201
 2263SOL    HW218249   3.886   1.600   1.882  0.9792 -1.0383  0.4940
 2264SOL     OW18250   2.095   2.949   3.540  0.0100 -0.4774 -0.1457
 2264SOL    HW118251   2.027   2.892   3.504 -2.2258  1.2328  1.2950
 2264SOL    HW218252   2.044   3.024   3.571 -0.4454 -0.1911 -1.6305
 2265SOL     OW18253   2.499   0.023  10.255  0.0871  0.2798  0.6322
 2265SOL    HW118254   2.561   0.025  10.182  0.4478  1.4911  0.9691
 2265SOL    HW218255   2.424   4.708  10.211  1.4904  0.0670 -1.5254
 2266SOL     OW18256   3.538   0.816   3.659  0.2748  0.0823 -0.2058
 2266SOL    HW118257   3.494   0.857   3.733  1.6571  2.6631 -0.8479
 2266SOL    HW218258   3.484   0.740   3.636  1.3180 -0.6613 -0.1809
 2267SOL     OW18259   1.524   1.767   0.451  0.2161 -0.1026  0.1296
 2267SOL    HW118260   1.602   1.752   0.504  2.0220 -0.1484 -2.5951
 2267SOL    HW218261   1.482   1.681   0.456 -0.5581  0.3225  1.0018
 2268SOL     OW18262   4.084   0.404   3.058 -0.3871  0.2306  0.7464
 2268SOL    HW118263   4.029   0.456   2.999 -0.1009  0.6484  0.8515
 2268SOL    HW218264   4.165   0.434   3.017  0.0745 -0.4383  1.1770
 2269SOL     OW18265   4.510   0.766   4.307  0.6658 -0.1290 -0.0399
 2269SOL    HW118266   4.523   0.825   4.233 -3.4860 -1.9862 -2.2150
 2269SOL    HW218267   4.516   0.686   4.255  1.1368  0.2917 -0.6260
 2270SOL     OW18268   1.948   2.841   4.766  0.3804  0.9867 -0.1742
 2270SOL    HW118269   1.878   2.885   4.814  0.6236  1.8742 -0.6437
 2270SOL    HW218270   2.019   2.892   4.805  0.1872 -1.4316  3.3429
 2271SOL     OW18271   3.643   3.694  12.739 -0.3287 -0.2291 -0.0442
 2271SOL    HW118272   3.733   3.726  12.746 -0.5985  0.2312  1.1678
 2271SOL    HW218273   3.595   3.734  12.811 -1.5205 -1.6873 -0.0337
 2272SOL     OW18274   0.493   2.387   9.180  0.0677 -0.3158 -0.4409
 2272SOL    HW118275   0.501   2.443   9.103  2.6563  0.1453  0.1763
 2272SOL    HW218276   0.565   2.418   9.234  1.2772 -0.7412 -1.7891
 2273SOL     OW18277   1.462   0.605  10.592  0.5365  0.2735 -0.3293
 2273SOL    HW118278   1.393   0.584  10.656  1.7311  0.4710  1.0167
 2273SOL    HW218279   1.421   0.667  10.533 -0.6655  0.2624  0.4843
 2274SOL     OW18280   1.504   4.447  16.178 -0.3890 -1.3228  0.0356
 2274SOL    HW118281   1.572   4.386  16.150  0.1805 -0.9314  0.5539
 2274SOL    HW218282   1.467   4.480  16.096  1.6414  0.7763 -0.0134
 2275SOL     OW18283   0.073   1.236   3.036  0.2558 -0.2814 -0.3556
 2275SOL    HW118284   0.101   1.201   2.951 -0.0060  0.6590 -0.8317
 2275SOL    HW218285   0.034   1.320   3.013 -3.4385 -2.0617 -0.5592
 2276SOL     OW18286   3.526   2.478  14.761  0.5727  0.5023 -0.0829
 2276SOL    HW118287   3.578   2.519  14.692 -1.7386  0.4251 -1.8594
 2276SOL    HW218288   3.587   2.479  14.835  1.7836 -0.0948 -1.0883
 2277SOL     OW18289   4.257   1.968   8.479 -0.2223  0.0050 -0.1764
 2277SOL    HW118290   4.347   1.936   8.482 -0.2756 -0.1755 -0.4545
 2277SOL    HW218291   4.258   2.042   8.540  0.0159 -0.1948  0.0584
 2278SOL     OW18292   4.010   1.706  12.580  0.9864  0.0326  0.0850
 2278SOL    HW118293   3.948   1.641  12.547 -0.2823  0.8288  0.8686
 2278SOL    HW218294   4.080   1.683  12.520  0.8683  0.5490 -0.2533
 2279SOL     OW18295   2.771   4.354   4.399  0.3725  0.9363 -0.7486
 2279SOL    HW118296   2.697   4.361   4.460  0.5928  0.9448 -0.4791
 2279SOL    HW218297   2.744   4.273   4.356 -1.6285  0.6683  0.9916
 2280SOL     OW18298   3.054   1.155  12.023 -0.0726 -0.7816 -0.1274
 2280SOL    HW118299   3.116   1.163  11.951 -1.2604  3.3910 -0.6617
 2280SOL    HW218300   2.983   1.219  12.017  1.1068  0.7961  2.7064
 2281SOL     OW18301   2.867   2.831   3.643  0.1118 -0.5662 -0.4810
 2281SOL    HW118302   2.906   2.744   3.652  2.6079  0.5815 -0.2147
 2281SOL    HW218303   2.937   2.887   3.676  0.5762 -1.0490 -0.6575
 2282SOL     OW18304   1.773   0.523   6.434  0.5727 -0.0273  0.1645
 2282SOL    HW118305   1.765   0.427   6.440 -0.0367  0.1364  1.7539
 2282SOL    HW218306   1.832   0.541   6.360  1.1353 -2.7539 -0.0525
 2283SOL     OW18307   0.997   0.417   9.311  0.6510  0.4153  0.1703
 2283SOL    HW118308   1.055   0.387   9.241 -0.5746 -0.9870 -0.2619
 2283SOL    HW218309   1.045   0.489   9.351 -2.3179  1.4594  1.8601
 2284SOL     OW18310   1.376   0.428   8.678  0.3508 -0.2163  0.4003
 2284SOL    HW118311   1.308   0.485   8.712  0.1812 -0.2166  0.0580
 2284SOL    HW218312   1.453   0.481   8.696 -1.7278  1.6518  3.6587
 2285SOL     OW18313   0.943   1.802   5.960 -0.5179 -0.0243 -0.0327
 2285SOL    HW118314   0.974   1.717   5.991 -1.8276  0.0054  1.3107
 2285SOL    HW218315   0.885   1.820   6.034  0.2026  0.6695  0.3553
 2286SOL     OW18316   2.687   1.744  12.396 -0.4433 -0.2484  0.2153
 2286SOL    HW118317   2.694   1.760  12.302  0.4905  1.4578  0.5820
 2286SOL    HW218318   2.769   1.700  12.419 -0.0277  1.1134  1.3754
 2287SOL     OW18319   3.290   3.969   5.126  0.1813  0.1142  0.4455
 2287SOL    HW118320   3.344   4.002   5.197  0.2402 -0.3689  0.6209
 2287SOL    HW218321   3.333   3.885   5.109  0.8377  1.3873 -4.1366
 2288SOL     OW18322   4.570   4.662   2.731 -0.0072 -0.0758 -0.3982
 2288SOL    HW118323   4.629   4.709   2.789  1.0783 -2.2000  0.2299
 2288SOL    HW218324   4.621   4.581   2.730  3.2084  1.9601 -1.9558
 2289SOL     OW18325   3.384   3.514   0.393 -0.1733 -0.3856 -0.0209
 2289SOL    HW118326   3.425   3.600   0.402  2.0257 -1.2804 -1.4723
 2289SOL    HW218327   3.294   3.547   0.387  0.0171 -0.0677 -1.1425
 2290SOL     OW18328   4.309   0.790   8.365 -0.6971  0.8636 -0.3265
 2290SOL    HW118329   4.260   0.774   8.284 -2.4567  0.4074  0.8049
 2290SOL    HW218330   4.273   0.717   8.416 -1.0322  1.0871 -0.2421
 2291SOL     OW18331   4.671   3.061   4.046 -0.3020 -0.2060  0.1524
 2291SOL    HW118332   4.706   3.108   3.971 -3.1337 -0.8031 -1.5420
 2291SOL    HW218333   4.583   3.098   4.046  0.1500  0.8628  0.0448
 2292SOL     OW18334   0.477   1.740   6.048 -0.0826  0.4566 -0.6299
 2292SOL    HW118335   0.411   1.686   6.092  1.9130 -0.1641  1.5759
 2292SOL    HW218336   0.440   1.829   6.050  1.7320  1.2535 -2.0726
 2293SOL     OW18337   1.784   0.166   1.476  0.4339  0.3976 -0.2035
 2293SOL    HW118338   1.753   0.075   1.479 -1.9400  1.1438 -2.4456
 2293SOL    HW218339   1.801   0.172   1.382  0.4407  1.1579 -0.1513
 2294SOL     OW18340   4.249   3.372   1.460 -0.1013 -0.0476 -0.6929
 2294SOL    HW118341   4.331   3.329   1.484  0.0416  0.4289 -0.3206
 2294SOL    HW218342   4.267   3.464   1.478 -0.1307 -0.4778  1.5857
 2295SOL     OW18343   3.690   0.644  16.339 -0.3849 -0.6109  0.2764
 2295SOL    HW118344   3.765   0.696  16.309  1.5801 -2.2766  2.2604
 2295SOL    HW218345   3.619   0.695  16.300  0.6101  1.1467  0.7475
 2296SOL     OW18346   3.849   3.255   6.377  0.3821 -0.0322  0.1891
 2296SOL    HW118347   3.924   3.195   6.378 -0.0509 -0.6144 -1.8050
 2296SOL    HW218348   3.875   3.300   6.296  0.2210 -2.7420 -1.3939
 2297SOL     OW18349   3.012   1.150   7.201 -0.4603  0.1745  0.6497
 2297SOL    HW118350   2.929   1.150   7.152 -0.2169  0.5642  0.2401
 2297SOL    HW218351   3.061   1.203   7.139 -0.6732 -0.8479 -0.4156
 2298SOL     OW18352   1.368   1.683   8.996 -0.0728 -0.2722 -0.0785
 2298SOL    HW118353   1.353   1.778   8.999  2.5426  0.2171 -2.2200
 2298SOL    HW218354   1.461   1.685   8.975 -0.3336  0.2524 -1.1734
 2299SOL     OW18355   1.499   3.142  12.246 -0.1062 -0.2655 -0.1727
 2299SOL    HW118356   1.581   3.098  12.222 -1.3963 -1.9452 -1.3936
 2299SOL    HW218357   1.533   3.202  12.313 -0.5682  0.8552 -0.9481
 2300SOL     OW18358   1.690   2.707   6.756 -0.0007  0.5787 -0.3834
 2300SOL    HW118359   1.689   2.726   6.850 -0.5225 -2.6635  0.2452
 2300SOL    HW218360   1.774   2.662   6.748 -0.6835 -0.9317  1.0307
 2301SOL     OW18361   1.893   1.795   1.980 -0.1890 -0.2017 -0.3881
 2301SOL    HW118362   1.921   1.739   1.908  0.3269  0.6222 -0.8300
 2301SOL    HW218363   1.898   1.883   1.943 -1.9482 -0.2167 -0.6175
 2302SOL     OW18364   0.784   0.560  11.330  0.4209 -0.3495  0.1132
 2302SOL    HW118365   0.725   0.634  11.323  1.6225  0.8564  2.4749
 2302SOL    HW218366   0.863   0.612  11.344  0.9237 -1.1144  0.1243
 2303SOL     OW18367   1.749   1.260   8.754  0.4547 -0.2208  0.3851
 2303SOL    HW118368   1.682   1.192   8.755 -0.8893  1.0283 -2.5911
 2303SOL    HW218369   1.757   1.287   8.845  2.6005 -2.3357  0.8213
 2304SOL     OW18370   3.760   2.770   3.928  0.4566  0.1958 -0.1645
 2304SOL    HW118371   3.713   2.712   3.987 -1.8284  0.9000 -1.2861
 2304SOL    HW218372   3.851   2.742   3.936  0.1185 -0.3601  1.6803
 2305SOL     OW18373   3.853   1.893   3.832  0.4550  0.4903 -0.2166
 2305SOL    HW118374   3.766   1.872   3.863  0.2437  0.0470 -1.1261
 2305SOL    HW218375   3.860   1.985   3.858  0.0267  0.3331  0.4494
 2306SOL     OW18376   4.199   0.571   6.385  0.0910  0.3749 -0.4205
 2306SOL    HW118377   4.207   0.549   6.478  0.9333 -0.0694 -0.5960
 2306SOL    HW218378   4.252   0.500   6.348 -1.7270 -1.8806  1.3005
 2307SOL     OW18379   3.739   2.879   2.024  0.0298  0.3583 -0.7328
 2307SOL    HW118380   3.760   2.898   2.115  0.7656  1.4037 -1.1283
 2307SOL    HW218381   3.759   2.962   1.982  1.1071 -0.6954 -2.2986
 2308SOL     OW18382   0.107   2.114   6.756 -0.4881 -0.2590 -1.0005
 2308SOL    HW118383   0.023   2.137   6.717 -0.5697  0.0002 -0.6676
 2308SOL    HW218384   0.076   2.104   6.846 -1.8621 -1.3038 -1.5870
 2309SOL     OW18385   4.566   1.486   4.754 -0.3707 -0.0829  0.0218
 2309SOL    HW118386   4.474   1.460   4.763 -0.4220  0.0212 -0.2055
 2309SOL    HW218387   4.555   1.575   4.790 -2.5940  0.1126 -1.1254
 2310SOL     OW18388   3.311   2.393   6.794 -0.3562  0.0803 -0.5600
 2310SOL    HW118389   3.325   2.477   6.836  1.0768  1.0395 -2.9421
 2310SOL    HW218390   3.311   2.336   6.871  1.7045  0.2983 -0.4043
 2311SOL     OW18391   2.874   0.179   7.688 -0.6898  0.0507  0.3501
 2311SOL    HW118392   2.954   0.132   7.713  1.1486  1.0476 -3.6459
 2311SOL    HW218393   2.915   0.264   7.673  0.6721 -0.5431  0.6820
 2312SOL     OW18394   2.404   3.839   7.974 -0.2730 -0.8134 -0.1681
 2312SOL    HW118395   2.465   3.782   8.020 -1.4621 -1.8772  0.0833
 2312SOL    HW218396   2.362   3.876   8.052 -2.1207 -1.0428 -1.0536
 2313SOL     OW18397   3.929   0.884   7.522  0.2887  0.4773  0.3033
 2313SOL    HW118398   3.968   0.798   7.538  1.6681  1.0021 -0.2090
 2313SOL    HW218399   3.853   0.863   7.468 -0.7883 -1.2945  2.5076
 2314SOL     OW18400   1.640   1.622   4.048 -0.0134 -0.0461 -0.8431
 2314SOL    HW118401   1.733   1.612   4.030  0.4866  1.0950  1.1856
 2314SOL    HW218402   1.617   1.543   4.097 -1.6025 -0.6602 -2.5535
 2315SOL     OW18403   4.534   3.351   4.962 -0.2335  0.6347 -0.4970
 2315SOL    HW118404   4.500   3.396   5.039 -2.7923  0.1741 -1.3391
 2315SOL    HW218405   4.511   3.415   4.895  1.4501 -1.6571 -3.2772
 2316SOL     OW18406   2.627   2.967   5.067 -0.0982 -0.2087 -0.8489
 2316SOL    HW118407   2.544   2.929   5.095  0.1319  0.4977  0.7652
 2316SOL    HW218408   2.635   3.008   5.153 -2.0725 -3.1200  0.7161
 2317SOL     OW18409   2.772   2.692   3.153 -0.1762  0.3040  0.2003
 2317SOL    HW118410   2.836   2.753   3.188  0.4096  0.1972 -0.6900
 2317SOL    HW218411   2.837   2.624   3.137  0.8360  1.2955  0.1227
 2318SOL     OW18412   0.284   3.039   8.097 -0.6076  0.0955 -0.1523
 2318SOL    HW118413   0.295   3.105   8.028  0.5648 -0.7179 -0.7529
 2318SOL    HW218414   0.313   3.094   8.169 -1.7898  0.0757  0.3368
 2319SOL     OW18415   4.335   0.589   9.635 -0.2195  0.4103 -0.3228
 2319SOL    HW118416   4.426   0.577   9.661 -0.3895 -0.0978  0.0235
 2319SOL    HW218417   4.299   0.581   9.723  0.5878  0.2353 -0.0098
 2320SOL     OW18418   0.793   4.557  14.733 -0.1533 -0.2146  0.3616
 2320SOL    HW118419   0.850   4.518  14.667  1.6885  0.8815  1.3119
 2320SOL    HW218420   0.715   4.503  14.719  0.7748 -1.4402 -0.0564
 2321SOL     OW18421   3.248   1.444  13.148 -0.3293 -0.3364 -0.0277
 2321SOL    HW118422   3.215   1.479  13.231 -1.8878 -1.1503 -0.3117
 2321SOL    HW218423   3.255   1.350  13.164  1.5225 -0.7155 -3.0360
 2322SOL     OW18424   0.844   0.442   3.023 -0.1901  0.2303  0.1153
 2322SOL    HW118425   0.876   0.480   2.941  1.9525 -2.8613 -0.4575
 2322SOL    HW218426   0.898   0.479   3.093  0.5887 -3.0146  1.1906
 2323SOL     OW18427   2.754   0.145  10.592 -0.6502  0.1277 -0.0655
 2323SOL    HW118428   2.831   0.115  10.640 -0.0097  0.0853 -1.1311
 2323SOL    HW218429   2.783   0.116  10.505  2.4686 -1.2506  1.4264
 2324SOL     OW18430   3.352   0.628   7.877  0.2768  0.2579  0.1071
 2324SOL    HW118431   3.317   0.544   7.846  0.5004 -0.2889  1.3280
 2324SOL    HW218432   3.381   0.667   7.795 -0.7204 -0.0524 -0.3949
 2325SOL     OW18433   1.513   1.193   5.845  0.6254  0.2586 -0.3664
 2325SOL    HW118434   1.512   1.227   5.756  1.7351  1.3228  0.0307
 2325SOL    HW218435   1.603   1.162   5.850  1.0414  1.4278 -0.6286
 2326SOL     OW18436   1.575   3.181   8.064  0.1708  0.4176  0.3068
 2326SOL    HW118437   1.620   3.097   8.059  1.0173  0.8995 -0.1309
 2326SOL    HW218438   1.652   3.237   8.071  1.0255 -0.7513  0.2530
 2327SOL     OW18439   2.308   3.189  15.598  0.1850  0.1614 -0.5990
 2327SOL    HW118440   2.301   3.261  15.535 -2.1658  0.0263 -0.4817
 2327SOL    HW218441   2.397   3.199  15.633 -0.2922  0.6444  0.4634
 2328SOL     OW18442   2.971   0.211   1.959  0.0435  0.6602 -0.3707
 2328SOL    HW118443   2.987   0.264   1.880  4.9141 -1.7770 -1.0026
 2328SOL    HW218444   3.029   0.251   2.024  0.4794  0.1585 -0.4533
 2329SOL     OW18445   2.238   4.097   2.908 -0.6039  0.0810 -0.0064
 2329SOL    HW118446   2.329   4.100   2.938 -0.5483 -1.2768 -0.0318
 2329SOL    HW218447   2.192   4.133   2.983  0.7844  1.3200  0.2471
 2330SOL     OW18448   4.273   1.259   8.897  0.5237 -0.4468 -0.4208
 2330SOL    HW118449   4.218   1.319   8.948  0.4637  0.0238 -1.0387
 2330SOL    HW218450   4.330   1.234   8.970 -1.3228 -0.7736  0.9298
 2331SOL     OW18451   3.921   1.097   7.683  0.4160  0.1150 -0.0070
 2331SOL    HW118452   3.918   1.017   7.629 -0.6168  0.4734 -0.4811
 2331SOL    HW218453   3.831   1.089   7.714  0.1777 -2.1788 -1.2515
 2332SOL     OW18454   3.852   2.340  13.337 -0.6207 -0.0180 -0.3546
 2332SOL    HW118455   3.774   2.355  13.285 -0.4656  0.9885 -0.3001
 2332SOL    HW218456   3.882   2.431  13.332  0.7357 -0.2937  2.8872
 2333SOL     OW18457   2.423   4.698   8.690 -0.0188 -0.0764  0.0945
 2333SOL    HW118458   2.449   4.714   8.599 -0.9153 -0.7217 -0.2708
 2333SOL    HW218459   2.330   4.720   8.691 -0.0613 -0.0494 -3.0017
 2334SOL     OW18460   1.642   2.211  12.925  0.0479  0.0311 -0.5169
 2334SOL    HW118461   1.626   2.194  13.018 -0.3605 -0.0847 -0.6064
 2334SOL    HW218462   1.680   2.127  12.901 -2.9681 -1.3855 -0.2944
 2335SOL     OW18463   1.300   2.978   9.226  0.3301  0.0961  0.4757
 2335SOL    HW118464   1.308   2.919   9.301  0.8863 -0.7533 -0.2434
 2335SOL    HW218465   1.233   2.933   9.173  0.6956  0.5079 -0.3333
 2336SOL     OW18466   2.970   1.187   4.729  0.5326 -0.4416 -0.2573
 2336SOL    HW118467   2.879   1.173   4.755  0.6157 -2.4783 -1.1355
 2336SOL    HW218468   2.956   1.250   4.658 -1.1062 -2.1782 -1.4590
 2337SOL     OW18469   3.447   2.394   7.549 -0.2677 -0.0856  0.0018
 2337SOL    HW118470   3.473   2.341   7.624  1.0376 -1.2971 -1.3015
 2337SOL    HW218471   3.370   2.349   7.513  1.6824 -2.4865 -1.1652
 2338SOL     OW18472   1.313   4.364   3.006  0.0718  0.4087  0.1644
 2338SOL    HW118473   1.362   4.283   2.991  0.9191  0.8693  0.4723
 2338SOL    HW218474   1.378   4.434   3.004 -0.1170  0.6238  1.4153
 2339SOL     OW18475   0.780   0.654   4.953 -0.3749 -0.3483  0.2469
 2339SOL    HW118476   0.752   0.732   5.001 -1.5766 -0.3822 -0.4118
 2339SOL    HW218477   0.744   0.664   4.865  0.2958 -0.7354 -0.0699
 2340SOL     OW18478   4.458   1.470   5.889 -0.1833 -0.0260 -0.3768
 2340SOL    HW118479   4.551   1.469   5.915 -0.1039  1.1329 -0.6078
 2340SOL    HW218480   4.426   1.521   5.964 -2.4598 -1.5259 -0.3307
 2341SOL     OW18481   1.920   2.668   3.734  0.5090  0.1486  0.2616
 2341SOL    HW118482   1.915   2.667   3.639  0.4569  2.7536  0.2591
 2341SOL    HW218483   1.835   2.630   3.758  0.5584  0.2294  0.5606
 2342SOL     OW18484   4.584   1.806   4.686 -0.1650  0.0007 -0.0810
 2342SOL    HW118485   4.664   1.822   4.737  0.3302 -0.8808 -0.5901
 2342SOL    HW218486   4.528   1.878   4.715 -1.0692 -0.1237 -1.5342
 2343SOL     OW18487   0.052   2.297   3.852 -0.4361 -0.0236 -0.2104
 2343SOL    HW118488   0.120   2.269   3.913 -1.4837 -0.2905  0.8344
 2343SOL    HW218489   0.008   2.372   3.893  1.0921  0.0158  1.3279
 2344SOL     OW18490   1.647   2.339  15.357  0.1613 -0.2605 -0.0636
 2344SOL    HW118491   1.692   2.280  15.296 -1.9460 -0.8783 -1.0210
 2344SOL    HW218492   1.660   2.423  15.313  0.0764  0.2211  0.8401
 2345SOL     OW18493   1.625   1.941  13.296  0.0445  0.1537  0.1692
 2345SOL    HW118494   1.701   1.931  13.352 -0.4754  1.6617  1.1729
 2345SOL    HW218495   1.649   2.017  13.242  3.0610 -1.1705 -0.3507
 2346SOL     OW18496   2.774   2.202   1.377 -0.3997  0.6675 -0.0787
 2346SOL    HW118497   2.837   2.148   1.424  1.5268  1.9170 -1.2142
 2346SOL    HW218498   2.714   2.135   1.342  0.6180 -0.7444  0.9156
 2347SOL     OW18499   3.823   0.354   5.153  0.1372 -0.2856 -0.2146
 2347SOL    HW118500   3.729   0.336   5.158  0.3033 -1.1606 -0.1903
 2347SOL    HW218501   3.865   0.273   5.184  0.8193  0.2188  0.1751
 2348SOL     OW18502   3.213   4.040   9.933  0.1605  0.0221  0.2365
 2348SOL    HW118503   3.145   4.072   9.993 -0.9014 -1.0224 -0.4243
 2348SOL    HW218504   3.234   3.957   9.978  0.4983 -0.7912 -1.4417
 2349SOL     OW18505   3.744   0.765   3.315 -0.2206  0.0490 -0.1384
 2349SOL    HW118506   3.761   0.671   3.311  0.4030  0.2612 -2.3983
 2349SOL    HW218507   3.739   0.779   3.410 -0.5562  0.9705 -0.2853
 2350SOL     OW18508   0.737   0.082   1.847  0.2161 -0.2540  0.5083
 2350SOL    HW118509   0.783   0.165   1.860 -0.9602  0.1748  1.9297
 2350SOL    HW218510   0.778   0.037   1.921 -2.1957 -1.3583  1.1704
 2351SOL     OW18511   1.438   3.468   6.911  0.2201 -0.1005 -0.3060
 2351SOL    HW118512   1.345   3.488   6.914  1.0495  3.4190  0.9117
 2351SOL    HW218513   1.448   3.417   6.830 -1.0076 -0.4430 -0.2407
 2352SOL     OW18514   3.163   0.405   9.705 -0.0044  0.2196  0.2403
 2352SOL    HW118515   3.240   0.352   9.727  1.2125  0.2468 -4.0005
 2352SOL    HW218516   3.160   0.379   9.613  0.1090  4.3705 -0.9154
 2353SOL     OW18517   4.648   3.321   5.345  0.1197 -0.5571  0.0980
 2353SOL    HW118518   4.589   3.344   5.417  1.7206  0.9686  0.9084
 2353SOL    HW218519   4.718   3.383   5.367 -1.0033 -0.2535  2.7641
 2354SOL     OW18520   3.146   0.553   8.912  0.0479  0.2541  0.1966
 2354SOL    HW118521   3.132   0.560   8.818 -1.4710 -1.4823  0.2801
 2354SOL    HW218522   3.114   0.636   8.948 -0.8532 -0.5457  1.2937
 2355SOL     OW18523   2.987   1.038   2.611 -0.4122  0.2209 -0.4525
 2355SOL    HW118524   2.995   1.001   2.699 -0.7365  0.2683 -0.4030
 2355SOL    HW218525   2.921   1.104   2.630  1.5774  2.8676 -2.6591
 2356SOL     OW18526   1.572   3.758   4.252  0.5664 -0.0114  0.0936
 2356SOL    HW118527   1.554   3.794   4.339 -0.1691 -0.3611  0.0803
 2356SOL    HW218528   1.649   3.806   4.221 -1.8235  2.7718 -1.5208
 2357SOL     OW18529   0.980   3.168  15.185  0.1121 -0.6132 -0.4948
 2357SOL    HW118530   1.016   3.113  15.116 -1.9022 -2.4834 -0.0446
 2357SOL    HW218531   0.892   3.133  15.197 -0.3556  1.0871  0.9984
 2358SOL     OW18532   1.671   0.631   4.259 -0.0240  0.5766  0.2135
 2358SOL    HW118533   1.705   0.642   4.348  0.0582  0.5926  0.1804
 2358SOL    HW218534   1.618   0.710   4.247 -0.4111  0.2529 -0.1933
 2359SOL     OW18535   1.894   3.441   3.202 -0.1162 -0.2123 -0.1233
 2359SOL    HW118536   1.951   3.480   3.135 -0.4167  1.9034  0.8525
 2359SOL    HW218537   1.818   3.477   3.157  0.3272  0.2328 -0.5224
 2360SOL     OW18538   0.406   0.400   3.686  0.3905  0.2357 -0.0627
 2360SOL    HW118539   0.417   0.392   3.591  0.5274  2.6602 -0.2528
 2360SOL    HW218540   0.430   0.489   3.714  2.4021  0.6009 -3.0008
 2361SOL     OW18541   0.763   4.460   1.005 -0.2711 -0.1896 -0.0960
 2361SOL    HW118542   0.675   4.496   1.016  0.2639  1.1108 -0.1414
 2361SOL    HW218543   0.794   4.474   1.094 -1.9453 -2.0234  0.7898
 2362SOL     OW18544   2.862   0.740   3.721 -0.2262 -0.0157  0.4765
 2362SOL    HW118545   2.858   0.747   3.816 -0.4815  1.0490  0.3822
 2362SOL    HW218546   2.939   0.792   3.698  0.1104 -0.2114  1.1485
 2363SOL     OW18547   4.163   0.879   4.225 -0.1945 -0.1569  0.0030
 2363SOL    HW118548   4.095   0.936   4.188  2.6553  2.7991 -0.6992
 2363SOL    HW218549   4.217   0.943   4.271  0.2523 -0.0330 -0.6953
 2364SOL     OW18550   0.157   1.775   6.819 -0.2295 -0.0374 -0.0665
 2364SOL    HW118551   0.210   1.695   6.825 -1.2655 -0.8457 -1.7929
 2364SOL    HW218552   0.161   1.808   6.909  1.3184  0.0644 -0.1595
 2365SOL     OW18553   4.202   3.240   1.079 -0.2170  0.3284  0.4549
 2365SOL    HW118554   4.126   3.267   1.028 -0.3919 -2.3009 -0.6922
 2365SOL    HW218555   4.167   3.153   1.099 -1.9043  1.0782  0.6660
 2366SOL     OW18556   4.226   2.216   5.356 -0.2553 -0.0994 -0.2647
 2366SOL    HW118557   4.139   2.179   5.341 -0.8293  2.1611 -2.6001
 2366SOL    HW218558   4.195   2.306   5.364  1.0649  0.2225  1.1105
 2367SOL     OW18559   3.773   2.353   8.793 -0.2136  0.1384 -0.3136
 2367SOL    HW118560   3.682   2.380   8.782 -0.3682 -0.6612 -1.0192
 2367SOL    HW218561   3.753   2.266   8.827  0.2059  0.6639  1.2416
 2368SOL     OW18562   0.440   2.882  12.431  0.1248  0.2185 -0.6549
 2368SOL    HW118563   0.441   2.909  12.523 -0.4104 -1.1748 -0.2375
 2368SOL    HW218564   0.376   2.943  12.394 -0.7737  0.4233  1.2341
 2369SOL     OW18565   4.288   3.903   6.467 -0.0604 -0.1064 -0.2898
 2369SOL    HW118566   4.287   3.823   6.521  1.9664 -0.4312 -0.7462
 2369SOL    HW218567   4.193   3.919   6.465  0.2841  2.2303  2.0197
 2370SOL     OW18568   4.464   2.375   0.437 -0.3702  0.1562  0.0650
 2370SOL    HW118569   4.482   2.318   0.512  1.5770 -0.4644 -0.8496
 2370SOL    HW218570   4.410   2.444   0.475 -0.2852 -0.8040  1.9022
 2371SOL     OW18571   1.675   3.023   4.331  0.5278  0.1998 -0.2508
 2371SOL    HW118572   1.680   2.950   4.268 -2.8056  0.2378 -0.5321
 2371SOL    HW218573   1.582   3.024   4.354  0.8606 -4.0938  1.3568
 2372SOL     OW18574   3.357   1.806  12.750 -0.0419 -0.2683  0.4895
 2372SOL    HW118575   3.447   1.837  12.758 -0.5992  0.7953  2.7056
 2372SOL    HW218576   3.327   1.818  12.840 -0.9271 -0.4020  0.2150
 2373SOL     OW18577   4.664   3.879   2.718  0.3541 -0.2849  0.2279
 2373SOL    HW118578   4.575   3.898   2.747 -0.7222 -1.2319 -2.3750
 2373SOL    HW218579   4.685   3.936   2.644  0.3730  0.6505  0.9656
 2374SOL     OW18580   1.804   4.719  12.376 -0.2330 -0.2265 -0.3874
 2374SOL    HW118581   1.843   4.676  12.300 -1.4763 -1.7133 -0.1988
 2374SOL    HW218582   1.713   4.689  12.376  0.3352 -1.9253 -0.9072
 2375SOL     OW18583   0.296   0.093   0.032  0.2846  0.1730 -0.1363
 2375SOL    HW118584   0.259   0.156   0.093  1.1739  1.6516 -1.1333
 2375SOL    HW218585   0.212   0.053   0.010  0.0206 -0.1266  1.4540
 2376SOL     OW18586   3.284   0.923   4.215  0.2082  0.1730 -0.1193
 2376SOL    HW118587   3.231   0.985   4.265 -0.7504 -0.0144 -0.8974
 2376SOL    HW218588   3.348   0.905   4.283  1.6839  0.3161 -1.4587
 2377SOL     OW18589   4.701   3.799  15.813 -0.2770  0.2844 -0.3445
 2377SOL    HW118590   0.068   3.795  15.784 -0.9070  0.3251 -2.3169
 2377SOL    HW218591   4.671   3.881  15.774 -1.1366  0.6772  1.1323
 2378SOL     OW18592   4.666   0.584   2.556 -0.1189 -0.3673  0.1574
 2378SOL    HW118593   4.702   0.497   2.537 -0.6267 -0.8768  1.5033
 2378SOL    HW218594   4.597   0.592   2.490 -0.8056  2.6314  1.2591
 2379SOL     OW18595   3.743   2.831   2.755  0.1983  0.0599 -0.6554
 2379SOL    HW118596   3.834   2.834   2.725 -0.2515 -1.2414 -2.1583
 2379SOL    HW218597   3.753   2.765   2.823 -0.0383  0.2967 -0.3945
 2380SOL     OW18598   3.067   3.082   4.000  0.4101  0.0660  0.6145
 2380SOL    HW118599   3.059   3.175   3.982  0.1272 -1.0549 -5.1274
 2380SOL    HW218600   3.153   3.058   3.967  0.5218  0.2274  0.7920
 2381SOL     OW18601   3.594   1.851   2.396  0.8462  0.1759 -0.2852
 2381SOL    HW118602   3.554   1.774   2.356  0.1871  0.7417 -0.7357
 2381SOL    HW218603   3.550   1.918   2.343  0.4660  0.2150  0.0737
 2382SOL     OW18604   1.302   4.232   1.406 -0.3317 -0.2639 -0.7774
 2382SOL    HW118605   1.224   4.234   1.460  0.5240 -0.9287  0.4804
 2382SOL    HW218606   1.260   4.244   1.321 -1.9611 -2.2533 -0.2399
 2383SOL     OW18607   1.973   3.970   2.883  0.3308  0.2095  0.3276
 2383SOL    HW118608   1.936   4.056   2.862  0.1467  0.2508  0.8063
 2383SOL    HW218609   2.067   3.991   2.886  0.7326 -1.7320  1.2967
 2384SOL     OW18610   0.735   2.261   1.460 -0.2765 -0.0773 -0.1635
 2384SOL    HW118611   0.656   2.308   1.431 -1.2199 -0.3557  1.9604
 2384SOL    HW218612   0.782   2.278   1.378  2.1179 -2.4099  0.7476
 2385SOL     OW18613   1.256   2.766   8.584  0.3650 -0.2230 -0.1842
 2385SOL    HW118614   1.248   2.695   8.648  0.4252  0.2143  0.3010
 2385SOL    HW218615   1.340   2.810   8.593 -1.6602  3.4028  0.9304
 2386SOL     OW18616   1.449   2.058   2.212  0.5735 -0.0009 -0.1415
 2386SOL    HW118617   1.448   2.139   2.161  0.9320 -0.1882 -0.4441
 2386SOL    HW218618   1.354   2.043   2.213  0.2885  1.8676  1.6600
 2387SOL     OW18619   3.655   1.914   3.590 -0.0152  0.2913 -0.1059
 2387SOL    HW118620   3.589   1.892   3.525  0.1233 -0.5991  0.0499
 2387SOL    HW218621   3.645   1.856   3.665 -1.0460 -0.0111 -0.4733
 2388SOL     OW18622   1.026   1.351   6.434  0.0048  0.1322  0.0032
 2388SOL    HW118623   1.052   1.382   6.521 -2.2826  1.9451  0.0643
 2388SOL    HW218624   0.992   1.266   6.462  3.3819 -0.5987  1.8290
 2389SOL     OW18625   4.299   3.332   3.067 -0.9497  0.5759 -0.0365
 2389SOL    HW118626   4.267   3.360   3.153  0.0595  2.0339 -0.1326
 2389SOL    HW218627   4.223   3.273   3.065 -0.2695 -0.3186  0.8197
 2390SOL     OW18628   1.486   4.184  14.495  0.6789 -0.6268 -0.5386
 2390SOL    HW118629   1.540   4.231  14.431 -0.6307 -1.3852 -2.1994
 2390SOL    HW218630   1.425   4.256  14.514  0.2902 -0.8731 -0.8348
 2391SOL     OW18631   4.665   1.569   1.834 -0.0120 -0.2529  0.1867
 2391SOL    HW118632   4.663   1.661   1.860  0.6342  0.3371 -1.8107
 2391SOL    HW218633   4.709   1.577   1.749 -0.7024 -1.0055 -0.2364
 2392SOL     OW18634   0.132   0.652   5.284 -0.1020  0.1803 -0.0680
 2392SOL    HW118635   0.056   0.677   5.337 -0.5067  1.1154 -1.0846
 2392SOL    HW218636   0.081   0.663   5.203 -0.0133  1.3817  0.0447
 2393SOL     OW18637   0.864   0.622   7.991 -0.1324 -0.3739  0.3547
 2393SOL    HW118638   0.868   0.717   7.995 -0.6925 -0.3054 -0.8760
 2393SOL    HW218639   0.882   0.615   8.085  1.8679  1.8677  0.1517
 2394SOL     OW18640   2.230   1.040  10.799  0.0631 -0.5528  0.0626
 2394SOL    HW118641   2.180   1.092  10.736  0.6974 -1.3377 -1.0958
 2394SOL    HW218642   2.278   0.973  10.748 -0.5875 -2.7101  2.2870
 2395SOL     OW18643   2.072   1.904  14.710 -0.3252 -0.6817 -0.1441
 2395SOL    HW118644   2.011   1.976  14.692 -1.3743 -1.8390 -1.2033
 2395SOL    HW218645   2.099   1.874  14.623  0.2211  1.4733 -0.7323
 2396SOL     OW18646   2.802   1.032   2.219 -0.0929  0.7868  0.2173
 2396SOL    HW118647   2.842   0.945   2.225  0.3424  0.9951  0.2907
 2396SOL    HW218648   2.728   1.033   2.280 -2.3559  0.1976 -2.4714
 2397SOL     OW18649   3.103   2.605  16.534 -0.1670 -0.3054 -0.4678
 2397SOL    HW118650   3.054   2.683  16.560 -0.9027 -1.3781  1.3742
 2397SOL    HW218651   3.042   2.533  16.550  0.5536 -0.8573 -0.2308
 2398SOL     OW18652   3.902   3.553   0.464  0.2218 -0.0158 -0.1177
 2398SOL    HW118653   3.815   3.551   0.503  1.1427  0.7502  2.0133
 2398SOL    HW218654   3.933   3.634   0.505  1.7978 -0.6516 -0.0460
 2399SOL     OW18655   2.845   4.493   6.014 -0.0218 -0.3304 -0.7346
 2399SOL    HW118656   2.903   4.569   6.024 -0.4081 -0.0738 -0.4655
 2399SOL    HW218657   2.909   4.424   5.996  2.4978  2.1431 -1.4680
 2400SOL     OW18658   1.702   0.691  15.635  0.1917  0.3494  0.7244
 2400SOL    HW118659   1.634   0.759  15.634 -0.1892 -0.0199  1.6592
 2400SOL    HW218660   1.734   0.694  15.545 -3.3452  1.2039 -0.5223
 2401SOL     OW18661   4.717   2.891   8.681 -0.0728 -0.1410 -0.1698
 2401SOL    HW118662   0.045   2.942   8.619  0.6780 -1.3615 -0.5466
 2401SOL    HW218663   0.054   2.841   8.734 -0.1544 -0.3086 -0.2356
 2402SOL     OW18664   3.941   0.165   8.950  0.2361  0.1102 -0.0777
 2402SOL    HW118665   3.983   0.130   8.871  1.0722 -1.9340  1.2819
 2402SOL    HW218666   3.891   0.089   8.978 -0.0593  1.1350  2.1743
 2403SOL     OW18667   0.691   4.261   5.835 -0.8704 -0.0479 -0.1281
 2403SOL    HW118668   0.690   4.173   5.797 -1.8714 -0.0737 -0.0422
 2403SOL    HW218669   0.635   4.236   5.909  1.1266 -0.5933  1.1993
 2404SOL     OW18670   1.670   2.606   7.424 -0.4934 -0.0763 -0.1038
 2404SOL    HW118671   1.653   2.697   7.449 -0.2405 -0.1917  0.4851
 2404SOL    HW218672   1.625   2.543   7.480 -0.9796  0.8236  0.5108
 2405SOL     OW18673   2.872   4.439   8.878  0.7437  0.4416  1.2897
 2405SOL    HW118674   2.902   4.356   8.841  0.3254  0.9248 -0.1261
 2405SOL    HW218675   2.789   4.456   8.835  0.2419 -1.6469  1.4536
 2406SOL     OW18676   1.854   3.135   8.731 -0.0477 -0.7144 -0.6581
 2406SOL    HW118677   1.817   3.206   8.678 -1.3641 -0.1580  0.9939
 2406SOL    HW218678   1.775   3.095   8.768  1.2260 -0.9827  1.7861
 2407SOL     OW18679   1.011   0.467   3.246  0.0358 -0.3873 -0.1788
 2407SOL    HW118680   1.100   0.456   3.281 -0.6701 -3.1784  0.7989
 2407SOL    HW218681   0.966   0.498   3.325  1.2960 -0.2133  0.4873
 2408SOL     OW18682   0.163   2.196   1.582 -0.1324  0.6274  0.1193
 2408SOL    HW118683   0.179   2.241   1.499 -0.0720 -0.8392 -0.6494
 2408SOL    HW218684   0.249   2.155   1.593 -1.6544 -1.8488  2.8021
 2409SOL     OW18685   3.250   3.942  17.373  0.7169  0.5208  0.2553
 2409SOL    HW118686   3.212   3.887  17.304 -0.5079  0.8793  0.6490
 2409SOL    HW218687   3.208   4.026  17.355 -0.8897 -0.0328  1.4519
 2410SOL     OW18688   0.995   4.295  12.248 -0.1704  0.6396 -0.4661
 2410SOL    HW118689   1.083   4.272  12.279 -1.1514 -1.3444  0.8534
 2410SOL    HW218690   0.975   4.219  12.194  0.8607  0.1786 -0.1888
 2411SOL     OW18691   2.923   3.683   7.486 -0.4657 -0.0275 -0.3415
 2411SOL    HW118692   2.890   3.696   7.574  2.7031  1.7349  0.5719
 2411SOL    HW218693   2.890   3.763   7.445 -2.5107  0.2343  1.8136
 2412SOL     OW18694   0.969   1.588   8.205 -0.5107  0.1245 -0.7674
 2412SOL    HW118695   0.904   1.529   8.168 -1.8401  0.7234  0.6288
 2412SOL    HW218696   0.917   1.607   8.283 -2.4418 -4.0529 -1.0295
 2413SOL     OW18697   0.211   0.053  13.681 -0.7309  0.4164 -0.0577
 2413SOL    HW118698   0.193   0.076  13.590 -0.5347  3.3205  0.6336
 2413SOL    HW218699   0.196   4.683  13.673 -1.2292  0.6080 -1.4198
 2414SOL     OW18700   3.458   4.724   8.390  0.0746 -0.0941  0.2749
 2414SOL    HW118701   3.479   0.038   8.305  0.2152 -0.2845  0.2257
 2414SOL    HW218702   3.500   4.638   8.388 -3.3107 -1.7388 -0.1748
 2415SOL     OW18703   2.763   0.299   2.269  0.2994  0.0831  0.4023
 2415SOL    HW118704   2.778   0.319   2.176 -0.1977  0.8549  0.4868
 2415SOL    HW218705   2.776   0.385   2.309 -2.3599  0.8160 -0.3052
 2416SOL     OW18706   0.382   3.181  15.047  0.2354  0.0564 -0.4334
 2416SOL    HW118707   0.370   3.097  15.003  0.4188  0.1786 -0.7200
 2416SOL    HW218708   0.454   3.152  15.102 -0.3895  0.2479  0.4713
 2417SOL     OW18709   2.855   2.342   2.120 -0.0371  0.2610 -0.0361
 2417SOL    HW118710   2.913   2.375   2.189  0.5015 -1.3721  0.2787
 2417SOL    HW218711   2.880   2.396   2.045  0.9189 -1.2949 -0.8256
 2418SOL     OW18712   1.080   1.050  17.198 -0.0876 -0.2397 -0.4467
 2418SOL    HW118713   1.013   1.107  17.236 -0.4451 -1.2308  0.4247
 2418SOL    HW218714   1.026   0.973  17.182  0.8105 -0.7447 -1.0502
 2419SOL     OW18715   3.403   3.459   8.069  0.6847 -0.2109 -0.8411
 2419SOL    HW118716   3.309   3.478   8.065  1.0328  1.6757 -0.0492
 2419SOL    HW218717   3.436   3.549   8.065  0.8797 -0.1902  1.1778
 2420SOL     OW18718   3.049   0.421   7.887  0.0437 -0.2952  0.4100
 2420SOL    HW118719   3.048   0.517   7.878  0.0099 -0.4946 -1.7635
 2420SOL    HW218720   3.112   0.409   7.816  1.1074  0.6277  1.1824
 2421SOL     OW18721   4.204   1.521  16.029 -0.2332  0.6305  0.0813
 2421SOL    HW118722   4.200   1.616  16.042  0.4096  0.6245  0.3532
 2421SOL    HW218723   4.271   1.506  15.962 -1.2694 -0.2879 -0.7369
 2422SOL     OW18724   2.021   2.612   4.659 -0.2370 -0.0210  0.3604
 2422SOL    HW118725   2.001   2.538   4.717 -0.1845 -0.2762  0.0522
 2422SOL    HW218726   1.986   2.687   4.706 -1.2070  0.0004 -0.3974
 2423SOL     OW18727   2.714   1.257   7.272 -0.0568 -0.0219  0.1558
 2423SOL    HW118728   2.710   1.164   7.293 -3.3360 -0.6414 -3.1637
 2423SOL    HW218729   2.710   1.245   7.177  0.4149  1.1990 -0.0198
 2424SOL     OW18730   1.549   3.056   4.010 -0.5049  0.1749 -0.4823
 2424SOL    HW118731   1.465   3.056   3.966 -1.2791 -0.0057  0.9990
 2424SOL    HW218732   1.553   3.150   4.028 -2.5758  0.2455 -0.3967
 2425SOL     OW18733   4.174   3.807  12.551 -0.3040  0.3999 -0.2333
 2425SOL    HW118734   4.228   3.883  12.527 -0.3378  0.1375 -1.1483
 2425SOL    HW218735   4.245   3.742  12.554 -0.7887 -0.1287 -0.2633
 2426SOL     OW18736   0.584   4.142   5.161  0.2176 -0.4828  0.2578
 2426SOL    HW118737   0.496   4.155   5.127  0.3315  1.0166  0.5257
 2426SOL    HW218738   0.630   4.164   5.080 -2.1215  0.7592 -0.7411
 2427SOL     OW18739   2.195   2.444   9.417  0.6052  0.2463  0.0118
 2427SOL    HW118740   2.111   2.446   9.462  0.7789 -0.9035  0.3893
 2427SOL    HW218741   2.249   2.500   9.473  0.5761 -0.4562  0.7413
 2428SOL     OW18742   0.949   0.530   5.608  0.4411  0.4704  0.0901
 2428SOL    HW118743   0.907   0.570   5.685  0.7433 -0.0220  0.5130
 2428SOL    HW218744   0.987   0.605   5.562 -0.5038  1.3768  0.7774
 2429SOL     OW18745   1.164   0.429   5.285 -0.2071  0.3753  0.2070
 2429SOL    HW118746   1.099   0.454   5.220  0.7421  1.3263 -0.3761
 2429SOL    HW218747   1.108   0.379   5.345 -1.8680  1.0946 -0.7438
 2430SOL     OW18748   0.427   3.816   7.980 -0.0083 -0.1590  0.2135
 2430SOL    HW118749   0.386   3.861   7.905  0.2663  0.2027  0.2820
 2430SOL    HW218750   0.374   3.738   7.992 -0.4608  0.6077  3.2611
 2431SOL     OW18751   3.062   1.043   9.191  0.4518 -0.0596  0.3263
 2431SOL    HW118752   3.053   1.138   9.180 -1.8956 -0.4757 -1.0884
 2431SOL    HW218753   3.059   1.038   9.287 -1.1816  1.7051  0.3723
 2432SOL     OW18754   3.138   2.666  10.877 -0.3191 -0.4148 -0.2256
 2432SOL    HW118755   3.221   2.713  10.883 -1.4603  1.5829 -0.3685
 2432SOL    HW218756   3.085   2.706  10.945  1.0501  1.8388 -0.4973
 2433SOL     OW18757   1.762   2.011   4.271 -0.1271  0.0770  0.0634
 2433SOL    HW118758   1.697   2.076   4.244  0.8801  1.3767  0.7625
 2433SOL    HW218759   1.722   1.931   4.236  1.4850 -1.8481  2.6624
 2434SOL     OW18760   0.496   0.797   2.642 -0.3388 -0.2553  0.1928
 2434SOL    HW118761   0.536   0.861   2.701  1.8627 -0.1447 -1.4288
 2434SOL    HW218762   0.451   0.855   2.582  0.0853 -1.4248 -1.2430
 2435SOL     OW18763   3.629   2.552   1.383 -0.1385 -0.5072 -0.1111
 2435SOL    HW118764   3.601   2.502   1.306 -0.5606 -0.8680  0.2805
 2435SOL    HW218765   3.694   2.492   1.419  0.5622  1.0027  1.1183
 2436SOL     OW18766   2.917   0.434   1.298 -0.4936 -0.3812  0.4325
 2436SOL    HW118767   2.930   0.449   1.204  0.9080  2.4835  1.0854
 2436SOL    HW218768   2.823   0.424   1.313 -0.3293 -2.7529 -0.2530
 2437SOL     OW18769   4.329   1.283   4.052 -0.7140  0.0046  0.3763
 2437SOL    HW118770   4.286   1.324   3.977 -1.7096  1.9087  1.9679
 2437SOL    HW218771   4.376   1.356   4.093 -2.3467  1.4449 -0.3194
 2438SOL     OW18772   1.913   4.071   3.275 -0.4633 -0.5612 -0.2115
 2438SOL    HW118773   1.929   3.980   3.251  0.1336 -0.3279 -0.6926
 2438SOL    HW218774   1.823   4.066   3.305  0.9511 -1.1772  3.9492
 2439SOL     OW18775   4.583   2.947   6.836 -1.0226 -0.0526 -0.1235
 2439SOL    HW118776   4.560   2.862   6.874 -0.7133  1.0225  2.5284
 2439SOL    HW218777   4.609   2.921   6.748  1.8778 -0.2274  0.7626
 2440SOL     OW18778   0.186   3.067   0.329 -0.6222  0.3609  0.0979
 2440SOL    HW118779   0.167   3.109   0.245 -0.7953  0.8610  0.3877
 2440SOL    HW218780   0.163   2.977   0.306 -1.9726  0.4953  0.9409
 2441SOL     OW18781   1.189   4.223  16.877 -0.2466  0.9519  0.1326
 2441SOL    HW118782   1.200   4.185  16.790 -0.5382 -1.9187  1.3199
 2441SOL    HW218783   1.183   4.316  16.857 -0.7305  0.4673 -1.9837
 2442SOL     OW18784   3.012   1.012   0.832 -0.5082  0.4040 -0.2991
 2442SOL    HW118785   2.978   0.923   0.824 -0.4196  0.3313  0.0942
 2442SOL    HW218786   3.102   1.000   0.801 -0.8968  1.4971 -1.8290
 2443SOL     OW18787   1.645   3.745   4.958 -0.2667 -0.3434  0.3244
 2443SOL    HW118788   1.593   3.713   4.885  2.6543 -0.2440 -1.8014
 2443SOL    HW218789   1.730   3.704   4.943 -0.1984 -0.3553  0.7575
 2444SOL     OW18790   3.790   3.165   1.213 -0.2936  0.4270 -0.0311
 2444SOL    HW118791   3.847   3.225   1.261 -0.2176  0.9184 -0.7307
 2444SOL    HW218792   3.772   3.217   1.135 -1.4974  0.4303  0.2514
 2445SOL     OW18793   2.735   2.816  11.465 -0.2857 -0.1638 -0.4482
 2445SOL    HW118794   2.804   2.783  11.408  0.3901 -2.0970  1.4861
 2445SOL    HW218795   2.798   2.843  11.532 -1.7253  0.4019  0.6825
 2446SOL     OW18796   1.937   1.119   5.139  0.2321  0.4749 -0.1949
 2446SOL    HW118797   1.860   1.137   5.193  1.7421  2.2647  1.3622
 2446SOL    HW218798   1.888   1.089   5.063  0.3837 -0.4489  0.0731
 2447SOL     OW18799   1.423   4.175   0.308  0.5839  0.6992 -0.3546
 2447SOL    HW118800   1.422   4.079   0.301 -1.1699  0.7701 -0.9029
 2447SOL    HW218801   1.411   4.200   0.399 -0.9818  1.4356 -0.7642
 2448SOL     OW18802   0.306   4.303   7.074  0.1675  0.7790 -0.4714
 2448SOL    HW118803   0.216   4.279   7.095  0.7373 -0.2396  0.7855
 2448SOL    HW218804   0.294   4.350   6.991  3.1001  0.4585 -1.0658
 2449SOL     OW18805   1.466   4.101   7.750  0.3171 -0.2132  0.0194
 2449SOL    HW118806   1.529   4.138   7.813 -0.3030 -1.4319  1.3448
 2449SOL    HW218807   1.396   4.073   7.809  0.2124  2.4125  1.1617
 2450SOL     OW18808   0.076   2.594  13.949 -0.2181  0.3850  0.2078
 2450SOL    HW118809   4.716   2.638  13.933  1.0225  2.3598 -0.9063
 2450SOL    HW218810   0.132   2.669  13.968  0.9813 -1.0644  2.3129
 2451SOL     OW18811   3.956   4.445   5.501 -0.2394  0.0179  0.3155
 2451SOL    HW118812   3.969   4.525   5.551  2.0813 -0.7012  0.8626
 2451SOL    HW218813   3.918   4.384   5.564  1.5927 -0.6333  0.7897
 2452SOL     OW18814   1.801   0.702   2.862  0.2336  0.4886 -0.2596
 2452SOL    HW118815   1.735   0.632   2.864 -0.2329  1.0138  2.1978
 2452SOL    HW218816   1.813   0.718   2.768  1.3233 -1.8016 -0.5005
 2453SOL     OW18817   2.501   4.449   9.579 -0.2088  0.8576  0.0338
 2453SOL    HW118818   2.410   4.464   9.554 -0.6689  0.7852  1.6450
 2453SOL    HW218819   2.544   4.423   9.498  0.1015  0.3743  0.3573
 2454SOL     OW18820   0.250   0.410  10.417 -0.4549 -0.2606  0.2431
 2454SOL    HW118821   0.337   0.443  10.440 -0.4761 -0.0212 -0.0174
 2454SOL    HW218822   0.206   0.378  10.496  0.2539 -2.1496 -0.1346
 2455SOL     OW18823   3.625   4.176   7.771 -0.4919 -0.1209  0.1428
 2455SOL    HW118824   3.628   4.089   7.811 -1.3679 -1.1969 -2.1407
 2455SOL    HW218825   3.660   4.222   7.847  0.2148 -0.2140 -0.1263
 2456SOL     OW18826   0.362   4.543  15.360 -0.3356 -0.5167 -0.3000
 2456SOL    HW118827   0.337   4.631  15.386  0.1445 -0.0559 -1.4264
 2456SOL    HW218828   0.282   4.493  15.378  0.0128 -0.1818  2.1906
 2457SOL     OW18829   3.730   3.822   4.116 -0.7031 -0.2889  0.3418
 2457SOL    HW118830   3.645   3.781   4.128 -0.1780 -1.3757  0.3333
 2457SOL    HW218831   3.771   3.826   4.202  0.6231 -3.8726 -0.1211
 2458SOL     OW18832   0.510   2.582   8.635  0.0776  0.2245 -0.5946
 2458SOL    HW118833   0.462   2.649   8.683 -1.7607 -0.8117 -0.9897
 2458SOL    HW218834   0.437   2.534   8.595  1.1933 -0.9151 -1.2551
 2459SOL     OW18835   4.069   0.901  10.192 -0.4523  0.0853 -0.6698
 2459SOL    HW118836   4.026   0.947  10.264  0.6206 -1.9450  1.2640
 2459SOL    HW218837   4.139   0.861  10.244 -1.6536  0.6033  1.3400
 2460SOL     OW18838   0.735   2.486   2.124  0.1410  0.0713  0.1774
 2460SOL    HW118839   0.788   2.484   2.205 -0.3050 -0.4075  0.4544
 2460SOL    HW218840   0.789   2.452   2.053 -2.7000  0.1177 -1.9713
 2461SOL     OW18841   1.588   4.207   6.935 -0.1243  0.7368  0.2669
 2461SOL    HW118842   1.670   4.255   6.948 -1.8817  3.2655  1.8480
 2461SOL    HW218843   1.524   4.253   6.990  1.1904  0.7386  1.8016
 2462SOL     OW18844   2.532   2.447   2.068 -0.1275 -0.1094  0.7693
 2462SOL    HW118845   2.481   2.370   2.093 -1.0014  0.2630  0.1331
 2462SOL    HW218846   2.613   2.411   2.034  0.2416  0.2772  1.2403
 2463SOL     OW18847   2.538   4.147   8.036 -0.6947 -0.1444 -0.0491
 2463SOL    HW118848   2.553   4.184   8.123 -0.8579  0.6891 -0.3808
 2463SOL    HW218849   2.548   4.056   8.065 -1.0525 -0.2342 -0.2133
 2464SOL     OW18850   2.821   1.901   4.305 -0.5593  0.4804 -0.1134
 2464SOL    HW118851   2.741   1.896   4.356 -0.3423  1.0070  0.2741
 2464SOL    HW218852   2.798   1.910   4.213  0.4030  0.5592 -0.3517
 2465SOL     OW18853   2.551   2.340   8.101 -0.3144  0.4903 -0.3005
 2465SOL    HW118854   2.494   2.280   8.149  0.7794 -0.3947 -0.1188
 2465SOL    HW218855   2.488   2.388   8.047 -0.7666 -0.4985 -0.6542
 2466SOL     OW18856   4.570   0.389  17.543 -0.0453  0.2413  0.1667
 2466SOL    HW118857   4.638   0.326  17.569  0.6304  0.8694 -0.0806
 2466SOL    HW218858   4.568   0.433  17.628 -0.5898 -1.6051  1.1138
 2467SOL     OW18859   1.406   1.273   8.635  0.0626  0.1530 -0.3273
 2467SOL    HW118860   1.409   1.217   8.557 -1.1831 -1.7543  0.9964
 2467SOL    HW218861   1.466   1.344   8.612  2.4818 -1.6112  0.6804
 2468SOL     OW18862   3.946   3.343   9.214  0.2483 -0.6623  0.0215
 2468SOL    HW118863   3.859   3.304   9.216 -0.2040  0.3827  1.0361
 2468SOL    HW218864   3.998   3.263   9.219 -0.8523 -1.3673  0.0363
 2469SOL     OW18865   2.360   2.293   7.477 -0.8398 -0.1926  0.8220
 2469SOL    HW118866   2.276   2.339   7.478 -0.1247  1.1104  1.0004
 2469SOL    HW218867   2.339   2.225   7.541 -0.5139 -0.6719  0.4238
 2470SOL     OW18868   4.274   1.192   6.214 -0.4890  0.0975  0.4779
 2470SOL    HW118869   4.308   1.118   6.164 -0.6775  0.4727 -0.2037
 2470SOL    HW218870   4.214   1.147   6.273 -1.5878 -0.8859 -1.4135
 2471SOL     OW18871   3.208   4.176   8.705  0.4967 -0.2594 -0.6699
 2471SOL    HW118872   3.300   4.155   8.693 -0.2099 -2.8501 -1.6199
 2471SOL    HW218873   3.179   4.131   8.784  0.5325 -0.5622 -0.8293
 2472SOL     OW18874   4.143   4.454   6.797 -0.0831 -0.1740 -0.0863
 2472SOL    HW118875   4.173   4.541   6.769  3.0004 -0.5696  1.9545
 2472SOL    HW218876   4.139   4.409   6.713 -1.1742  1.0153 -0.6694
 2473SOL     OW18877   4.303   2.019   1.240 -0.0405  0.5060  0.3229
 2473SOL    HW118878   4.285   2.024   1.334  1.8722 -1.1228  0.7560
 2473SOL    HW218879   4.379   1.961   1.234  0.9433  1.5334  2.9278
 2474SOL     OW18880   0.949   1.178   6.131 -0.7015 -0.2074  0.4296
 2474SOL    HW118881   0.908   1.200   6.047  0.8870 -3.4025 -1.1417
 2474SOL    HW218882   0.989   1.261   6.157  1.9945 -1.5579  0.5567
 2475SOL     OW18883   1.145   1.838  16.286 -0.4968  0.2166 -0.1501
 2475SOL    HW118884   1.058   1.816  16.252  0.7819 -0.2687 -3.1430
 2475SOL    HW218885   1.206   1.811  16.217 -1.4081 -1.6304 -0.2404
 2476SOL     OW18886   2.772   3.736   7.731 -0.9457 -0.5179 -0.2795
 2476SOL    HW118887   2.804   3.826   7.742  0.3849 -0.6735 -2.8486
 2476SOL    HW218888   2.732   3.720   7.816  1.5798 -0.0352  0.9792
 2477SOL     OW18889   2.697   0.657   6.945  0.3765  0.1291 -0.1451
 2477SOL    HW118890   2.602   0.654   6.934  0.4053  2.5743 -0.9658
 2477SOL    HW218891   2.718   0.673   6.853  1.5753  0.3034  0.1569
 2478SOL     OW18892   3.355   3.255   4.198 -0.0315  0.0521  0.4100
 2478SOL    HW118893   3.330   3.163   4.187 -1.8086  0.4479  1.1349
 2478SOL    HW218894   3.312   3.267   4.283  0.0610  0.0458  0.4578
 2479SOL     OW18895   3.388   1.099   7.562  0.5230  0.5219 -0.1700
 2479SOL    HW118896   3.379   1.114   7.656  1.8077  0.6026 -0.0610
 2479SOL    HW218897   3.479   1.130   7.569  0.2974  0.8541  1.3986
 2480SOL     OW18898   1.082   4.340   8.083 -0.2300 -0.0486 -0.2589
 2480SOL    HW118899   1.032   4.392   8.145 -0.0371 -0.0094 -0.1345
 2480SOL    HW218900   1.010   4.324   8.022 -1.0832 -1.9723  1.2317
 2481SOL     OW18901   1.640   2.538   9.148  0.0607 -0.4323  0.3329
 2481SOL    HW118902   1.653   2.447   9.173 -3.0269 -1.8121 -3.1797
 2481SOL    HW218903   1.592   2.528   9.066 -0.5880  1.0013  0.5286
 2482SOL     OW18904   2.695   0.367   9.854 -0.0733 -0.3869 -0.3474
 2482SOL    HW118905   2.788   0.386   9.855  0.1445 -1.5120  1.4242
 2482SOL    HW218906   2.691   0.306   9.780 -0.7761 -2.3525  1.2921
 2483SOL     OW18907   0.062   2.798   0.457 -0.3971  0.7098  0.2532
 2483SOL    HW118908   0.078   2.710   0.424 -0.3356 -0.1045  2.4427
 2483SOL    HW218909   4.718   2.794   0.525  1.4637  0.2193  2.1079
 2484SOL     OW18910   4.639   3.422   0.036  0.2041  0.0122  0.3719
 2484SOL    HW118911   4.677   3.475  17.663  1.0959 -1.5373 -0.3292
 2484SOL    HW218912   4.552   3.459   0.053 -0.1189 -0.0800 -1.1144
 2485SOL     OW18913   2.608   0.905   3.222  0.3321 -0.1538 -0.2218
 2485SOL    HW118914   2.548   0.836   3.193  0.9695 -1.5397  1.7515
 2485SOL    HW218915   2.549   0.981   3.225  0.4539 -0.0912  0.6913
 2486SOL     OW18916   1.473   3.379   7.567 -0.0326 -0.1463 -0.0371
 2486SOL    HW118917   1.504   3.424   7.489 -1.2617  3.5419  1.6257
 2486SOL    HW218918   1.394   3.416   7.606 -0.6699 -0.3518 -1.1423
 2487SOL     OW18919   3.279   1.192   7.025  0.2880 -0.1435 -0.0380
 2487SOL    HW118920   3.308   1.158   7.109 -2.3465  0.4264  1.1005
 2487SOL    HW218921   3.322   1.277   7.030  0.8911 -0.3881 -1.0091
 2488SOL     OW18922   2.995   1.443   2.791 -0.1000 -0.6683 -0.8837
 2488SOL    HW118923   2.972   1.420   2.881  1.4782  0.1330 -0.2761
 2488SOL    HW218924   2.953   1.371   2.745  0.4313 -2.6428  1.6882
 2489SOL     OW18925   1.446   1.160   5.165  0.1045 -0.0710  0.3058
 2489SOL    HW118926   1.454   1.109   5.085  0.6075  1.2690 -0.5052
 2489SOL    HW218927   1.366   1.120   5.200  0.2211 -0.5173  0.0623
 2490SOL     OW18928   3.522   3.694   8.110 -0.0054  0.1800 -0.4695
 2490SOL    HW118929   3.461   3.768   8.120 -1.4556 -1.1319  0.4430
 2490SOL    HW218930   3.558   3.686   8.199  1.4702 -2.4843 -1.3145
 2491SOL     OW18931   4.499   1.903   9.142 -0.2886 -0.0340 -0.6144
 2491SOL    HW118932   4.558   1.977   9.135 -0.6033  0.2746 -0.0235
 2491SOL    HW218933   4.441   1.921   9.216 -0.5449 -0.4717 -0.7075
 2492SOL     OW18934   4.708   2.448   9.435 -0.0954 -0.6659  0.1353
 2492SOL    HW118935   4.662   2.381   9.487 -1.9011  1.0138  0.7161
 2492SOL    HW218936   4.686   2.529   9.481  0.7541 -0.4075  0.0783
 2493SOL     OW18937   4.155   4.163   3.695  0.5217 -0.1771  0.1456
 2493SOL    HW118938   4.187   4.088   3.744 -1.9448 -0.4805  1.3102
 2493SOL    HW218939   4.217   4.227   3.731  0.1296 -1.1903  2.5688
 2494SOL     OW18940   1.571   4.073   5.311 -0.2268  0.4713 -0.1123
 2494SOL    HW118941   1.620   3.991   5.319 -0.2829  0.4731  0.2653
 2494SOL    HW218942   1.479   4.048   5.308 -0.0554 -0.3290  1.0025
 2495SOL     OW18943   1.062   2.260  17.582 -0.3243 -0.4302  0.2998
 2495SOL    HW118944   1.042   2.183  17.530 -0.8151  0.8627 -1.4313
 2495SOL    HW218945   1.148   2.242  17.619  0.1118  3.0983  1.0353
 2496SOL     OW18946   4.262   0.771  16.811 -0.2879 -0.6372 -0.7486
 2496SOL    HW118947   4.222   0.699  16.860 -1.5668  0.3760 -0.2898
 2496SOL    HW218948   4.220   0.845  16.854 -0.5365 -0.1537 -1.8271
 2497SOL     OW18949   3.199   1.997  16.800  0.6833  0.0963  0.1045
 2497SOL    HW118950   3.188   2.087  16.770 -0.2474 -0.4679 -1.2004
 2497SOL    HW218951   3.126   1.989  16.862  1.6442 -2.4011  0.8898
 2498SOL     OW18952   4.210   4.710   9.694  0.0686 -0.6718  0.3961
 2498SOL    HW118953   4.145   4.659   9.742  0.1319 -0.1355  1.0470
 2498SOL    HW218954   4.251   0.026   9.771 -1.8497  1.6107  0.2382
 2499SOL     OW18955   0.876   2.367   1.701  0.4428  0.3853  0.2103
 2499SOL    HW118956   0.889   2.432   1.632 -0.3415  0.8142  0.4678
 2499SOL    HW218957   0.844   2.295   1.646  0.5313 -0.6192  1.4793
 2500SOL     OW18958   2.302   2.942  13.499 -0.0093  0.2058 -0.1703
 2500SOL    HW118959   2.329   3.002  13.569  2.5970 -1.2921  0.1079
 2500SOL    HW218960   2.296   2.859  13.547  2.0632  0.6641  0.9096
 2501SOL     OW18961   1.622   1.064   4.083  0.3642  0.3701  0.1507
 2501SOL    HW118962   1.585   0.976   4.082  1.9559 -0.2817 -1.3071
 2501SOL    HW218963   1.674   1.063   4.163 -0.3376  0.8486  0.6060
 2502SOL     OW18964   3.067   2.509  15.561  0.2845  0.1697  0.1049
 2502SOL    HW118965   3.161   2.504  15.577  1.0061  0.7347 -3.8211
 2502SOL    HW218966   3.037   2.429  15.603 -0.2901  0.8536  1.0055
 2503SOL     OW18967   1.213   1.852   6.008  0.3511  0.8215 -0.2198
 2503SOL    HW118968   1.249   1.939   5.990  0.4529  0.1872 -3.1491
 2503SOL    HW218969   1.120   1.875   6.020  0.1678 -1.2718  2.3637
 2504SOL     OW18970   3.370   1.934  10.287 -0.1799  0.0419 -0.1926
 2504SOL    HW118971   3.308   1.862  10.296 -1.1969  1.0564  1.0355
 2504SOL    HW218972   3.416   1.904  10.208 -2.0764 -1.5224 -0.6795
 2505SOL     OW18973   0.192   0.842   8.538 -0.1129 -0.2288 -0.3878
 2505SOL    HW118974   0.267   0.897   8.518  0.7894 -0.5440  2.1493
 2505SOL    HW218975   0.144   0.896   8.601  0.6687 -1.8063  1.5906
 2506SOL     OW18976   3.695   2.392   4.876  0.1407  0.2041 -0.1983
 2506SOL    HW118977   3.719   2.455   4.808 -0.4290 -0.2351 -0.8057
 2506SOL    HW218978   3.630   2.346   4.823  0.0218 -3.2844  2.9616
 2507SOL     OW18979   2.917   2.218   4.613  0.4131 -0.5722 -0.3616
 2507SOL    HW118980   2.888   2.221   4.522  2.4195  1.6958 -0.9217
 2507SOL    HW218981   2.842   2.168   4.645  1.1948 -0.9877  0.8117
 2508SOL     OW18982   0.811   1.930  17.669 -0.7343  0.4902  0.3450
 2508SOL    HW118983   0.828   1.879  17.590 -0.7907  0.8807  0.0838
 2508SOL    HW218984   0.887   1.904   0.025 -1.0537  0.2914  0.7038
 2509SOL     OW18985   1.605   0.505   4.905 -0.3577  0.6502  0.2340
 2509SOL    HW118986   1.567   0.460   4.829  2.5310 -0.0622 -0.8118
 2509SOL    HW218987   1.558   0.588   4.906 -0.8063  0.3889  0.6374
 2510SOL     OW18988   2.075   0.133   8.456  0.4967  0.2911 -0.1387
 2510SOL    HW118989   2.021   0.102   8.383  0.3465 -1.1235  0.5837
 2510SOL    HW218990   2.149   0.178   8.414 -0.2485 -0.6724 -2.4490
 2511SOL     OW18991   1.194   1.949   9.328 -0.0282 -0.3747  0.1748
 2511SOL    HW118992   1.129   1.968   9.396 -1.2781  0.2816 -1.1949
 2511SOL    HW218993   1.268   1.914   9.376  0.3891  1.4667  0.8850
 2512SOL     OW18994   3.970   4.167   1.442  0.1182 -0.1856  0.1848
 2512SOL    HW118995   3.914   4.195   1.514  0.6959 -1.0095  0.9497
 2512SOL    HW218996   3.918   4.173   1.361  0.1539 -1.4195  0.0632
 2513SOL     OW18997   0.703   2.151   6.960 -0.5862 -0.2744  0.0870
 2513SOL    HW118998   0.632   2.203   6.997  0.9393  1.8765 -0.0159
 2513SOL    HW218999   0.664   2.063   6.958 -0.2105 -0.4301 -0.2244
 2514SOL     OW19000   2.228   0.130   3.959  0.8601 -1.1891  0.3252
 2514SOL    HW119001   2.171   0.152   4.033 -1.3433 -2.8314 -0.9092
 2514SOL    HW219002   2.194   0.049   3.921 -3.8293  1.0219 -0.2407
 2515SOL     OW19003   1.501   4.358  13.633 -0.8582  0.1868 -0.9885
 2515SOL    HW119004   1.461   4.287  13.682  0.7534  0.1760  0.3194
 2515SOL    HW219005   1.463   4.340  13.547  1.3887 -1.9340 -1.5601
 2516SOL     OW19006   3.806   4.383  11.217  0.4721 -0.4622  0.2929
 2516SOL    HW119007   3.778   4.418  11.132 -3.6948 -1.1046  1.3888
 2516SOL    HW219008   3.900   4.371  11.203  0.5453 -1.6873  1.8475
 2517SOL     OW19009   2.710   2.004   7.793  0.2233  0.1397  0.1650
 2517SOL    HW119010   2.636   1.982   7.850  0.8587  0.1202  0.9826
 2517SOL    HW219011   2.764   2.068   7.840 -0.7085  0.8729  0.2332
 2518SOL     OW19012   0.274   0.116   8.646  0.2097  0.0978 -0.0148
 2518SOL    HW119013   0.289   0.186   8.582  1.4792  0.2722  0.4692
 2518SOL    HW219014   0.259   0.168   8.725  0.5003  0.4222 -0.1690
 2519SOL     OW19015   4.573   0.151   0.792  0.0506 -0.0712 -0.8834
 2519SOL    HW119016   4.618   0.068   0.776  0.6078  0.2631 -1.0595
 2519SOL    HW219017   4.654   0.202   0.797 -1.0006  1.6876 -1.9447
 2520SOL     OW19018   2.007   3.535  10.705  0.6368 -0.0977  0.1962
 2520SOL    HW119019   1.927   3.524  10.757  1.0011 -1.5405  0.4533
 2520SOL    HW219020   1.969   3.512  10.620  0.6293 -0.5582  0.3259
 2521SOL     OW19021   1.599   1.875   5.570 -0.5587  0.0441  0.0330
 2521SOL    HW119022   1.664   1.920   5.517  0.1631  0.0176  0.8880
 2521SOL    HW219023   1.648   1.867   5.653 -0.6436 -0.0910  0.0702
 2522SOL     OW19024   3.311   1.613   3.662  0.7614 -0.2708 -0.0990
 2522SOL    HW119025   3.285   1.584   3.575  2.6360  0.2936 -0.8446
 2522SOL    HW219026   3.307   1.530   3.711  0.8143 -0.1866  0.0481
 2523SOL     OW19027   1.252   1.065   8.800 -0.3576 -0.4283  0.2694
 2523SOL    HW119028   1.278   1.087   8.711 -2.4697  0.2434 -0.1685
 2523SOL    HW219029   1.158   1.076   8.813  0.0613  2.7992  0.3984
 2524SOL     OW19030   3.605   0.028   1.247 -0.9761 -0.3203 -0.6638
 2524SOL    HW119031   3.532   0.032   1.308 -0.8947 -0.5419 -0.5492
 2524SOL    HW219032   3.666   4.684   1.276 -0.3303  1.1015  1.2574
 2525SOL     OW19033   0.591   3.273   3.653  0.0755  0.3128 -0.1022
 2525SOL    HW119034   0.593   3.334   3.726 -0.8900 -0.3229  0.4661
 2525SOL    HW219035   0.504   3.299   3.622  1.1174  1.6639 -1.8441
 2526SOL     OW19036   2.396   0.424   4.158 -0.2803  0.6896 -0.0310
 2526SOL    HW119037   2.401   0.493   4.091  1.0055  0.1509 -0.5002
 2526SOL    HW219038   2.443   0.477   4.222  0.0508  0.1421  0.1810
 2527SOL     OW19039   1.830   4.575   3.535  0.2485  0.0167  0.1668
 2527SOL    HW119040   1.818   4.485   3.564 -2.5278  0.7237  1.1858
 2527SOL    HW219041   1.776   4.629   3.592  1.3241  1.9988 -0.6686
 2528SOL     OW19042   0.416   1.241  12.320  0.6153 -0.7965 -0.3066
 2528SOL    HW119043   0.323   1.228  12.341  0.5067 -0.1307 -0.3458
 2528SOL    HW219044   0.407   1.295  12.241 -0.7889  1.2113  1.1851
 2529SOL     OW19045   0.794   2.745   2.291 -0.3630 -0.4033  0.3199
 2529SOL    HW119046   0.742   2.752   2.211  3.5731  1.7133 -2.0649
 2529SOL    HW219047   0.760   2.669   2.338 -3.2926 -0.9821 -2.7884
 2530SOL     OW19048   3.242   1.897   6.635  0.0896  0.1423 -0.1434
 2530SOL    HW119049   3.284   1.814   6.614 -0.7245 -0.1156 -0.7363
 2530SOL    HW219050   3.170   1.890   6.573  0.3682  3.5495 -0.8836
 2531SOL     OW19051   4.304   0.035   3.792  0.1301 -0.5034 -0.1473
 2531SOL    HW119052   4.321   0.114   3.843  3.4623  0.0307 -2.1558
 2531SOL    HW219053   4.334   0.057   3.704  0.7918  0.1689  0.2489
 2532SOL     OW19054   1.378   1.532   0.463  0.0767 -0.0251  0.1562
 2532SOL    HW119055   1.376   1.483   0.381  0.8902 -3.1798  2.0374
 2532SOL    HW219056   1.400   1.464   0.527 -1.1700  1.2075  1.9109
 2533SOL     OW19057   3.098   1.742   8.325 -0.2851  0.7183  0.2966
 2533SOL    HW119058   3.098   1.747   8.229  2.0072  0.3128  0.2822
 2533SOL    HW219059   3.108   1.836   8.342 -1.4110  0.9012 -0.0418
 2534SOL     OW19060   1.144   1.364   6.195  0.3467  0.6010 -0.0646
 2534SOL    HW119061   1.112   1.376   6.285 -0.7220 -0.9953 -0.2197
 2534SOL    HW219062   1.237   1.358   6.218  0.2732 -1.3446 -0.2317
 2535SOL     OW19063   4.047   4.099   5.494  0.0369  0.6000 -0.7888
 2535SOL    HW119064   4.072   4.169   5.554 -0.6184 -0.4556  0.7151
 2535SOL    HW219065   4.086   4.024   5.538 -1.1684  0.8284  0.6492
 2536SOL     OW19066   2.353   0.542  10.228  0.3288 -0.3705 -0.1655
 2536SOL    HW119067   2.294   0.598  10.176  0.8250  0.1875 -0.1277
 2536SOL    HW219068   2.336   0.453  10.197  0.0657  0.5263 -2.6226
 2537SOL     OW19069   2.545   3.498   5.242  0.1952  0.7972  0.5766
 2537SOL    HW119070   2.620   3.439   5.235 -1.4167 -1.4295  2.0947
 2537SOL    HW219071   2.491   3.478   5.165 -0.0188 -2.1829  1.4971
 2538SOL     OW19072   1.438   2.560   4.935 -0.3938  0.2025 -0.0193
 2538SOL    HW119073   1.393   2.538   4.854 -0.3192  1.5536 -0.4272
 2538SOL    HW219074   1.406   2.494   4.996  0.9530 -1.4620 -1.1112
 2539SOL     OW19075   2.933   1.716   6.797  0.2593 -0.2402  0.4044
 2539SOL    HW119076   2.844   1.684   6.814  0.5931 -1.7604 -0.7116
 2539SOL    HW219077   2.952   1.778   6.868 -1.8558 -0.7492  1.4180
 2540SOL     OW19078   1.759   2.485   7.916  0.3482  0.1890  0.2462
 2540SOL    HW119079   1.687   2.548   7.913  1.5719  1.3498 -4.3059
 2540SOL    HW219080   1.754   2.460   8.008 -0.3668 -0.5601  0.0056
 2541SOL     OW19081   2.386   0.338  14.089 -0.6316 -0.2001  0.0918
 2541SOL    HW119082   2.429   0.347  14.003  0.7002  1.1721  0.9089
 2541SOL    HW219083   2.315   0.402  14.083 -0.8081 -0.3292  0.8397
 2542SOL     OW19084   2.492   1.115   7.170 -0.0313 -0.5554  0.1786
 2542SOL    HW119085   2.448   1.063   7.103  0.8342 -0.2804 -0.5977
 2542SOL    HW219086   2.429   1.187   7.170 -0.0865 -0.5908  2.0677
 2543SOL     OW19087   1.562   4.387  12.233 -0.4087 -0.1726  0.1382
 2543SOL    HW119088   1.549   4.480  12.246 -0.9301 -0.2970  0.4816
 2543SOL    HW219089   1.621   4.362  12.305  0.8526  1.3842 -0.3608
 2544SOL     OW19090   4.294   2.571   0.528 -0.0736  0.3605  0.3021
 2544SOL    HW119091   4.249   2.555   0.611  1.4773 -1.4335  0.7941
 2544SOL    HW219092   4.243   2.643   0.489 -2.5919 -0.0496  2.8667
 2545SOL     OW19093   1.021   2.335   5.295 -0.0850 -0.2325  0.0221
 2545SOL    HW119094   1.107   2.295   5.305  0.1389 -0.0870 -1.2819
 2545SOL    HW219095   1.050   2.407   5.239  3.4619  0.3022  2.5751
 2546SOL     OW19096   0.709   4.451   4.826  0.2578  0.1477  0.0128
 2546SOL    HW119097   0.623   4.471   4.863  0.8996  1.7770  0.6355
 2546SOL    HW219098   0.752   4.534   4.849  1.6726  0.2560 -3.0241
 2547SOL     OW19099   1.843   1.075   4.274  0.1314  0.6638 -1.3985
 2547SOL    HW119100   1.870   1.015   4.344 -1.9379 -0.5272 -1.6076
 2547SOL    HW219101   1.826   1.160   4.314 -0.7460 -0.0472 -0.2350
 2548SOL     OW19102   2.091   2.023   9.642 -0.1355  0.0788  0.2244
 2548SOL    HW119103   2.102   1.928   9.650  1.2640  0.0754 -1.7796
 2548SOL    HW219104   2.183   2.039   9.623 -0.9230  3.7340 -0.4597
 2549SOL     OW19105   1.482   3.491   4.972  0.3042  0.0980 -0.2656
 2549SOL    HW119106   1.451   3.519   5.058  0.2509  0.1391 -0.2980
 2549SOL    HW219107   1.564   3.444   4.986  0.9602  1.1571 -0.5120
 2550SOL     OW19108   3.331   3.154   6.584  0.0249  0.2473  0.0004
 2550SOL    HW119109   3.357   3.071   6.622  1.5135  0.5790 -0.2975
 2550SOL    HW219110   3.243   3.128   6.556 -0.5735 -0.2449  2.4049
 2551SOL     OW19111   3.171   1.220   4.109 -0.4632 -0.1472  0.0985
 2551SOL    HW119112   3.207   1.175   4.033  0.7285 -2.8105  2.2174
 2551SOL    HW219113   3.244   1.277   4.133  0.0169  0.1173 -2.0140
 2552SOL     OW19114   3.582   0.425  10.934  0.5144 -0.1757  0.0469
 2552SOL    HW119115   3.569   0.494  10.869  0.8906 -0.0473  0.1044
 2552SOL    HW219116   3.676   0.409  10.929  0.5530 -0.1138  0.6054
 2553SOL     OW19117   1.193   0.419   8.472 -0.2654  0.0298  0.5484
 2553SOL    HW119118   1.268   0.429   8.414  0.7973  1.3620  2.1491
 2553SOL    HW219119   1.233   0.395   8.555 -1.1737  0.3066  1.0715
 2554SOL     OW19120   0.834   2.054   1.122 -0.0828 -0.0908  0.4469
 2554SOL    HW119121   0.754   2.030   1.169 -0.3607 -1.7194 -0.8471
 2554SOL    HW219122   0.835   2.148   1.138  0.5031 -0.1515  0.7420
 2555SOL     OW19123   0.764   1.144   3.676  0.0629 -0.5549  0.7491
 2555SOL    HW119124   0.709   1.155   3.599  1.7763 -0.0850 -0.4168
 2555SOL    HW219125   0.759   1.223   3.731 -0.7676  1.7518 -2.6299
 2556SOL     OW19126   3.181   1.582   2.436  0.0010  0.5729  0.2808
 2556SOL    HW119127   3.183   1.675   2.455  0.4041  0.7131 -0.4291
 2556SOL    HW219128   3.168   1.588   2.341 -1.0540  0.1413  0.3990
 2557SOL     OW19129   3.262   1.302   9.026 -0.5099  0.3409  0.1940
 2557SOL    HW119130   3.301   1.360   8.960  1.1039 -0.5098  0.4069
 2557SOL    HW219131   3.170   1.328   9.028 -0.7263 -0.3924 -0.2921
 2558SOL     OW19132   2.957   1.683   3.963  0.2352  0.0398 -0.0687
 2558SOL    HW119133   3.034   1.729   3.931  0.4184  0.2525  0.6609
 2558SOL    HW219134   2.906   1.669   3.884  0.8984  0.6915 -0.6116
 2559SOL     OW19135   3.598   2.973  14.448 -0.0359  0.0664 -0.2358
 2559SOL    HW119136   3.690   2.951  14.460 -0.3462  0.7349  3.2654
 2559SOL    HW219137   3.556   2.951  14.531 -0.2732 -0.6495 -0.5466
 2560SOL     OW19138   3.039   2.273   8.333  0.1176  0.5600 -0.6145
 2560SOL    HW119139   3.062   2.332   8.405 -1.9416 -0.7767  1.1299
 2560SOL    HW219140   2.951   2.299   8.304  0.5997 -0.0831 -2.6538
 2561SOL     OW19141   2.278   0.884   4.351  0.0615 -0.0247 -0.0576
 2561SOL    HW119142   2.369   0.856   4.355 -1.0290 -3.7292 -0.7671
 2561SOL    HW219143   2.243   0.854   4.435 -1.8896  0.7085 -0.5971
 2562SOL     OW19144   0.308   3.765   6.370 -0.7506 -0.0371  0.5192
 2562SOL    HW119145   0.280   3.781   6.279 -0.7513  0.1598  0.5536
 2562SOL    HW219146   0.370   3.694   6.359  2.0704  2.1565  2.2799
 2563SOL     OW19147   3.336   2.089   6.263  0.3097  0.3614  0.4030
 2563SOL    HW119148   3.337   2.000   6.297 -1.4651  0.7366  1.4621
 2563SOL    HW219149   3.271   2.078   6.194  2.0820  0.8843 -1.3441
 2564SOL     OW19150   2.922   4.382  11.885  0.4475 -0.3417 -0.6432
 2564SOL    HW119151   2.875   4.460  11.915  0.5649 -0.1967 -0.8450
 2564SOL    HW219152   3.004   4.412  11.847 -0.2546 -1.0325 -2.7131
 2565SOL     OW19153   0.459   2.879  11.885 -0.0033  0.1842  0.2083
 2565SOL    HW119154   0.538   2.899  11.936 -0.3740  1.3249  0.3400
 2565SOL    HW219155   0.422   2.967  11.883  0.6610  0.4424 -0.9655
 2566SOL     OW19156   3.100   1.252  14.914  0.0948  0.1078  0.5616
 2566SOL    HW119157   3.033   1.216  14.971  1.8706 -1.4623  1.6390
 2566SOL    HW219158   3.175   1.193  14.920  0.9200  0.8597 -2.5504
 2567SOL     OW19159   0.994   0.519   0.848 -0.5820 -0.1020 -0.0856
 2567SOL    HW119160   1.043   0.519   0.767 -0.6189 -1.5034 -0.1107
 2567SOL    HW219161   1.028   0.590   0.902 -2.3943  0.2369  0.6342
 2568SOL     OW19162   4.120   3.226   7.887 -0.1023 -0.0380  0.1031
 2568SOL    HW119163   4.150   3.274   7.810  0.6251 -0.8793 -0.1508
 2568SOL    HW219164   4.137   3.290   7.956 -0.9833  2.1050 -1.7146
 2569SOL     OW19165   0.204   2.294   1.315  0.3445  0.2247 -0.0573
 2569SOL    HW119166   0.130   2.237   1.297 -0.4376  0.5984  2.0127
 2569SOL    HW219167   0.192   2.356   1.243  0.1515 -0.1096 -0.3092
 2570SOL     OW19168   4.167   3.344   7.626  0.2590 -0.5725 -0.0642
 2570SOL    HW119169   4.207   3.275   7.573 -1.2188  0.0917 -2.0457
 2570SOL    HW219170   4.076   3.340   7.597 -0.1689 -0.1054  1.2048
 2571SOL     OW19171   1.337   2.873  15.237 -0.2021  0.1543  0.3324
 2571SOL    HW119172   1.422   2.887  15.278 -0.2287 -0.1970  0.5041
 2571SOL    HW219173   1.348   2.931  15.162 -0.0881 -0.2498  0.0447
 2572SOL     OW19174   2.795   1.991   8.347 -0.2116 -0.6430 -0.0178
 2572SOL    HW119175   2.733   2.063   8.355 -0.6120 -0.9925  0.0527
 2572SOL    HW219176   2.837   1.986   8.434  1.2475  0.3627 -0.6636
 2573SOL     OW19177   2.225   3.553  16.101  0.0730 -0.3171  0.0686
 2573SOL    HW119178   2.289   3.617  16.069  0.2178  0.5584  2.1639
 2573SOL    HW219179   2.149   3.608  16.121  0.3761  0.7583 -1.6635
 2574SOL     OW19180   2.604   3.481   6.428  0.0723  0.0406  0.1522
 2574SOL    HW119181   2.690   3.439   6.422 -0.1098 -0.1370 -1.0333
 2574SOL    HW219182   2.581   3.518   6.343  2.8544  0.5255 -0.3786
 2575SOL     OW19183   3.520   0.314   7.998 -0.2646 -0.0103 -0.0028
 2575SOL    HW119184   3.541   0.329   7.906 -0.0630  0.5960  0.1392
 2575SOL    HW219185   3.433   0.280   7.981  0.2872 -2.9750  3.0211
 2576SOL     OW19186   2.183   0.784  16.086 -0.1916 -0.3883 -0.5369
 2576SOL    HW119187   2.088   0.786  16.073 -0.2508 -1.1716 -0.1777
 2576SOL    HW219188   2.213   0.851  16.024 -0.2975 -0.0798 -0.2557
 2577SOL     OW19189   3.728   3.084   4.609 -0.1391 -0.2178 -0.1332
 2577SOL    HW119190   3.713   2.990   4.604  1.2028 -0.4249 -0.2568
 2577SOL    HW219191   3.817   3.096   4.643 -0.5374  1.3195  0.3754
 2578SOL     OW19192   1.113   3.895  14.714 -0.8752 -0.3171 -0.9615
 2578SOL    HW119193   1.137   3.820  14.768 -0.8324  2.7884  3.2934
 2578SOL    HW219194   1.166   3.883  14.635  1.0650 -3.0737  0.7747
 2579SOL     OW19195   0.603   4.378  14.653  0.0707  0.3834  0.5752
 2579SOL    HW119196   0.561   4.327  14.584 -0.3705  1.2720  0.1896
 2579SOL    HW219197   0.540   4.449  14.659  1.2888  1.3896  1.3147
 2580SOL     OW19198   0.508   1.825   4.034 -0.0344 -0.2850 -0.3484
 2580SOL    HW119199   0.548   1.910   4.017 -0.1887 -0.4565 -1.6222
 2580SOL    HW219200   0.545   1.802   4.119  2.1545  0.0657 -1.2258
 2581SOL     OW19201   0.478   2.200  11.276  0.1488  0.1224  0.5828
 2581SOL    HW119202   0.552   2.225  11.331  1.3066  1.3460 -1.5239
 2581SOL    HW219203   0.426   2.279  11.290  0.8685  0.7067 -0.0403
 2582SOL     OW19204   3.277   0.563   5.455  0.5184 -0.5989 -1.1954
 2582SOL    HW119205   3.273   0.469   5.436 -0.7772 -1.2589  2.2441
 2582SOL    HW219206   3.188   0.590   5.434  0.6616  1.1748  0.4636
 2583SOL     OW19207   4.489   3.955  17.610 -0.4723 -0.2756  0.1478
 2583SOL    HW119208   4.526   3.986  17.693  0.8105  0.3843 -0.6672
 2583SOL    HW219209   4.523   3.866  17.617 -0.7912 -0.4702 -0.7403
 2584SOL     OW19210   1.799   2.273   4.517  0.5085 -0.3703 -0.1427
 2584SOL    HW119211   1.772   2.349   4.568 -1.0286  0.1964 -1.7617
 2584SOL    HW219212   1.836   2.215   4.583 -0.9197 -0.8169  0.2648
 2585SOL     OW19213   1.771   1.726   8.947 -0.3233  0.2164 -0.1881
 2585SOL    HW119214   1.762   1.814   8.982  0.3823  1.1707 -2.4127
 2585SOL    HW219215   1.820   1.684   9.018 -0.1562  0.3369 -0.2315
 2586SOL     OW19216   0.175   0.290   3.777 -0.0516 -0.3862  0.0249
 2586SOL    HW119217   0.262   0.312   3.742 -0.3284 -1.3539 -1.2555
 2586SOL    HW219218   0.131   0.372   3.756 -0.9424 -0.7441  0.4996
 2587SOL     OW19219   4.202   0.527   2.000  0.0728 -0.0748 -0.9157
 2587SOL    HW119220   4.281   0.579   1.984 -0.7865  0.5953 -3.0206
 2587SOL    HW219221   4.147   0.587   2.050  0.6909 -1.5593  1.5591
 2588SOL     OW19222   0.307   2.628   4.498  0.7113 -0.9404 -0.1020
 2588SOL    HW119223   0.218   2.618   4.531  0.8508 -1.8874 -0.0137
 2588SOL    HW219224   0.288   2.679   4.419  0.1392  0.5664  0.9952
 2589SOL     OW19225   0.422   3.165   4.840  0.2780 -0.2743 -0.0834
 2589SOL    HW119226   0.485   3.195   4.906 -0.2856 -0.7730  0.6831
 2589SOL    HW219227   0.358   3.235   4.824  0.5237 -0.4060 -1.6236
 2590SOL     OW19228   1.889   0.824   2.605 -0.1194  0.1014 -0.7257
 2590SOL    HW119229   1.872   0.816   2.511  0.4679  1.4443 -0.9538
 2590SOL    HW219230   1.847   0.909   2.619 -1.2009 -0.2597 -1.7103
 2591SOL     OW19231   1.142   2.275   3.546  0.0707  0.4845 -0.0113
 2591SOL    HW119232   1.103   2.273   3.459 -2.5022  1.4733  1.1292
 2591SOL    HW219233   1.146   2.370   3.563 -1.8711 -0.1529  3.9290
 2592SOL     OW19234   2.721   1.780   3.285  0.8528  0.4066  0.4016
 2592SOL    HW119235   2.706   1.780   3.190  2.9952 -0.7331  0.0525
 2592SOL    HW219236   2.813   1.806   3.285  1.0418 -0.2387 -1.7551
 2593SOL     OW19237   1.504   0.209   2.748 -0.1757  0.2159 -0.3379
 2593SOL    HW119238   1.574   0.146   2.763  1.8400  2.8689  1.2830
 2593SOL    HW219239   1.523   0.233   2.657 -0.3793  1.4265 -0.0619
 2594SOL     OW19240   1.323   2.672  11.819  0.2575 -0.0381 -0.9360
 2594SOL    HW119241   1.327   2.674  11.915 -1.7724 -0.1417 -0.8399
 2594SOL    HW219242   1.321   2.577  11.814  0.7416 -0.0706 -0.4836
 2595SOL     OW19243   4.470   3.919   6.273  0.1768  0.5615 -0.6685
 2595SOL    HW119244   4.393   3.919   6.330  1.0735 -3.8456  0.5524
 2595SOL    HW219245   4.533   3.956   6.335 -0.0722 -1.1316  0.6065
 2596SOL     OW19246   0.172   1.574   3.152 -0.3244 -0.4373  0.0349
 2596SOL    HW119247   0.259   1.561   3.113 -0.9895  0.0503 -1.6238
 2596SOL    HW219248   0.173   1.669   3.156 -0.4667 -0.3731 -1.4989
 2597SOL     OW19249   0.331   0.543   0.447  0.1548 -0.0826 -0.3216
 2597SOL    HW119250   0.369   0.610   0.504 -1.3341  0.5973 -0.1453
 2597SOL    HW219251   0.379   0.548   0.364 -1.4916  0.1130 -1.2471
 2598SOL     OW19252   1.754   0.252   2.031 -0.2363 -0.3681 -0.0421
 2598SOL    HW119253   1.739   0.306   2.108  0.8185 -1.3318  0.8557
 2598SOL    HW219254   1.673   0.267   1.982 -0.5367  0.3504  0.6784
 2599SOL     OW19255   4.609   1.309   7.873  0.1902 -0.2524 -0.0433
 2599SOL    HW119256   4.540   1.273   7.929  0.3411  0.1844  0.4299
 2599SOL    HW219257   4.564   1.388   7.844 -2.1380 -0.7861  2.1246
 2600SOL     OW19258   3.728   0.621   1.107  0.5349 -0.3139  0.2260
 2600SOL    HW119259   3.765   0.555   1.048  0.1165  0.9987 -1.5295
 2600SOL    HW219260   3.648   0.577   1.136 -0.9028  0.5529 -2.3920
 2601SOL     OW19261   0.988   2.029   7.994  0.7660  0.0447 -0.7029
 2601SOL    HW119262   0.977   1.967   8.066 -0.4512  1.8297  0.6489
 2601SOL    HW219263   0.937   2.107   8.017  1.4718  0.4290 -0.4387
 2602SOL     OW19264   4.649   2.957   9.298 -0.4173 -0.4747  0.0694
 2602SOL    HW119265   4.587   2.997   9.237 -1.8912 -1.5470  0.8529
 2602SOL    HW219266   4.660   3.020   9.368 -0.2526  0.4648 -0.8028
 2603SOL     OW19267   0.640   2.135   9.959 -0.1114  0.1240  0.0372
 2603SOL    HW119268   0.552   2.107   9.934 -1.0569  2.3887  0.8188
 2603SOL    HW219269   0.626   2.216  10.008 -0.5654  0.9179 -1.3983
 2604SOL     OW19270   3.304   1.990   3.949 -0.3161  0.3772  0.7140
 2604SOL    HW119271   3.222   1.943   3.933 -0.6602  2.1756 -2.8016
 2604SOL    HW219272   3.312   2.048   3.873 -1.4498  0.3432  0.5654
 2605SOL     OW19273   0.690   1.598   7.020  0.0224  0.5079 -0.3162
 2605SOL    HW119274   0.623   1.557   6.964  1.0421 -0.5699 -0.7426
 2605SOL    HW219275   0.648   1.671   7.064 -2.2089 -2.2127  2.0918
 2606SOL     OW19276   1.668   2.269   9.210 -0.1970  0.5120 -0.2698
 2606SOL    HW119277   1.723   2.275   9.288 -1.0520 -1.8763  0.5258
 2606SOL    HW219278   1.647   2.176   9.215  0.4970  0.2329 -2.6687
 2607SOL     OW19279   0.216   1.135   1.990  0.1887  0.2004 -0.2112
 2607SOL    HW119280   0.171   1.182   2.061  1.0167  0.1133  0.3654
 2607SOL    HW219281   0.211   1.203   1.923 -0.0552  0.6192  0.2375
 2608SOL     OW19282   2.532   1.178  10.112  0.3854  0.0832  0.3223
 2608SOL    HW119283   2.504   1.219  10.030  1.1511 -0.3391 -0.1456
 2608SOL    HW219284   2.498   1.090  10.100  1.0430 -0.1112 -0.1121
 2609SOL     OW19285   4.054   1.019  16.513  0.2612 -0.1368  0.2787
 2609SOL    HW119286   4.080   0.928  16.532  1.1304  0.5217  2.2430
 2609SOL    HW219287   3.995   1.008  16.438 -1.1608  0.9885  1.2463
 2610SOL     OW19288   3.365   4.158   7.887  0.4120 -0.3097  0.0385
 2610SOL    HW119289   3.455   4.182   7.911  0.1741 -2.2209  2.7914
 2610SOL    HW219290   3.311   4.216   7.939 -0.0641  0.3331 -1.1806
 2611SOL     OW19291   4.319   0.190   7.813  0.3636 -0.4631 -0.3518
 2611SOL    HW119292   4.330   0.117   7.751  3.1466 -1.2334  1.0847
 2611SOL    HW219293   4.272   0.156   7.889 -0.9665 -1.7158 -1.7160
 2612SOL     OW19294   0.393   0.413  16.947 -0.3020  0.2704  0.3378
 2612SOL    HW119295   0.413   0.501  16.978  0.6608  0.0544  0.3261
 2612SOL    HW219296   0.459   0.352  16.980  1.5595  1.4598 -1.2507
 2613SOL     OW19297   2.849   0.139  15.632  0.0365  0.0390 -0.3829
 2613SOL    HW119298   2.893   0.207  15.683 -0.4761 -0.8472  1.2258
 2613SOL    HW219299   2.758   0.168  15.630 -0.2499 -0.9634 -2.0059
 2614SOL     OW19300   4.076   2.577  16.966  0.2808  0.1448  0.4412
 2614SOL    HW119301   4.102   2.590  17.058  0.7433 -2.4864  0.6970
 2614SOL    HW219302   3.988   2.615  16.974  0.2048  0.2798 -1.0945
 2615SOL     OW19303   3.989   2.457   4.171  0.0814  0.6895 -0.0891
 2615SOL    HW119304   3.941   2.490   4.094  1.2587  2.8159  0.0764
 2615SOL    HW219305   4.010   2.366   4.149 -1.9037  0.8073 -2.5167
 2616SOL     OW19306   2.654   4.708  10.028 -0.0734  0.3546  0.4352
 2616SOL    HW119307   2.745   4.714  10.055  0.4346  0.1447 -1.2196
 2616SOL    HW219308   2.672   4.666   9.943 -0.7929 -0.7839  0.8448
 2617SOL     OW19309   1.379   1.250  10.067 -0.4913  0.8707 -0.0257
 2617SOL    HW119310   1.314   1.200  10.118 -0.1473  1.3883  0.9246
 2617SOL    HW219311   1.337   1.336  10.066 -0.0584  1.1143  2.7926
 2618SOL     OW19312   0.486   2.085   8.074  0.0436 -0.1707  0.3749
 2618SOL    HW119313   0.499   2.013   8.136 -0.8125 -0.1273  0.5933
 2618SOL    HW219314   0.523   2.156   8.127  1.7314 -0.2186 -0.7089
 2619SOL     OW19315   1.575   2.302  16.043  0.2930  0.2280 -0.1257
 2619SOL    HW119316   1.596   2.367  16.110 -2.7650 -0.6909  1.7482
 2619SOL    HW219317   1.650   2.308  15.985 -0.1854 -1.1781 -0.8810
 2620SOL     OW19318   2.809   2.692   8.229  0.3496 -0.5214 -0.2738
 2620SOL    HW119319   2.813   2.640   8.309 -1.2844 -0.3230 -0.0745
 2620SOL    HW219320   2.832   2.628   8.162  1.6369 -0.1727 -0.1649
 2621SOL     OW19321   3.639   4.604   2.961 -0.0353 -0.3715 -0.0321
 2621SOL    HW119322   3.705   4.666   2.991 -0.0317 -0.6907  0.6255
 2621SOL    HW219323   3.556   4.644   2.985  0.5851  1.2253 -0.5938
 2622SOL     OW19324   0.578   2.213  16.677 -0.8091 -0.7527 -0.2142
 2622SOL    HW119325   0.586   2.120  16.656  0.8937  0.0928 -3.3138
 2622SOL    HW219326   0.657   2.224  16.731 -1.7356  2.4291  0.5009
 2623SOL     OW19327   4.216   3.916   5.643  0.9223  0.8222  0.6394
 2623SOL    HW119328   4.301   3.958   5.633  1.0031  0.8002  1.2542
 2623SOL    HW219329   4.227   3.836   5.591  0.8568  1.2716 -0.0682
 2624SOL     OW19330   2.886   3.960  16.875 -0.1335  0.4199 -0.6271
 2624SOL    HW119331   2.970   3.915  16.875 -1.5435 -2.1746  0.8249
 2624SOL    HW219332   2.907   4.053  16.882  1.4537 -0.0220  0.4927
 2625SOL     OW19333   0.190   1.462   7.136 -0.1207  0.2701  0.0515
 2625SOL    HW119334   0.221   1.428   7.052  0.1998 -0.9231  0.6397
 2625SOL    HW219335   0.237   1.401   7.194 -0.1005 -0.0416 -0.2952
 2626SOL     OW19336   4.679   4.642   6.537  0.5099  0.3725  0.2941
 2626SOL    HW119337   4.713   4.618   6.450 -1.2491 -1.1335  0.0207
 2626SOL    HW219338   4.667   4.555   6.573 -1.7870 -0.1468 -1.6823
 2627SOL     OW19339   0.137   3.774  16.692 -0.0486 -0.1207 -0.3568
 2627SOL    HW119340   0.212   3.783  16.750  0.3904 -1.2195 -0.7552
 2627SOL    HW219341   0.097   3.859  16.710  0.0256 -0.0948 -0.3138
 2628SOL     OW19342   0.206   3.414   3.076  0.4969 -0.1415 -0.4342
 2628SOL    HW119343   0.141   3.435   3.143 -1.5086 -2.7069 -1.5425
 2628SOL    HW219344   0.144   3.368   3.018 -0.7945  3.2354 -1.6972
 2629SOL     OW19345   3.305   0.826   2.372  0.2587  0.2257  0.0248
 2629SOL    HW119346   3.382   0.878   2.350 -0.0852  1.1763  1.0660
 2629SOL    HW219347   3.240   0.895   2.358  1.4143  1.5235  1.0869
 2630SOL     OW19348   3.478   3.931   9.763  0.0195 -0.0750  0.4532
 2630SOL    HW119349   3.538   3.994   9.803  0.0424  0.4022 -0.3282
 2630SOL    HW219350   3.397   3.967   9.798  0.2671  0.8541  0.0674
 2631SOL     OW19351   2.356   1.912   9.210 -0.1406  0.3836  0.3746
 2631SOL    HW119352   2.332   1.916   9.303  0.6616 -0.6543  0.6256
 2631SOL    HW219353   2.337   2.000   9.178 -0.9222  0.5092  1.1779
 2632SOL     OW19354   4.663   3.813   4.724  0.1896 -0.4160  0.0445
 2632SOL    HW119355   4.597   3.858   4.776  1.1992  0.1568  0.8216
 2632SOL    HW219356   0.017   3.859   4.753  1.3759 -0.3518 -3.2594
 2633SOL     OW19357   0.027   0.521  11.060  0.2664  0.0673 -0.3214
 2633SOL    HW119358   0.054   0.448  11.005 -0.8928 -0.5729 -0.0346
 2633SOL    HW219359   4.680   0.478  11.107  1.4068  0.3512  1.6524
 2634SOL     OW19360   1.094   1.734  12.774 -0.0162 -0.6523  0.4212
 2634SOL    HW119361   1.006   1.708  12.746  0.5097 -1.5319 -0.4004
 2634SOL    HW219362   1.078   1.780  12.856 -1.5315  0.6632 -0.6001
 2635SOL     OW19363   1.029   1.372   3.540 -0.2674 -0.2852 -1.2034
 2635SOL    HW119364   1.078   1.292   3.521 -1.2309 -1.3599  0.8182
 2635SOL    HW219365   0.941   1.342   3.561  0.5070 -1.7259 -0.0409
 2636SOL     OW19366   3.603   1.714   7.917  0.6217 -0.3797 -0.3692
 2636SOL    HW119367   3.531   1.768   7.949 -0.1242 -0.4305 -1.9357
 2636SOL    HW219368   3.557   1.630   7.908  1.3927 -0.6822 -1.6872
 2637SOL     OW19369   1.129   4.201   3.921  0.6932  0.6781  0.4955
 2637SOL    HW119370   1.044   4.182   3.962  0.5485  1.7550  0.6838
 2637SOL    HW219371   1.121   4.295   3.909 -0.5247  0.3360 -1.3569
 2638SOL     OW19372   4.275   0.296  10.382 -0.0673  0.2164 -0.0802
 2638SOL    HW119373   4.206   0.350  10.343 -1.5517 -0.5637  1.4638
 2638SOL    HW219374   4.342   0.364  10.392 -2.4694  2.6370 -0.2415
 2639SOL     OW19375   1.845   2.759   2.448  0.1762 -0.0428  0.0357
 2639SOL    HW119376   1.931   2.801   2.449 -0.5771  1.5258 -0.9146
 2639SOL    HW219377   1.867   2.694   2.382  1.7454  1.2216 -0.6890
 2640SOL     OW19378   2.548   4.392   4.693  0.0872  0.4403 -0.5067
 2640SOL    HW119379   2.634   4.353   4.711  0.9346  2.6842  0.3313
 2640SOL    HW219380   2.543   4.455   4.765 -0.3433  0.6020 -0.6791
 2641SOL     OW19381   3.382   1.696   4.846  0.2938 -0.2913 -0.2628
 2641SOL    HW119382   3.431   1.657   4.919  0.6057 -1.0021 -0.8450
 2641SOL    HW219383   3.298   1.651   4.853  0.5677 -0.7591  0.0655
 2642SOL     OW19384   0.454   2.218   7.090 -0.5903 -0.4036  0.0129
 2642SOL    HW119385   0.363   2.189   7.095 -0.7670  0.2606  0.5149
 2642SOL    HW219386   0.481   2.223   7.181 -1.4256  1.0627  0.1694
 2643SOL     OW19387   2.210   1.228  16.818 -0.2140  0.3071 -0.1569
 2643SOL    HW119388   2.280   1.180  16.774 -0.0531 -0.1838  0.6280
 2643SOL    HW219389   2.270   1.292  16.858 -0.9499  1.2047 -0.4911
 2644SOL     OW19390   2.715   0.268   4.306 -0.1975  0.3771  0.2086
 2644SOL    HW119391   2.626   0.237   4.290 -0.8221  1.7795  0.9600
 2644SOL    HW219392   2.722   0.237   4.396 -1.9382  0.6094  0.4211
 2645SOL     OW19393   3.485   0.423   3.419 -0.1734 -0.3372 -0.7185
 2645SOL    HW119394   3.422   0.482   3.460  0.7334  1.0084 -1.2675
 2645SOL    HW219395   3.441   0.432   3.334 -0.3803 -0.2467 -0.6019
 2646SOL     OW19396   1.895   1.920   4.959 -0.4961  0.0812 -0.0984
 2646SOL    HW119397   1.974   1.935   4.907  0.4806 -1.1607  0.9969
 2646SOL    HW219398   1.872   1.832   4.931  1.2474 -0.5637  0.4796
 2647SOL     OW19399   3.814   3.837   9.983 -0.3137 -0.2284  0.3793
 2647SOL    HW119400   3.821   3.771  10.053  1.6974 -0.7986 -0.3515
 2647SOL    HW219401   3.783   3.784   9.909  1.7957 -2.4117  1.0465
 2648SOL     OW19402   4.170   3.992  15.404 -0.1801 -0.1586 -0.3840
 2648SOL    HW119403   4.173   3.945  15.321  1.0308 -1.2079  0.2498
 2648SOL    HW219404   4.095   4.048  15.385  0.4938  1.0763  0.5642
 2649SOL     OW19405   0.395   0.032   3.431  0.4264  0.1148 -0.3650
 2649SOL    HW119406   0.485   0.027   3.397  1.0610 -0.0704  1.3382
 2649SOL    HW219407   0.347   4.692   3.379 -1.6382  2.0030 -0.7929
 2650SOL     OW19408   1.760   3.848   2.325 -0.0040  0.9573  0.0091
 2650SOL    HW119409   1.737   3.807   2.241  0.2466 -1.4515  1.1270
 2650SOL    HW219410   1.724   3.777   2.378 -1.3658  0.8494 -1.0674
 2651SOL     OW19411   4.230   4.705   2.951 -0.0144  0.0999  0.5056
 2651SOL    HW119412   4.185   0.038   2.889 -1.4892 -0.4738  1.0648
 2651SOL    HW219413   4.265   0.049   3.009 -1.2711 -0.2176  1.6435
 2652SOL     OW19414   1.874   3.669   5.561 -0.8434  0.2191  0.0914
 2652SOL    HW119415   1.849   3.760   5.550 -0.0766  0.2866 -1.0799
 2652SOL    HW219416   1.816   3.652   5.635 -0.8564  2.8413  0.6597
 2653SOL     OW19417   0.303   3.555   8.905  0.7499  0.0305  0.2784
 2653SOL    HW119418   0.224   3.501   8.915  0.4585  0.8035  2.1068
 2653SOL    HW219419   0.297   3.616   8.978 -1.7746  0.4163 -0.2562
 2654SOL     OW19420   1.365   1.423  15.809 -0.2971 -0.0074 -0.0498
 2654SOL    HW119421   1.446   1.468  15.785 -0.7969  1.4469  1.0124
 2654SOL    HW219422   1.337   1.481  15.880  1.5981  2.8192 -1.5960
 2655SOL     OW19423   2.408   3.557   2.109 -0.3519 -0.2212  0.1308
 2655SOL    HW119424   2.363   3.473   2.116 -0.0588 -0.5339 -1.8529
 2655SOL    HW219425   2.428   3.562   2.203  0.1272 -0.7833  0.0582
 2656SOL     OW19426   2.806   0.804   5.329 -0.1714 -0.0918  0.0885
 2656SOL    HW119427   2.727   0.751   5.334 -0.8590  1.0664  1.5557
 2656SOL    HW219428   2.786   0.893   5.298  1.6649  0.5869  0.8069
 2657SOL     OW19429   0.852   1.583   8.505  0.0608  0.2147 -0.2678
 2657SOL    HW119430   0.927   1.583   8.564 -0.2403  1.2947  0.1138
 2657SOL    HW219431   0.830   1.676   8.501 -1.3791 -0.0439  1.4595
 2658SOL     OW19432   3.624   1.136   1.817 -0.3382 -0.1131  0.3392
 2658SOL    HW119433   3.705   1.113   1.862  1.1524  1.6754 -1.4582
 2658SOL    HW219434   3.654   1.135   1.726 -0.1914 -2.4638  0.4045
 2659SOL     OW19435   4.321   1.725   9.004 -0.2118 -0.4074 -0.1407
 2659SOL    HW119436   4.391   1.783   9.033  0.4567 -1.1682 -0.2327
 2659SOL    HW219437   4.347   1.719   8.912 -1.9314  4.4789 -0.9648
 2660SOL     OW19438   4.426   3.445   2.184  0.9058  0.2142  0.1463
 2660SOL    HW119439   4.457   3.529   2.150 -0.8677  1.3434  1.2640
 2660SOL    HW219440   4.337   3.479   2.195  0.2167 -0.8493 -2.1563
 2661SOL     OW19441   3.681   2.664   4.364  0.5051 -0.2075  0.4598
 2661SOL    HW119442   3.753   2.606   4.388 -0.4900 -0.8245  1.9719
 2661SOL    HW219443   3.651   2.702   4.446 -1.1840  0.4377 -0.4572
 2662SOL     OW19444   3.281   4.097  15.843 -0.9450  0.6830  0.5396
 2662SOL    HW119445   3.267   4.176  15.791  1.3229  0.6856 -0.0728
 2662SOL    HW219446   3.260   4.136  15.928  0.8889  1.6276  0.5589
 2663SOL     OW19447   1.176   0.378   4.208 -0.1110 -0.2890  0.2328
 2663SOL    HW119448   1.104   0.314   4.213  0.3706 -0.4877  4.4966
 2663SOL    HW219449   1.157   0.428   4.129  0.3141  1.2123  1.0802
 2664SOL     OW19450   3.809   2.268  10.363  0.6401 -0.1473  0.0388
 2664SOL    HW119451   3.810   2.201  10.295  3.5840  0.6601 -0.7270
 2664SOL    HW219452   3.842   2.345  10.318  2.7883 -1.5089 -0.7393
 2665SOL     OW19453   3.010   2.068   3.053  0.8837 -0.3449  0.3954
 2665SOL    HW119454   3.077   2.067   2.985  0.4474  1.7742 -0.0651
 2665SOL    HW219455   3.034   2.136   3.115  1.1948  0.6693 -0.8383
 2666SOL     OW19456   0.550   0.281   7.517 -0.5553 -0.4020 -0.0652
 2666SOL    HW119457   0.584   0.194   7.536  2.0853  0.4907 -0.6609
 2666SOL    HW219458   0.458   0.268   7.541 -0.0427 -3.1835  0.3262
 2667SOL     OW19459   1.467   2.912  13.359  0.6341 -0.4278  0.2093
 2667SOL    HW119460   1.376   2.933  13.376  0.4435 -0.0784 -1.1807
 2667SOL    HW219461   1.481   2.918  13.264 -0.2344 -0.1142  0.1050
 2668SOL     OW19462   3.243   0.030   7.183 -0.0154  0.2005  1.3195
 2668SOL    HW119463   3.215   4.698   7.111  1.5882  1.9194 -0.6256
 2668SOL    HW219464   3.295   0.095   7.137 -0.0048 -0.5572  0.2734
 2669SOL     OW19465   1.522   2.161   7.841 -0.2012  0.5641  0.7691
 2669SOL    HW119466   1.513   2.118   7.926 -1.8228 -1.1996 -0.2813
 2669SOL    HW219467   1.434   2.172   7.805 -0.2340  0.2953  0.7654
 2670SOL     OW19468   0.601   3.851  12.324 -0.0678  0.1711 -0.4498
 2670SOL    HW119469   0.570   3.824  12.411  1.0380 -0.9381 -0.3986
 2670SOL    HW219470   0.665   3.920  12.341 -0.4341  0.6653 -1.0956
 2671SOL     OW19471   3.880   2.572   5.547  0.1698  0.1283 -0.2196
 2671SOL    HW119472   3.810   2.508   5.542  0.1039  0.1455  0.5374
 2671SOL    HW219473   3.835   2.654   5.526 -0.1728 -0.0021  0.0287
 2672SOL     OW19474   1.179   1.263   4.190  0.2834 -0.5884 -0.3155
 2672SOL    HW119475   1.176   1.330   4.121 -1.4119 -0.6617 -0.3060
 2672SOL    HW219476   1.151   1.311   4.268 -0.6975 -0.9753 -0.4307
 2673SOL     OW19477   3.521   1.909   1.415 -0.1369  0.1262 -0.4530
 2673SOL    HW119478   3.551   1.821   1.439 -0.6568  0.4636  1.4184
 2673SOL    HW219479   3.483   1.930   1.500  0.7437  2.2084 -0.5764
 2674SOL     OW19480   4.263   0.918   8.633  0.5924  0.2305  0.3754
 2674SOL    HW119481   4.194   0.866   8.593  0.9901 -1.5027  1.9906
 2674SOL    HW219482   4.301   0.961   8.556  0.9228  1.0156  0.9734
 2675SOL     OW19483   1.982   2.381   3.523  0.0597  0.8139  0.6121
 2675SOL    HW119484   1.989   2.312   3.456  0.7561  2.3244 -0.8780
 2675SOL    HW219485   2.068   2.422   3.511  0.6792 -0.3694  0.9480
 2676SOL     OW19486   0.347   4.051  11.032 -0.6703  0.4588 -0.0296
 2676SOL    HW119487   0.393   4.120  11.080  1.5849 -2.1790  1.6294
 2676SOL    HW219488   0.358   3.981  11.097  3.1390  0.0639 -1.0686
 2677SOL     OW19489   4.185   4.148   4.041 -0.1840  0.5031  0.0188
 2677SOL    HW119490   4.154   4.238   4.034 -1.0404  0.3047  1.3183
 2677SOL    HW219491   4.262   4.140   3.984 -1.0990 -1.9677 -0.8526
 2678SOL     OW19492   3.062   3.865   4.471 -0.7546 -0.3150 -0.1211
 2678SOL    HW119493   3.135   3.901   4.521 -2.4083  0.1523  1.9453
 2678SOL    HW219494   3.086   3.856   4.379  1.0883 -1.1460  0.4406
 2679SOL     OW19495   1.196   0.203   1.927 -0.2783 -0.4258 -0.2258
 2679SOL    HW119496   1.163   0.188   1.839 -0.1128 -0.2480 -0.3175
 2679SOL    HW219497   1.119   0.185   1.982  0.5660 -3.6351 -0.0784
 2680SOL     OW19498   0.794   2.448   6.196  1.0058  0.0485  0.4295
 2680SOL    HW119499   0.863   2.443   6.262  0.8920 -1.9703  0.4226
 2680SOL    HW219500   0.782   2.542   6.186  1.3524 -0.0371 -0.7683
 2681SOL     OW19501   2.806   1.238   2.619  0.0449 -0.2359  0.3737
 2681SOL    HW119502   2.757   1.318   2.598 -2.2160 -2.0214 -1.0526
 2681SOL    HW219503   2.733   1.177   2.618 -0.6045  0.5547 -1.4328
 2682SOL     OW19504   2.239   0.489   6.046 -0.3755  0.1043  0.6894
 2682SOL    HW119505   2.314   0.438   6.077 -0.6142 -0.2239  0.7308
 2682SOL    HW219506   2.275   0.577   6.043  0.6024 -0.2630  1.4957
 2683SOL     OW19507   4.459   2.516  14.894 -0.5719  0.4495  0.1329
 2683SOL    HW119508   4.381   2.470  14.925 -0.7119 -0.5031 -1.6338
 2683SOL    HW219509   4.444   2.609  14.910  1.2184  0.6651  0.5359
 2684SOL     OW19510   3.818   0.522   3.763 -0.3884  0.0011  0.3949
 2684SOL    HW119511   3.831   0.454   3.698  1.2146  0.2113  0.4917
 2684SOL    HW219512   3.855   0.596   3.715  0.1471 -1.3019 -1.1768
 2685SOL     OW19513   1.392   0.859  10.588 -0.0723 -0.2708 -0.2264
 2685SOL    HW119514   1.360   0.897  10.506  0.1670  2.9447  1.1557
 2685SOL    HW219515   1.482   0.889  10.584  0.0319 -0.1492  2.7649
 2686SOL     OW19516   4.511   4.092   1.820 -0.6214  0.0970  0.1704
 2686SOL    HW119517   4.526   4.122   1.910 -0.7505  0.3690  0.1031
 2686SOL    HW219518   4.591   4.118   1.775  0.7949 -0.0539  2.5730
 2687SOL     OW19519   1.629   3.034  16.233  0.1793 -0.5646 -0.3739
 2687SOL    HW119520   1.656   3.121  16.205 -0.1735 -0.6735 -1.0555
 2687SOL    HW219521   1.588   3.046  16.319 -2.2106 -1.0015 -1.4273
 2688SOL     OW19522   4.069   2.793   7.475 -0.3625  0.2783 -0.2714
 2688SOL    HW119523   4.122   2.714   7.474  1.5574  1.5565  1.3394
 2688SOL    HW219524   4.086   2.828   7.562  1.2976  0.0566 -0.5219
 2689SOL     OW19525   1.305   4.112   4.816 -0.2611  0.7445 -0.2726
 2689SOL    HW119526   1.332   4.021   4.807  0.1456  0.7925  0.4714
 2689SOL    HW219527   1.382   4.155   4.780  1.2370 -1.8853 -0.2087
 2690SOL     OW19528   2.373   3.900   6.325 -0.2784  0.0135  0.2417
 2690SOL    HW119529   2.411   3.819   6.292 -3.1863 -1.1658 -0.2392
 2690SOL    HW219530   2.438   3.961   6.292 -2.5484  2.5733  0.4745
 2691SOL     OW19531   0.991   1.694   3.235  0.5351 -0.5060  0.3988
 2691SOL    HW119532   0.948   1.616   3.197 -1.1036  0.7484 -0.3366
 2691SOL    HW219533   1.082   1.669   3.221  1.7174  2.1073  3.7229
 2692SOL     OW19534   3.897   0.347   4.017  0.0473  0.2035  0.0452
 2692SOL    HW119535   3.886   0.316   3.928 -2.2911 -1.4915  0.9411
 2692SOL    HW219536   3.897   0.271   4.075  0.3233  0.8332  0.8863
 2693SOL     OW19537   1.616   3.666   6.404 -0.3262 -0.6139  0.6477
 2693SOL    HW119538   1.706   3.660   6.436 -1.2242 -1.1690  3.0335
 2693SOL    HW219539   1.595   3.573   6.406 -0.6680 -0.5209  1.3901
 2694SOL     OW19540   2.068   2.642   1.393  0.4812  0.5653  0.1039
 2694SOL    HW119541   2.139   2.598   1.347 -0.7361  0.6336 -1.8333
 2694SOL    HW219542   2.015   2.569   1.424 -1.5378  1.9600 -0.0695
 2695SOL     OW19543   0.140   0.591  14.840 -0.5131 -0.3500 -0.0663
 2695SOL    HW119544   0.113   0.654  14.908  3.8137  1.4405 -0.0000
 2695SOL    HW219545   0.067   0.592  14.778  0.4287  1.0945 -1.1532
 2696SOL     OW19546   0.233   3.956   1.393 -0.1707 -0.1398 -0.2883
 2696SOL    HW119547   0.209   3.898   1.465 -0.4562  1.3313  0.8176
 2696SOL    HW219548   0.257   3.892   1.326  0.3650 -0.2647  0.0177
 2697SOL     OW19549   2.803   1.428  16.652 -0.2263 -0.6839 -0.5624
 2697SOL    HW119550   2.836   1.338  16.651  0.3574 -0.4909  0.4993
 2697SOL    HW219551   2.712   1.416  16.625 -0.6976 -0.3134  0.8654
 2698SOL     OW19552   1.695   4.556  17.181  0.1380  0.0281  0.3684
 2698SOL    HW119553   1.691   4.647  17.153  1.2190  0.0736  0.3627
 2698SOL    HW219554   1.655   4.506  17.110  0.0859 -0.9982  1.1120
 2699SOL     OW19555   1.014   3.159  11.059 -0.3797 -0.2686  0.2582
 2699SOL    HW119556   1.106   3.140  11.043 -0.1663 -0.1764  1.3713
 2699SOL    HW219557   0.979   3.197  10.978 -1.5107 -2.9487 -0.4810
 2700SOL     OW19558   3.240   3.513   4.830  0.2861 -0.2536 -0.2340
 2700SOL    HW119559   3.327   3.476   4.847 -0.0202 -0.8491  0.0667
 2700SOL    HW219560   3.180   3.443   4.857  1.9609 -1.6925 -0.2900
 2701SOL     OW19561   1.406   0.321   2.423  0.6451 -0.5628 -0.2251
 2701SOL    HW119562   1.495   0.295   2.398  0.6662 -2.5361  1.8792
 2701SOL    HW219563   1.388   0.393   2.363 -0.1230 -0.4045  0.2061
 2702SOL     OW19564   2.325   4.086   7.616  0.0849  0.3155  0.3263
 2702SOL    HW119565   2.414   4.085   7.650 -0.5060 -1.4679  1.8396
 2702SOL    HW219566   2.312   3.993   7.596 -0.9837  0.8268 -1.4215
 2703SOL     OW19567   2.416   3.121  16.808 -0.5988  0.4212  0.0451
 2703SOL    HW119568   2.334   3.154  16.769 -0.6557  1.8360  1.3417
 2703SOL    HW219569   2.389   3.141  16.897 -0.4899 -3.1811  0.8649
 2704SOL     OW19570   1.007   0.560  16.031 -0.2437 -0.0578 -0.0314
 2704SOL    HW119571   1.054   0.575  16.113 -0.1759  0.9200 -0.2526
 2704SOL    HW219572   0.980   0.648  16.006 -1.5981 -0.8949 -1.5652
 2705SOL     OW19573   2.558   2.617  15.992  0.0783 -0.3828 -0.4509
 2705SOL    HW119574   2.617   2.546  16.015 -0.3469 -0.0794  1.5946
 2705SOL    HW219575   2.620   2.658  15.932  0.8281  3.1891  2.7265
 2706SOL     OW19576   0.827   3.277   4.543  0.2472  0.5507  0.1838
 2706SOL    HW119577   0.897   3.212   4.548 -0.2123  0.0316 -0.1021
 2706SOL    HW219578   0.754   3.241   4.593  1.0330  0.1304  1.0230
 2707SOL     OW19579   0.277   2.196   4.883  0.6137 -0.3557 -0.3554
 2707SOL    HW119580   0.202   2.240   4.844 -0.0591  0.3416  1.7823
 2707SOL    HW219581   0.230   2.131   4.935  1.4881 -0.6896  0.0184
 2708SOL     OW19582   0.787   4.536  17.257 -0.4500 -0.2298  0.3135
 2708SOL    HW119583   0.858   4.581  17.211 -1.3284  2.7789  1.9406
 2708SOL    HW219584   0.729   4.505  17.187 -0.6151  2.5911 -0.7725
 2709SOL     OW19585   2.643   3.890   6.594 -1.0325  0.1680 -0.3781
 2709SOL    HW119586   2.552   3.867   6.574 -1.6092  0.2065  2.0845
 2709SOL    HW219587   2.693   3.834   6.535  0.9969  0.5707  0.9747
 2710SOL     OW19588   1.724   2.101   3.254 -0.3750 -0.2269 -0.0453
 2710SOL    HW119589   1.709   2.128   3.163  1.0001  0.6018 -0.0306
 2710SOL    HW219590   1.645   2.048   3.264 -0.9476  0.2641 -1.9903
 2711SOL     OW19591   0.169   2.805  11.908  0.2919  0.3047  0.2908
 2711SOL    HW119592   0.252   2.830  11.869 -1.1036  1.4004 -1.9846
 2711SOL    HW219593   0.139   2.765  11.826  3.5863  1.6678 -1.5614
 2712SOL     OW19594   0.290   4.676   1.470  0.0555  0.2465 -0.0160
 2712SOL    HW119595   0.277   0.028   1.412 -3.6633 -0.2216  0.2129
 2712SOL    HW219596   0.291   4.609   1.401 -0.5842  1.0277 -0.7891
 2713SOL     OW19597   3.394   0.142  11.571  0.2815 -0.0925  0.0799
 2713SOL    HW119598   3.335   0.120  11.643 -0.9156  0.7445 -0.6331
 2713SOL    HW219599   3.347   0.214  11.529  0.2981  0.3265  0.7844
 2714SOL     OW19600   2.849   3.405   6.763 -0.1001  0.2977  0.1338
 2714SOL    HW119601   2.859   3.376   6.673 -0.4098  0.3532  0.0806
 2714SOL    HW219602   2.923   3.464   6.779 -0.0609  0.2122  0.2713
 2715SOL     OW19603   0.632   1.469   7.795 -0.5382 -0.4172 -0.0557
 2715SOL    HW119604   0.555   1.523   7.780  1.6339  2.5959 -0.4786
 2715SOL    HW219605   0.697   1.513   7.741  0.1589 -0.3767  0.8073
 2716SOL     OW19606   4.595   0.705   5.921 -0.2038 -0.2155  0.3545
 2716SOL    HW119607   4.657   0.711   5.849 -2.5348 -4.7830 -2.0209
 2716SOL    HW219608   4.637   0.655   5.991  0.4399 -3.1150 -2.1271
 2717SOL     OW19609   3.614   4.281   4.087  0.1473 -0.1058 -0.2807
 2717SOL    HW119610   3.678   4.350   4.105  0.0752 -0.1630  0.1864
 2717SOL    HW219611   3.584   4.297   3.997  0.8235  2.0320 -0.1313
 2718SOL     OW19612   0.598   3.328   6.862 -1.3497  0.4233  0.4854
 2718SOL    HW119613   0.611   3.243   6.904  1.3030  1.3564  1.5775
 2718SOL    HW219614   0.510   3.324   6.825 -0.8868  1.5131 -0.7281
 2719SOL     OW19615   1.138   2.163  16.586 -0.8140  0.1251 -0.2130
 2719SOL    HW119616   1.159   2.251  16.616  1.0421 -1.0116  1.8156
 2719SOL    HW219617   1.080   2.137  16.657 -1.2779 -2.9084 -1.6784
 2720SOL     OW19618   2.861   3.529   5.395  0.4597 -0.5094  0.4320
 2720SOL    HW119619   2.840   3.613   5.435  0.2113 -0.0345 -0.6846
 2720SOL    HW219620   2.872   3.559   5.305  0.6748 -1.1154  0.2568
 2721SOL     OW19621   4.038   0.494   8.841 -0.0125 -0.1318  0.2597
 2721SOL    HW119622   4.010   0.556   8.908  0.9981  2.4407 -1.7107
 2721SOL    HW219623   4.096   0.439   8.893 -0.8753 -2.6796 -1.4320
 2722SOL     OW19624   3.928   1.010   2.512  0.0575  0.1749 -0.5372
 2722SOL    HW119625   3.966   1.032   2.427  2.3891  0.4566  0.5966
 2722SOL    HW219626   4.000   1.028   2.572  0.1221  0.7738 -0.8039
 2723SOL     OW19627   1.374   2.139   3.703 -0.4063  0.6768  0.4486
 2723SOL    HW119628   1.413   2.197   3.768  0.3988  1.3189 -0.6205
 2723SOL    HW219629   1.316   2.204   3.663 -1.3852 -0.0472  0.6961
 2724SOL     OW19630   2.863   3.902   2.794 -0.2527  0.0931 -0.3400
 2724SOL    HW119631   2.949   3.917   2.833 -0.8710  2.8759  0.0260
 2724SOL    HW219632   2.825   3.985   2.823  1.0178 -0.6505  3.4302
 2725SOL     OW19633   0.117   1.479   8.983  0.3177  0.6311  0.1336
 2725SOL    HW119634   0.041   1.519   9.025 -0.0347  1.5494 -1.3644
 2725SOL    HW219635   0.189   1.535   9.012  0.4109  1.1862 -1.1720
 2726SOL     OW19636   2.281   1.595   3.926 -0.1569  0.1814 -0.3272
 2726SOL    HW119637   2.325   1.624   3.846  1.3013  1.7119  1.0140
 2726SOL    HW219638   2.257   1.506   3.902 -1.4693  0.8490 -1.4427
 2727SOL     OW19639   0.661   4.276  17.668 -0.3753  0.4028 -0.2036
 2727SOL    HW119640   0.591   4.260  17.604 -1.1116  1.8543  0.2436
 2727SOL    HW219641   0.711   4.347  17.628  0.3965  0.6537  1.2292
 2728SOL     OW19642   0.174   3.461  11.668 -0.4223 -0.0677 -0.3623
 2728SOL    HW119643   0.111   3.478  11.598 -2.1260  0.6591  1.3363
 2728SOL    HW219644   0.252   3.507  11.637  0.8520 -1.9030  0.2018
 2729SOL     OW19645   2.444   1.170   2.261 -0.2385  0.2352 -0.3791
 2729SOL    HW119646   2.445   1.136   2.172  0.6179  0.5432 -0.4852
 2729SOL    HW219647   2.516   1.121   2.301 -0.0910  0.3029 -0.5620
 2730SOL     OW19648   2.865   3.636   2.890 -0.2774 -0.6655  0.5211
 2730SOL    HW119649   2.885   3.721   2.851  1.1657 -1.2930 -0.1089
 2730SOL    HW219650   2.777   3.657   2.922 -0.2185 -1.4226  1.1911
 2731SOL     OW19651   0.932   4.562  12.212  0.3515  0.4136  0.8725
 2731SOL    HW119652   0.996   4.615  12.259  1.1974 -1.4888  1.8368
 2731SOL    HW219653   0.965   4.474  12.223  1.2010  0.8126  1.4887
 2732SOL     OW19654   0.253   2.158   2.133 -1.0840 -0.0670 -0.0448
 2732SOL    HW119655   0.320   2.161   2.200 -0.7027 -1.0938 -0.3804
 2732SOL    HW219656   0.212   2.243   2.146 -0.1749  0.4101 -0.3076
 2733SOL     OW19657   1.727   4.228   9.595 -0.1667  0.1299 -0.1760
 2733SOL    HW119658   1.665   4.280   9.645  2.6198  1.2507  2.1149
 2733SOL    HW219659   1.742   4.159   9.659 -0.2159 -0.8955 -1.2672
 2734SOL     OW19660   0.614   2.029   6.638  0.6138  0.4736  0.7770
 2734SOL    HW119661   0.543   2.086   6.665  0.3826 -1.1961  3.7059
 2734SOL    HW219662   0.577   1.941   6.644 -0.8205  0.8660 -2.1820
 2735SOL     OW19663   3.337   4.451   5.049  0.6922  0.0907 -0.4948
 2735SOL    HW119664   3.262   4.477   4.995  0.0190 -0.3962  0.2044
 2735SOL    HW219665   3.347   4.536   5.092  1.5037 -0.1138 -0.2928
 2736SOL     OW19666   0.108   1.340   8.033  0.1960 -0.6599 -0.0817
 2736SOL    HW119667   0.033   1.355   7.975 -0.1721 -2.9647 -0.2332
 2736SOL    HW219668   0.190   1.332   7.984  1.6910  3.8269  1.7885
 2737SOL     OW19669   4.641   1.911  17.372  0.0509  0.0643 -0.2806
 2737SOL    HW119670   4.656   1.897  17.278  1.1816 -1.6346  0.1430
 2737SOL    HW219671   4.572   1.847  17.385  0.9907 -0.5112  1.8988
 2738SOL     OW19672   1.678   4.168  14.721 -0.1216 -0.3945 -0.5456
 2738SOL    HW119673   1.624   4.241  14.690 -0.0090  0.2727  0.8524
 2738SOL    HW219674   1.767   4.204  14.718  0.9107 -3.0355 -2.0450
 2739SOL     OW19675   1.362   1.753  13.824 -0.2323  0.2486 -0.4931
 2739SOL    HW119676   1.395   1.761  13.914 -1.2723  0.9124 -0.1692
 2739SOL    HW219677   1.290   1.692  13.840  0.3811 -0.2721  0.3040
 2740SOL     OW19678   4.672   1.784   6.669 -0.1625 -0.0009 -0.4866
 2740SOL    HW119679   4.610   1.834   6.722  0.1031 -0.6832  0.4540
 2740SOL    HW219680   0.024   1.790   6.727 -1.7505  1.6217  1.4422
 2741SOL     OW19681   4.252   3.324   1.814  0.3338 -0.3294 -0.3125
 2741SOL    HW119682   4.228   3.381   1.741  0.7053 -1.5817 -1.4095
 2741SOL    HW219683   4.330   3.364   1.854  1.4396 -0.7772 -2.0095
 2742SOL     OW19684   3.108   0.264  10.439  0.1915 -0.4273 -0.1850
 2742SOL    HW119685   3.192   0.270  10.393 -0.2416 -0.7853 -1.0197
 2742SOL    HW219686   3.065   0.203  10.379 -0.3057 -0.6946  0.4485
 2743SOL     OW19687   0.852   0.886   8.861  0.2484 -0.0126  0.0036
 2743SOL    HW119688   0.773   0.834   8.849  0.8942 -1.0322  0.1721
 2743SOL    HW219689   0.846   0.922   8.950  0.7056 -1.8168  0.7632
 2744SOL     OW19690   1.186   1.530  12.976  0.6317 -0.3373  0.1156
 2744SOL    HW119691   1.234   1.606  13.010 -0.2603 -0.2263  1.1242
 2744SOL    HW219692   1.138   1.573  12.905 -0.6971  1.6304  2.1910
 2745SOL     OW19693   2.735   4.169  17.582  0.0873  0.4128  0.3884
 2745SOL    HW119694   2.791   4.213  17.518  1.4942 -0.5814  0.9416
 2745SOL    HW219695   2.713   4.088  17.535  0.8100 -0.3245  1.3168
 2746SOL     OW19696   3.721   2.881   7.163 -0.4407 -0.1645 -0.3586
 2746SOL    HW119697   3.781   2.948   7.194 -0.6033  0.2080 -0.8528
 2746SOL    HW219698   3.680   2.844   7.242 -0.3935 -0.9024 -0.6742
 2747SOL     OW19699   2.991   0.639   2.148 -0.7952 -0.0028 -0.4332
 2747SOL    HW119700   2.946   0.636   2.063 -2.0184  1.3122  0.1638
 2747SOL    HW219701   2.925   0.682   2.204 -2.2365 -0.3114 -1.8849
 2748SOL     OW19702   1.251   2.159   5.507  0.5073  0.3959  0.0087
 2748SOL    HW119703   1.313   2.227   5.531  2.0312 -0.5571 -1.2250
 2748SOL    HW219704   1.177   2.180   5.565  0.5310 -0.5643  0.3867
 2749SOL     OW19705   0.824   3.664   4.103  0.4615  0.0369  0.2967
 2749SOL    HW119706   0.826   3.574   4.138 -1.1190 -0.3951 -0.7254
 2749SOL    HW219707   0.918   3.683   4.097  0.5205  0.0777  1.2551
 2750SOL     OW19708   4.380   1.599   6.122 -0.3663  0.1710  0.0976
 2750SOL    HW119709   4.443   1.581   6.192 -1.8669  1.8526  1.8616
 2750SOL    HW219710   4.299   1.561   6.156  0.3418 -0.9329  0.5580
 2751SOL     OW19711   4.496   0.756   6.316 -0.2086  0.0328 -0.5682
 2751SOL    HW119712   4.588   0.781   6.309  0.1826 -0.4616  2.7120
 2751SOL    HW219713   4.499   0.667   6.351  0.3366  1.0625  1.9798
 2752SOL     OW19714   0.430   3.622   4.400 -0.5418 -0.0046 -0.2777
 2752SOL    HW119715   0.471   3.611   4.314  0.5306 -0.1995  0.2676
 2752SOL    HW219716   0.438   3.532   4.431 -0.7517  0.3184  0.6925
 2753SOL     OW19717   1.816   3.458  10.510 -0.1330 -0.5099 -0.4683
 2753SOL    HW119718   1.779   3.524  10.452 -0.4487 -1.2275 -1.0858
 2753SOL    HW219719   1.755   3.455  10.583 -0.6713 -1.8122 -0.9830
 2754SOL     OW19720   3.992   1.316   1.867  0.0578 -0.0825  0.2513
 2754SOL    HW119721   3.950   1.322   1.781 -0.7027  3.4698  0.8721
 2754SOL    HW219722   4.085   1.324   1.845  0.1023 -1.6910 -0.1758
 2755SOL     OW19723   3.631   2.279  10.779 -0.1806 -0.2014 -0.1199
 2755SOL    HW119724   3.604   2.187  10.787  0.6974 -0.5187 -0.7459
 2755SOL    HW219725   3.705   2.264  10.721 -0.8100 -2.2174 -0.4205
 2756SOL     OW19726   3.164   0.559   6.599 -0.6189  0.1134 -0.2294
 2756SOL    HW119727   3.157   0.534   6.691 -1.2218  0.4078 -0.1918
 2756SOL    HW219728   3.257   0.578   6.599 -0.0622 -2.6116 -0.2820
 2757SOL     OW19729   0.600   2.267   8.232 -0.1304  0.6373 -0.1008
 2757SOL    HW119730   0.665   2.337   8.228  2.0489 -1.4128 -0.2366
 2757SOL    HW219731   0.561   2.290   8.317 -0.4964 -0.3789 -0.0037
 2758SOL     OW19732   3.143   1.341   9.507 -0.1539 -0.5293 -0.0625
 2758SOL    HW119733   3.201   1.381   9.441  0.1460 -0.5017  0.2180
 2758SOL    HW219734   3.153   1.405   9.578 -0.8038  1.5442 -1.8502
 2759SOL     OW19735   4.625   2.475   7.211 -0.0363 -0.6062 -0.7379
 2759SOL    HW119736   4.547   2.435   7.171 -1.7795  0.5770  1.4655
 2759SOL    HW219737   4.664   2.529   7.143 -2.6796  0.1495 -1.6703
 2760SOL     OW19738   4.474   1.615   2.818 -0.0243 -0.2219  0.3389
 2760SOL    HW119739   4.471   1.527   2.780 -2.3803  0.4520 -1.0384
 2760SOL    HW219740   4.561   1.613   2.857  0.2596  2.0835 -0.1609
 2761SOL     OW19741   1.594   0.080   9.142 -0.0149  0.0245 -0.3693
 2761SOL    HW119742   1.508   0.043   9.165  1.0064 -1.3181  1.2611
 2761SOL    HW219743   1.642   0.025   9.081  0.3740  0.1235 -0.1523
 2762SOL     OW19744   4.700   1.957   0.473 -0.0476  0.1712  0.5254
 2762SOL    HW119745   0.058   2.001   0.495  0.1535 -0.9402  2.0298
 2762SOL    HW219746   4.666   2.034   0.427 -0.5741  0.0755  0.7539
 2763SOL     OW19747   4.244   4.560   7.395  0.1690  0.4298 -0.1843
 2763SOL    HW119748   4.198   4.541   7.313 -0.1036 -0.4450  0.1669
 2763SOL    HW219749   4.248   4.656   7.391 -1.1406  0.5258  0.8092
 2764SOL     OW19750   4.695   0.150   8.572  0.1434 -0.0092 -0.0489
 2764SOL    HW119751   4.605   0.180   8.579  0.8509  1.5255  2.6419
 2764SOL    HW219752   0.024   0.220   8.612  0.9583  0.1679 -1.4544
 2765SOL     OW19753   2.156   0.875   2.640  0.3509  0.1065  0.1467
 2765SOL    HW119754   2.130   0.871   2.733  1.3218  0.0645  0.4183
 2765SOL    HW219755   2.074   0.842   2.603 -0.8673  1.7296  1.4136
 2766SOL     OW19756   4.030   4.566   0.930  0.6397  0.2062 -0.0681
 2766SOL    HW119757   3.946   4.522   0.929  1.0462 -0.4932 -2.4778
 2766SOL    HW219758   4.052   4.563   1.023 -1.4469  1.1710  0.4645
 2767SOL     OW19759   1.551   2.787  16.514 -0.0296  0.1521  0.4007
 2767SOL    HW119760   1.521   2.699  16.538  0.6118 -0.1484  0.1406
 2767SOL    HW219761   1.643   2.777  16.487  0.7148  0.7411  2.7122
 2768SOL     OW19762   0.200   2.788   3.861  0.7443  0.0803 -0.3090
 2768SOL    HW119763   0.211   2.697   3.835 -1.6770 -0.4639  0.6191
 2768SOL    HW219764   0.117   2.793   3.909  0.4287  0.6425 -0.9133
 2769SOL     OW19765   2.648   0.227   3.657  0.0586 -0.2277 -0.0667
 2769SOL    HW119766   2.587   0.286   3.613 -0.4619  0.5101  1.6449
 2769SOL    HW219767   2.672   0.152   3.602  0.4004  0.0883 -0.3468
 2770SOL     OW19768   3.805   2.898  12.919  0.3994  0.5687 -0.3089
 2770SOL    HW119769   3.817   2.856  12.833 -2.2693 -0.1813 -0.3242
 2770SOL    HW219770   3.876   2.962  12.922  1.0702 -0.4404  5.0807
 2771SOL     OW19771   2.866   3.729   6.733 -0.0352  0.0742 -0.0423
 2771SOL    HW119772   2.961   3.728   6.735  0.1157  3.7737 -3.8369
 2771SOL    HW219773   2.844   3.733   6.639  0.2321  0.0662 -0.1045
 2772SOL     OW19774   0.217   1.116   8.947 -0.1890  0.3968  0.6966
 2772SOL    HW119775   0.293   1.141   8.894  1.1897 -2.3581  1.4382
 2772SOL    HW219776   0.166   1.083   8.872 -2.2399 -0.7733  2.6134
 2773SOL     OW19777   3.664   2.267   3.499  0.4068 -0.2241  0.1953
 2773SOL    HW119778   3.733   2.213   3.537  0.6879  0.3362  0.4931
 2773SOL    HW219779   3.594   2.203   3.505  0.9273 -0.8123 -0.0519
 2774SOL     OW19780   1.610   2.668  15.007  0.8443  0.0458  0.1263
 2774SOL    HW119781   1.697   2.702  15.025  0.3306  1.0508  0.6862
 2774SOL    HW219782   1.610   2.657  14.912  1.1586  0.5053  0.0731
 2775SOL     OW19783   1.946   3.533   3.457  0.3972  0.6178 -0.6369
 2775SOL    HW119784   1.939   3.464   3.391  1.4751 -0.2894  0.1893
 2775SOL    HW219785   2.018   3.586   3.423  0.2318 -0.3003 -2.4170
 2776SOL     OW19786   2.030   1.603   4.373  0.2514  0.2078  0.0700
 2776SOL    HW119787   2.028   1.648   4.289  0.4615 -0.5319 -0.3402
 2776SOL    HW219788   2.045   1.510   4.355 -0.6531  0.0121  0.3281
 2777SOL     OW19789   2.055   2.676   9.201 -0.4360 -0.3145 -0.3832
 2777SOL    HW119790   1.985   2.705   9.141 -0.1986 -2.1104 -1.5322
 2777SOL    HW219791   2.002   2.682   9.280 -1.6789 -0.5176 -1.1894
 2778SOL     OW19792   0.222   4.604   4.144  0.5937  0.0333  0.0001
 2778SOL    HW119793   0.301   4.624   4.093  0.4515  0.3917 -0.0743
 2778SOL    HW219794   0.195   4.526   4.096  1.3759  0.1159 -0.5729
 2779SOL     OW19795   3.159   0.557   4.010 -0.0159 -0.0602 -0.0246
 2779SOL    HW119796   3.083   0.540   3.954 -2.2277 -2.5730  3.7600
 2779SOL    HW219797   3.148   0.650   4.028 -0.2380 -0.0018 -0.4521
 2780SOL     OW19798   2.934   1.716   1.872 -0.4048  0.0336 -0.2111
 2780SOL    HW119799   2.899   1.633   1.903 -0.1669  0.3293  0.8632
 2780SOL    HW219800   2.900   1.724   1.783  1.7104 -2.1647 -1.2336
 2781SOL     OW19801   3.277   4.240  16.104 -0.0621  0.2534  0.1519
 2781SOL    HW119802   3.213   4.305  16.075 -2.0288 -0.6095  2.6192
 2781SOL    HW219803   3.256   4.230  16.196  1.4829 -1.2452  0.3419
 2782SOL     OW19804   0.596   1.701  15.185 -0.2037 -0.0512 -0.6020
 2782SOL    HW119805   0.677   1.673  15.143  0.5696  0.7461  0.3872
 2782SOL    HW219806   0.600   1.797  15.183  1.9470 -0.0703  2.9118
 2783SOL     OW19807   0.357   4.405   7.361 -0.0436 -0.2016  0.3106
 2783SOL    HW119808   0.340   4.346   7.288 -0.2529 -2.0281  1.8522
 2783SOL    HW219809   0.316   4.359   7.434 -0.5491  0.8587  0.6978
 2784SOL     OW19810   1.255   0.052   8.222  0.3228  0.2517 -0.0339
 2784SOL    HW119811   1.341   0.069   8.184  0.8903  1.3437  1.7344
 2784SOL    HW219812   1.251   4.683   8.197 -1.5150  0.4376 -0.3742
 2785SOL     OW19813   2.738   1.180   7.013  0.0477 -0.0316 -0.3182
 2785SOL    HW119814   2.832   1.176   6.996  0.1793  0.3543  0.3134
 2785SOL    HW219815   2.699   1.117   6.952 -1.1732  0.6203 -0.2045
 2786SOL     OW19816   2.233   1.130  12.954  0.9513  0.1156  0.3010
 2786SOL    HW119817   2.270   1.109  13.040 -1.3830 -1.0979  0.9795
 2786SOL    HW219818   2.191   1.215  12.969  2.3683  0.7697  0.6118
 2787SOL     OW19819   3.617   2.396  16.396 -0.1913 -0.0274  0.7966
 2787SOL    HW119820   3.647   2.402  16.487 -2.1249 -1.3559  1.5144
 2787SOL    HW219821   3.559   2.320  16.401 -0.4550 -0.1391 -3.9993
 2788SOL     OW19822   2.096   1.299  11.459 -0.1897 -0.1407 -0.0731
 2788SOL    HW119823   2.162   1.368  11.456  0.0818 -0.4556 -1.4769
 2788SOL    HW219824   2.021   1.356  11.443  0.2945  0.7233  0.7316
 2789SOL     OW19825   1.586   2.919  15.389  0.4582  1.0944  0.1081
 2789SOL    HW119826   1.673   2.879  15.385 -0.5031 -1.1538  1.2671
 2789SOL    HW219827   1.616   3.009  15.378  1.8939  0.3308 -2.2666
 2790SOL     OW19828   0.057   1.144   6.193  0.3585 -0.0827 -0.0411
 2790SOL    HW119829   0.052   1.082   6.120 -3.1554  2.1261 -1.6435
 2790SOL    HW219830   0.052   1.081   6.265 -1.0521 -1.0791 -0.9974
 2791SOL     OW19831   3.244   1.887   3.297 -0.3481 -0.3722 -0.2949
 2791SOL    HW119832   3.292   1.865   3.377  1.4142  0.4993 -1.1057
 2791SOL    HW219833   3.293   1.830   3.238  0.8930 -2.2996  2.6287
 2792SOL     OW19834   1.088   4.077  11.733  0.1716 -0.3025  0.2469
 2792SOL    HW119835   1.105   4.092  11.640 -1.2070 -2.9611 -0.4411
 2792SOL    HW219836   1.172   4.099  11.775 -0.3472  0.6035  0.8144
 2793SOL     OW19837   0.432   2.508   4.908  0.2005  0.0602 -0.6344
 2793SOL    HW119838   0.340   2.521   4.930 -0.0465 -0.7441 -1.1905
 2793SOL    HW219839   0.431   2.518   4.813  3.7498 -0.9724 -0.7977
 2794SOL     OW19840   4.136   2.477   5.340  0.3766 -0.6400 -0.7714
 2794SOL    HW119841   4.160   2.555   5.289  3.2503 -0.3387  1.0869
 2794SOL    HW219842   4.052   2.467   5.295  0.5867 -1.6246 -0.9373
 2795SOL     OW19843   4.520   1.442   4.329 -0.8400  0.3314 -0.3287
 2795SOL    HW119844   4.596   1.409   4.283 -0.8888  0.8055 -0.7460
 2795SOL    HW219845   4.542   1.535   4.320  0.2202  0.2849  1.7852
 2796SOL     OW19846   0.303   3.272   7.947  0.3522 -0.2208 -0.9664
 2796SOL    HW119847   0.362   3.222   7.890  0.4765 -0.2406 -0.8217
 2796SOL    HW219848   0.342   3.359   7.958 -0.7877  0.1944 -0.2234
 2797SOL     OW19849   0.820   1.183   4.111 -0.9482 -0.2661 -0.0082
 2797SOL    HW119850   0.774   1.135   4.042  0.7012 -0.1650 -1.1884
 2797SOL    HW219851   0.903   1.209   4.070 -1.7022  0.4965 -1.0610
 2798SOL     OW19852   0.980   0.471   2.173  0.1210 -0.5922 -0.7010
 2798SOL    HW119853   0.999   0.378   2.157 -0.0027 -0.3105 -2.4866
 2798SOL    HW219854   0.887   0.462   2.152  0.3605  0.7502 -2.3761
 2799SOL     OW19855   2.010   2.920   5.366  0.5840 -0.1745  0.0081
 2799SOL    HW119856   2.006   2.833   5.326  1.8545 -0.5278  0.6577
 2799SOL    HW219857   2.101   2.920   5.396  0.7458  0.7098 -0.4822
 2800SOL     OW19858   4.675   3.323   9.879 -0.6137 -0.3207  0.0757
 2800SOL    HW119859   4.701   3.235   9.907 -0.3522  0.4791  2.3319
 2800SOL    HW219860   4.607   3.344   9.942 -1.7615  0.7509 -1.5216
 2801SOL     OW19861   0.561   1.591   4.447  0.0263 -0.1882  0.2019
 2801SOL    HW119862   0.581   1.655   4.379 -1.0588 -1.2446 -1.1267
 2801SOL    HW219863   0.632   1.623   4.502 -0.9652  0.4178  1.1284
 2802SOL     OW19864   0.592   2.248   6.355  0.4729 -0.4327  0.1163
 2802SOL    HW119865   0.586   2.297   6.437 -1.1789 -1.6389  0.7148
 2802SOL    HW219866   0.554   2.162   6.376 -0.3150 -0.3415 -0.9489
 2803SOL     OW19867   0.386   1.763   8.002 -0.8334 -0.1706 -0.0851
 2803SOL    HW119868   0.334   1.837   8.035  1.4126  1.0007  0.8592
 2803SOL    HW219869   0.358   1.773   7.911  0.6431  0.2509 -0.4897
 2804SOL     OW19870   2.625   2.023   5.682 -0.0082 -0.4867  0.1303
 2804SOL    HW119871   2.668   1.947   5.642  2.0459  1.0206 -0.5216
 2804SOL    HW219872   2.579   1.979   5.753 -1.1331  1.7449  0.7913
 2805SOL     OW19873   4.453   3.649   6.176  0.2347  0.0841 -0.0412
 2805SOL    HW119874   4.456   3.734   6.221  0.2322 -0.6562  1.3590
 2805SOL    HW219875   4.534   3.606   6.200  0.3424  0.4760  0.3064
 2806SOL     OW19876   0.496   3.745   6.861  0.0260 -0.1597  0.6740
 2806SOL    HW119877   0.560   3.681   6.829  0.8337  1.5364 -1.1247
 2806SOL    HW219878   0.475   3.713   6.948  0.3456 -2.0700  0.0341
 2807SOL     OW19879   2.076   2.996   7.583  0.5222 -0.4588  0.3140
 2807SOL    HW119880   2.139   3.035   7.644 -0.8234  0.5524  1.0627
 2807SOL    HW219881   2.131   2.937   7.532 -0.7349 -1.8799  0.6265
 2808SOL     OW19882   1.715   3.483  13.076 -0.6685  0.3147 -0.2000
 2808SOL    HW119883   1.734   3.577  13.084 -0.2761  0.3525 -1.5532
 2808SOL    HW219884   1.620   3.494  13.085 -0.5154  1.5069  0.0034
 2809SOL     OW19885   3.407   2.878   2.567 -0.4391  0.6297  0.1992
 2809SOL    HW119886   3.434   2.933   2.494  0.7836  0.1484  0.3046
 2809SOL    HW219887   3.440   2.791   2.543 -1.4487 -0.5431  3.0153
 2810SOL     OW19888   1.363   0.773   9.006 -0.1881 -0.0340  0.4809
 2810SOL    HW119889   1.285   0.828   9.009 -0.0228  0.1863  0.7611
 2810SOL    HW219890   1.371   0.740   8.917 -0.9434 -0.5478  0.6064
 2811SOL     OW19891   1.455   4.519   4.974  0.2972 -0.1909 -0.0180
 2811SOL    HW119892   1.389   4.500   5.041 -0.5270  0.9701 -0.5020
 2811SOL    HW219893   1.538   4.509   5.020 -0.0405  0.3398  0.7064
 2812SOL     OW19894   3.420   2.685  16.243  0.2889 -0.3410  0.3905
 2812SOL    HW119895   3.372   2.708  16.322  3.0752  2.3088  1.2894
 2812SOL    HW219896   3.439   2.768  16.200 -0.5301  0.4003  1.4796
 2813SOL     OW19897   2.989   0.320   9.961 -0.0581 -0.7010 -0.0637
 2813SOL    HW119898   2.984   0.397   9.905  1.1643 -1.4800 -1.2252
 2813SOL    HW219899   2.965   0.247   9.904 -0.3920 -1.8805  1.5583
 2814SOL     OW19900   0.478   4.139   3.649  0.5741 -0.0794 -0.2035
 2814SOL    HW119901   0.472   4.076   3.720  0.4750 -2.4324 -2.2919
 2814SOL    HW219902   0.547   4.108   3.590 -0.3839 -0.6883 -1.0060
 2815SOL     OW19903   3.965   2.168   7.965  0.8021 -0.5116  0.0572
 2815SOL    HW119904   3.953   2.134   8.053  1.1648 -1.9433 -0.4338
 2815SOL    HW219905   4.061   2.167   7.961  0.7089 -0.0936 -2.2075
 2816SOL     OW19906   2.395   1.297  13.428 -0.0527  0.3887  0.0447
 2816SOL    HW119907   2.299   1.289  13.423 -0.0635  0.3726  0.2529
 2816SOL    HW219908   2.404   1.391  13.413 -1.1398  0.0956 -2.4462
 2817SOL     OW19909   4.460   1.111  15.775 -0.0170 -0.4936  0.4856
 2817SOL    HW119910   4.484   1.062  15.854 -0.1897 -2.2385 -0.5451
 2817SOL    HW219911   4.530   1.095  15.712  0.5160 -1.2318  1.2659
 2818SOL     OW19912   0.264   2.058   0.550 -0.2721 -0.3662 -0.0592
 2818SOL    HW119913   0.274   2.051   0.645 -2.0679 -0.6591  0.1237
 2818SOL    HW219914   0.355   2.051   0.521 -1.1711 -1.3136 -2.6594
 2819SOL     OW19915   2.355   0.650   9.497 -0.8071 -0.2587 -0.0456
 2819SOL    HW119916   2.405   0.701   9.561  1.1938 -0.2190 -1.6705
 2819SOL    HW219917   2.313   0.719   9.446 -0.5513  0.5391  0.8148
 2820SOL     OW19918   3.163   3.881   7.873  0.5655 -0.6299  0.3326
 2820SOL    HW119919   3.137   3.967   7.840 -0.4823 -0.8875  0.4958
 2820SOL    HW219920   3.242   3.869   7.820  1.7072  2.2501  1.3428
 2821SOL     OW19921   0.218   3.246   8.348  0.3349  0.1382 -0.5910
 2821SOL    HW119922   0.171   3.326   8.325  0.2792 -0.4645 -2.6534
 2821SOL    HW219923   0.310   3.273   8.341  0.6356 -0.4461  1.2204
 2822SOL     OW19924   3.356   0.437   7.102  0.1169 -0.3752  0.2281
 2822SOL    HW119925   3.274   0.391   7.080  1.0921 -2.5397  1.1084
 2822SOL    HW219926   3.321   0.522   7.127 -1.6834 -1.2706  0.7926
 2823SOL     OW19927   0.599   3.522   0.881 -0.0097  0.0257 -0.2258
 2823SOL    HW119928   0.575   3.460   0.950  0.3494  0.0106 -0.1160
 2823SOL    HW219929   0.692   3.515   0.899  0.1708 -0.5346 -1.3715
 2824SOL     OW19930   0.765   2.845   4.930  0.0665 -0.6864 -0.6387
 2824SOL    HW119931   0.848   2.800   4.946  0.9715  0.6292 -1.6724
 2824SOL    HW219932   0.729   2.778   4.871  1.2950 -2.1482  0.2769
 2825SOL     OW19933   3.628   4.551   2.305 -0.0241 -0.1851 -0.3630
 2825SOL    HW119934   3.654   4.640   2.328 -1.9476  0.0406  0.9940
 2825SOL    HW219935   3.553   4.541   2.365 -0.0759 -2.5365 -0.8210
 2826SOL     OW19936   4.657   3.398   5.742  0.4635  0.5595 -0.0432
 2826SOL    HW119937   0.009   3.440   5.782 -0.8432  1.5048  1.4456
 2826SOL    HW219938   4.586   3.445   5.786  0.8258  2.6746 -1.7193
 2827SOL     OW19939   0.817   0.402   7.569  0.5762 -0.1378 -0.1598
 2827SOL    HW119940   0.892   0.342   7.570  1.0025  0.4075  1.3897
 2827SOL    HW219941   0.786   0.384   7.481 -0.5952 -2.7553  0.7979
 2828SOL     OW19942   1.645   3.430   4.606  0.1866 -0.2385  0.1664
 2828SOL    HW119943   1.700   3.396   4.535 -0.5514 -0.7223 -0.1750
 2828SOL    HW219944   1.659   3.374   4.683  0.8835 -2.6383 -1.7077
 2829SOL     OW19945   3.033   3.232  16.258  0.0603  0.1435  0.2852
 2829SOL    HW119946   3.098   3.162  16.257  0.2155  0.2976 -0.2118
 2829SOL    HW219947   3.091   3.307  16.246 -1.5483  1.2525 -0.5550
 2830SOL     OW19948   3.412   4.100  13.290 -0.3694 -0.8309  0.2183
 2830SOL    HW119949   3.386   4.188  13.318 -0.3446 -1.0578  0.9625
 2830SOL    HW219950   3.476   4.126  13.224  0.3650  0.7757  1.5480
 2831SOL     OW19951   2.916   4.207   2.167  0.3623  0.4947 -0.6286
 2831SOL    HW119952   2.877   4.122   2.147 -1.8788  0.9510  1.8323
 2831SOL    HW219953   2.978   4.217   2.094 -0.3422  0.3192 -1.2492
 2832SOL     OW19954   3.941   4.292   6.884  0.4313 -0.0047 -0.1593
 2832SOL    HW119955   3.975   4.219   6.936 -0.3242  1.8247  2.9391
 2832SOL    HW219956   4.027   4.333   6.873  0.5297  0.1015  1.0379
 2833SOL     OW19957   3.794   1.722   2.662 -0.2998 -0.4009  0.4501
 2833SOL    HW119958   3.870   1.671   2.690 -0.5548 -1.8889 -1.4872
 2833SOL    HW219959   3.755   1.741   2.747  0.8594 -0.4070  0.9887
 2834SOL     OW19960   1.489   0.922   6.523  0.3930  0.0848  0.3327
 2834SOL    HW119961   1.515   0.830   6.518  0.3169  0.0625  0.3339
 2834SOL    HW219962   1.394   0.911   6.525  0.9522 -4.4900  1.5107
 2835SOL     OW19963   2.686   0.995   2.958 -0.2283 -0.1410  0.2737
 2835SOL    HW119964   2.705   0.915   2.909  1.5160  1.1998 -1.2545
 2835SOL    HW219965   2.711   0.965   3.045  1.2270 -1.0038 -0.4417
 2836SOL     OW19966   1.546   0.578   7.847 -0.1617 -0.0059 -0.6628
 2836SOL    HW119967   1.622   0.574   7.788  1.2152  0.1535  1.1175
 2836SOL    HW219968   1.552   0.665   7.886 -2.6193 -0.0361 -0.2313
 2837SOL     OW19969   1.821   3.701  16.072  0.0462 -0.1976  0.1165
 2837SOL    HW119970   1.900   3.731  16.116 -0.4368  1.0854  0.1078
 2837SOL    HW219971   1.847   3.620  16.028 -1.0685 -0.6869  0.3306
 2838SOL     OW19972   2.750   2.851  16.535 -0.1090  0.3505 -0.0079
 2838SOL    HW119973   2.714   2.780  16.588  0.3724  0.2764  0.2206
 2838SOL    HW219974   2.720   2.834  16.446 -1.5343 -0.3600  0.5999
 2839SOL     OW19975   1.290   0.021   2.599 -0.5543  0.1837 -0.2138
 2839SOL    HW119976   1.374   4.712   2.566  0.4579  0.5799  2.0063
 2839SOL    HW219977   1.323   0.077   2.669  0.1086 -1.2241  0.6000
 2840SOL     OW19978   1.163   4.481  16.793  0.0505 -0.6559 -0.1791
 2840SOL    HW119979   1.126   4.569  16.790 -1.7884 -1.3628  2.0109
 2840SOL    HW219980   1.137   4.463  16.702 -2.0091  2.3483 -0.1623
 2841SOL     OW19981   3.762   3.855   6.153  0.2541  0.5948 -0.4922
 2841SOL    HW119982   3.852   3.842   6.124 -0.1679  0.1263 -1.5846
 2841SOL    HW219983   3.773   3.814   6.238  0.3614  1.3046 -0.1614
 2842SOL     OW19984   0.515   4.263   0.913 -0.3745  0.3503 -0.3905
 2842SOL    HW119985   0.556   4.253   0.999 -0.0655  3.7031 -0.1444
 2842SOL    HW219986   0.440   4.204   0.918 -0.1784  0.3417  2.5892
 2843SOL     OW19987   0.335   4.451   0.095 -0.9406 -0.2177  0.3132
 2843SOL    HW119988   0.249   4.485   0.071 -0.2098  1.2354 -0.3013
 2843SOL    HW219989   0.393   4.463   0.019 -1.3248 -1.7588 -0.2107
 2844SOL     OW19990   2.055   2.154   5.158 -0.1807 -0.3549  0.8793
 2844SOL    HW119991   1.987   2.195   5.104  0.1022  0.1319  0.8991
 2844SOL    HW219992   2.117   2.122   5.093 -2.7228 -1.4272 -1.0167
 2845SOL     OW19993   3.456   1.740   3.180  0.6539 -0.4203 -0.6228
 2845SOL    HW119994   3.417   1.696   3.104 -3.3695  3.2662 -0.6260
 2845SOL    HW219995   3.512   1.806   3.140  1.7304  0.6788  2.6809
 2846SOL     OW19996   3.917   3.384   1.773  0.4002 -0.4733  0.4912
 2846SOL    HW119997   3.857   3.377   1.699  1.0475 -0.9846  0.0216
 2846SOL    HW219998   3.919   3.479   1.787 -0.0991 -0.1275 -1.7935
 2847SOL     OW19999   2.546   0.120   2.261 -0.3160  0.4685 -0.3747
 2847SOL    HW120000   2.621   0.179   2.249 -1.0848  1.7101  1.0007
 2847SOL    HW220001   2.474   0.159   2.211 -0.7285 -2.1190 -1.8280
 2848SOL     OW20002   0.071   1.141   7.451  0.2857 -0.2090 -0.0573
 2848SOL    HW120003   0.098   1.052   7.428 -0.4779 -0.4346 -0.0936
 2848SOL    HW220004   0.022   1.164   7.372  0.4907 -1.5918 -0.5841
 2849SOL     OW20005   0.319   2.314   3.552 -0.0495  0.0922 -0.5667
 2849SOL    HW120006   0.309   2.355   3.467 -0.3918 -0.5105 -0.8204
 2849SOL    HW220007   0.413   2.313   3.567  0.0462 -1.7279 -1.2640
 2850SOL     OW20008   0.486   0.437   3.168 -0.7134 -0.3705 -0.0730
 2850SOL    HW120009   0.462   0.401   3.253  0.4935 -0.9060  0.0417
 2850SOL    HW220010   0.419   0.396   3.114 -1.0235 -1.3836  1.0905
 2851SOL     OW20011   0.574   2.775  11.617  0.6241 -0.6804  0.2554
 2851SOL    HW120012   0.529   2.823  11.686  0.0626 -0.6347 -0.1468
 2851SOL    HW220013   0.570   2.821  11.534  0.8774 -1.6234 -0.2743
 2852SOL     OW20014   4.142   2.887  13.099  0.6527  0.5382 -0.2565
 2852SOL    HW120015   4.080   2.950  13.063 -1.5189 -1.2410  0.4004
 2852SOL    HW220016   4.092   2.815  13.137  0.1525  1.3989  0.7517
 2853SOL     OW20017   0.626   0.130  14.509 -0.3010  0.6572  0.8011
 2853SOL    HW120018   0.564   0.190  14.551 -2.9772 -1.1405 -0.5867
 2853SOL    HW220019   0.676   0.108  14.587  0.6948 -2.7541 -0.7881
 2854SOL     OW20020   1.720   0.813  12.513  0.3818  0.9044  0.0064
 2854SOL    HW120021   1.708   0.764  12.431 -0.2265 -1.6060  1.6167
 2854SOL    HW220022   1.681   0.900  12.504 -1.3359  0.1061 -0.2357
 2855SOL     OW20023   0.991   4.301   6.159  0.0059  0.3047 -0.0527
 2855SOL    HW120024   1.076   4.257   6.157 -1.3676 -2.5888  3.4299
 2855SOL    HW220025   1.019   4.389   6.134  0.7265  0.3489  0.9062
 2856SOL     OW20026   1.928   1.251   2.884 -0.3819  0.4371 -0.0135
 2856SOL    HW120027   1.971   1.336   2.896 -0.0053  0.4736 -1.6199
 2856SOL    HW220028   1.995   1.214   2.826 -2.0589  1.5459 -2.6283
 2857SOL     OW20029   2.630   0.814  10.249 -0.7325 -0.2186 -0.2341
 2857SOL    HW120030   2.566   0.831  10.180  0.5689  0.0885 -1.3948
 2857SOL    HW220031   2.616   0.888  10.308  0.0298  0.2797 -0.6685
 2858SOL     OW20032   1.850   4.194   6.822 -0.3474  0.2428  0.1267
 2858SOL    HW120033   1.868   4.215   6.914  0.2694 -2.9864  0.7366
 2858SOL    HW220034   1.940   4.207   6.790  1.0040  0.1579  3.8465
 2859SOL     OW20035   4.414   3.462   5.172  0.0632 -0.5942 -0.4669
 2859SOL    HW120036   4.386   3.553   5.164 -1.1407 -0.9435 -0.2354
 2859SOL    HW220037   4.472   3.472   5.248 -0.3592  1.1789 -0.3905
 2860SOL     OW20038   2.213   1.708   8.461 -0.9674  0.2841 -0.1082
 2860SOL    HW120039   2.255   1.791   8.437  0.8816 -0.0021  2.1280
 2860SOL    HW220040   2.142   1.733   8.520 -0.9797  1.2026 -0.5072
 2861SOL     OW20041   3.700   4.131   2.303 -0.2479  0.2371 -0.1740
 2861SOL    HW120042   3.792   4.158   2.294 -0.1249  0.2048  0.9828
 2861SOL    HW220043   3.662   4.194   2.364 -0.8483 -0.7608  0.4906
 2862SOL     OW20044   4.107   3.083   9.217 -0.8474 -0.3938  0.2514
 2862SOL    HW120045   4.197   3.098   9.246  0.0001 -2.0106 -1.5297
 2862SOL    HW220046   4.110   2.994   9.180  0.0764  0.4274 -1.6465
 2863SOL     OW20047   4.072   2.814   6.484 -0.1926 -0.1113  0.0894
 2863SOL    HW120048   4.065   2.734   6.432  1.1421  0.5856 -1.1805
 2863SOL    HW220049   4.167   2.815   6.485 -0.1784 -0.2432 -0.7080
 2864SOL     OW20050   0.315   0.627   3.342 -0.4614  0.5478  0.6004
 2864SOL    HW120051   0.366   0.708   3.340  1.8305 -0.8582  1.5243
 2864SOL    HW220052   0.380   0.560   3.363  1.2746  1.5153 -1.6871
 2865SOL     OW20053   2.977   0.315   5.192 -0.3503 -0.4223  0.3165
 2865SOL    HW120054   2.894   0.362   5.205 -0.1771 -0.1525  0.4492
 2865SOL    HW220055   2.942   0.264   5.119 -0.1048 -0.1178 -0.0122
 2866SOL     OW20056   4.558   0.879  13.773  0.2866  0.4806 -0.1984
 2866SOL    HW120057   4.493   0.857  13.706  0.0569 -1.5498  0.6690
 2866SOL    HW220058   4.528   0.824  13.846  3.7294  1.0225  1.5878
 2867SOL     OW20059   1.820   1.523   5.633 -0.1314  0.0329  0.0189
 2867SOL    HW120060   1.862   1.590   5.579 -0.9812  1.4881  1.1643
 2867SOL    HW220061   1.780   1.575   5.703 -1.9161 -1.0128 -0.2248
 2868SOL     OW20062   3.043   3.476   9.960 -0.5645 -0.6465 -0.1935
 2868SOL    HW120063   3.005   3.466   9.872  0.3717 -1.3695 -0.5183
 2868SOL    HW220064   3.038   3.571   9.958  0.4230 -0.6156 -0.9326
 2869SOL     OW20065   3.067   0.002   7.803  0.2455 -0.0096 -0.4603
 2869SOL    HW120066   3.009   4.680   7.864  1.1314  0.3193  0.6248
 2869SOL    HW220067   3.154   4.720   7.841 -0.3741  1.7906  1.2177
 2870SOL     OW20068   2.050   3.935  15.477  0.3778  0.3929 -0.7219
 2870SOL    HW120069   2.024   3.846  15.454  2.1342 -0.5690  1.0048
 2870SOL    HW220070   2.068   3.960  15.387  0.8718  1.3417 -0.3635
 2871SOL     OW20071   1.334   0.999  13.260 -0.7240 -0.4560 -0.0835
 2871SOL    HW120072   1.286   1.071  13.300 -0.4256  0.7948 -2.0180
 2871SOL    HW220073   1.360   0.960  13.344 -0.9183 -0.2544  0.0708
 2872SOL     OW20074   1.712   4.371   3.971 -0.0150  0.1375  0.0662
 2872SOL    HW120075   1.766   4.300   3.939 -2.8864 -1.6894 -0.7413
 2872SOL    HW220076   1.761   4.446   3.937  0.4103 -0.0159  0.3519
 2873SOL     OW20077   2.328   3.947   8.872  0.7111  0.1864 -0.0906
 2873SOL    HW120078   2.402   3.889   8.857  0.0239 -0.6659 -0.1781
 2873SOL    HW220079   2.270   3.926   8.799  0.5276  0.4461 -0.0183
 2874SOL     OW20080   3.553   0.066   2.097  0.2392 -0.3334  0.3573
 2874SOL    HW120081   3.468   0.051   2.138  1.0006 -0.9573  1.7394
 2874SOL    HW220082   3.577   4.704   2.063  1.3196  0.9709 -2.1690
 2875SOL     OW20083   2.792   1.728   1.648  0.1829  0.9572 -0.7028
 2875SOL    HW120084   2.704   1.766   1.654  0.1674  0.6274  1.2943
 2875SOL    HW220085   2.776   1.653   1.591  0.0611  1.3553 -1.1879
 2876SOL     OW20086   1.732   0.251   6.428  0.0542  0.3302  0.0780
 2876SOL    HW120087   1.791   0.182   6.397  1.8519  1.3655  1.1987
 2876SOL    HW220088   1.687   0.213   6.503 -0.6528  1.3608  0.1804
 2877SOL     OW20089   3.712   0.708   2.005 -0.2495 -0.9209  0.1416
 2877SOL    HW120090   3.644   0.673   1.947  0.2027 -3.3431  1.0704
 2877SOL    HW220091   3.788   0.711   1.946  0.0254 -0.6031  0.5072
 2878SOL     OW20092   0.977   0.309   5.413  0.5413  0.3268 -0.4086
 2878SOL    HW120093   0.984   0.386   5.469  1.2508  0.5054 -0.7447
 2878SOL    HW220094   0.912   0.260   5.464 -0.7361  1.6565 -0.7772
 2879SOL     OW20095   2.848   4.529   4.082 -0.2146 -0.0543  0.4592
 2879SOL    HW120096   2.813   4.442   4.102  0.5602  0.1312  2.6179
 2879SOL    HW220097   2.791   4.558   4.010  0.1650 -0.2913  0.0662
 2880SOL     OW20098   0.208   1.938  12.618  0.6898 -0.0008 -0.1413
 2880SOL    HW120099   0.223   1.940  12.713 -1.7059 -2.9733  0.2819
 2880SOL    HW220100   0.276   1.994  12.579  1.8269  0.3005  2.2692
 2881SOL     OW20101   0.132   0.306   8.060  0.0510  0.1474 -0.0075
 2881SOL    HW120102   0.210   0.265   8.097 -0.5734  0.8653  2.0824
 2881SOL    HW220103   0.105   0.354   8.138 -1.2641 -1.7883  0.7173
 2882SOL     OW20104   1.192   0.483  15.847 -0.6005  0.2173  0.4366
 2882SOL    HW120105   1.136   0.541  15.795 -1.2944 -0.9709 -0.1375
 2882SOL    HW220106   1.132   0.469  15.920  0.0768 -2.2789  0.5232
 2883SOL     OW20107   3.618   2.790   8.535  0.1347  0.2721  0.1967
 2883SOL    HW120108   3.613   2.815   8.628  1.0664 -1.2244  0.6490
 2883SOL    HW220109   3.697   2.738   8.550  0.3471 -0.0261 -2.0237
 2884SOL     OW20110   1.976   4.274  16.401  0.3751 -0.8318  0.0681
 2884SOL    HW120111   1.922   4.353  16.407 -0.6149 -1.4579 -0.5100
 2884SOL    HW220112   2.055   4.307  16.358  0.7061  1.5692  2.5204
 2885SOL     OW20113   2.543   0.787   7.514 -0.3413 -0.0523  0.2639
 2885SOL    HW120114   2.458   0.755   7.547 -0.7177  0.0260 -0.6303
 2885SOL    HW220115   2.525   0.773   7.421  1.5225  0.0839 -0.1087
 2886SOL     OW20116   0.219   3.895   5.982 -0.5843 -0.5903 -0.0296
 2886SOL    HW120117   0.124   3.906   5.976 -0.5975  0.1071  1.5993
 2886SOL    HW220118   0.221   3.807   6.022  0.3635  0.1769  1.6102
 2887SOL     OW20119   4.067   2.780   4.638  0.2453  0.4470  0.6733
 2887SOL    HW120120   4.027   2.838   4.573 -2.8793 -0.8078  1.4932
 2887SOL    HW220121   4.147   2.762   4.589 -0.9945  3.6848 -2.5105
 2888SOL     OW20122   3.018   0.183   5.413  0.2048  0.1990 -0.5776
 2888SOL    HW120123   2.961   0.213   5.483  1.6257 -1.0734  1.1081
 2888SOL    HW220124   2.995   0.230   5.333 -1.2872 -0.7401 -0.7133
 2889SOL     OW20125   2.125   4.542  14.491 -0.0471 -1.0457 -0.1213
 2889SOL    HW120126   2.219   4.535  14.509  0.1391  0.0941 -0.6452
 2889SOL    HW220127   2.120   4.576  14.401 -0.9697 -2.2731 -0.5372
 2890SOL     OW20128   2.020   0.138  14.972  0.6252  0.1464  0.4112
 2890SOL    HW120129   2.014   0.176  15.059  2.9417 -1.3294  1.1944
 2890SOL    HW220130   1.954   0.069  14.972  2.4694 -1.6149 -0.1754
 2891SOL     OW20131   2.878   2.222   2.465  0.1940 -0.5581  0.2038
 2891SOL    HW120132   2.858   2.146   2.520  1.4362  0.2517  1.7659
 2891SOL    HW220133   2.910   2.292   2.522 -0.9664  0.5259 -0.4708
 2892SOL     OW20134   0.741   0.613   8.522 -0.6151 -0.1527  0.0230
 2892SOL    HW120135   0.742   0.582   8.613 -1.1484 -1.7332 -0.5031
 2892SOL    HW220136   0.801   0.551   8.481 -1.9483 -1.2093 -0.3358
 2893SOL     OW20137   2.563   0.903   6.341  0.5411 -0.4068 -0.3421
 2893SOL    HW120138   2.570   0.828   6.400 -1.4179 -0.0674  0.3134
 2893SOL    HW220139   2.529   0.960   6.410 -0.4632  3.2991 -3.8648
 2894SOL     OW20140   0.379   0.022   5.156  0.2238 -0.2170  0.1227
 2894SOL    HW120141   0.364   4.694   5.077 -2.5682 -0.7267  0.9854
 2894SOL    HW220142   0.350   4.686   5.225  1.0029  1.5518  1.9811
 2895SOL     OW20143   3.001   0.827   8.526  0.3820  0.5865 -0.1433
 2895SOL    HW120144   3.012   0.750   8.470 -0.7074 -0.2121  0.7315
 2895SOL    HW220145   3.084   0.874   8.520  0.8743 -0.2742 -0.0838
 2896SOL     OW20146   4.569   2.478   0.870  0.0004 -0.0426 -0.3103
 2896SOL    HW120147   4.608   2.565   0.880  3.0239 -1.1474 -2.4502
 2896SOL    HW220148   4.541   2.449   0.956  0.4759  0.0685 -0.1189
 2897SOL     OW20149   3.917   3.563   3.178 -0.3757  0.4829 -0.3821
 2897SOL    HW120150   3.880   3.547   3.264  0.2218 -0.3866 -0.2853
 2897SOL    HW220151   4.007   3.543   3.205 -0.7991 -0.1749  0.5078
 2898SOL     OW20152   0.034   3.691   9.939  0.4503  0.4124  0.4354
 2898SOL    HW120153   4.666   3.703   9.916  0.2301  0.0714  1.1229
 2898SOL    HW220154   0.049   3.780   9.970 -0.3120  0.1727  1.5045
 2899SOL     OW20155   0.694   0.346   7.829 -0.2771  0.0761  0.1951
 2899SOL    HW120156   0.767   0.351   7.890  0.1154  0.9387 -0.3543
 2899SOL    HW220157   0.745   0.356   7.750 -1.4242  0.7178 -0.4644
 2900SOL     OW20158   1.236   1.323   9.088 -0.2073  0.8195 -0.2087
 2900SOL    HW120159   1.229   1.389   9.156  0.2716  1.3348 -0.6569
 2900SOL    HW220160   1.250   1.384   9.015 -1.4195  1.4029  0.0556
 2901SOL     OW20161   3.569   3.792   6.534  0.0706  0.4672  0.0041
 2901SOL    HW120162   3.606   3.829   6.614  2.6949  1.0205 -1.4709
 2901SOL    HW220163   3.579   3.698   6.550 -4.0613  0.2915  1.7142
 2902SOL     OW20164   3.215   1.716  17.595  0.2467 -0.0643  0.1956
 2902SOL    HW120165   3.148   1.647  17.593  2.2710 -1.9866 -1.7696
 2902SOL    HW220166   3.211   1.755  17.682  0.7454 -2.9444  1.4978
 2903SOL     OW20167   3.927   4.690   9.328 -0.3885  0.5175  0.1729
 2903SOL    HW120168   3.992   4.711   9.261  0.8791  0.2974  1.3447
 2903SOL    HW220169   3.970   0.012   9.400  0.5142  1.0825 -0.7386
 2904SOL     OW20170   1.886   3.929   6.680  0.4062  0.1000 -0.3310
 2904SOL    HW120171   1.848   3.976   6.754  0.0679  0.6662 -0.8638
 2904SOL    HW220172   1.923   3.997   6.623 -0.1080  0.3773 -0.3360
 2905SOL     OW20173   0.239   1.104   3.684  0.3082  0.0675 -0.6548
 2905SOL    HW120174   0.200   1.125   3.599 -0.0708  1.0297 -0.2434
 2905SOL    HW220175   0.290   1.026   3.659 -0.1715 -0.5083  0.1514
 2906SOL     OW20176   0.967   0.878  17.667 -0.8268 -0.1975 -0.3977
 2906SOL    HW120177   1.001   0.791  17.645  0.2683  0.7262 -2.4364
 2906SOL    HW220178   0.905   0.849   0.036 -1.4847 -0.7199 -1.2364
 2907SOL     OW20179   4.428   0.889   9.032  0.0996  0.0900 -0.2543
 2907SOL    HW120180   4.334   0.897   9.047 -0.3362 -0.8848 -2.3947
 2907SOL    HW220181   4.459   0.856   9.116 -2.4890 -0.8538  0.3429
 2908SOL     OW20182   2.643   2.801   0.308 -0.0781 -0.7586 -0.1868
 2908SOL    HW120183   2.672   2.891   0.295 -2.0583 -0.4230 -2.1555
 2908SOL    HW220184   2.670   2.785   0.399  1.4326 -1.7292 -0.8060
 2909SOL     OW20185   4.519   3.054  12.037  0.0672  0.1273 -0.1544
 2909SOL    HW120186   4.450   3.029  11.976  2.1420 -0.9329 -2.0423
 2909SOL    HW220187   4.478   3.105  12.108  0.2665 -2.6591  1.9599
 2910SOL     OW20188   4.491   4.558   1.420 -0.4947 -0.7162 -0.0628
 2910SOL    HW120189   4.552   4.616   1.465 -1.4906  1.7939 -1.9379
 2910SOL    HW220190   4.432   4.627   1.391  0.3511  1.1808  2.8391
 2911SOL     OW20191   3.842   2.142  13.496 -0.6245  0.4062  0.1580
 2911SOL    HW120192   3.836   2.216  13.435  1.2750  1.3972  1.1820
 2911SOL    HW220193   3.749   2.125  13.512 -1.0802  1.2478 -1.5660
 2912SOL     OW20194   2.496   0.960  10.431  0.8299 -0.0284  0.5909
 2912SOL    HW120195   2.512   0.995  10.519 -1.3044 -0.0685  0.9963
 2912SOL    HW220196   2.450   0.876  10.437 -1.2582  1.1109  0.5700
 2913SOL     OW20197   4.537   2.120   4.778 -0.2276 -0.0136 -0.4315
 2913SOL    HW120198   4.593   2.156   4.709 -0.3498  1.6708  0.3558
 2913SOL    HW220199   4.453   2.104   4.737  0.1329 -2.1894 -0.3646
 2914SOL     OW20200   1.066   0.624   3.505  0.4611  0.6804 -0.5290
 2914SOL    HW120201   1.092   0.655   3.419  0.3515 -1.3087 -1.2795
 2914SOL    HW220202   1.152   0.593   3.534 -0.9251  1.1996  4.2254
 2915SOL     OW20203   1.461   3.953   0.157  0.0460  0.3729 -0.1377
 2915SOL    HW120204   1.476   3.910   0.241 -1.1804 -0.1909 -0.2167
 2915SOL    HW220205   1.398   3.901   0.109  0.4052 -1.2121  1.0964
 2916SOL     OW20206   3.588   1.608   8.670  0.0637 -0.2246  0.0079
 2916SOL    HW120207   3.677   1.640   8.684  0.0149  0.3830 -1.0636
 2916SOL    HW220208   3.542   1.645   8.745 -0.2218  1.2481 -0.8730
 2917SOL     OW20209   0.120   0.986   7.938 -0.6391  0.6087 -0.2299
 2917SOL    HW120210   0.127   1.069   7.892  0.9571  0.8576  0.4498
 2917SOL    HW220211   0.208   0.966   7.969 -1.3767 -4.0821 -1.1004
 2918SOL     OW20212   4.693   3.646   7.826  0.1143 -0.6676 -0.2251
 2918SOL    HW120213   4.702   3.670   7.918 -2.0326  0.6079 -0.3391
 2918SOL    HW220214   4.713   3.553   7.824 -0.8165 -0.8473 -1.1685
 2919SOL     OW20215   4.123   1.773   6.452  0.0717 -0.0430 -0.3316
 2919SOL    HW120216   4.029   1.787   6.460 -0.0809 -0.8690 -0.7242
 2919SOL    HW220217   4.132   1.685   6.488  1.9522  1.2906  2.4096
 2920SOL     OW20218   0.841   3.964   7.450 -0.4611 -0.2882  0.2801
 2920SOL    HW120219   0.779   3.955   7.522 -2.7122  0.1307 -1.6056
 2920SOL    HW220220   0.789   3.927   7.378 -0.1396 -0.3351  0.0755
 2921SOL     OW20221   3.209   0.486   7.412  0.6687  0.5406  0.2338
 2921SOL    HW120222   3.162   0.570   7.412 -1.1226 -0.4598 -1.6197
 2921SOL    HW220223   3.189   0.451   7.325 -2.2685 -0.5215  1.3316
 2922SOL     OW20224   2.942   0.028   6.159  0.1477  0.6196  0.9484
 2922SOL    HW120225   2.904   4.700   6.231 -0.2068  2.4320  2.0843
 2922SOL    HW220226   2.879   0.099   6.145 -2.0852 -1.3503  0.8959
 2923SOL     OW20227   1.673   2.422   2.092  0.2188 -0.2473  0.3919
 2923SOL    HW120228   1.695   2.329   2.086  2.0606  0.0836  2.2740
 2923SOL    HW220229   1.590   2.410   2.137 -0.4619 -1.8558 -1.3189
 2924SOL     OW20230   3.087   2.009   6.845 -0.2438 -0.5378 -0.0318
 2924SOL    HW120231   3.154   1.985   6.781 -1.9952  0.4995 -2.2835
 2924SOL    HW220232   3.120   1.989   6.932 -1.5747  0.2473  0.6601
 2925SOL     OW20233   3.852   0.119  12.140  0.2200  0.5611 -0.0580
 2925SOL    HW120234   3.841   0.083  12.052 -0.5974 -1.8111  1.0165
 2925SOL    HW220235   3.930   0.174  12.128 -0.1163  1.0428 -0.0467
 2926SOL     OW20236   0.357   3.454   3.452 -0.1875 -0.3954 -0.4596
 2926SOL    HW120237   0.341   3.370   3.410 -2.0136  0.9866 -2.4962
 2926SOL    HW220238   0.406   3.503   3.387  0.6305  1.5176  1.5732
 2927SOL     OW20239   2.930   3.399   7.517  0.3058 -0.3670  0.1610
 2927SOL    HW120240   2.922   3.490   7.487  4.8059 -0.8587 -2.5131
 2927SOL    HW220241   2.961   3.416   7.606 -1.1683  2.1089  0.2145
 2928SOL     OW20242   1.707   0.189   7.624  0.8407  0.7204  0.5348
 2928SOL    HW120243   1.638   0.228   7.678 -0.8214 -1.0049 -0.3769
 2928SOL    HW220244   1.714   0.097   7.649 -2.8110  0.1486 -0.6589
 2929SOL     OW20245   3.403   0.958   3.824 -0.8774  0.5998  0.1547
 2929SOL    HW120246   3.376   1.050   3.815 -0.6955  0.6479  0.1059
 2929SOL    HW220247   3.465   0.970   3.896  0.2199 -3.1033 -0.1972
 2930SOL     OW20248   2.589   4.325   3.743 -0.2998  0.2229  0.9085
 2930SOL    HW120249   2.544   4.409   3.731  1.3148  1.0416  0.5199
 2930SOL    HW220250   2.555   4.301   3.829 -0.0190 -1.4658  0.5508
 2931SOL     OW20251   4.549   2.286  10.161 -0.2084  0.2393 -0.3298
 2931SOL    HW120252   4.612   2.356  10.179  1.2034 -0.6555 -1.7839
 2931SOL    HW220253   4.603   2.211  10.185  0.9791  1.0967 -0.3116
 2932SOL     OW20254   2.054   3.783  16.204  0.3083  0.2267  0.2090
 2932SOL    HW120255   2.074   3.815  16.292 -0.8196  1.5676 -0.0308
 2932SOL    HW220256   2.035   3.863  16.155 -0.2808 -1.3386 -2.1016
 2933SOL     OW20257   2.766   1.627   8.851 -0.3684  0.2464  0.4727
 2933SOL    HW120258   2.745   1.645   8.759  0.7502 -1.0518 -0.0324
 2933SOL    HW220259   2.819   1.548   8.839 -3.3716 -1.9065  1.1058
 2934SOL     OW20260   1.458   3.524   7.284  0.0999  0.0719  0.0857
 2934SOL    HW120261   1.535   3.515   7.228  1.6356 -2.3689  2.6063
 2934SOL    HW220262   1.445   3.619   7.278  0.9689  0.3030  1.9430
 2935SOL     OW20263   1.722   1.621  13.473 -0.1799  0.1408  0.2038
 2935SOL    HW120264   1.740   1.629  13.566 -3.0760  0.8191  0.7330
 2935SOL    HW220265   1.736   1.713  13.450  1.1117 -0.1640 -0.2234
 2936SOL     OW20266   4.059   0.950   3.224 -0.2876 -0.3601  0.3593
 2936SOL    HW120267   3.994   0.967   3.156 -1.6809 -1.7030  1.3423
 2936SOL    HW220268   4.031   1.014   3.289 -2.3681 -0.7239 -0.1617
 2937SOL     OW20269   2.274   2.913   4.031  0.4446  0.0852 -0.0934
 2937SOL    HW120270   2.235   2.941   4.114  1.1428 -0.0759  0.2930
 2937SOL    HW220271   2.272   2.817   4.039 -0.5455  0.1909  0.8212
 2938SOL     OW20272   3.125   4.541   6.370  0.2126  0.4620  0.0953
 2938SOL    HW120273   3.061   4.478   6.400  1.5132 -0.8827  0.0470
 2938SOL    HW220274   3.183   4.540   6.447 -1.1456  0.4157  1.1070
 2939SOL     OW20275   2.191   4.231   4.596  0.0482 -0.3357  0.6025
 2939SOL    HW120276   2.156   4.142   4.598 -2.2173  0.5258 -0.2473
 2939SOL    HW220277   2.211   4.244   4.688  0.9978 -1.1408  0.5037
 2940SOL     OW20278   3.232   2.114  11.988 -0.0818  0.1330 -0.1434
 2940SOL    HW120279   3.171   2.093  12.059 -1.8659 -2.2880 -2.3681
 2940SOL    HW220280   3.202   2.199  11.957  0.6760  0.6039  0.4142
 2941SOL     OW20281   0.025   3.661   8.564 -0.6027  0.4265  0.2379
 2941SOL    HW120282   0.023   3.604   8.640  0.8967 -1.9095 -1.5063
 2941SOL    HW220283   0.037   3.744   8.611 -2.2094  1.3619 -0.9935
 2942SOL     OW20284   3.708   0.976   8.988  0.4026 -0.7556  0.1952
 2942SOL    HW120285   3.713   0.999   8.895 -0.1497 -1.1116  0.0773
 2942SOL    HW220286   3.774   1.030   9.031 -0.7402  1.5075 -0.9130
 2943SOL     OW20287   1.766   1.500   2.947 -0.2026 -0.0984 -0.2929
 2943SOL    HW120288   1.758   1.410   2.979 -1.2340 -0.0981 -0.5293
 2943SOL    HW220289   1.861   1.504   2.947 -0.1904 -0.0756 -3.1149
 2944SOL     OW20290   1.765   0.641  16.695  0.5462  0.0155 -0.1403
 2944SOL    HW120291   1.795   0.730  16.675  0.4394  0.2829  0.8745
 2944SOL    HW220292   1.684   0.640  16.645 -0.6656  2.1159  1.7462
 2945SOL     OW20293   1.584   3.825   5.546 -0.3800 -0.2786  0.3292
 2945SOL    HW120294   1.511   3.884   5.528 -0.9655 -0.3835  2.4110
 2945SOL    HW220295   1.539   3.741   5.537  0.0301 -0.4466 -0.1669
 2946SOL     OW20296   4.141   3.420   3.274 -0.6841  0.3153  0.2289
 2946SOL    HW120297   4.133   3.360   3.348 -2.3837 -0.1590 -0.3359
 2946SOL    HW220298   4.177   3.493   3.324  0.1607  0.8799 -1.1921
 2947SOL     OW20299   2.755   1.050   8.883  0.3388 -0.3889  0.4198
 2947SOL    HW120300   2.809   0.972   8.887  1.5810  0.3456 -2.0442
 2947SOL    HW220301   2.691   1.031   8.814 -0.3130  0.6231  0.7382
 2948SOL     OW20302   1.968   2.284   6.433 -0.3793  0.3224 -0.0589
 2948SOL    HW120303   2.020   2.252   6.506  0.2930 -0.8184 -1.0485
 2948SOL    HW220304   1.884   2.277   6.478 -0.4490  0.5319 -0.1568
 2949SOL     OW20305   1.109   3.733   7.440  0.2210 -0.8249 -0.3366
 2949SOL    HW120306   1.144   3.819   7.414  1.3624 -0.3953  2.6550
 2949SOL    HW220307   1.107   3.691   7.354 -0.9913 -1.5843  0.0635
 2950SOL     OW20308   2.646   1.471   2.546 -0.2819 -0.0100 -0.7709
 2950SOL    HW120309   2.653   1.551   2.599 -0.4032 -0.4141 -0.1401
 2950SOL    HW220310   2.565   1.498   2.502 -0.4694 -0.6372 -0.8124
 2951SOL     OW20311   3.799   2.163   6.390  0.2632  0.3957 -0.0339
 2951SOL    HW120312   3.717   2.202   6.360 -0.9431 -1.4849  0.8830
 2951SOL    HW220313   3.819   2.140   6.299  1.3735 -1.0645  0.5895
 2952SOL     OW20314   1.681   2.933  13.956 -0.3731  0.0319  0.1376
 2952SOL    HW120315   1.737   2.866  13.918 -0.0172 -0.1499  0.9926
 2952SOL    HW220316   1.684   3.005  13.893  0.8387 -0.2585 -0.1302
 2953SOL     OW20317   3.322   2.994   5.945 -0.3507 -0.2612 -0.0027
 2953SOL    HW120318   3.410   2.992   5.984 -1.0350  0.9891  1.5626
 2953SOL    HW220319   3.287   2.911   5.978  1.1073 -1.0251 -0.3841
 2954SOL     OW20320   3.248   4.320  15.722  0.0552  0.3548 -0.3715
 2954SOL    HW120321   3.177   4.378  15.751  0.6065  1.6291 -1.6233
 2954SOL    HW220322   3.210   4.301  15.636 -1.5701 -3.1016  1.0889
 2955SOL     OW20323   0.018   0.038   7.987  0.1154  0.1760  0.2260
 2955SOL    HW120324   0.010   0.124   7.947 -1.8046  0.7175  1.7697
 2955SOL    HW220325   0.072   0.058   8.063  1.6967  2.0966 -1.4044
 2956SOL     OW20326   3.152   4.010   4.853  0.1699 -0.7495  0.2519
 2956SOL    HW120327   3.188   3.999   4.941 -2.6807 -1.2644  1.3801
 2956SOL    HW220328   3.106   3.926   4.856 -1.3579  0.0400 -1.6467
 2957SOL     OW20329   1.553   3.631   4.738 -0.1159  0.5588  0.0453
 2957SOL    HW120330   1.499   3.591   4.806  1.4751 -0.2078  0.8368
 2957SOL    HW220331   1.569   3.553   4.685  1.0119  0.1353  1.0370
 2958SOL     OW20332   2.707   3.448   1.909  0.2690  0.1387  0.4334
 2958SOL    HW120333   2.641   3.393   1.951 -0.2127 -0.4152 -1.0766
 2958SOL    HW220334   2.757   3.385   1.857  0.8932  0.9180  0.0949
 2959SOL     OW20335   4.027   3.498  14.878 -0.2870  0.0236  0.2362
 2959SOL    HW120336   3.969   3.434  14.919 -1.2296 -0.2226 -1.4731
 2959SOL    HW220337   3.988   3.586  14.884 -0.6533 -0.2538  2.0812
 2960SOL     OW20338   3.181   1.174  10.539 -0.3254 -0.4392  0.2710
 2960SOL    HW120339   3.230   1.100  10.503  0.9319  0.6735 -0.2957
 2960SOL    HW220340   3.093   1.176  10.500 -0.2293 -2.0696 -0.0158
 2961SOL     OW20341   2.570   2.261   3.945 -0.5779 -0.4005 -0.0493
 2961SOL    HW120342   2.654   2.252   3.900 -0.8281 -3.6390  0.1502
 2961SOL    HW220343   2.523   2.318   3.884 -1.4482 -0.2127  0.8002
 2962SOL     OW20344   4.641   1.359   7.024 -0.0666 -0.1969 -0.3281
 2962SOL    HW120345   4.581   1.418   7.070  3.9927  1.0166  3.4114
 2962SOL    HW220346   4.705   1.418   6.983  0.4100  0.8756  1.9673
 2963SOL     OW20347   2.857   0.688  12.893 -0.2938  0.1592 -0.0087
 2963SOL    HW120348   2.921   0.673  12.963  1.0015 -0.7377 -1.3835
 2963SOL    HW220349   2.802   0.610  12.904 -0.3479  0.1097 -0.6185
 2964SOL     OW20350   1.937   1.997   4.628 -0.0975  0.1958  0.0323
 2964SOL    HW120351   1.906   1.907   4.620 -2.0260  0.7331  1.4869
 2964SOL    HW220352   2.031   1.979   4.630 -0.1404 -0.1807 -1.6219
 2965SOL     OW20353   4.534   0.434   1.909 -0.1129  0.3251 -0.0057
 2965SOL    HW120354   4.482   0.431   1.829  0.2133 -2.5340 -0.1110
 2965SOL    HW220355   4.606   0.372   1.897 -0.0056  0.3863  0.3155
 2966SOL     OW20356   3.146   1.223  15.483  0.1284  0.0849  0.1204
 2966SOL    HW120357   3.193   1.302  15.510 -1.2296  1.0344 -0.2997
 2966SOL    HW220358   3.056   1.249  15.504 -0.9708 -1.2257 -2.9097
 2967SOL     OW20359   4.219   0.881   3.799 -0.5544  0.4975 -0.5167
 2967SOL    HW120360   4.248   0.807   3.745 -0.6652  0.2994 -0.3081
 2967SOL    HW220361   4.146   0.850   3.852 -0.2547  1.4839  0.4691
 2968SOL     OW20362   3.404   0.651   1.282 -0.2344  0.6036  0.5921
 2968SOL    HW120363   3.329   0.595   1.303 -0.3210  0.0986 -1.0582
 2968SOL    HW220364   3.452   0.594   1.222 -0.9613 -0.6091  1.1543
 2969SOL     OW20365   1.779   2.862   1.933 -0.3702 -0.1923  0.0075
 2969SOL    HW120366   1.780   2.879   2.027  2.5451 -1.9444  0.2802
 2969SOL    HW220367   1.712   2.919   1.893 -1.8275 -1.2499  0.9536
 2970SOL     OW20368   0.758   3.173   1.257 -0.0720 -0.1021 -0.3672
 2970SOL    HW120369   0.750   3.181   1.162  1.5606  0.6113 -0.4500
 2970SOL    HW220370   0.833   3.232   1.265  1.1031 -1.5487 -0.6519
 2971SOL     OW20371   3.735   0.623   8.763 -0.1277 -0.0204  0.4715
 2971SOL    HW120372   3.804   0.657   8.820  0.6060  0.7070 -0.8660
 2971SOL    HW220373   3.693   0.560   8.822 -0.2295  0.3781  0.8276
 2972SOL     OW20374   3.293   4.489   2.979 -0.9298  0.5693 -0.1285
 2972SOL    HW120375   3.234   4.528   3.044 -1.5541 -1.1726  0.3560
 2972SOL    HW220376   3.376   4.501   3.025  0.3780  1.2049 -2.6363
 2973SOL     OW20377   4.249   3.617   5.725  0.1449 -0.1049 -0.4184
 2973SOL    HW120378   4.195   3.690   5.755 -0.1696 -0.6713  0.3937
 2973SOL    HW220379   4.264   3.649   5.636 -0.8912 -1.5592 -1.1156
 2974SOL     OW20380   2.311   1.156   7.623 -0.8329 -0.2148  0.0051
 2974SOL    HW120381   2.308   1.129   7.531 -0.6453 -1.3663  0.3350
 2974SOL    HW220382   2.384   1.107   7.661 -0.9314 -0.2251  0.1812
 2975SOL     OW20383   2.086   3.284   2.791  0.2165  0.8222 -0.0864
 2975SOL    HW120384   2.004   3.301   2.746  1.1315 -2.2704 -2.9111
 2975SOL    HW220385   2.069   3.195   2.822 -0.2725  0.9493  0.0132
 2976SOL     OW20386   3.209   0.220   8.875  0.3948 -0.8226  1.0532
 2976SOL    HW120387   3.288   0.262   8.908  1.0045 -0.7898 -0.4354
 2976SOL    HW220388   3.165   0.297   8.839 -0.7490 -1.6111  0.7838
 2977SOL     OW20389   2.855   2.309   2.862 -0.1859  0.5245 -0.5560
 2977SOL    HW120390   2.857   2.349   2.775 -2.9329  0.2050 -0.7445
 2977SOL    HW220391   2.795   2.235   2.855 -1.5233  1.1777  4.1040
 2978SOL     OW20392   0.751   0.501   5.338  0.6228  0.7339  0.9291
 2978SOL    HW120393   0.798   0.418   5.326  0.5222  1.0123 -1.3104
 2978SOL    HW220394   0.824   0.558   5.314 -0.4328  2.2364  1.2879
 2979SOL     OW20395   1.022   2.105   1.346 -0.3363  0.5832  0.9274
 2979SOL    HW120396   1.031   2.059   1.262  1.3602 -2.0279  2.5278
 2979SOL    HW220397   0.978   2.049   1.410 -1.1745 -0.6303 -0.6748
 2980SOL     OW20398   0.072   1.951   3.912  0.4971 -0.9755 -0.4678
 2980SOL    HW120399   0.104   1.982   3.828 -1.6165  0.6961 -0.6649
 2980SOL    HW220400   4.709   1.989   3.923  2.4837  3.6790 -1.0700
 2981SOL     OW20401   4.669   3.069   8.095 -0.5084  0.0590  0.2502
 2981SOL    HW120402   4.691   3.097   8.007 -0.2567 -0.3778  0.1712
 2981SOL    HW220403   4.685   2.976   8.075 -1.5363 -0.3983  1.4888
 2982SOL     OW20404   0.195   1.171  13.429  0.4888 -0.2577  0.2086
 2982SOL    HW120405   0.129   1.145  13.492  0.5211 -2.4135 -0.6584
 2982SOL    HW220406   0.227   1.246  13.479  1.6487  0.3722 -1.4748
 2983SOL     OW20407   1.809   1.346   9.020  0.6512 -0.0658  0.0044
 2983SOL    HW120408   1.738   1.315   9.077 -0.1476 -0.1891 -1.0524
 2983SOL    HW220409   1.827   1.426   9.069 -0.1473 -1.2440  2.2255
 2984SOL     OW20410   2.696   1.296   9.018 -0.5566  0.0127 -0.3798
 2984SOL    HW120411   2.721   1.204   9.009  0.1377  0.0505  1.2907
 2984SOL    HW220412   2.780   1.341   9.028  0.4430 -1.9128 -0.1930
 2985SOL     OW20413   0.514   4.047   1.337  0.1517  0.5351  0.7141
 2985SOL    HW120414   0.522   3.958   1.372 -1.4223 -0.3792 -1.2655
 2985SOL    HW220415   0.490   4.099   1.414 -1.5109  1.6568 -0.5682
 2986SOL     OW20416   4.652   3.716   6.562 -0.4347 -0.1013  0.8404
 2986SOL    HW120417   4.587   3.648   6.546 -2.0768  1.5220  0.6825
 2986SOL    HW220418   0.009   3.666   6.548 -2.7501 -3.5058 -0.3857
 2987SOL     OW20419   4.556   4.092   8.558 -0.0920 -0.2281  0.5756
 2987SOL    HW120420   4.528   4.159   8.620 -0.7688 -0.8479  0.9343
 2987SOL    HW220421   4.542   4.136   8.474  0.2312 -2.1137 -0.4568
 2988SOL     OW20422   1.277   3.683   8.033 -0.6937 -0.2852  0.5223
 2988SOL    HW120423   1.366   3.717   8.042 -0.8772 -0.1121  1.6420
 2988SOL    HW220424   1.278   3.598   8.077 -4.4031 -1.5226 -1.8332
 2989SOL     OW20425   2.930   0.987  10.809  0.6628 -0.3849 -0.6518
 2989SOL    HW120426   2.952   0.904  10.767  1.4405  0.0782 -1.1746
 2989SOL    HW220427   2.883   1.036  10.741 -0.5552 -1.5334 -0.6311
 2990SOL     OW20428   2.733   4.224   4.774  0.2455  0.1676 -0.0786
 2990SOL    HW120429   2.823   4.251   4.755  0.1834 -0.8155 -1.7637
 2990SOL    HW220430   2.745   4.212   4.868  0.2991  0.0409 -0.1017
 2991SOL     OW20431   3.200   0.179   9.168 -0.3452  0.0233  0.1239
 2991SOL    HW120432   3.216   0.273   9.182 -0.6160  0.0078  0.5270
 2991SOL    HW220433   3.292   0.152   9.168 -0.1310  0.7429  3.2076
 2992SOL     OW20434   2.982   2.164   7.437 -0.1109 -0.1388  0.3772
 2992SOL    HW120435   3.009   2.075   7.460 -1.3813 -0.6645 -0.1481
 2992SOL    HW220436   3.028   2.216   7.502  0.3803 -1.5362  1.1410
 2993SOL     OW20437   4.494   2.976   9.861 -0.5700  0.2239 -0.3928
 2993SOL    HW120438   4.564   3.025   9.818 -1.8056  2.4091  0.0970
 2993SOL    HW220439   4.417   2.974   9.805  0.9619 -1.4279 -2.4231
 2994SOL     OW20440   2.930   1.422   5.963  0.1659  0.2065 -0.0165
 2994SOL    HW120441   2.956   1.333   5.941 -0.6197  0.0177 -0.1931
 2994SOL    HW220442   2.870   1.408   6.036 -1.3611 -0.6209 -1.4447
 2995SOL     OW20443   0.588   2.272   3.575  0.4784 -0.0172  0.4497
 2995SOL    HW120444   0.645   2.296   3.501 -1.3069 -2.1441 -1.6266
 2995SOL    HW220445   0.549   2.193   3.537 -0.3618  0.4761  0.2785
 2996SOL     OW20446   0.766   0.226  13.824 -0.2573  1.1642  0.2976
 2996SOL    HW120447   0.699   0.266  13.768 -1.1602 -0.6614  0.0550
 2996SOL    HW220448   0.726   0.139  13.834  2.5933 -0.1585  0.1191
 2997SOL     OW20449   4.491   1.834   8.507 -0.1620  0.4821  0.1405
 2997SOL    HW120450   4.477   1.739   8.507 -0.1242  0.4833 -1.5209
 2997SOL    HW220451   4.585   1.848   8.520 -0.1849 -0.9627  1.9882
 2998SOL     OW20452   0.369   3.375   6.593 -0.4188  0.6613 -0.2303
 2998SOL    HW120453   0.370   3.310   6.523  0.3523  0.0969  0.3107
 2998SOL    HW220454   0.291   3.344   6.639 -0.0087 -0.8385 -0.5659
 2999SOL     OW20455   3.906   1.618   1.092  0.3064  0.4103  0.8811
 2999SOL    HW120456   3.962   1.612   1.170 -1.9545 -2.0288  2.3107
 2999SOL    HW220457   3.887   1.525   1.077 -2.0717  1.2535 -1.1748
 3000SOL     OW20458   1.706   0.707   2.061  0.2689  0.1683  0.9201
 3000SOL    HW120459   1.766   0.677   1.993  1.5503  1.9795  1.2692
 3000SOL    HW220460   1.623   0.720   2.013 -0.5816 -1.3706  1.9552
 3001SOL     OW20461   0.224   2.016  14.612 -0.5191  0.0430  0.0105
 3001SOL    HW120462   0.208   2.088  14.673  0.0417  0.8085 -0.7419
 3001SOL    HW220463   0.245   2.062  14.531  0.9703  0.3595  0.5732
 3002SOL     OW20464   0.589   3.673   3.448  0.2900 -0.0497  0.1066
 3002SOL    HW120465   0.520   3.722   3.403 -1.1342 -3.3838 -1.3607
 3002SOL    HW220466   0.607   3.742   3.512  0.5098  0.5156 -0.5581
 3003SOL     OW20467   3.737   3.447   4.032  0.0975 -0.6167  0.0306
 3003SOL    HW120468   3.725   3.354   4.011 -2.5021  0.5814 -3.8024
 3003SOL    HW220469   3.660   3.462   4.088  0.9537  1.4659  0.6527
 3004SOL     OW20470   4.588   0.870   4.057 -0.1865  0.0134 -0.0683
 3004SOL    HW120471   4.556   0.948   4.012  0.4755 -1.0352 -2.3693
 3004SOL    HW220472   4.668   0.847   4.011 -1.0869 -1.2814 -0.9848
 3005SOL     OW20473   2.540   1.002   6.863 -0.6199 -0.3778 -0.2977
 3005SOL    HW120474   2.447   1.027   6.868 -0.8423 -1.8394  2.5913
 3005SOL    HW220475   2.542   0.924   6.919  2.2671 -1.2548 -1.6548
 3006SOL     OW20476   4.535   0.854   2.774 -0.0151  0.0125  0.8332
 3006SOL    HW120477   4.597   0.800   2.822  1.4344 -1.4425 -2.6488
 3006SOL    HW220478   4.465   0.789   2.765  0.2005 -0.3201  1.5917
 3007SOL     OW20479   0.573   4.549   2.804  0.6963  0.2339  0.4254
 3007SOL    HW120480   0.635   4.614   2.771 -0.3854  0.2805 -1.5373
 3007SOL    HW220481   0.497   4.608   2.806 -0.2351 -0.9053 -1.1769
 3008SOL     OW20482   4.195   4.202  13.431 -0.2023  0.0387  0.5893
 3008SOL    HW120483   4.207   4.122  13.380 -0.7379  1.0358 -1.1245
 3008SOL    HW220484   4.254   4.176  13.502  1.9859  1.3495 -0.7456
 3009SOL     OW20485   0.171   0.634   7.469 -0.3467 -0.0717 -0.1680
 3009SOL    HW120486   0.116   0.688   7.413 -0.5338 -0.9841 -0.8612
 3009SOL    HW220487   0.106   0.578   7.510 -0.6994  0.7166  0.3321
 3010SOL     OW20488   1.772   4.668   8.006  0.3904  0.2942 -0.9586
 3010SOL    HW120489   1.805   0.030   7.980  0.3721  0.1578 -1.4425
 3010SOL    HW220490   1.845   4.650   8.065  0.7731  0.2397 -1.4512
 3011SOL     OW20491   0.165   3.813   2.389 -1.0300  0.3092  0.0809
 3011SOL    HW120492   0.227   3.772   2.449  0.3467  0.2241 -1.4166
 3011SOL    HW220493   0.198   3.793   2.301  0.0088 -2.9153  1.2009
 3012SOL     OW20494   3.927   4.132   2.714  0.2667  0.0426  0.2786
 3012SOL    HW120495   3.886   4.208   2.756  1.3498  1.8808 -2.0132
 3012SOL    HW220496   4.006   4.174   2.680  0.2800  1.1246  1.6193
 3013SOL     OW20497   3.253   1.547   7.616 -0.0577 -0.6540  0.0482
 3013SOL    HW120498   3.246   1.616   7.550  1.0243 -1.9738 -1.4396
 3013SOL    HW220499   3.182   1.483   7.607 -0.5332  0.4471 -4.3683
 3014SOL     OW20500   1.310   2.663  14.412 -0.1479 -0.3325  0.7927
 3014SOL    HW120501   1.289   2.756  14.418  1.5808  0.0467  1.0626
 3014SOL    HW220502   1.332   2.644  14.503 -0.2364 -0.7496  0.7265
 3015SOL     OW20503   0.277   0.660   8.765  0.1998 -0.1289 -0.3272
 3015SOL    HW120504   0.347   0.715   8.800  0.7145  0.5419 -2.4094
 3015SOL    HW220505   0.270   0.694   8.675 -1.1683 -0.1444 -0.2216
 3016SOL     OW20506   0.325   1.354  14.089  0.0744 -0.1540 -0.0473
 3016SOL    HW120507   0.320   1.330  14.182 -2.7384  0.6699  0.0256
 3016SOL    HW220508   0.286   1.281  14.041 -1.0022  0.8073 -0.6486
 3017SOL     OW20509   2.415   2.373   0.403 -0.1283  0.3883 -0.1841
 3017SOL    HW120510   2.490   2.371   0.463  0.2911 -0.4340 -0.7358
 3017SOL    HW220511   2.366   2.298   0.434  0.6394  0.7776  1.9669
 3018SOL     OW20512   0.938   3.941  12.424 -0.2061  0.1482 -0.3577
 3018SOL    HW120513   1.033   3.944  12.421 -0.1941  0.7479  0.4197
 3018SOL    HW220514   0.922   3.928  12.331 -1.6838  2.1844 -0.3851
 3019SOL     OW20515   2.311   3.051   7.729 -0.1438 -0.5163  0.3325
 3019SOL    HW120516   2.313   3.017   7.818 -1.3159  1.6379  1.1714
 3019SOL    HW220517   2.386   3.110   7.725 -0.3476 -0.1826  1.4054
 3020SOL     OW20518   1.990   3.814   8.285  0.3219 -0.3308  0.0680
 3020SOL    HW120519   2.039   3.756   8.343  0.7471  0.5978  0.6427
 3020SOL    HW220520   1.967   3.894   8.332 -1.3615 -2.0308  2.1619
 3021SOL     OW20521   2.697   3.111   6.098 -0.2170 -0.3775  0.4103
 3021SOL    HW120522   2.719   3.194   6.056 -1.4039  0.6212  1.7620
 3021SOL    HW220523   2.611   3.133   6.133  0.0425 -1.0450  1.4699
 3022SOL     OW20524   3.000   3.862   3.373  0.3558  0.0298  0.4113
 3022SOL    HW120525   3.053   3.941   3.380 -0.1557  0.5407 -1.7072
 3022SOL    HW220526   2.919   3.889   3.329 -0.0940 -2.4879 -0.2713
 3023SOL     OW20527   0.939   1.956   8.744 -0.1422 -0.0968  0.1442
 3023SOL    HW120528   0.873   1.955   8.813  0.0742  1.9530  0.3743
 3023SOL    HW220529   0.984   1.875   8.765 -1.0897  0.0568  2.7150
 3024SOL     OW20530   3.554   4.137   2.076 -0.5627 -0.3618 -0.3533
 3024SOL    HW120531   3.584   4.179   1.996 -2.7911 -0.7860 -1.4235
 3024SOL    HW220532   3.623   4.140   2.143 -1.7508  0.8969  0.8261
 3025SOL     OW20533   0.971   3.833   6.433 -0.3246  0.8070  0.3367
 3025SOL    HW120534   0.967   3.746   6.473 -1.3277  0.6751 -0.0411
 3025SOL    HW220535   1.003   3.887   6.505 -2.3535  0.6217  1.3697
 3026SOL     OW20536   1.510   0.087   4.243 -0.3381 -0.4198 -0.4118
 3026SOL    HW120537   1.428   0.087   4.292 -0.0920  1.1221  0.0164
 3026SOL    HW220538   1.546   0.172   4.270  2.0676 -1.2711 -0.9034
 3027SOL     OW20539   0.648   2.445   7.932  0.0357 -0.3165  0.0029
 3027SOL    HW120540   0.652   2.517   7.995 -0.8349  0.1998 -0.5179
 3027SOL    HW220541   0.558   2.415   7.941 -0.6445  1.4606 -0.8805
 3028SOL     OW20542   2.671   3.307   0.981 -0.4039  0.3939 -0.6718
 3028SOL    HW120543   2.647   3.299   0.889 -1.0335 -0.4992 -0.4303
 3028SOL    HW220544   2.713   3.393   0.983 -2.3630  1.3344 -0.1677
 3029SOL     OW20545   1.128   4.576   2.016  0.3831 -0.2326 -0.5205
 3029SOL    HW120546   1.199   4.569   1.952  1.1607 -0.6345  0.3767
 3029SOL    HW220547   1.166   4.537   2.095 -0.0388  2.0139  0.8222
 3030SOL     OW20548   0.358   0.594   4.988  0.3327 -0.0693 -0.1995
 3030SOL    HW120549   0.404   0.564   4.910  1.0070  0.0244  0.1635
 3030SOL    HW220550   0.429   0.609   5.050  1.8985  0.6755 -2.1641
 3031SOL     OW20551   3.981   0.860   1.203  0.3837 -0.0238  0.4118
 3031SOL    HW120552   4.044   0.837   1.272  2.2199 -1.2125 -1.6948
 3031SOL    HW220553   4.019   0.808   1.133 -2.7675 -1.4922 -0.2014
 3032SOL     OW20554   3.806   0.114   5.538  0.3726  0.2175  0.2222
 3032SOL    HW120555   3.878   0.065   5.578  1.3912  1.0596 -0.5979
 3032SOL    HW220556   3.854   0.190   5.505  1.1093 -0.1525  0.4426
 3033SOL     OW20557   3.823   4.470   6.003 -0.2342  0.0197 -0.7335
 3033SOL    HW120558   3.886   4.509   6.063 -0.0332 -2.7961  0.8821
 3033SOL    HW220559   3.739   4.464   6.049 -0.0508 -0.9393 -0.5230
 3034SOL     OW20560   1.516   2.229   8.992 -0.1769  0.1190 -0.0877
 3034SOL    HW120561   1.446   2.207   9.054  2.6540 -0.9804  2.7207
 3034SOL    HW220562   1.590   2.246   9.050 -1.1565  1.4203  0.7768
 3035SOL     OW20563   3.380   2.942   6.886 -0.0765  0.1974  0.0086
 3035SOL    HW120564   3.472   2.931   6.861 -0.7982 -3.0496 -1.2253
 3035SOL    HW220565   3.366   3.035   6.907 -1.3577  0.1397 -0.5389
 3036SOL     OW20566   3.540   4.690   7.786  0.2917 -0.3199  0.4716
 3036SOL    HW120567   3.625   0.004   7.807  0.5840 -1.3644  1.1634
 3036SOL    HW220568   3.570   4.599   7.781  0.0632 -0.3836  0.2477
 3037SOL     OW20569   4.672   2.952   0.148  0.3151 -0.5524  0.4711
 3037SOL    HW120570   4.685   2.857   0.150 -1.5908 -0.8120  0.5604
 3037SOL    HW220571   4.662   2.955   0.243 -0.4109  0.4567  0.3562
 3038SOL     OW20572   3.795   3.402   8.916  0.4044 -0.2525  0.6911
 3038SOL    HW120573   3.762   3.432   9.001 -0.7227 -1.6329  0.7470
 3038SOL    HW220574   3.883   3.440   8.915  1.9559 -3.8843 -1.8741
 3039SOL     OW20575   1.868   4.227   3.797 -0.1921  0.3475 -0.6050
 3039SOL    HW120576   1.896   4.138   3.777 -0.3705  0.0714  0.4011
 3039SOL    HW220577   1.829   4.257   3.714 -2.0154  0.0283  0.1295
 3040SOL     OW20578   2.139   2.879   6.589  1.0178  0.6205  0.0251
 3040SOL    HW120579   2.129   2.948   6.655 -2.5691 -0.6583  0.8175
 3040SOL    HW220580   2.218   2.904   6.541  1.7038  0.8471  1.2485
 3041SOL     OW20581   0.208   2.278   8.561  0.2274 -0.1715  0.1682
 3041SOL    HW120582   0.157   2.235   8.492 -1.2754 -0.8392  1.6913
 3041SOL    HW220583   0.183   2.242   8.646  0.3675 -2.4956 -0.7786
 3042SOL     OW20584   4.391   1.838   7.957 -0.0853  0.0477 -0.0977
 3042SOL    HW120585   4.412   1.767   8.017 -0.7158  0.4711  0.6338
 3042SOL    HW220586   4.326   1.890   8.005 -0.1456 -0.2573  0.1509
 3043SOL     OW20587   3.374   4.645   6.319  0.3385  0.3833  0.1263
 3043SOL    HW120588   3.378   4.593   6.399 -0.9286  0.8813  0.5281
 3043SOL    HW220589   3.280   4.632   6.303  0.2517  0.3088  0.6860
 3044SOL     OW20590   1.007   1.174   9.056 -0.0668  0.3485 -0.7975
 3044SOL    HW120591   0.996   1.096   9.111  0.2773  0.0033 -1.2127
 3044SOL    HW220592   1.097   1.204   9.064  0.3263 -0.8200 -0.8901
 3045SOL     OW20593   2.902   0.472   4.277  0.6933 -0.1083 -0.0072
 3045SOL    HW120594   2.828   0.411   4.273  0.2955  0.3592  0.1575
 3045SOL    HW220595   2.979   0.417   4.292  1.5822  1.2244  0.2819
 3046SOL     OW20596   2.055   0.020   7.930  0.1037  0.1668  0.0164
 3046SOL    HW120597   2.102   0.092   7.886  0.1009 -0.1307 -0.4753
 3046SOL    HW220598   2.114   4.670   7.914 -0.8627 -0.7099  0.5066
 3047SOL     OW20599   2.952   0.125   9.774  0.4863  0.0527  0.1089
 3047SOL    HW120600   3.032   0.076   9.756 -0.0171 -0.0702 -1.8350
 3047SOL    HW220601   2.900   0.078   9.709  0.4122 -1.3209  1.1731
 3048SOL     OW20602   4.536   3.829   6.810  0.2989 -0.1029  0.1110
 3048SOL    HW120603   4.548   3.805   6.718  0.4622 -1.2069  0.4190
 3048SOL    HW220604   4.603   3.775   6.852  0.4983 -1.7348 -2.2969
 3049SOL     OW20605   0.777   2.775   1.830  0.7628 -0.8394 -0.6280
 3049SOL    HW120606   0.718   2.820   1.770  0.3114 -0.6751 -0.0615
 3049SOL    HW220607   0.865   2.784   1.792  0.7362  1.3521 -0.1512
 3050SOL     OW20608   2.275   1.914   7.436  0.2973 -0.2342  0.4031
 3050SOL    HW120609   2.332   1.887   7.508  1.3002  0.1855 -0.2307
 3050SOL    HW220610   2.346   1.944   7.380 -0.9769  1.1952 -0.4546
 3051SOL     OW20611   4.576   3.634   9.050  0.4455  0.1505  0.3716
 3051SOL    HW120612   4.507   3.683   9.094 -2.6753 -0.7519 -3.5118
 3051SOL    HW220613   4.634   3.704   9.018  0.1755 -0.1729 -0.8133
 3052SOL     OW20614   1.563   1.503   6.322 -0.7866  0.4588  0.4166
 3052SOL    HW120615   1.572   1.418   6.277  1.9344 -0.1461  2.1309
 3052SOL    HW220616   1.536   1.557   6.247  3.0298  0.9974 -0.5616
 3053SOL     OW20617   1.114   3.348   8.276  0.5665  0.4045 -0.1969
 3053SOL    HW120618   1.184   3.349   8.341 -0.3381 -3.1923  0.8328
 3053SOL    HW220619   1.052   3.397   8.330  0.3461  0.7885 -0.7995
 3054SOL     OW20620   3.958   4.202   8.268 -0.1255  0.5018 -0.2902
 3054SOL    HW120621   4.039   4.207   8.319  0.1814  0.3101 -0.7599
 3054SOL    HW220622   3.882   4.205   8.327 -0.0159 -0.8250 -0.0643
 3055SOL     OW20623   3.631   2.649   8.905 -0.3245  0.2188 -0.3607
 3055SOL    HW120624   3.662   2.722   8.851  2.1023 -0.6311 -0.0902
 3055SOL    HW220625   3.603   2.594   8.832  2.2865  0.5962 -1.6148
 3056SOL     OW20626   3.447   3.306   3.917 -0.7191  0.3011  0.6203
 3056SOL    HW120627   3.400   3.280   3.997 -1.9983 -1.0750 -0.5893
 3056SOL    HW220628   3.371   3.314   3.860  0.2440 -1.7695 -0.9172
 3057SOL     OW20629   4.409   0.873  13.502  0.6471  0.7009  0.3117
 3057SOL    HW120630   4.477   0.813  13.473  0.7113  2.0442 -2.2647
 3057SOL    HW220631   4.441   0.962  13.491 -0.6368  0.9298 -1.6455
 3058SOL     OW20632   1.287   2.901   7.282 -0.6507  0.1037 -0.2481
 3058SOL    HW120633   1.326   2.851   7.210 -0.1863 -2.2908  1.6275
 3058SOL    HW220634   1.196   2.885   7.257 -0.3528 -1.6085 -0.2985
 3059SOL     OW20635   1.233   1.316   5.544  0.5324 -0.4058  0.2949
 3059SOL    HW120636   1.293   1.356   5.482  2.0629 -0.5512  1.6969
 3059SOL    HW220637   1.270   1.228   5.546 -0.9980 -1.0638 -0.3457
 3060SOL     OW20638   0.845   2.364   2.650 -0.2028 -0.3037  0.0199
 3060SOL    HW120639   0.897   2.308   2.591  0.8039  0.1413  0.4857
 3060SOL    HW220640   0.794   2.423   2.594 -0.3964 -1.4139 -0.9788
 3061SOL     OW20641   2.957   0.336  16.453  0.4827 -0.1205  0.0847
 3061SOL    HW120642   2.978   0.251  16.491 -1.6941 -1.4053 -1.6144
 3061SOL    HW220643   3.042   0.373  16.431  0.8176  0.7326  2.7896
 3062SOL     OW20644   1.947   1.345  12.665  0.5960 -0.1254  0.0324
 3062SOL    HW120645   1.898   1.268  12.694  1.7030 -1.8427 -2.7064
 3062SOL    HW220646   2.026   1.309  12.626 -0.5193  0.5080 -2.8115
 3063SOL     OW20647   3.371   1.587   5.142 -0.3358 -0.4368 -0.2663
 3063SOL    HW120648   3.275   1.585   5.140 -0.3576  0.4240 -0.1353
 3063SOL    HW220649   3.405   1.517   5.198  1.6939  1.7160  1.1728
 3064SOL     OW20650   4.006   3.508   3.893  0.4971 -0.1151 -0.8465
 3064SOL    HW120651   4.076   3.451   3.926  1.5740  2.1632  0.7978
 3064SOL    HW220652   3.968   3.530   3.978  0.1621 -0.4849 -0.8999
 3065SOL     OW20653   2.423   0.288   4.559 -0.3293  0.0309 -0.2621
 3065SOL    HW120654   2.384   0.375   4.545 -0.2649 -0.0297 -0.8349
 3065SOL    HW220655   2.449   0.260   4.471  2.7689  1.9030  0.0502
 3066SOL     OW20656   4.392   4.190   4.501  0.5582 -0.4702 -0.0083
 3066SOL    HW120657   4.414   4.273   4.543 -1.8866  0.8117 -1.2351
 3066SOL    HW220658   4.313   4.203   4.448  0.6003 -1.0872 -0.2255
 3067SOL     OW20659   0.678   1.989   3.365  0.1291  0.1726  0.0349
 3067SOL    HW120660   0.711   2.075   3.340  0.4663 -0.8341 -2.9906
 3067SOL    HW220661   0.609   2.011   3.428  1.4370 -0.6084  1.7157
 3068SOL     OW20662   1.099   4.545  13.248  0.3482 -0.1391 -0.2740
 3068SOL    HW120663   1.167   4.567  13.311  0.1696  1.0748 -0.5030
 3068SOL    HW220664   1.043   4.485  13.297  0.2612 -1.0952 -1.5436
 3069SOL     OW20665   1.634   2.003   4.922 -0.6894 -0.3603 -0.6311
 3069SOL    HW120666   1.601   2.074   4.977  0.2450 -0.0019 -0.5455
 3069SOL    HW220667   1.727   2.012   4.940 -0.3168 -0.2069 -2.6900
 3070SOL     OW20668   3.601   4.313   8.757 -0.6841  0.1496  0.3499
 3070SOL    HW120669   3.560   4.335   8.841  0.9978 -1.2648  1.5376
 3070SOL    HW220670   3.587   4.394   8.708  2.9310  1.4361  1.4566
 3071SOL     OW20671   0.625   2.241   8.716  0.0702 -0.3009  0.3991
 3071SOL    HW120672   0.584   2.319   8.754  1.2680  0.8298 -0.6143
 3071SOL    HW220673   0.605   2.166   8.772 -0.9046  0.6539  1.3160
 3072SOL     OW20674   1.476   3.663  10.407  0.1277  0.4275 -0.4555
 3072SOL    HW120675   1.489   3.728  10.338 -1.2496  0.5470 -0.6081
 3072SOL    HW220676   1.455   3.585  10.356 -0.0930  0.5289 -0.5190
 3073SOL     OW20677   1.999   1.568   6.946  0.2692 -0.2677  0.3056
 3073SOL    HW120678   1.904   1.579   6.948  0.3087  0.0880  0.1697
 3073SOL    HW220679   2.013   1.616   6.865 -1.8823  2.7136  1.6884
 3074SOL     OW20680   3.054   2.136   8.734 -0.2335 -0.6005  0.3584
 3074SOL    HW120681   3.016   2.121   8.647 -1.6813  0.6511  0.7907
 3074SOL    HW220682   3.015   2.066   8.787 -0.8018 -0.2735  0.3699
 3075SOL     OW20683   3.494   0.778   5.145  0.4210  0.0641  0.2611
 3075SOL    HW120684   3.476   0.714   5.214  0.4108 -0.0070  0.1916
 3075SOL    HW220685   3.436   0.852   5.163 -0.7588 -0.9341  0.5227
 3076SOL     OW20686   2.338   2.263  12.926 -0.3949  0.5619  0.5690
 3076SOL    HW120687   2.245   2.278  12.911 -0.4598 -1.3090 -0.9725
 3076SOL    HW220688   2.350   2.334  12.989  1.7921  1.1960 -0.5271
 3077SOL     OW20689   2.330   0.882   8.258  0.0499  0.0594  0.0775
 3077SOL    HW120690   2.337   0.977   8.258  0.5239  0.0301 -1.3251
 3077SOL    HW220691   2.241   0.874   8.294  0.6634  1.8179  1.9585
 3078SOL     OW20692   2.123   2.106  16.683  0.1731  0.2342 -1.1396
 3078SOL    HW120693   2.135   2.072  16.772  1.2882 -2.3845 -2.2841
 3078SOL    HW220694   2.028   2.116  16.684  0.1491 -0.1687  0.7571
 3079SOL     OW20695   2.764   0.493   5.927 -0.2697  0.4661  0.2349
 3079SOL    HW120696   2.715   0.508   6.008 -2.1594 -1.6854 -0.5038
 3079SOL    HW220697   2.792   0.402   5.938  0.3823  0.6290 -0.0723
 3080SOL     OW20698   4.014   1.965  11.254  0.3864  0.2504  0.0031
 3080SOL    HW120699   4.100   1.988  11.289  0.8284 -1.4641  0.0427
 3080SOL    HW220700   3.973   2.052  11.260  2.5582  1.2666  0.1250
 3081SOL     OW20701   0.676   3.470   2.393  0.2355 -0.2735 -0.0057
 3081SOL    HW120702   0.634   3.385   2.378 -1.0795  0.4279 -0.3092
 3081SOL    HW220703   0.733   3.431   2.458  1.5281  0.3272 -0.7771
 3082SOL     OW20704   3.685   2.958   0.998  0.1941 -0.1809 -0.3436
 3082SOL    HW120705   3.618   2.980   1.062 -0.6088  1.2127 -1.6693
 3082SOL    HW220706   3.761   3.009   1.025  0.0174  0.2713 -0.6960
 3083SOL     OW20707   3.546   3.144   0.425 -0.1252  0.4222 -0.2987
 3083SOL    HW120708   3.511   3.161   0.337  1.3207  1.8947 -0.5861
 3083SOL    HW220709   3.569   3.230   0.461 -1.9087 -0.1749  2.3106
 3084SOL     OW20710   0.206   1.533   3.631 -0.2131  0.2720 -0.3888
 3084SOL    HW120711   0.137   1.591   3.599  0.4505 -0.5537 -3.3276
 3084SOL    HW220712   0.230   1.494   3.546 -0.2135  1.5799 -0.9888
 3085SOL     OW20713   2.154   1.778   5.140  0.3853 -0.2693  0.2220
 3085SOL    HW120714   2.184   1.824   5.061  1.5548  0.6361  1.1953
 3085SOL    HW220715   2.162   1.842   5.210  2.9383 -0.5826  0.2236
 3086SOL     OW20716   2.856   0.475   5.533 -0.2901 -0.1564  0.4286
 3086SOL    HW120717   2.834   0.403   5.593 -0.1585 -0.6419 -0.0992
 3086SOL    HW220718   2.800   0.447   5.460 -0.0832 -0.4272  0.3743
 3087SOL     OW20719   3.120   4.530  11.737  0.3786 -0.1331 -0.4547
 3087SOL    HW120720   3.138   4.562  11.648  0.4602  0.0865 -0.3595
 3087SOL    HW220721   3.189   4.464  11.742 -1.1031 -1.3892  2.9391
 3088SOL     OW20722   4.038   2.266  13.928 -0.3237  0.4589 -0.2201
 3088SOL    HW120723   3.946   2.288  13.915 -0.5811 -0.8674 -0.6515
 3088SOL    HW220724   4.030   2.171  13.928  0.6134  0.3711  0.6449
 3089SOL     OW20725   3.000   3.156   3.481 -0.3064  0.2371 -0.4548
 3089SOL    HW120726   3.059   3.218   3.439 -0.2467 -0.0761 -0.8332
 3089SOL    HW220727   2.930   3.148   3.417 -0.3110 -2.3210 -0.1541
 3090SOL     OW20728   0.468   0.919   6.444  0.5330 -0.2488 -0.3163
 3090SOL    HW120729   0.477   0.834   6.488 -0.0886  0.8007  1.8757
 3090SOL    HW220730   0.381   0.935   6.483  0.4525 -0.4427 -0.4131
 3091SOL     OW20731   4.674   1.625  13.441  0.1159  0.1145 -0.1057
 3091SOL    HW120732   4.710   1.634  13.530  0.4465  0.4529 -0.2707
 3091SOL    HW220733   0.013   1.685  13.400  0.3864  0.1293  0.3313
 3092SOL     OW20734   0.902   2.864  15.177  0.1874 -0.1602  0.2525
 3092SOL    HW120735   0.923   2.902  15.092 -1.2215 -3.5104 -1.5863
 3092SOL    HW220736   0.889   2.776  15.143 -1.9042  0.6126 -0.9324
 3093SOL     OW20737   1.704   0.239  16.863 -0.2379  0.3845  0.0638
 3093SOL    HW120738   1.625   0.192  16.836  1.2692 -1.9279 -0.3142
 3093SOL    HW220739   1.671   0.309  16.919 -0.3014 -0.8034  1.4917
 3094SOL     OW20740   0.664   3.257  11.499 -0.1878  0.0050 -0.1644
 3094SOL    HW120741   0.645   3.305  11.580 -0.6272 -0.5851  0.0900
 3094SOL    HW220742   0.706   3.179  11.535 -1.1332  0.1851  1.3723
 3095SOL     OW20743   0.009   1.286   0.814  0.4675 -0.1425  0.3409
 3095SOL    HW120744   0.039   1.346   0.882  0.3251  1.0710 -0.6705
 3095SOL    HW220745   0.016   1.346   0.740  0.0554  0.5268  0.8460
 3096SOL     OW20746   3.482   3.310   5.439 -0.7099 -0.4335  0.0091
 3096SOL    HW120747   3.472   3.360   5.358 -0.9508 -1.9072 -0.8696
 3096SOL    HW220748   3.401   3.258   5.444 -1.8503  1.2680 -0.5082
 3097SOL     OW20749   3.498   1.798  15.678 -0.0918 -0.6583  0.0872
 3097SOL    HW120750   3.429   1.840  15.626  1.3511  1.3578 -0.2079
 3097SOL    HW220751   3.576   1.851  15.661 -0.3227 -0.0529  0.9330
 3098SOL     OW20752   2.014   4.549   9.414 -0.0213  0.1176  0.0569
 3098SOL    HW120753   1.959   4.584   9.485 -0.3808  1.6249 -0.9696
 3098SOL    HW220754   2.040   4.631   9.373  0.3161 -0.5195 -1.0146
 3099SOL     OW20755   4.626   4.572   7.813  0.3845 -0.4890 -0.6589
 3099SOL    HW120756   4.588   4.511   7.877  0.7101 -0.3981 -0.3785
 3099SOL    HW220757   4.677   4.628   7.872  0.4808 -0.8783 -0.3727
 3100SOL     OW20758   0.559   1.108   7.223 -0.1838  0.4092 -0.0254
 3100SOL    HW120759   0.642   1.148   7.249 -0.1060 -0.1573  0.5696
 3100SOL    HW220760   0.579   1.015   7.215  1.8294  0.8391 -0.1176
 3101SOL     OW20761   4.099   1.766   7.831  0.2837 -0.2410 -0.4158
 3101SOL    HW120762   4.183   1.797   7.864 -0.3972 -0.6621  1.6882
 3101SOL    HW220763   4.112   1.802   7.743  1.2398 -0.4875 -0.3768
 3102SOL     OW20764   2.369   0.188   6.385 -0.0633 -0.4259  0.0301
 3102SOL    HW120765   2.445   0.143   6.422  0.6572  0.2712 -0.6086
 3102SOL    HW220766   2.323   0.114   6.345 -2.2145  0.9149  0.0136
 3103SOL     OW20767   2.544   3.216   7.743  0.4643  0.3691  0.1844
 3103SOL    HW120768   2.493   3.265   7.679 -1.8200 -1.8155  0.3635
 3103SOL    HW220769   2.495   3.235   7.823  1.1937 -2.1873  1.2502
 3104SOL     OW20770   0.943   0.749   2.154  0.2389 -0.5559 -0.4302
 3104SOL    HW120771   1.022   0.793   2.183 -1.4076  1.5906  0.8036
 3104SOL    HW220772   0.960   0.655   2.165  1.8325 -0.1410  0.6237
 3105SOL     OW20773   1.457   2.155   6.323 -0.3459 -0.2472  0.3136
 3105SOL    HW120774   1.513   2.170   6.399 -1.5514 -0.0424  1.1685
 3105SOL    HW220775   1.445   2.244   6.290 -2.8977  0.0365  2.0236
 3106SOL     OW20776   3.644   2.788  14.899 -0.4026 -0.2168  0.0140
 3106SOL    HW120777   3.726   2.743  14.915 -0.0297  0.1360 -0.8832
 3106SOL    HW220778   3.580   2.743  14.954 -0.5006 -1.4438 -1.1252
 3107SOL     OW20779   0.431   0.285   4.884  0.1714 -0.4156  0.5378
 3107SOL    HW120780   0.485   0.206   4.897 -1.8465 -2.1225 -1.4619
 3107SOL    HW220781   0.492   0.342   4.837 -0.8452  0.6787  0.5457
 3108SOL     OW20782   3.949   2.945   0.773 -0.4635  0.1867  0.0219
 3108SOL    HW120783   3.910   2.952   0.686  2.3136 -0.4189 -1.2703
 3108SOL    HW220784   3.887   2.894   0.826 -1.0016  0.3490 -0.4588
 3109SOL     OW20785   0.272   4.185   9.193 -0.1151  0.3144  0.2198
 3109SOL    HW120786   0.244   4.268   9.230  2.1189  1.0940  0.1571
 3109SOL    HW220787   0.186   4.166   9.155  0.7444  0.9851 -2.0995
 3110SOL     OW20788   0.998   4.617   5.747 -0.4056  0.4427 -0.3176
 3110SOL    HW120789   1.066   4.642   5.810 -2.2118 -0.3144  1.9192
 3110SOL    HW220790   0.922   4.592   5.799  1.2901 -1.3080  1.3278
 3111SOL     OW20791   1.360   1.624   8.063 -0.1674  0.4589 -0.1223
 3111SOL    HW120792   1.292   1.681   8.028 -0.4761  0.0374 -0.2039
 3111SOL    HW220793   1.309   1.598   8.140  0.3263  0.1634  0.1064
 3112SOL     OW20794   4.558   2.372   3.555  0.2631 -0.1340  0.2064
 3112SOL    HW120795   4.586   2.281   3.566 -1.8718 -0.5927  1.7499
 3112SOL    HW220796   4.631   2.404   3.501 -0.3536  2.0672  0.6847
 3113SOL     OW20797   3.227   0.791   2.930  0.7344  0.1823  0.0966
 3113SOL    HW120798   3.209   0.742   2.850 -1.2876  1.0125  0.0474
 3113SOL    HW220799   3.208   0.884   2.917  0.4389 -0.1334 -1.8099
 3114SOL     OW20800   2.013   0.135   8.993  0.4479 -0.3201  0.7752
 3114SOL    HW120801   1.929   0.179   8.982  0.7426 -0.3147 -1.5292
 3114SOL    HW220802   2.026   0.102   8.904  1.4190 -0.9764  1.1628
 3115SOL     OW20803   3.506   0.819   9.050  0.0566  0.7014 -0.3299
 3115SOL    HW120804   3.456   0.899   9.069 -1.1189  0.0407 -0.6099
 3115SOL    HW220805   3.584   0.874   9.043  1.2464 -0.6601  2.1264
 3116SOL     OW20806   2.403   0.402  10.598 -0.0191 -0.4503  0.0367
 3116SOL    HW120807   2.472   0.396  10.664  0.4638 -2.0224 -0.6076
 3116SOL    HW220808   2.448   0.356  10.527 -0.3400 -1.6557  0.6154
 3117SOL     OW20809   4.104   2.290  13.612  0.1590  0.0834  0.2684
 3117SOL    HW120810   4.051   2.234  13.555 -0.0604 -0.4656  1.0136
 3117SOL    HW220811   4.039   2.340  13.661 -0.8734 -2.9728  2.0015
 3118SOL     OW20812   2.482   1.577  14.991  0.2601  0.0469  0.3124
 3118SOL    HW120813   2.464   1.655  15.044 -0.8694 -0.2373  0.3456
 3118SOL    HW220814   2.434   1.605  14.913 -0.1970 -1.7756 -0.0527
 3119SOL     OW20815   3.469   0.935   6.736 -0.3536 -0.2073 -0.1078
 3119SOL    HW120816   3.539   0.916   6.799 -0.9041 -0.9988  0.2664
 3119SOL    HW220817   3.514   0.895   6.662 -0.7122 -2.4721  0.9018
 3120SOL     OW20818   0.645   2.832   7.905  0.1384 -0.3053  0.0587
 3120SOL    HW120819   0.600   2.765   7.955 -1.8991  1.0229  0.0109
 3120SOL    HW220820   0.689   2.876   7.978  1.0674  0.4312 -0.9350
 3121SOL     OW20821   4.674   3.196   8.324 -0.2173  0.0304 -0.4030
 3121SOL    HW120822   0.030   3.151   8.354  0.2873  0.6766 -0.7784
 3121SOL    HW220823   4.672   3.171   8.232 -0.7681  0.0013 -0.3813
 3122SOL     OW20824   0.818   3.917  11.802  0.0198  0.5168  0.1292
 3122SOL    HW120825   0.899   3.967  11.798  0.9307 -0.9130  0.7735
 3122SOL    HW220826   0.857   3.834  11.829 -1.5680 -0.5409 -0.8257
 3123SOL     OW20827   1.470   1.077   2.870 -0.1731 -0.2623  0.3763
 3123SOL    HW120828   1.428   0.991   2.879  0.8420 -0.7476  0.4841
 3123SOL    HW220829   1.483   1.089   2.776 -0.7410  0.4608  0.3929
 3124SOL     OW20830   2.129   4.352  10.388  0.4555 -0.0676  0.0789
 3124SOL    HW120831   2.121   4.300  10.468  4.6176 -0.9407 -0.0484
 3124SOL    HW220832   2.209   4.404  10.394  0.0211  0.3875  1.9113
 3125SOL     OW20833   3.671   3.691   5.129  0.0829  0.2520 -0.1339
 3125SOL    HW120834   3.673   3.642   5.211 -2.5690  2.3687  1.1934
 3125SOL    HW220835   3.652   3.783   5.147 -3.0952 -0.1080 -1.4848
 3126SOL     OW20836   3.674   4.211   5.956  0.1891 -0.1848  0.5320
 3126SOL    HW120837   3.671   4.116   5.970 -1.0007 -0.5394 -2.0154
 3126SOL    HW220838   3.737   4.238   6.022  0.3285  4.0982 -1.3891
 3127SOL     OW20839   1.341   0.372   6.367 -0.2079  0.3296  0.0549
 3127SOL    HW120840   1.407   0.440   6.378  1.0401 -0.3679 -3.3056
 3127SOL    HW220841   1.265   0.413   6.408 -0.5299  0.2181 -0.4304
 3128SOL     OW20842   2.693   3.645   7.982 -0.1554  0.2732  0.3642
 3128SOL    HW120843   2.687   3.678   8.071  0.1282  0.8427  0.1721
 3128SOL    HW220844   2.630   3.574   7.994  1.1915 -1.3164 -1.9222
 3129SOL     OW20845   1.650   0.277   9.618  0.5432  1.1023  0.1921
 3129SOL    HW120846   1.648   0.221   9.540 -0.2435 -0.5489  1.3809
 3129SOL    HW220847   1.679   0.213   9.683  0.6103 -0.2192 -1.1379
 3130SOL     OW20848   0.869   4.670   2.019 -0.2627 -0.3228 -0.1874
 3130SOL    HW120849   0.859   4.621   2.101  0.8197 -0.6239 -0.2431
 3130SOL    HW220850   0.958   4.646   1.992 -0.3916 -2.4669  1.3313
 3131SOL     OW20851   4.520   3.395   2.425 -0.8364  0.0707  0.2291
 3131SOL    HW120852   4.460   3.436   2.487 -1.0407  0.5105 -0.2636
 3131SOL    HW220853   4.481   3.401   2.338  0.7912 -1.6348 -0.6231
 3132SOL     OW20854   3.317   0.966   3.446  0.6765  0.5044  0.3225
 3132SOL    HW120855   3.379   0.903   3.483  0.8150 -1.5270 -3.3575
 3132SOL    HW220856   3.348   0.953   3.357 -1.0720  2.1068 -0.5080
 3133SOL     OW20857   3.086   3.907   5.399  0.3567 -0.1263  0.1835
 3133SOL    HW120858   3.061   3.883   5.489 -1.0500 -0.0776 -0.1892
 3133SOL    HW220859   3.006   3.957   5.382 -0.6581 -1.1603  1.8462
 3134SOL     OW20860   3.533   2.226   6.386 -0.2703  0.2874  0.2433
 3134SOL    HW120861   3.530   2.206   6.480  2.3764 -1.2102  0.0032
 3134SOL    HW220862   3.442   2.202   6.370 -0.6922 -0.0661  3.0431
 3135SOL     OW20863   3.508   0.701  13.730 -0.0071 -0.2745 -0.2885
 3135SOL    HW120864   3.549   0.763  13.792 -1.1219 -1.1308  1.3073
 3135SOL    HW220865   3.576   0.706  13.662 -0.1352  1.1124 -0.3274
 3136SOL     OW20866   1.049   1.052   4.328  0.0295 -0.2839 -0.7978
 3136SOL    HW120867   1.004   1.036   4.245 -3.3082 -0.9124  1.1305
 3136SOL    HW220868   1.103   1.126   4.297 -2.8982  2.3865  0.4767
 3137SOL     OW20869   0.816   2.129  12.391  0.3148 -0.5803  0.6531
 3137SOL    HW120870   0.722   2.144  12.384  0.2538 -1.6789 -0.7956
 3137SOL    HW220871   0.837   2.156  12.481  0.4664 -0.9791  0.7331
 3138SOL     OW20872   3.943   0.988  10.577  0.2437 -0.2999 -0.4552
 3138SOL    HW120873   3.981   0.924  10.516 -1.9195 -0.2675 -1.8262
 3138SOL    HW220874   3.938   1.062  10.517 -0.5946  0.3684  0.4388
 3139SOL     OW20875   1.826   0.313   4.825  0.2175 -0.6578  0.6960
 3139SOL    HW120876   1.736   0.345   4.826  0.9016  1.2831  2.5086
 3139SOL    HW220877   1.864   0.386   4.874  1.3654  1.0467 -2.6881
 3140SOL     OW20878   0.313   4.242   5.044  0.3383  0.3853  0.7306
 3140SOL    HW120879   0.242   4.305   5.036  0.6381  0.3802 -1.9210
 3140SOL    HW220880   0.300   4.192   4.964 -0.8873  2.0903 -0.1436
 3141SOL     OW20881   2.036   0.674  16.303 -0.1037  0.7686 -0.3276
 3141SOL    HW120882   2.122   0.649  16.269  0.0880  1.5486 -0.4160
 3141SOL    HW220883   1.990   0.693  16.221  2.0227  0.7110 -1.5136
 3142SOL     OW20884   3.799   3.666  10.668  0.0484  0.5636 -0.0359
 3142SOL    HW120885   3.873   3.658  10.608  1.3611  1.5810  1.4407
 3142SOL    HW220886   3.726   3.650  10.608  0.6503  0.0551 -0.6313
 3143SOL     OW20887   4.341   2.458   8.381 -0.2469 -0.1827  0.3676
 3143SOL    HW120888   4.424   2.506   8.380 -0.0631 -0.5466 -1.0684
 3143SOL    HW220889   4.275   2.527   8.376  0.7029  0.8062  1.3000
 3144SOL     OW20890   2.489   2.291   5.473 -0.7450  0.9540  0.3349
 3144SOL    HW120891   2.469   2.254   5.560  1.4172 -1.4589 -0.1887
 3144SOL    HW220892   2.402   2.290   5.433  0.3325 -0.5593 -1.9870
 3145SOL     OW20893   0.807   4.366   7.468  0.0105 -0.2518 -0.8958
 3145SOL    HW120894   0.829   4.383   7.560  1.3428  0.2707 -1.3126
 3145SOL    HW220895   0.844   4.443   7.426 -0.9391  1.6528  1.7441
 3146SOL     OW20896   2.297   0.900   6.237 -0.0435  0.5227 -0.1527
 3146SOL    HW120897   2.387   0.899   6.271  0.2539  1.2215 -0.9377
 3146SOL    HW220898   2.301   0.992   6.213 -3.2899  0.2327 -1.7310
 3147SOL     OW20899   4.303   1.167   1.883 -0.0090  0.0705  0.0537
 3147SOL    HW120900   4.341   1.252   1.858  2.6419 -1.0105  0.4115
 3147SOL    HW220901   4.343   1.104   1.824 -1.0769 -0.0204 -0.5564
 3148SOL     OW20902   3.012   0.805   6.620  0.3478 -0.4340  0.1774
 3148SOL    HW120903   3.057   0.734   6.576 -0.9449 -0.8342 -0.4818
 3148SOL    HW220904   2.979   0.861   6.550 -2.4076 -1.5691  0.5574
 3149SOL     OW20905   3.347   2.818   9.640 -0.0590  0.3885  0.1761
 3149SOL    HW120906   3.417   2.807   9.576  1.3946 -1.2929  2.0292
 3149SOL    HW220907   3.323   2.732   9.675 -1.3940  1.6459  2.3346
 3150SOL     OW20908   3.462   2.348  13.498  0.3207  0.5555 -0.8000
 3150SOL    HW120909   3.442   2.441  13.496 -0.1421  0.4688  0.2416
 3150SOL    HW220910   3.537   2.355  13.438  3.0701  1.1249  2.6911
 3151SOL     OW20911   0.756   0.046   6.589  0.4589 -0.1157 -0.5333
 3151SOL    HW120912   0.719   0.059   6.501  2.8562  0.9654 -1.3646
 3151SOL    HW220913   0.851   0.043   6.578  0.4394 -4.1328  0.2526
 3152SOL     OW20914   2.349   2.743   7.643 -0.6022  0.0730 -0.7018
 3152SOL    HW120915   2.374   2.695   7.722 -4.6973 -2.1537 -0.7776
 3152SOL    HW220916   2.330   2.828   7.682  1.3356  0.6327 -0.9361
 3153SOL     OW20917   4.606   1.416  15.467 -0.0750 -0.0687  0.7307
 3153SOL    HW120918   4.581   1.329  15.497  0.3584 -0.2307  0.6094
 3153SOL    HW220919   4.556   1.413  15.385 -0.0226 -2.6312  0.7865
 3154SOL     OW20920   3.908   2.722  14.990  0.1410 -0.1595 -0.0919
 3154SOL    HW120921   3.934   2.631  14.972  2.0998 -0.0685  2.4419
 3154SOL    HW220922   3.975   2.766  14.938  0.2781 -1.1647 -0.7710
 3155SOL     OW20923   4.199   4.287  12.301  0.3918 -0.3452 -0.4685
 3155SOL    HW120924   4.292   4.268  12.286  0.6706 -0.4677  1.3718
 3155SOL    HW220925   4.200   4.382  12.313 -0.2534 -0.0417 -2.9397
 3156SOL     OW20926   1.279   1.882   2.731 -0.2062 -0.3000  0.0093
 3156SOL    HW120927   1.367   1.882   2.770 -0.5970 -0.8401  0.8872
 3156SOL    HW220928   1.243   1.958   2.777 -1.6795 -1.9564  1.5429
 3157SOL     OW20929   1.799   4.195   5.214 -0.2687  0.5673  0.4843
 3157SOL    HW120930   1.815   4.223   5.305  1.0308 -2.5111  1.1974
 3157SOL    HW220931   1.730   4.129   5.219 -1.1889  1.3616 -1.6617
 3158SOL     OW20932   4.165   2.673   4.228  0.0899 -0.5393 -0.7050
 3158SOL    HW120933   4.123   2.589   4.209  0.2656 -0.3090 -2.0820
 3158SOL    HW220934   4.123   2.723   4.158  0.2549 -0.8053 -0.9957
 3159SOL     OW20935   3.536   0.336   4.317  0.4190 -0.1812 -0.8027
 3159SOL    HW120936   3.566   0.281   4.244 -0.1219 -0.0448 -1.1279
 3159SOL    HW220937   3.441   0.330   4.305  0.1431  0.8671  0.8930
 3160SOL     OW20938   3.072   2.950   4.867 -0.3507 -0.5138  0.6054
 3160SOL    HW120939   3.012   2.979   4.936 -0.9882  1.6399 -0.8680
 3160SOL    HW220940   3.136   2.912   4.926  0.8420 -0.9618 -0.9821
 3161SOL     OW20941   2.521   0.784   5.370  0.1515 -0.2626  0.0493
 3161SOL    HW120942   2.540   0.870   5.333  1.2775 -0.6018 -0.1766
 3161SOL    HW220943   2.468   0.743   5.302 -1.7928 -0.1728  1.5178
 3162SOL     OW20944   0.223   3.747   1.578 -0.2641 -0.2121  0.2757
 3162SOL    HW120945   0.288   3.677   1.569  2.4963  2.2997  0.7215
 3162SOL    HW220946   0.250   3.776   1.665  1.3629 -0.7266 -0.0588
 3163SOL     OW20947   3.688   3.809   2.328 -0.0875 -0.1639  0.0228
 3163SOL    HW120948   3.682   3.898   2.294  0.6119  0.6437  2.0689
 3163SOL    HW220949   3.782   3.799   2.340  0.3272  2.5085 -1.0439
 3164SOL     OW20950   3.210   1.386   2.620  0.2597  0.1896 -0.0382
 3164SOL    HW120951   3.198   1.460   2.560 -0.2990 -1.5633 -2.1013
 3164SOL    HW220952   3.146   1.413   2.685 -0.1201  0.3258 -0.4635
 3165SOL     OW20953   0.864   0.745   6.349  0.2513  0.9148  0.1579
 3165SOL    HW120954   0.777   0.711   6.327  0.2036 -0.2850  2.1651
 3165SOL    HW220955   0.924   0.727   6.277 -0.7332  0.8833 -0.6615
 3166SOL     OW20956   2.480   0.379   6.738 -0.1305  0.1488 -0.1725
 3166SOL    HW120957   2.457   0.292   6.771 -2.0236  0.6090 -0.2574
 3166SOL    HW220958   2.553   0.355   6.681  0.4394 -0.3285  0.7510
 3167SOL     OW20959   3.304   2.406   1.950 -0.2937 -0.3945 -0.1549
 3167SOL    HW120960   3.274   2.494   1.929  2.1928  0.6477  0.6882
 3167SOL    HW220961   3.240   2.355   1.899 -0.9213  2.5073 -2.2810
 3168SOL     OW20962   1.190   2.803   6.231  0.0161  0.1866  0.6788
 3168SOL    HW120963   1.281   2.785   6.254  0.4437  0.5584 -0.7170
 3168SOL    HW220964   1.141   2.769   6.306  2.0080 -1.5018  1.2126
 3169SOL     OW20965   1.470   0.720   8.156  0.3050  0.3191  0.1461
 3169SOL    HW120966   1.407   0.719   8.084  1.9921  1.2837 -1.3413
 3169SOL    HW220967   1.546   0.763   8.115  0.4602  0.1669  0.2745
 3170SOL     OW20968   1.504   3.105   3.057 -0.1591  0.5184 -0.0864
 3170SOL    HW120969   1.448   3.030   3.073 -2.7794  2.8783  1.7664
 3170SOL    HW220970   1.589   3.067   3.080 -1.0717 -0.3013  1.9563
 3171SOL     OW20971   2.313   0.584   9.052 -0.0283  0.6479 -0.0428
 3171SOL    HW120972   2.221   0.611   9.051 -0.2007 -0.1090 -3.3476
 3171SOL    HW220973   2.310   0.499   9.097  4.0278  0.7915  0.4476
 3172SOL     OW20974   0.100   3.980   0.279  0.1383 -0.0692  0.6306
 3172SOL    HW120975   0.173   3.932   0.317 -0.5988 -2.4202 -0.9870
 3172SOL    HW220976   0.097   4.038   0.356 -1.3127  0.6999 -0.0081
 3173SOL     OW20977   4.240   1.013  14.377  0.0624 -0.2053 -0.1426
 3173SOL    HW120978   4.242   1.028  14.283  1.3646 -0.8230 -0.2088
 3173SOL    HW220979   4.242   1.104  14.408  1.3370 -0.8671  1.7594
 3174SOL     OW20980   0.475   1.280  10.672 -0.0317 -0.2841 -0.0813
 3174SOL    HW120981   0.538   1.321  10.731 -0.6641  1.0857 -0.3628
 3174SOL    HW220982   0.432   1.221  10.734  0.3654  0.9664  1.3694
 3175SOL     OW20983   1.324   0.909   6.857 -0.1700 -0.1045  0.2840
 3175SOL    HW120984   1.247   0.855   6.874 -0.9453  1.0988  0.5834
 3175SOL    HW220985   1.400   0.850   6.848  1.2171  1.3889  2.0775
 3176SOL     OW20986   1.676   1.309   3.856  0.4764  0.0375 -0.4689
 3176SOL    HW120987   1.746   1.245   3.852  0.1898 -0.3381  0.6480
 3176SOL    HW220988   1.690   1.341   3.945 -0.3890  3.7417 -1.6375
 3177SOL     OW20989   3.472   0.319   8.941  0.5928 -0.0196 -0.5897
 3177SOL    HW120990   3.546   0.318   9.002 -0.5616 -1.0533  0.8071
 3177SOL    HW220991   3.456   0.413   8.937 -2.3094 -0.5906 -1.8903
 3178SOL     OW20992   3.129   1.747  16.271 -0.0123  0.4650 -0.0770
 3178SOL    HW120993   3.203   1.791  16.313 -0.3143  0.5779  0.3393
 3178SOL    HW220994   3.054   1.765  16.327  0.1627 -0.7676  0.5594
 3179SOL     OW20995   0.027   4.371   8.477 -0.2076  0.1657  0.6933
 3179SOL    HW120996   0.047   4.430   8.550 -2.5275  1.2430  0.4572
 3179SOL    HW220997   0.032   4.285   8.518  3.7398 -0.6584 -1.5307
 3180SOL     OW20998   0.193   1.178  17.692  0.6004 -0.0707  0.1892
 3180SOL    HW120999   0.247   1.108  17.655  2.6780  2.0613 -0.7633
 3180SOL    HW221000   0.241   1.251  17.653  0.4737 -0.4346 -0.6362
 3181SOL     OW21001   2.275   1.164   5.941 -0.8832 -0.2459  0.2652
 3181SOL    HW121002   2.278   1.247   5.893  0.1376 -0.8383 -0.6995
 3181SOL    HW221003   2.327   1.106   5.886  0.9432  0.3639  1.3492
 3182SOL     OW21004   2.774   3.366   4.543  0.2976 -0.0504  0.7553
 3182SOL    HW121005   2.708   3.350   4.611 -0.8656  0.6024 -0.2041
 3182SOL    HW221006   2.831   3.291   4.557  1.6801  1.1061  1.2150
 3183SOL     OW21007   1.304   3.337  12.232  0.2172 -0.7857 -0.5029
 3183SOL    HW121008   1.380   3.279  12.228  0.2270 -0.6319 -2.4475
 3183SOL    HW221009   1.355   3.418  12.236 -1.2572  0.2591 -2.8155
 3184SOL     OW21010   3.718   1.411  12.059  0.9190 -0.7904  0.5709
 3184SOL    HW121011   3.758   1.484  12.108  2.5162 -0.1837 -1.6487
 3184SOL    HW221012   3.712   1.348  12.130 -1.3211 -0.8711  0.2985
 3185SOL     OW21013   1.972   3.980   5.854 -0.1956 -0.3346  0.4572
 3185SOL    HW121014   1.894   3.968   5.801  0.5829  2.2870 -1.2600
 3185SOL    HW221015   2.020   4.032   5.790  1.4078 -4.1874 -1.4620
 3186SOL     OW21016   0.990   0.331   6.616 -0.2659  0.6750  0.3062
 3186SOL    HW121017   0.920   0.357   6.676 -3.3035 -3.5203 -1.3762
 3186SOL    HW221018   1.058   0.358   6.677  0.6035 -1.3503  0.2533
 3187SOL     OW21019   1.742   2.193   9.827 -0.1002  0.4059  0.1845
 3187SOL    HW121020   1.741   2.288   9.827  0.5389  0.4108  0.6723
 3187SOL    HW221021   1.676   2.181   9.759  0.3718  1.5560 -0.4595
 3188SOL     OW21022   2.695   2.986  15.633 -0.5895 -0.3359  0.0754
 3188SOL    HW121023   2.731   2.998  15.721 -0.1299 -1.4738  0.0469
 3188SOL    HW221024   2.647   3.067  15.618 -0.2400 -0.0722  0.3792
 3189SOL     OW21025   4.085   3.820   4.145  0.6138 -1.0685  0.3066
 3189SOL    HW121026   4.151   3.771   4.096  0.2721 -0.6193 -0.6156
 3189SOL    HW221027   4.043   3.745   4.186 -0.2977 -0.3978  0.5932
 3190SOL     OW21028   3.299   3.961   7.161 -0.1409 -0.3013  0.0569
 3190SOL    HW121029   3.204   3.966   7.149 -0.0446  1.5538  0.0814
 3190SOL    HW221030   3.307   4.042   7.212  3.5836  0.5374 -1.8668
 3191SOL     OW21031   1.176   3.660   3.725  0.0053 -0.1344 -0.4801
 3191SOL    HW121032   1.246   3.616   3.773 -1.6066 -1.0298  1.0859
 3191SOL    HW221033   1.227   3.728   3.682  0.1910 -1.3845 -2.2520
 3192SOL     OW21034   2.443   4.100   2.493 -0.1032 -0.3217  0.1159
 3192SOL    HW121035   2.442   4.081   2.587 -0.1679 -1.1868 -0.0599
 3192SOL    HW221036   2.527   4.145   2.492 -1.0516  1.4436 -0.4011
 3193SOL     OW21037   3.876   1.241   8.374  0.8886 -0.0009  0.9420
 3193SOL    HW121038   3.906   1.292   8.299  0.6865  1.7409  2.0255
 3193SOL    HW221039   3.930   1.165   8.354 -1.3819 -1.6179  1.0303
 3194SOL     OW21040   0.467   2.488  14.448  0.4429 -0.0824  0.3089
 3194SOL    HW121041   0.491   2.399  14.425 -0.1738 -0.0435 -0.5293
 3194SOL    HW221042   0.431   2.475  14.535  1.0614 -0.2240  0.5380
 3195SOL     OW21043   1.142   2.608   5.057  0.1042 -0.7087  0.3050
 3195SOL    HW121044   1.177   2.519   5.047  0.6219 -0.3959 -0.6244
 3195SOL    HW221045   1.119   2.636   4.969  1.7307 -1.7215 -0.4343
 3196SOL     OW21046   2.985   0.052  16.533  0.0784 -0.2041 -0.2601
 3196SOL    HW121047   3.019   0.019  16.616 -3.1080 -1.5643  0.5126
 3196SOL    HW221048   3.036   0.004  16.468 -1.1605 -0.5760 -0.9497
 3197SOL     OW21049   0.925   4.587  16.986 -0.2566  0.1311  1.0987
 3197SOL    HW121050   0.919   4.504  16.938 -2.1612  1.2494 -0.6041
 3197SOL    HW221051   1.011   4.569  17.025 -0.2859 -2.1219  0.1593
 3198SOL     OW21052   0.793   1.832   6.177 -0.3294 -0.0029  0.0067
 3198SOL    HW121053   0.793   1.849   6.271 -1.9344  0.2958 -0.0401
 3198SOL    HW221054   0.714   1.779   6.169  0.4198 -1.0206 -0.6304
 3199SOL     OW21055   4.135   1.633   2.897  0.0314  0.5889  0.3359
 3199SOL    HW121056   4.169   1.660   2.812 -0.9875  0.3151 -0.1552
 3199SOL    HW221057   4.095   1.547   2.884 -2.9574  2.4173 -2.7571
 3200SOL     OW21058   0.727   2.839  15.408  0.4127 -0.3162 -0.2759
 3200SOL    HW121059   0.786   2.827  15.333  1.2807  0.0933  0.3420
 3200SOL    HW221060   0.640   2.807  15.386 -0.1193  0.5745  0.5330
 3201SOL     OW21061   3.303   0.325   0.621  0.3086  0.5069 -0.0169
 3201SOL    HW121062   3.243   0.251   0.618  0.3001  0.5188 -0.1602
 3201SOL    HW221063   3.306   0.333   0.526  0.4308  2.5987  0.1618
 3202SOL     OW21064   1.476   0.848   4.234  0.1859  0.0715 -0.2105
 3202SOL    HW121065   1.393   0.801   4.229 -0.5386  1.2583  0.6118
 3202SOL    HW221066   1.442   0.937   4.247  2.8901  1.2307 -0.8664
 3203SOL     OW21067   2.134   0.502   2.620  0.3725 -0.4467 -0.1265
 3203SOL    HW121068   2.090   0.475   2.539 -0.6568 -0.2798  0.3799
 3203SOL    HW221069   2.171   0.415   2.634  0.4226 -0.3682  0.2311
 3204SOL     OW21070   3.012   2.602   3.671 -0.2148 -0.1462 -0.4203
 3204SOL    HW121071   2.946   2.535   3.654 -0.1094 -0.9607  2.4840
 3204SOL    HW221072   3.077   2.551   3.719  1.4210  0.9930 -1.4224
 3205SOL     OW21073   2.535   4.102   6.195 -0.3666 -0.0188 -0.4545
 3205SOL    HW121074   2.623   4.071   6.215  0.1683  2.1844  0.4916
 3205SOL    HW221075   2.550   4.195   6.183  2.7995 -0.6755 -1.4381
 3206SOL     OW21076   0.768   3.061   8.009  0.4714 -0.2784 -0.1334
 3206SOL    HW121077   0.855   3.100   8.019  0.6496 -0.4014 -1.2097
 3206SOL    HW221078   0.708   3.134   7.995 -0.0693 -0.7414 -0.2196
 3207SOL     OW21079   3.708   0.883   1.226  0.0790 -0.0603 -0.0354
 3207SOL    HW121080   3.704   0.803   1.173  0.9466 -0.2272  0.1535
 3207SOL    HW221081   3.800   0.900   1.208 -0.0615 -0.7128 -1.3633
 3208SOL     OW21082   0.627   1.030  11.229 -0.6608  0.5298 -0.1393
 3208SOL    HW121083   0.548   0.977  11.219 -1.0061  1.1047 -0.4697
 3208SOL    HW221084   0.639   1.060  11.139  2.5031 -0.9803 -0.2032
 3209SOL     OW21085   1.204   0.520  13.773 -0.2436  0.0178 -0.2217
 3209SOL    HW121086   1.126   0.535  13.826  0.4736 -0.3433  0.9367
 3209SOL    HW221087   1.176   0.441  13.726  1.3111  0.3465 -1.7024
 3210SOL     OW21088   1.401   0.227  13.831 -0.0570 -0.5509  0.0035
 3210SOL    HW121089   1.358   0.244  13.915 -1.0317  0.1144 -0.6271
 3210SOL    HW221090   1.413   0.134  13.848  0.8932 -0.1168  1.6323
 3211SOL     OW21091   2.968   3.238   8.992 -0.4824  0.2219 -0.3560
 3211SOL    HW121092   2.913   3.164   8.967 -0.5446 -0.1585  0.8880
 3211SOL    HW221093   3.048   3.231   8.940 -0.0427  0.2118  0.3219
 3212SOL     OW21094   0.230   3.702   3.111 -0.0864  0.1920  0.0778
 3212SOL    HW121095   0.303   3.681   3.052 -0.5953 -2.5086  0.4188
 3212SOL    HW221096   0.199   3.612   3.115  0.3943  0.0940  1.4202
 3213SOL     OW21097   4.318   4.180   6.374 -0.2759  0.2596  0.4889
 3213SOL    HW121098   4.249   4.127   6.335 -1.1959  1.3588  0.6298
 3213SOL    HW221099   4.299   4.163   6.467  0.2138 -3.5750 -0.1101
 3214SOL     OW21100   4.570   3.581  13.986  0.1687  0.4052  0.3611
 3214SOL    HW121101   4.521   3.590  14.068 -1.3471 -1.2018 -0.3492
 3214SOL    HW221102   4.515   3.641  13.936  0.3554  0.7127  0.5269
 3215SOL     OW21103   0.257   1.482   8.350 -0.0770 -0.2726 -0.7514
 3215SOL    HW121104   0.259   1.390   8.324 -1.3546 -1.1849  2.3255
 3215SOL    HW221105   0.298   1.527   8.276 -0.8836 -0.2435 -1.1891
 3216SOL     OW21106   0.028   2.466  13.480  0.4373 -0.6025 -0.2844
 3216SOL    HW121107   0.092   2.416  13.429  0.7844 -1.9686  1.4846
 3216SOL    HW221108   4.683   2.399  13.478  1.0011 -1.2192  0.7526
 3217SOL     OW21109   4.313   3.709   2.364 -0.3608  0.3686 -0.4797
 3217SOL    HW121110   4.403   3.702   2.332  0.6644  1.4072  2.1498
 3217SOL    HW221111   4.279   3.779   2.308  1.2520  0.0782 -1.7911
 3218SOL     OW21112   0.026   2.541   6.927 -0.3638  0.1146 -0.4625
 3218SOL    HW121113   0.115   2.547   6.892 -0.3791  0.0263 -0.5139
 3218SOL    HW221114   0.025   2.618   6.985  0.1425 -1.6839  1.9132
 3219SOL     OW21115   1.144   2.688   7.888 -0.0837 -0.4675  0.2761
 3219SOL    HW121116   1.184   2.755   7.943  2.0783  0.1369 -2.0554
 3219SOL    HW221117   1.059   2.726   7.865  0.7340  0.5060 -1.1686
 3220SOL     OW21118   1.811   4.480   2.210  0.1835 -0.1416  0.4035
 3220SOL    HW121119   1.742   4.418   2.186  0.3103  0.9967 -2.9298
 3220SOL    HW221120   1.782   4.556   2.160  0.5591 -1.0407 -1.2208
 3221SOL     OW21121   0.951   2.655   4.084  0.0692  0.8639  0.4370
 3221SOL    HW121122   0.888   2.624   4.148  0.8238  3.4690  2.4400
 3221SOL    HW221123   0.901   2.659   4.003 -0.3180 -0.7319  0.5983
 3222SOL     OW21124   4.476   1.800  15.916  0.4896  0.1545  0.4194
 3222SOL    HW121125   4.477   1.885  15.960  1.0673 -0.0947  0.8812
 3222SOL    HW221126   4.481   1.744  15.993 -0.2303  1.2899  1.2897
 3223SOL     OW21127   2.028   4.096   6.547  0.2765  0.1311 -0.1847
 3223SOL    HW121128   2.043   4.115   6.455  0.1144 -1.0214 -0.4387
 3223SOL    HW221129   2.116   4.080   6.581 -0.1660 -2.7253 -0.4514
 3224SOL     OW21130   4.217   4.148   4.997  0.4648 -0.1805  0.8975
 3224SOL    HW121131   4.180   4.159   5.085 -0.5198 -0.7993  0.5645
 3224SOL    HW221132   4.206   4.227   4.945 -3.5109 -1.8354 -0.7978
 3225SOL     OW21133   1.471   1.283  12.510 -0.7148 -0.0444 -0.3873
 3225SOL    HW121134   1.406   1.352  12.522  0.3482  1.0610 -0.8638
 3225SOL    HW221135   1.434   1.243  12.432  0.7132  0.2744 -1.2276
 3226SOL     OW21136   1.836   3.226   4.786  0.4887 -0.5134  0.1609
 3226SOL    HW121137   1.929   3.227   4.763 -0.0546  1.8823 -1.9467
 3226SOL    HW221138   1.819   3.136   4.756  0.3282  0.3167 -2.2001
 3227SOL     OW21139   4.238   3.143  16.343  0.2930  0.2539 -0.0575
 3227SOL    HW121140   4.225   3.162  16.250 -0.2412 -1.7600 -0.3771
 3227SOL    HW221141   4.204   3.054  16.353  0.6610  0.0260 -0.8425
 3228SOL     OW21142   4.283   4.567   9.400 -0.5475 -0.3409  0.4457
 3228SOL    HW121143   4.235   4.552   9.481 -1.8995 -0.1187 -0.3235
 3228SOL    HW221144   4.348   4.496   9.402 -0.8254 -0.6234 -0.7991
 3229SOL     OW21145   4.133   1.447   3.519  0.1718 -0.1879 -0.1951
 3229SOL    HW121146   4.041   1.420   3.521  1.2850 -3.7564  2.3808
 3229SOL    HW221147   4.152   1.432   3.427  2.6658 -0.6086  0.3775
 3230SOL     OW21148   4.333   0.089   4.529  0.2940 -0.6532  0.9673
 3230SOL    HW121149   4.291   0.087   4.615  1.6018 -0.9836  1.5954
 3230SOL    HW221150   4.394   0.160   4.552 -0.2464  0.2123 -0.2673
 3231SOL     OW21151   0.133   0.876   2.042 -0.1205  0.0593 -0.5190
 3231SOL    HW121152   0.128   0.964   2.005 -0.9774 -0.0235 -0.5918
 3231SOL    HW221153   0.207   0.894   2.100 -0.4530  0.7297 -0.3084
 3232SOL     OW21154   1.386   3.832   5.037 -0.6205 -0.4689  0.1644
 3232SOL    HW121155   1.464   3.786   5.008 -0.6323 -0.9301  0.8985
 3232SOL    HW221156   1.319   3.811   4.971  0.9616 -1.2544 -1.1788
 3233SOL     OW21157   4.328   2.016   4.609  0.7226 -0.1103 -0.3956
 3233SOL    HW121158   4.313   1.923   4.591  3.6021 -0.5523 -0.4180
 3233SOL    HW221159   4.242   2.046   4.639 -0.1455 -2.3071 -0.7569
 3234SOL     OW21160   1.256   4.342   2.563  0.5110  0.1274 -0.5111
 3234SOL    HW121161   1.291   4.421   2.604  1.9741 -0.6382 -0.3172
 3234SOL    HW221162   1.319   4.327   2.493 -0.1148 -1.1591 -0.7919
 3235SOL     OW21163   3.714   4.204   7.195 -1.2818  0.1222 -0.2951
 3235SOL    HW121164   3.803   4.238   7.190 -0.7344 -0.7745  3.2539
 3235SOL    HW221165   3.673   4.281   7.233  0.2576  0.7960 -0.0043
 3236SOL     OW21166   1.266   0.261  14.306 -0.5382  0.0405  0.4178
 3236SOL    HW121167   1.182   0.263  14.352 -1.0504 -0.7794 -0.4940
 3236SOL    HW221168   1.312   0.335  14.345  0.3768  0.5859 -1.6931
 3237SOL     OW21169   0.734   1.455   3.504 -0.0278  0.3545  0.0224
 3237SOL    HW121170   0.663   1.441   3.567  0.8578  2.2286  1.4261
 3237SOL    HW221171   0.740   1.550   3.514  2.5413  0.2040 -0.0918
 3238SOL     OW21172   3.219   0.205   2.846 -0.1816  0.2461 -0.4844
 3238SOL    HW121173   3.163   0.151   2.903  0.6282  0.4680  0.5204
 3238SOL    HW221174   3.152   0.247   2.792  0.8578  1.1979 -1.0230
 3239SOL     OW21175   3.058   0.891   4.802  0.9503  0.0603 -0.2958
 3239SOL    HW121176   3.104   0.972   4.782 -1.4605  1.3210 -0.6528
 3239SOL    HW221177   3.018   0.925   4.882  0.1801 -0.2526 -0.5516
 3240SOL     OW21178   0.649   0.018   7.567  0.8639 -0.5052 -0.6358
 3240SOL    HW121179   0.683   0.017   7.477  0.8551  0.9727 -0.6631
 3240SOL    HW221180   0.589   4.668   7.562 -0.3270  0.4621 -0.7347
 3241SOL     OW21181   1.797   1.993   9.038 -0.7412 -0.1871 -0.3236
 3241SOL    HW121182   1.835   2.006   8.951  0.7584 -0.9975  0.2118
 3241SOL    HW221183   1.876   1.999   9.091 -0.5625 -1.9440 -0.3997
 3242SOL     OW21184   0.942   2.524   1.933  0.4623 -0.2082 -0.6925
 3242SOL    HW121185   0.902   2.478   1.858  1.5565  1.2531 -2.1569
 3242SOL    HW221186   0.911   2.612   1.913 -0.6070 -0.1346  1.2701
 3243SOL     OW21187   1.152   3.286   2.353  0.6590  0.2062 -0.5044
 3243SOL    HW121188   1.062   3.297   2.325  0.8423  0.6347 -0.9194
 3243SOL    HW221189   1.176   3.373   2.384 -1.4708  0.0210  1.6314
 3244SOL     OW21190   1.007   4.514   0.233 -0.0896 -0.0539  0.9879
 3244SOL    HW121191   1.087   4.461   0.233 -1.0251 -1.4424  0.6786
 3244SOL    HW221192   0.952   4.476   0.301 -0.5680  0.5622  0.9408
 3245SOL     OW21193   3.048   2.759   5.122 -0.4099 -0.1889  0.3667
 3245SOL    HW121194   3.000   2.746   5.041 -2.8816  0.9006  1.6769
 3245SOL    HW221195   3.120   2.706   5.089 -0.3047  0.6337 -0.7108
 3246SOL     OW21196   0.166   1.024  12.636 -0.4675 -0.1674 -0.4570
 3246SOL    HW121197   0.198   0.940  12.602  0.2908  0.5731 -1.5762
 3246SOL    HW221198   0.073   1.011  12.618 -0.3914 -0.1170 -0.8804
 3247SOL     OW21199   3.431   2.339  17.392 -0.4031 -0.5624  0.0718
 3247SOL    HW121200   3.502   2.370  17.448  0.7760 -0.1436 -1.6592
 3247SOL    HW221201   3.425   2.245  17.409 -0.9570  0.1814  4.0598
 3248SOL     OW21202   1.729   2.399   8.173  0.1751 -0.6492 -0.1377
 3248SOL    HW121203   1.636   2.375   8.169  0.3750 -1.3836 -0.4213
 3248SOL    HW221204   1.711   2.489   8.199 -0.1270 -0.7337 -0.0494
 3249SOL     OW21205   1.229   4.339   0.187  0.1680  0.1668  0.2540
 3249SOL    HW121206   1.262   4.368   0.103 -1.6468  0.9943 -0.1849
 3249SOL    HW221207   1.294   4.280   0.225 -1.3497 -2.6206 -1.4735
 3250SOL     OW21208   3.226   4.457   8.877  0.1364  0.2616  0.1289
 3250SOL    HW121209   3.234   4.368   8.842 -1.8680  0.2523 -0.3527
 3250SOL    HW221210   3.280   4.440   8.954  3.5662  1.9399 -1.8844
 3251SOL     OW21211   3.726   3.388   8.528  0.2210 -0.1587 -0.3873
 3251SOL    HW121212   3.671   3.350   8.460  1.0156 -0.6690 -0.7525
 3251SOL    HW221213   3.685   3.373   8.614  1.7224  0.1077  0.3814
 3252SOL     OW21214   4.032   1.238   6.676  0.3298  0.1153  0.1069
 3252SOL    HW121215   4.100   1.177   6.646 -1.3523 -1.4124 -0.6111
 3252SOL    HW221216   3.962   1.227   6.612 -0.6934 -0.8835  1.4099
 3253SOL     OW21217   0.449   3.654   2.921 -0.3255  0.6040 -0.1911
 3253SOL    HW121218   0.479   3.650   2.831 -2.3767  0.0138 -0.8439
 3253SOL    HW221219   0.527   3.639   2.975  1.0580  0.3213 -2.2865
 3254SOL     OW21220   1.904   1.577  14.321 -0.5255  0.2415 -0.4162
 3254SOL    HW121221   1.871   1.626  14.245  0.6743  1.0245 -0.4473
 3254SOL    HW221222   1.970   1.531  14.269 -0.7540  1.0728 -1.4507
 3255SOL     OW21223   1.329   0.892   0.292 -0.0113  0.2322  0.0942
 3255SOL    HW121224   1.340   0.914   0.199  0.1294 -1.0055 -0.1874
 3255SOL    HW221225   1.419   0.908   0.320  0.3022  2.3757 -2.0786
 3256SOL     OW21226   3.423   1.846  10.045 -0.0248 -0.4109 -0.0831
 3256SOL    HW121227   3.372   1.767  10.029 -2.8257  1.4792 -0.4859
 3256SOL    HW221228   3.396   1.889   9.964  2.3921  1.0483 -0.1146
 3257SOL     OW21229   2.113   4.317   6.806  0.2485 -0.4347  0.0067
 3257SOL    HW121230   2.171   4.248   6.839  0.4496  0.4889  1.5701
 3257SOL    HW221231   2.137   4.394   6.857 -0.3777  0.0253 -0.4028
 3258SOL     OW21232   1.856   1.438   7.266 -0.1024 -0.2706  0.2778
 3258SOL    HW121233   1.770   1.480   7.265 -0.0147 -0.0957  0.1225
 3258SOL    HW221234   1.913   1.511   7.292 -2.1860  0.8634  1.6106
 3259SOL     OW21235   3.482   3.793   3.733  0.1149 -0.0472 -0.3353
 3259SOL    HW121236   3.424   3.782   3.808 -0.9963 -0.2716 -1.2258
 3259SOL    HW221237   3.506   3.701   3.728 -0.6834 -0.2063 -1.2328
 3260SOL     OW21238   3.505   0.378   6.874 -0.3746  0.0556  0.0082
 3260SOL    HW121239   3.595   0.345   6.862  0.4023  2.1337  0.1286
 3260SOL    HW221240   3.492   0.349   6.964 -0.0011 -2.6886 -0.7979
 3261SOL     OW21241   0.151   1.115   2.749 -0.3551 -0.3297  0.1319
 3261SOL    HW121242   0.060   1.116   2.779 -0.6407 -0.8661 -0.7104
 3261SOL    HW221243   0.131   1.067   2.668 -2.8767  1.3719 -0.2568
 3262SOL     OW21244   2.988   2.744   3.921  0.3498 -0.3416  0.3777
 3262SOL    HW121245   3.022   2.803   3.854  3.6380 -1.1946  1.3142
 3262SOL    HW221246   2.923   2.692   3.875  1.2284 -0.4224 -0.7597
 3263SOL     OW21247   3.457   2.877   6.308  0.2453 -0.0052 -0.2138
 3263SOL    HW121248   3.542   2.900   6.271 -0.3357  0.7339 -1.0902
 3263SOL    HW221249   3.473   2.784   6.324 -1.0244 -0.0632  0.7020
 3264SOL     OW21250   3.576   1.565   3.453  0.0893 -0.4523 -0.0731
 3264SOL    HW121251   3.545   1.474   3.452  0.1779 -0.4997  1.3079
 3264SOL    HW221252   3.539   1.587   3.368 -0.4607  0.2552  0.3455
 3265SOL     OW21253   0.629   1.759   2.558 -0.2598  0.0459 -0.2639
 3265SOL    HW121254   0.559   1.733   2.617  1.2300  1.1006  1.9839
 3265SOL    HW221255   0.668   1.674   2.535 -0.1071  0.4068 -1.3231
 3266SOL     OW21256   4.008   2.953   4.423 -0.4357 -0.4846  0.4164
 3266SOL    HW121257   4.025   2.894   4.350  1.4674  2.6607 -1.6825
 3266SOL    HW221258   3.984   3.034   4.378 -0.5563 -1.3606 -1.0964
 3267SOL     OW21259   3.097   4.456   4.906  0.4052 -0.2583 -0.2246
 3267SOL    HW121260   3.106   4.517   4.832  1.0450 -0.8402 -0.6224
 3267SOL    HW221261   3.042   4.383   4.879 -0.5502  0.6512 -0.7825
 3268SOL     OW21262   4.551   4.076   7.166 -0.5768  0.4192  0.2913
 3268SOL    HW121263   4.464   4.103   7.194  0.0719  1.2549  1.5419
 3268SOL    HW221264   4.549   3.986   7.199  3.2576  1.0387  2.2094
 3269SOL     OW21265   0.864   0.866  12.737  0.1317  0.4318 -0.3284
 3269SOL    HW121266   0.831   0.782  12.705  2.3897 -0.2778 -0.8105
 3269SOL    HW221267   0.955   0.839  12.752 -0.2832 -0.4353  0.6377
 3270SOL     OW21268   0.439   2.801  16.718 -0.6081  0.1657  0.1975
 3270SOL    HW121269   0.474   2.740  16.783 -0.8463  1.4288  1.5124
 3270SOL    HW221270   0.411   2.746  16.644 -0.5090  1.2434 -0.6436
 3271SOL     OW21271   3.986   0.189  14.538 -0.1303  0.2208  0.2941
 3271SOL    HW121272   3.910   0.133  14.519 -1.7668  3.2617 -2.2881
 3271SOL    HW221273   4.055   0.159  14.479  0.8871 -0.4393  1.8382
 3272SOL     OW21274   2.979   3.420  11.007  0.0948 -0.2486 -0.0171
 3272SOL    HW121275   3.035   3.490  10.971  0.7257 -1.3909 -1.2552
 3272SOL    HW221276   2.906   3.474  11.038  0.0825 -0.0911 -0.3159
 3273SOL     OW21277   3.791   3.847   6.919 -0.0866  0.0655  0.5936
 3273SOL    HW121278   3.825   3.785   6.854 -1.1004  0.5447 -0.3785
 3273SOL    HW221279   3.828   3.818   7.003  3.5306  1.3857 -0.5482
 3274SOL     OW21280   4.040   4.048  11.065  0.5688 -0.5178 -0.3012
 3274SOL    HW121281   4.065   3.980  11.128  1.3840  0.7253  0.7014
 3274SOL    HW221282   4.032   3.991  10.988 -0.1646 -1.7923  0.7103
 3275SOL     OW21283   1.218   3.931   3.951  0.7683  0.4300  0.4959
 3275SOL    HW121284   1.225   4.021   3.918 -0.9058  1.1426  2.0643
 3275SOL    HW221285   1.283   3.878   3.905 -1.0029 -0.4957 -0.8999
 3276SOL     OW21286   3.255   2.610  12.691 -0.0912 -0.2384  0.0445
 3276SOL    HW121287   3.206   2.572  12.618 -0.7838  0.3962  0.1816
 3276SOL    HW221288   3.315   2.661  12.636  0.2595 -1.8812 -1.0834
 3277SOL     OW21289   0.518   4.678   2.157 -0.6856 -0.0436  0.3626
 3277SOL    HW121290   0.549   4.596   2.196  0.6208  0.0970 -0.3698
 3277SOL    HW221291   0.450   4.705   2.219  0.3126  1.5288  0.7822
 3278SOL     OW21292   1.331   4.164   2.148 -0.1601  0.0937  0.1440
 3278SOL    HW121293   1.362   4.177   2.058  0.9874  0.1897  0.5471
 3278SOL    HW221294   1.405   4.128   2.198  2.1544  1.0508 -2.5835
 3279SOL     OW21295   0.895   4.329  16.913  0.5285  0.5680  0.0292
 3279SOL    HW121296   0.838   4.259  16.945 -1.5265  0.5232 -3.6690
 3279SOL    HW221297   0.979   4.289  16.891  1.1035  1.1750  1.1354
 3280SOL     OW21298   0.033   1.984  13.228  0.0667  0.5502  0.4043
 3280SOL    HW121299   0.088   1.905  13.232 -1.3428 -0.3475  1.8726
 3280SOL    HW221300   4.672   1.939  13.229 -0.1911  1.0586  1.2350
 3281SOL     OW21301   1.183   3.798   2.964 -0.1066 -0.5586 -0.0791
 3281SOL    HW121302   1.215   3.866   3.024  0.7156 -0.6890 -0.3689
 3281SOL    HW221303   1.193   3.852   2.886  0.3631  0.0196  0.3785
 3282SOL     OW21304   3.014   4.115   5.180 -0.5310 -0.3303 -0.0556
 3282SOL    HW121305   3.061   4.199   5.179 -0.7860 -0.2123 -2.4802
 3282SOL    HW221306   3.085   4.064   5.220  1.4197  0.9078 -1.9162
 3283SOL     OW21307   0.091   0.311  14.804  0.3884 -0.1528  0.0813
 3283SOL    HW121308   0.098   0.397  14.846 -0.7368  0.4969 -1.0705
 3283SOL    HW221309   0.110   0.349  14.718  0.0598  0.7216  0.3926
 3284SOL     OW21310   3.230   4.369  14.179  0.0445  0.4134  0.3005
 3284SOL    HW121311   3.210   4.454  14.218 -2.3811  0.0784 -0.2248
 3284SOL    HW221312   3.152   4.351  14.127 -0.8629  0.5649  1.6124
 3285SOL     OW21313   4.308   2.179   9.194  0.3922  0.0252 -0.7865
 3285SOL    HW121314   4.290   2.110   9.258 -2.9003  2.7599  1.2457
 3285SOL    HW221315   4.300   2.133   9.111 -2.5661 -0.6172 -0.1566
 3286SOL     OW21316   1.895   0.726   5.107 -0.5083 -0.3963  0.1996
 3286SOL    HW121317   1.910   0.707   5.200  2.1818 -0.4107 -0.2652
 3286SOL    HW221318   1.808   0.767   5.111  0.1003  0.7888  1.1963
 3287SOL     OW21319   2.966   1.193   6.669  0.5431  0.7816  0.2826
 3287SOL    HW121320   2.871   1.192   6.675  0.4004 -3.8114 -2.9469
 3287SOL    HW221321   2.968   1.216   6.576  0.4710 -0.9305 -0.1467
 3288SOL     OW21322   1.168   3.229   7.826  0.5949  0.0527 -0.4005
 3288SOL    HW121323   1.198   3.150   7.781  0.0651 -0.1053 -0.4674
 3288SOL    HW221324   1.126   3.183   7.898 -2.8965  1.6774 -1.4424
 3289SOL     OW21325   2.465   1.873   8.421  0.0859  0.4769 -0.2803
 3289SOL    HW121326   2.429   1.883   8.333  0.8596 -1.3654 -0.8025
 3289SOL    HW221327   2.554   1.837   8.411 -0.6900 -1.2072 -1.1920
 3290SOL     OW21328   0.727   2.079   7.892  0.4997 -0.2925 -0.6321
 3290SOL    HW121329   0.788   2.005   7.892 -0.8680 -1.4179 -0.8784
 3290SOL    HW221330   0.667   2.057   7.964 -1.0778  0.8483 -1.5998
 3291SOL     OW21331   0.502   2.844   4.282 -0.8724  0.0238 -0.2827
 3291SOL    HW121332   0.557   2.821   4.357 -0.7244 -1.0147 -0.7129
 3291SOL    HW221333   0.427   2.785   4.291 -0.0387 -0.8230  1.0400
 3292SOL     OW21334   2.500   0.616   7.821  0.0967 -0.1192 -0.0227
 3292SOL    HW121335   2.448   0.696   7.832 -0.4850 -0.8973  2.9231
 3292SOL    HW221336   2.448   0.554   7.872  1.2986 -1.2027 -0.1155
 3293SOL     OW21337   2.586   3.468   4.031 -0.1346  0.0380 -0.2391
 3293SOL    HW121338   2.590   3.374   4.011  2.0577 -0.2968  1.6764
 3293SOL    HW221339   2.634   3.471   4.114 -0.3635  0.6716 -0.1305
 3294SOL     OW21340   1.658   3.331  11.405  0.3776  0.5699  0.3182
 3294SOL    HW121341   1.733   3.272  11.411 -1.9853 -2.3551  1.1142
 3294SOL    HW221342   1.702   3.415  11.389  0.0647  0.2560 -2.2162
 3295SOL     OW21343   2.116   2.552   6.796 -0.2510  0.1503  0.0714
 3295SOL    HW121344   2.033   2.533   6.840 -0.9632  1.5273 -0.6493
 3295SOL    HW221345   2.086   2.583   6.710 -1.2767  1.1764  0.7967
 3296SOL     OW21346   3.838   1.429   3.562  0.2344 -0.3337  0.7180
 3296SOL    HW121347   3.744   1.445   3.559  0.3920 -0.3030 -3.3722
 3296SOL    HW221348   3.862   1.448   3.653  1.0975 -0.7269  0.5740
 3297SOL     OW21349   4.567   3.098   4.835 -0.6665 -0.7966  0.6515
 3297SOL    HW121350   4.658   3.070   4.834 -0.1671  0.7901  1.8649
 3297SOL    HW221351   4.551   3.162   4.904  0.3484 -0.2300  0.3591
 3298SOL     OW21352   2.896   4.161   8.849 -0.0297  0.0808  0.6661
 3298SOL    HW121353   2.803   4.182   8.847  0.3463  1.4375 -2.0335
 3298SOL    HW221354   2.904   4.068   8.869  1.0905  0.1883  0.7328
 3299SOL     OW21355   3.459   1.525   2.025  0.2309  0.4639  0.2885
 3299SOL    HW121356   3.525   1.511   1.958 -0.2696 -0.4418 -0.0236
 3299SOL    HW221357   3.426   1.437   2.041 -0.6135  0.8274  0.5381
 3300SOL     OW21358   3.583   2.250   7.745 -0.4172 -0.1167  0.7711
 3300SOL    HW121359   3.558   2.160   7.767 -2.0910  0.6811  2.2412
 3300SOL    HW221360   3.677   2.251   7.728  0.0095  0.7289  3.0719
 3301SOL     OW21361   2.764   2.282   7.945 -0.5174 -0.1384  0.1808
 3301SOL    HW121362   2.726   2.315   7.863  2.9120  1.9896 -0.5586
 3301SOL    HW221363   2.688   2.297   8.001  0.8274  0.2923  1.8884
 3302SOL     OW21364   1.884   3.160   5.234 -0.2737  0.6186  0.2812
 3302SOL    HW121365   1.904   3.078   5.189  1.5272  1.0129  0.3491
 3302SOL    HW221366   1.970   3.203   5.238  0.8339 -1.5378 -0.7144
 3303SOL     OW21367   2.785   3.344   6.009  0.2378 -0.6143 -0.7184
 3303SOL    HW121368   2.760   3.392   5.930 -0.2523 -0.7098 -0.6216
 3303SOL    HW221369   2.875   3.371   6.023  0.4777 -1.9265  0.2661
 3304SOL     OW21370   2.964   3.741   5.935  0.4867 -0.2436  0.5206
 3304SOL    HW121371   2.887   3.718   5.883 -0.6987 -0.5589  2.4531
 3304SOL    HW221372   3.025   3.753   5.861 -2.9260  0.5892 -2.1459
 3305SOL     OW21373   4.584   3.963   0.649  0.4574 -0.3086  0.1242
 3305SOL    HW121374   4.514   3.921   0.699  0.1014  2.5242  2.0084
 3305SOL    HW221375   4.542   4.046   0.627  0.7258 -0.1307  0.2682
 3306SOL     OW21376   2.136   3.763   6.822 -0.1351 -0.8264 -0.3204
 3306SOL    HW121377   2.133   3.692   6.758 -2.0132 -2.5646  1.7122
 3306SOL    HW221378   2.092   3.839   6.783 -1.6059 -1.4240  0.1622
 3307SOL     OW21379   4.484   4.425  17.674 -0.4839 -0.0405  0.4126
 3307SOL    HW121380   4.550   4.449  17.609 -0.0631 -1.3126  0.3728
 3307SOL    HW221381   4.463   4.332  17.660  0.7848 -0.3664  0.7269
 3308SOL     OW21382   4.400   1.352   0.199 -0.1407 -0.0759  0.3150
 3308SOL    HW121383   4.346   1.286   0.154  1.2994  1.7973 -4.1963
 3308SOL    HW221384   4.350   1.361   0.279  0.8582  1.4091  0.7743
 3309SOL     OW21385   3.239   1.206  11.836  0.3356 -0.2022  0.2836
 3309SOL    HW121386   3.334   1.196  11.835  0.4226  0.3487  2.1858
 3309SOL    HW221387   3.247   1.255  11.755  2.0301  2.6391  2.1688
 3310SOL     OW21388   3.735   1.613   0.326  0.6243 -0.3908 -0.1315
 3310SOL    HW121389   3.724   1.548   0.395 -0.0165  0.9445  1.0195
 3310SOL    HW221390   3.649   1.616   0.285  0.0142 -0.4980  1.1540
 3311SOL     OW21391   1.896   2.840   3.408  0.1270  0.0278 -0.2470
 3311SOL    HW121392   1.836   2.910   3.382  1.2625  1.5138  1.1672
 3311SOL    HW221393   1.842   2.767   3.378  0.5938 -0.7886  0.9098
 3312SOL     OW21394   2.311   0.913  15.377  0.2112 -0.0381 -0.1821
 3312SOL    HW121395   2.338   1.002  15.400 -0.8543 -0.2333  1.7877
 3312SOL    HW221396   2.245   0.910  15.308  1.3843  0.5377 -1.3220
 3313SOL     OW21397   0.601   0.005   4.649  0.1337  0.3629 -0.2086
 3313SOL    HW121398   0.657   4.688   4.584 -0.7654  1.1925 -1.5178
 3313SOL    HW221399   0.519   4.699   4.609  0.5639 -0.8994 -0.1381
 3314SOL     OW21400   3.806   2.496   7.704  0.1051 -0.8998  0.1444
 3314SOL    HW121401   3.875   2.488   7.769 -0.2206 -2.7756  0.2514
 3314SOL    HW221402   3.744   2.538   7.764  1.0608  1.3622 -0.4147
 3315SOL     OW21403   4.273   0.448   0.795 -0.2988  0.2788  0.0837
 3315SOL    HW121404   4.215   0.520   0.770  0.0800 -0.2831 -2.4942
 3315SOL    HW221405   4.354   0.497   0.808  0.9263 -1.3580 -1.3943
 3316SOL     OW21406   0.816   1.115   2.627 -0.3710 -0.7446  0.5749
 3316SOL    HW121407   0.868   1.052   2.576 -0.2238  0.3571 -0.6357
 3316SOL    HW221408   0.761   1.154   2.558  1.8319  1.9349  0.3775
 3317SOL     OW21409   4.369   2.503   3.095 -0.1168 -0.1402  0.2584
 3317SOL    HW121410   4.302   2.465   3.152 -0.0858  0.4085  0.6639
 3317SOL    HW221411   4.398   2.427   3.044 -0.7620 -0.5982  0.5700
 3318SOL     OW21412   1.690   0.411   9.227 -0.6450  0.4466  0.3433
 3318SOL    HW121413   1.624   0.475   9.254  0.5646  1.4045  1.0535
 3318SOL    HW221414   1.635   0.358   9.170 -0.8852 -0.1966  1.1666
 3319SOL     OW21415   1.448   3.192   2.053  0.3267  0.3109 -0.2211
 3319SOL    HW121416   1.441   3.239   2.136 -1.1906 -0.5673  0.1523
 3319SOL    HW221417   1.368   3.213   2.005  0.3710  0.6011 -0.1654
 3320SOL     OW21418   2.940   3.285   8.652 -0.2578  0.3233 -0.1947
 3320SOL    HW121419   2.949   3.280   8.557 -1.1006 -1.5723 -0.1706
 3320SOL    HW221420   2.847   3.280   8.671 -0.2722  0.9032 -0.1160
 3321SOL     OW21421   2.531   2.681  11.587  0.3474 -0.1636 -0.1286
 3321SOL    HW121422   2.530   2.657  11.494 -0.7556  0.2365 -0.2230
 3321SOL    HW221423   2.606   2.739  11.575 -0.1686  1.0326  2.3685
 3322SOL     OW21424   0.500   0.203   6.501  0.7414 -0.4734 -0.6381
 3322SOL    HW121425   0.567   0.162   6.446 -0.2762 -2.0513 -0.7021
 3322SOL    HW221426   0.486   0.141   6.573  4.0124 -1.4007 -0.7927
 3323SOL     OW21427   1.198   4.075  15.645  0.0923  0.2841 -0.4198
 3323SOL    HW121428   1.140   4.004  15.674  1.0244  0.0055  0.7480
 3323SOL    HW221429   1.140   4.151  15.641 -0.2679 -0.0103 -0.8313
 3324SOL     OW21430   2.685   2.178  15.418  0.2482  0.5601 -0.1150
 3324SOL    HW121431   2.768   2.200  15.374 -0.7760 -0.1732 -2.4081
 3324SOL    HW221432   2.714   2.107  15.475  2.8552  1.3063 -0.4932
 3325SOL     OW21433   1.216   2.009   3.479  0.4103 -0.3602 -0.7049
 3325SOL    HW121434   1.135   1.980   3.440  1.7069 -3.3299 -1.1595
 3325SOL    HW221435   1.190   2.101   3.485 -0.1655 -0.4968 -1.1597
 3326SOL     OW21436   3.998   1.751   3.319 -0.2216  0.0530 -0.4068
 3326SOL    HW121437   3.986   1.772   3.411  0.0906 -2.2858  0.1527
 3326SOL    HW221438   3.960   1.664   3.317  0.0051 -0.0541  0.0464
 3327SOL     OW21439   0.991   0.998   3.589  0.3028 -0.7642  0.2359
 3327SOL    HW121440   0.919   1.043   3.633  0.2574  2.6796 -3.3478
 3327SOL    HW221441   1.033   1.068   3.539  1.0666 -0.8572  0.7521
 3328SOL     OW21442   0.448   1.830  10.035 -0.5924  0.6309  0.2561
 3328SOL    HW121443   0.399   1.906  10.004 -2.3059 -0.5744 -0.0451
 3328SOL    HW221444   0.497   1.799   9.959 -0.6188  1.6483 -0.1761
 3329SOL     OW21445   4.711   1.019   4.808 -0.1511  0.7906 -0.3854
 3329SOL    HW121446   4.639   1.019   4.871  0.3284  1.0499  0.1639
 3329SOL    HW221447   0.044   0.952   4.846 -0.4306  0.0577 -1.2642
 3330SOL     OW21448   1.124   0.699  17.342  0.7636 -0.2831 -0.1101
 3330SOL    HW121449   1.206   0.743  17.317  0.7058 -0.0813  0.0544
 3330SOL    HW221450   1.127   0.624  17.284  2.5209  1.4083 -2.2272
 3331SOL     OW21451   2.327   3.049  12.768  0.4102  0.4385  0.6288
 3331SOL    HW121452   2.278   3.071  12.847 -0.0542 -1.0876  0.7662
 3331SOL    HW221453   2.358   3.134  12.737  1.0673  0.0494  0.2180
 3332SOL     OW21454   1.686   3.632   3.367 -0.1466  0.0095  0.2065
 3332SOL    HW121455   1.701   3.608   3.275  1.6974 -1.2979  0.8591
 3332SOL    HW221456   1.766   3.603   3.411 -1.2208 -2.1427  0.7184
 3333SOL     OW21457   2.793   0.517   4.554  0.6494  0.0522 -0.2973
 3333SOL    HW121458   2.817   0.502   4.463 -0.7777 -0.6829 -0.5535
 3333SOL    HW221459   2.840   0.448   4.601 -0.7403  0.5875  1.9140
 3334SOL     OW21460   3.422   2.172   2.610 -0.1183 -0.2586 -0.0645
 3334SOL    HW121461   3.346   2.179   2.668 -1.0483  0.1658 -1.3379
 3334SOL    HW221462   3.464   2.093   2.645  1.1561  0.6534  0.4805
 3335SOL     OW21463   3.488   0.291   6.583 -0.2141 -0.4115 -0.1650
 3335SOL    HW121464   3.549   0.219   6.567  1.3464  0.9371 -0.2662
 3335SOL    HW221465   3.508   0.320   6.672 -3.7519 -1.0079  0.8530
 3336SOL     OW21466   1.692   1.206   8.358  0.3486 -0.0044 -0.0876
 3336SOL    HW121467   1.676   1.275   8.423 -2.7143 -0.3186 -0.5355
 3336SOL    HW221468   1.726   1.136   8.413  0.9894  1.2372  1.1043
 3337SOL     OW21469   3.044   2.796   4.618 -0.1245  0.8307  0.0405
 3337SOL    HW121470   3.024   2.813   4.710  1.9980 -0.4754  0.7422
 3337SOL    HW221471   3.138   2.781   4.622  0.2551  2.3343 -3.5460
 3338SOL     OW21472   4.685   2.038   7.231 -0.1670 -0.3107 -0.5817
 3338SOL    HW121473   4.603   2.084   7.246  0.8931  1.7800 -1.1792
 3338SOL    HW221474   4.684   1.964   7.292  0.5097 -0.8158 -1.1780
 3339SOL     OW21475   4.053   1.266   4.245 -0.6638 -0.0701 -0.3053
 3339SOL    HW121476   4.091   1.249   4.331  0.1923 -0.4575 -0.7503
 3339SOL    HW221477   4.057   1.178   4.209  3.6113 -0.1476  0.3274
 3340SOL     OW21478   0.175   1.804   0.699 -0.4279 -0.3218 -0.0700
 3340SOL    HW121479   0.208   1.884   0.739  0.7395 -0.1786 -1.3324
 3340SOL    HW221480   0.140   1.843   0.619  0.5711 -1.4440 -1.0667
 3341SOL     OW21481   0.379   4.582  13.904  0.0430 -0.0157  0.3696
 3341SOL    HW121482   0.338   4.533  13.975  0.6316 -0.3825  0.4561
 3341SOL    HW221483   0.341   4.533  13.830  0.0278  0.7011 -0.1008
 3342SOL     OW21484   0.454   3.595   1.607 -0.0516 -0.4162 -0.2964
 3342SOL    HW121485   0.431   3.515   1.561  1.2739  0.7775 -3.0143
 3342SOL    HW221486   0.447   3.565   1.698 -1.6416 -3.0273 -1.2617
 3343SOL     OW21487   1.513   1.732   6.674 -0.2056  0.3240 -0.3706
 3343SOL    HW121488   1.436   1.710   6.726 -0.4655 -0.5856 -1.1412
 3343SOL    HW221489   1.469   1.748   6.591 -0.4593 -0.5397 -0.4029
 3344SOL     OW21490   1.082   2.929   3.809 -0.1712  0.4388  0.1992
 3344SOL    HW121491   1.090   2.977   3.727  0.1204 -0.3866 -0.2519
 3344SOL    HW221492   0.998   2.967   3.835 -1.0811 -1.8815  0.6556
 3345SOL     OW21493   2.206   0.182   7.753 -0.0723 -0.1039  0.3731
 3345SOL    HW121494   2.291   0.155   7.789  1.0333  2.2318 -0.4975
 3345SOL    HW221495   2.196   0.135   7.670  0.3392 -0.4385  0.5090
 3346SOL     OW21496   4.100   0.846   7.150  0.0793 -0.4124 -0.0028
 3346SOL    HW121497   4.118   0.904   7.224  0.9638 -2.1193  1.1000
 3346SOL    HW221498   4.035   0.905   7.111 -2.0332 -2.2628  0.7247
 3347SOL     OW21499   0.780   2.720  16.454  0.1498  0.1676  0.2747
 3347SOL    HW121500   0.731   2.700  16.374 -0.0141  1.7435 -0.0202
 3347SOL    HW221501   0.788   2.637  16.500 -0.4918 -0.4066 -0.6532
 3348SOL     OW21502   3.867   3.664   0.804 -0.3519 -0.0361  0.8411
 3348SOL    HW121503   3.866   3.594   0.738 -3.2722  0.0993  0.7249
 3348SOL    HW221504   3.916   3.733   0.760  0.6566 -0.7288  0.8811
 3349SOL     OW21505   3.309   0.098   2.231  0.1760 -0.5201 -0.3654
 3349SOL    HW121506   3.281   0.171   2.176 -1.2765  0.0911  1.2041
 3349SOL    HW221507   3.223   0.077   2.267 -0.3555  0.9137 -0.8224
 3350SOL     OW21508   4.351   4.446  12.532  0.1735 -0.0566  0.0156
 3350SOL    HW121509   4.296   4.520  12.555  0.9838  1.1989 -2.0471
 3350SOL    HW221510   4.316   4.387  12.598  0.4433  1.1591  1.2532
 3351SOL     OW21511   2.905   3.337   5.573 -0.8116  0.0413 -0.0298
 3351SOL    HW121512   2.992   3.297   5.566 -1.5161 -1.6396  0.8676
 3351SOL    HW221513   2.890   3.388   5.493 -1.4036 -0.1166 -0.0186
 3352SOL     OW21514   1.124   2.865   9.032  0.1815  0.1740  0.6583
 3352SOL    HW121515   1.040   2.906   9.013  0.6550  1.5211  1.4459
 3352SOL    HW221516   1.095   2.783   8.992 -1.8198 -0.1029  2.7096
 3353SOL     OW21517   1.852   1.697  15.073 -0.0801 -0.1171  0.3035
 3353SOL    HW121518   1.792   1.737  15.010 -0.1348  1.7385  1.5310
 3353SOL    HW221519   1.928   1.707  15.016 -2.2552  1.0210 -2.4021
 3354SOL     OW21520   1.159   0.120  12.115 -0.0316  0.1556  0.6234
 3354SOL    HW121521   1.164   0.031  12.151 -0.3584  0.1911  0.7574
 3354SOL    HW221522   1.073   0.147  12.148  0.8118  1.4508  1.7465
 3355SOL     OW21523   0.139   4.672  15.952 -0.1276 -0.6131  0.5491
 3355SOL    HW121524   0.122   4.613  15.878 -0.9223  0.8600 -0.4460
 3355SOL    HW221525   0.214   4.723  15.923  0.3980 -1.8501 -0.2852
 3356SOL     OW21526   4.345   0.120  12.369 -0.7341  0.4164  0.2300
 3356SOL    HW121527   4.387   0.094  12.451 -2.3526  2.9416  1.8748
 3356SOL    HW221528   4.394   0.053  12.321 -0.2577  1.9991 -1.5049
 3357SOL     OW21529   0.778   0.299   5.039  0.4855 -0.1006 -0.3766
 3357SOL    HW121530   0.719   0.280   5.112 -0.5320  0.8338 -0.9567
 3357SOL    HW221531   0.744   0.237   4.976  1.8390 -0.4822 -0.7295
 3358SOL     OW21532   1.662   3.014   8.914  0.0266 -0.3903  0.1890
 3358SOL    HW121533   1.587   2.955   8.911  0.4571 -0.8698 -0.9565
 3358SOL    HW221534   1.649   3.050   9.002  0.0835 -1.3416  0.5855
 3359SOL     OW21535   3.150   3.202   7.396 -0.1363  0.2942  0.3610
 3359SOL    HW121536   3.068   3.248   7.412  0.9403  2.0357  0.8701
 3359SOL    HW221537   3.120   3.113   7.412 -0.4753  0.7983  2.4744
 3360SOL     OW21538   1.763   4.512   2.519  0.2493 -0.2882 -0.3105
 3360SOL    HW121539   1.841   4.519   2.573  0.7971 -2.5936 -0.8239
 3360SOL    HW221540   1.780   4.573   2.446 -0.1991  1.8896  1.3913
 3361SOL     OW21541   2.060   3.779   7.577  0.3393  0.1435  0.1378
 3361SOL    HW121542   2.068   3.869   7.609 -0.6556 -0.3698  1.8266
 3361SOL    HW221543   1.995   3.747   7.639 -2.1823 -0.0061 -2.6068
 3362SOL     OW21544   0.018   3.887   8.258 -0.6732  0.2783  0.2208
 3362SOL    HW121545   0.110   3.888   8.285 -0.2888 -0.1171 -1.0687
 3362SOL    HW221546   4.704   3.966   8.296 -0.4986 -0.3058  1.6098
 3363SOL     OW21547   0.773   1.645   3.759  0.1259 -0.5285  0.4676
 3363SOL    HW121548   0.792   1.724   3.708  0.2413 -0.6135  0.3789
 3363SOL    HW221549   0.700   1.605   3.713 -0.9696  2.3830 -0.3637
 3364SOL     OW21550   0.976   0.774   4.110 -0.1695  0.4740 -1.0648
 3364SOL    HW121551   1.047   0.838   4.108  1.9292 -1.8118  0.4019
 3364SOL    HW221552   1.008   0.711   4.045 -0.5286 -0.8264  0.0314
 3365SOL     OW21553   0.526   3.927  15.730  0.4243  0.5596  0.4494
 3365SOL    HW121554   0.594   3.978  15.685  0.2230 -0.1120 -0.6114
 3365SOL    HW221555   0.582   3.863  15.773  1.3695  1.4966  0.6223
 3366SOL     OW21556   2.368   2.086  15.880 -0.5140  0.3794 -0.4532
 3366SOL    HW121557   2.380   2.104  15.973  2.1484  1.1331 -0.9672
 3366SOL    HW221558   2.389   2.172  15.843  0.6952  0.2337 -0.0943
 3367SOL     OW21559   3.969   0.183   3.741  0.5810 -0.0376 -0.1511
 3367SOL    HW121560   3.932   0.097   3.720 -0.5813  0.2153  0.8773
 3367SOL    HW221561   4.012   0.168   3.825  1.3876  0.7287 -0.4276
 3368SOL     OW21562   4.629   2.466  16.041 -0.3660  0.5552  0.3096
 3368SOL    HW121563   4.621   2.388  16.097 -0.1115  1.8942  2.1970
 3368SOL    HW221564   4.537   2.480  16.020 -0.5510 -2.1061 -0.6675
 3369SOL     OW21565   4.437   4.673   7.642 -0.4328 -0.3140  0.1189
 3369SOL    HW121566   4.486   4.655   7.722  0.5970  0.6433 -0.3031
 3369SOL    HW221567   4.459   4.594   7.592  0.0602 -0.0652 -0.0642
 3370SOL     OW21568   1.306   3.277   4.871 -0.1516  0.5613 -0.3420
 3370SOL    HW121569   1.350   3.359   4.894  1.8172 -0.4216 -0.6289
 3370SOL    HW221570   1.233   3.280   4.933  1.2553 -1.2040  1.3825
 3371SOL     OW21571   0.685   1.726   5.017 -0.1716  0.2869 -0.0811
 3371SOL    HW121572   0.686   1.814   4.978 -0.0375  0.8614  1.2374
 3371SOL    HW221573   0.731   1.750   5.097  0.0969 -1.8758  0.4183
 3372SOL     OW21574   4.085   4.250   1.168 -0.3837  0.3327 -0.4468
 3372SOL    HW121575   4.127   4.272   1.252 -0.8910 -1.2574  0.2150
 3372SOL    HW221576   3.996   4.221   1.188 -0.0101 -1.2290 -1.0781
 3373SOL     OW21577   3.470   0.913   1.333 -0.3155  0.6642  0.1720
 3373SOL    HW121578   3.561   0.898   1.305  0.2299 -0.2194  2.3893
 3373SOL    HW221579   3.439   0.823   1.331 -1.7688  1.1900 -0.7801
 3374SOL     OW21580   3.771   1.657   5.183  0.2027  0.1784  0.4126
 3374SOL    HW121581   3.758   1.568   5.217  0.1828  0.0707  0.1228
 3374SOL    HW221582   3.694   1.700   5.221  1.0293  1.5097  0.5804
 3375SOL     OW21583   3.466   4.532   3.814  0.4600  0.2878 -0.2116
 3375SOL    HW121584   3.545   4.498   3.772  0.5888  0.0058  0.2613
 3375SOL    HW221585   3.501   4.609   3.860  0.5612 -1.1518  2.1331
 3376SOL     OW21586   3.489   1.057   0.968  0.3136  0.1264 -0.1867
 3376SOL    HW121587   3.461   1.131   0.913 -0.6761 -1.6485 -2.0696
 3376SOL    HW221588   3.583   1.075   0.968  0.6732 -1.7769 -1.7758
 3377SOL     OW21589   1.905   1.321   8.568  1.2086  0.4083 -0.5260
 3377SOL    HW121590   1.846   1.281   8.633  0.8285  1.7954  0.0065
 3377SOL    HW221591   1.956   1.371   8.632  1.1993  0.4424 -0.5449
 3378SOL     OW21592   0.650   3.406   3.897 -0.1896 -0.0544 -0.5491
 3378SOL    HW121593   0.745   3.406   3.911 -0.4283  3.3896  1.2089
 3378SOL    HW221594   0.634   3.316   3.926  2.7137 -0.2533  0.4863
 3379SOL     OW21595   3.742   1.414   5.271 -0.0902 -0.2834  0.2353
 3379SOL    HW121596   3.793   1.375   5.342 -1.0589  0.1598  1.1717
 3379SOL    HW221597   3.792   1.398   5.191  0.5982  2.0626  0.2002
 3380SOL     OW21598   1.063   3.086   2.682  0.2931  0.0754  0.3747
 3380SOL    HW121599   1.001   3.070   2.753 -0.1522  0.0644 -0.0231
 3380SOL    HW221600   1.057   3.009   2.626 -0.6636  1.2490 -1.1079
 3381SOL     OW21601   0.460   0.026   1.885  0.2963  0.4358 -0.4085
 3381SOL    HW121602   0.471   0.005   1.977  0.3966  2.4093  0.0447
 3381SOL    HW221603   0.553   0.048   1.874  0.5594  0.0602  1.0721
 3382SOL     OW21604   2.068   3.031  11.415 -0.3860 -0.4224  0.1013
 3382SOL    HW121605   2.154   3.032  11.373 -1.4869  0.7251 -2.1580
 3382SOL    HW221606   2.097   3.010  11.504  2.9307 -0.4387 -0.9863
 3383SOL     OW21607   1.466   4.151  15.226 -0.3419  0.1041 -0.2897
 3383SOL    HW121608   1.468   4.159  15.130  0.0418  0.1200 -0.2779
 3383SOL    HW221609   1.432   4.062  15.240 -1.9590  0.6655 -0.5676
 3384SOL     OW21610   0.728   2.871   1.057 -0.1948 -0.2013  0.4463
 3384SOL    HW121611   0.781   2.831   0.989  1.1482  0.6381  1.0142
 3384SOL    HW221612   0.639   2.850   1.028 -0.9033  2.5598  0.5753
 3385SOL     OW21613   3.617   2.174   5.177 -0.4439  0.4088  0.7045
 3385SOL    HW121614   3.599   2.082   5.157  2.9886 -0.0389 -0.2314
 3385SOL    HW221615   3.683   2.202   5.114 -1.3709  0.3781 -0.2866
 3386SOL     OW21616   4.144   3.381   7.078  0.0189 -0.4370 -0.1418
 3386SOL    HW121617   4.207   3.314   7.104  1.1558 -0.0686 -1.9291
 3386SOL    HW221618   4.075   3.333   7.032  0.1026 -0.8347  0.1429
 3387SOL     OW21619   2.104   0.294   8.688 -0.2621 -0.0631 -0.1533
 3387SOL    HW121620   2.072   0.207   8.665 -0.6990 -0.4724  1.9349
 3387SOL    HW221621   2.029   0.351   8.677 -1.3294 -1.2215  1.1598
 3388SOL     OW21622   1.455   3.308   2.286  0.1093  0.3345  0.1720
 3388SOL    HW121623   1.484   3.387   2.331 -0.6121  0.3071  0.6906
 3388SOL    HW221624   1.365   3.292   2.315 -0.0694  1.6417  0.3473
 3389SOL     OW21625   4.353   1.108   7.186 -0.7167 -0.5281  0.7117
 3389SOL    HW121626   4.298   1.052   7.241 -1.6710  0.8089  1.1347
 3389SOL    HW221627   4.310   1.093   7.102  0.8299  0.3744 -0.2504
 3390SOL     OW21628   3.599   1.949   4.725 -0.2825  0.3849 -0.0462
 3390SOL    HW121629   3.534   1.952   4.796 -1.7253  0.1503 -1.3663
 3390SOL    HW221630   3.544   1.994   4.661  1.8162  0.5399 -1.7226
 3391SOL     OW21631   1.975   0.692   4.375  0.2072 -0.4934  0.0207
 3391SOL    HW121632   2.037   0.674   4.304 -0.2244  0.8845 -0.7147
 3391SOL    HW221633   2.008   0.634   4.443 -1.4538 -2.5668 -0.9322
 3392SOL     OW21634   4.045   3.816   1.301 -0.2698 -0.0881 -0.7004
 3392SOL    HW121635   4.024   3.908   1.286  2.3315  1.0176  2.3535
 3392SOL    HW221636   4.113   3.835   1.365 -3.1462  3.5508  1.2772
 3393SOL     OW21637   1.388   4.636   5.723 -0.1552 -0.1240 -0.0534
 3393SOL    HW121638   1.360   4.601   5.638 -2.5461  1.2597  0.1486
 3393SOL    HW221639   1.396   4.554   5.771 -2.5842  0.0446  0.6666
 3394SOL     OW21640   3.726   2.432   8.465  0.1183 -0.1054  0.0403
 3394SOL    HW121641   3.772   2.349   8.473 -1.0203 -0.5112  2.4135
 3394SOL    HW221642   3.656   2.415   8.528 -1.0442 -0.9932 -1.4900
 3395SOL     OW21643   4.472   1.004  10.959  0.8069  0.1078  0.1690
 3395SOL    HW121644   4.547   0.945  10.958  0.9733  0.2807  1.9692
 3395SOL    HW221645   4.487   1.055  11.038  2.3837 -0.5045  0.2598
 3396SOL     OW21646   2.873   4.279  17.374 -0.5127 -0.2631 -0.3721
 3396SOL    HW121647   2.958   4.250  17.409 -0.7532 -0.1162  0.3303
 3396SOL    HW221648   2.866   4.229  17.293 -1.5256 -2.1505  0.8854
 3397SOL     OW21649   2.467   0.601   2.885 -0.0273  0.4197 -0.2196
 3397SOL    HW121650   2.462   0.645   2.800  0.4018  5.0495  2.1955
 3397SOL    HW221651   2.458   0.509   2.857  1.3375 -0.6736  2.9707
 3398SOL     OW21652   0.206   0.415   2.567 -0.4968  0.6308  0.0554
 3398SOL    HW121653   0.153   0.358   2.623  0.5718  0.6688  1.0970
 3398SOL    HW221654   0.191   0.373   2.482  2.2380 -1.1516  0.4638
 3399SOL     OW21655   4.429   3.120   2.155  0.7004  0.6238  0.4308
 3399SOL    HW121656   4.430   3.167   2.072 -0.4813 -0.3643 -0.1247
 3399SOL    HW221657   4.356   3.155   2.207  0.1379 -1.7801  1.2281
 3400SOL     OW21658   1.323   3.263   9.273  0.9540 -0.4476  0.4428
 3400SOL    HW121659   1.319   3.172   9.243 -2.6590  0.6754 -2.5028
 3400SOL    HW221660   1.281   3.299   9.195  0.1085 -2.7553 -0.1799
 3401SOL     OW21661   0.737   4.135   3.134 -0.0249 -0.2972 -1.0709
 3401SOL    HW121662   0.684   4.208   3.104  1.5107  1.4355  0.4158
 3401SOL    HW221663   0.716   4.078   3.060  1.5190 -0.2026 -1.5917
 3402SOL     OW21664   3.533   1.282   9.114  0.4040 -0.1666 -0.5835
 3402SOL    HW121665   3.572   1.306   9.030  0.5400 -0.2617 -0.5479
 3402SOL    HW221666   3.442   1.267   9.091  1.0460 -1.1668 -2.4897
 3403SOL     OW21667   0.787   4.518   5.879  0.1915  0.2269  0.3845
 3403SOL    HW121668   0.737   4.542   5.957  2.1941  0.3753  1.6288
 3403SOL    HW221669   0.760   4.426   5.876  0.7782  0.0807 -0.5781
 3404SOL     OW21670   4.607   1.230   8.603  0.3341 -0.1809  0.7159
 3404SOL    HW121671   4.518   1.261   8.622 -0.1887 -1.3137  0.1238
 3404SOL    HW221672   4.643   1.248   8.690 -0.4815  0.9896  0.8193
 3405SOL     OW21673   2.060   4.542   8.523  0.4378 -0.1141  0.2340
 3405SOL    HW121674   2.123   4.551   8.452  1.0620  0.6910  0.8832
 3405SOL    HW221675   2.075   4.451   8.551 -1.1595 -0.2574  0.5940
 3406SOL     OW21676   3.085   3.630   3.220 -0.1766 -0.5244  0.1571
 3406SOL    HW121677   3.154   3.619   3.285 -0.7787 -0.0444  0.8691
 3406SOL    HW221678   3.051   3.716   3.242 -0.7822 -0.9559  0.9143
 3407SOL     OW21679   2.294   2.583   8.193  0.0647 -0.1970  0.1216
 3407SOL    HW121680   2.387   2.603   8.183 -0.4036  2.1210  0.3510
 3407SOL    HW221681   2.271   2.627   8.274  0.0589 -1.2519  0.6868
 3408SOL     OW21682   1.006   0.983   5.616  0.5263  0.0836  0.1714
 3408SOL    HW121683   0.969   1.022   5.695  0.0069  1.2217 -0.6308
 3408SOL    HW221684   1.045   1.064   5.582 -0.6474  0.5954  0.0411
 3409SOL     OW21685   4.676   2.796   6.593 -0.4641  0.1824 -0.1270
 3409SOL    HW121686   4.642   2.717   6.551 -1.7315  0.1312  0.9797
 3409SOL    HW221687   4.638   2.869   6.544 -3.6419 -0.9286  0.6828
 3410SOL     OW21688   0.066   2.085   4.278  0.2910  0.9189 -0.2461
 3410SOL    HW121689   0.050   2.005   4.328  0.8611  1.0343  0.1110
 3410SOL    HW221690   0.149   2.063   4.236 -0.7171 -2.0480 -0.6581
 3411SOL     OW21691   1.516   4.075   8.150 -0.5185 -0.5524 -0.4363
 3411SOL    HW121692   1.485   4.118   8.230 -1.1389 -0.2661 -0.8290
 3411SOL    HW221693   1.441   4.110   8.101  0.2544 -1.0671 -1.9764
 3412SOL     OW21694   3.153   1.132   8.349 -0.0520 -0.5219 -0.1109
 3412SOL    HW121695   3.208   1.078   8.292  1.6378  2.1098 -0.9962
 3412SOL    HW221696   3.064   1.136   8.313  0.9699  0.1509 -2.5885
 3413SOL     OW21697   1.280   2.386   5.839 -0.0633  0.4654  0.1840
 3413SOL    HW121698   1.206   2.430   5.881  0.4963  1.5176  0.0424
 3413SOL    HW221699   1.252   2.389   5.747  0.1518  0.7885  0.1290
 3414SOL     OW21700   2.936   0.515   9.769  0.2827  0.0175 -0.2929
 3414SOL    HW121701   3.028   0.508   9.745 -0.0489 -3.4982 -0.5324
 3414SOL    HW221702   2.902   0.552   9.688 -0.0532 -0.2352 -0.2704
 3415SOL     OW21703   3.367   0.745   8.745  0.5338 -0.1801  0.2972
 3415SOL    HW121704   3.333   0.786   8.665  1.4702 -1.8388 -0.9559
 3415SOL    HW221705   3.335   0.810   8.808 -2.0757 -0.7665 -0.4538
 3416SOL     OW21706   2.026   2.370   9.205 -0.3692  0.4092  0.4425
 3416SOL    HW121707   2.100   2.397   9.259 -0.4538  0.4187  0.5542
 3416SOL    HW221708   1.994   2.458   9.189  2.8372  1.2245 -1.3549
 3417SOL     OW21709   1.052   2.633   7.477  0.8831 -0.0691 -0.0347
 3417SOL    HW121710   1.062   2.710   7.421  2.0310 -0.6339 -0.5832
 3417SOL    HW221711   0.959   2.640   7.499  0.2066  0.5727 -3.1373
 3418SOL     OW21712   3.903   1.960  17.376 -0.4688 -0.5222 -0.4693
 3418SOL    HW121713   3.906   1.986  17.468  3.7291  0.6163 -0.9250
 3418SOL    HW221714   3.996   1.966  17.352 -0.7309 -0.6813 -1.5098
 3419SOL     OW21715   4.491   2.958   7.381  0.4734  0.1384  1.0000
 3419SOL    HW121716   4.492   2.906   7.462  1.1647 -0.2116  0.7637
 3419SOL    HW221717   4.401   2.931   7.362  1.0390 -0.4867 -0.7605
 3420SOL     OW21718   0.596   2.909   5.436 -0.1687  0.2929  0.2464
 3420SOL    HW121719   0.628   2.886   5.349  1.3417  2.8701  0.1307
 3420SOL    HW221720   0.540   2.985   5.421  1.2587  0.6357 -3.2684
 3421SOL     OW21721   3.427   4.117   5.856  0.2899  0.5422 -0.0793
 3421SOL    HW121722   3.482   4.195   5.857  1.2010 -0.0971 -0.0924
 3421SOL    HW221723   3.481   4.065   5.914  0.0905 -1.2690 -1.5147
 3422SOL     OW21724   2.816   3.981   7.873 -0.1977  0.1158  0.7146
 3422SOL    HW121725   2.848   4.048   7.813 -0.0431  1.8478  2.7269
 3422SOL    HW221726   2.816   4.037   7.950 -1.6182 -2.6631  2.7482
 3423SOL     OW21727   2.468   4.631   7.610  0.0055 -0.1367  0.7080
 3423SOL    HW121728   2.536   4.686   7.649 -0.6422 -1.3980  3.6409
 3423SOL    HW221729   2.511   4.546   7.614  0.2252  0.0801  2.8680
 3424SOL     OW21730   4.448   3.572  14.250  0.1670  0.3203 -0.8839
 3424SOL    HW121731   4.503   3.602  14.322 -0.3764 -2.1493  0.5604
 3424SOL    HW221732   4.368   3.619  14.275 -1.3239 -2.8876  0.4829
 3425SOL     OW21733   2.449   1.337   6.555 -0.0837  0.3160  0.3021
 3425SOL    HW121734   2.393   1.333   6.478  0.7513  0.3574 -0.3064
 3425SOL    HW221735   2.420   1.417   6.601  0.7935  0.6310  0.3103
 3426SOL     OW21736   0.233   3.030   4.451 -0.7484 -0.0385 -0.2440
 3426SOL    HW121737   0.326   3.009   4.465 -0.8417 -1.6911 -2.0141
 3426SOL    HW221738   0.243   3.046   4.357 -1.0196 -0.2509 -0.3075
 3427SOL     OW21739   4.430   0.591   5.590  0.3743  0.2595 -0.1500
 3427SOL    HW121740   4.397   0.562   5.675 -2.1611  0.2220 -1.1379
 3427SOL    HW221741   4.392   0.679   5.595  1.2627  0.5967  0.6583
 3428SOL     OW21742   1.828   4.593   7.485 -0.3537 -0.0802 -0.5815
 3428SOL    HW121743   1.811   4.675   7.438  0.5141 -0.8891 -2.3376
 3428SOL    HW221744   1.832   4.625   7.575 -0.8175  0.4739 -0.7642
 3429SOL     OW21745   2.214   2.010   7.021 -0.1038 -0.0759 -0.1185
 3429SOL    HW121746   2.174   1.978   6.941  2.1148 -1.6998 -0.5934
 3429SOL    HW221747   2.245   2.098   7.001 -1.1024 -0.2333 -2.3902
 3430SOL     OW21748   2.768   3.650  13.255  0.3971  0.4864 -0.3099
 3430SOL    HW121749   2.722   3.614  13.179 -0.0591 -2.0993  1.1733
 3430SOL    HW221750   2.858   3.665  13.225  0.5344 -1.1739 -0.7706
 3431SOL     OW21751   2.115   2.185   8.445 -0.3643 -0.4732 -0.1539
 3431SOL    HW121752   2.104   2.127   8.370  1.5716 -0.8017 -0.1805
 3431SOL    HW221753   2.180   2.137   8.497 -0.3610 -0.4946 -0.1778
 3432SOL     OW21754   2.909   2.533   8.013 -0.0403  0.0067 -0.4604
 3432SOL    HW121755   2.966   2.553   7.939  2.0946  2.2449  1.8106
 3432SOL    HW221756   2.856   2.457   7.988 -1.1156  1.0451 -1.3953
 3433SOL     OW21757   2.618   4.400  11.704  0.1855  0.4998  0.0641
 3433SOL    HW121758   2.551   4.350  11.656 -1.6104  3.1650 -0.2039
 3433SOL    HW221759   2.690   4.339  11.689 -0.0170  0.1114  0.6682
 3434SOL     OW21760   1.461   4.376  15.526 -0.3240 -0.4634 -0.2651
 3434SOL    HW121761   1.432   4.302  15.580  1.3586 -1.2678 -0.4517
 3434SOL    HW221762   1.538   4.386  15.583 -0.3284 -1.5936 -0.0417
 3435SOL     OW21763   0.569   1.594  15.458 -0.2780  0.4941 -0.1269
 3435SOL    HW121764   0.579   1.618  15.366  0.9508  1.4815  0.2626
 3435SOL    HW221765   0.638   1.651  15.492 -1.2453  3.0666 -2.5035
 3436SOL     OW21766   3.966   0.807   3.868 -0.6741  0.1537 -0.4178
 3436SOL    HW121767   3.923   0.744   3.926  0.1496  0.9562  1.0784
 3436SOL    HW221768   3.900   0.808   3.799 -0.3464  0.9911 -0.7094
 3437SOL     OW21769   2.885   0.987   3.960  0.7703 -0.6819  0.0947
 3437SOL    HW121770   2.964   0.934   3.951  1.2582 -0.0974  0.9605
 3437SOL    HW221771   2.906   1.001   4.052 -1.3044 -0.1649  0.4832
 3438SOL     OW21772   3.836   1.985  11.945 -0.0430 -0.2709  0.0675
 3438SOL    HW121773   3.903   1.976  12.013  2.0731  2.5690 -1.6462
 3438SOL    HW221774   3.831   1.892  11.921 -1.7838 -0.0901 -0.2492
 3439SOL     OW21775   4.618   2.546   2.381  0.3727 -0.2948  0.4793
 3439SOL    HW121776   4.531   2.505   2.384 -0.0770  0.6616  0.4597
 3439SOL    HW221777   4.584   2.633   2.404  1.8791  0.7147 -1.1325
 3440SOL     OW21778   2.855   0.065   6.604 -0.1700  0.3527  0.2890
 3440SOL    HW121779   2.893   0.077   6.691  0.7856 -3.0736  0.3069
 3440SOL    HW221780   2.853   4.694   6.602  0.6997  0.3617 -0.6490
 3441SOL     OW21781   2.204   1.263   9.533  0.0660 -0.4392 -0.2185
 3441SOL    HW121782   2.274   1.316   9.495 -2.0998  2.7594  0.1904
 3441SOL    HW221783   2.127   1.268   9.476  0.2774  0.7527 -0.3938
 3442SOL     OW21784   1.981   3.045   2.235 -0.2561 -0.2736 -0.6850
 3442SOL    HW121785   1.927   2.965   2.234  0.8753 -1.0418 -0.4563
 3442SOL    HW221786   2.039   3.023   2.163  0.0160  1.7928 -1.0852
 3443SOL     OW21787   2.903   1.825   4.683  0.2542 -0.3652  0.0920
 3443SOL    HW121788   2.817   1.856   4.655  0.2869  0.6791  1.1758
 3443SOL    HW221789   2.871   1.767   4.752  0.5989 -0.6946 -0.0254
 3444SOL     OW21790   1.430   2.393   5.530 -0.0759  0.1909  0.7325
 3444SOL    HW121791   1.496   2.342   5.484 -0.1842  0.3345  0.4142
 3444SOL    HW221792   1.481   2.415   5.607 -0.7216  3.9026  0.1197
 3445SOL     OW21793   3.461   1.370   2.676  0.0628  0.4287  0.3817
 3445SOL    HW121794   3.375   1.385   2.637 -0.2109  2.2292  1.7118
 3445SOL    HW221795   3.501   1.447   2.636  0.3078  1.2273  2.2203
 3446SOL     OW21796   1.117   4.478   3.847 -1.1057 -0.0044 -0.3035
 3446SOL    HW121797   1.144   4.451   3.760  2.2087  0.8130  0.4977
 3446SOL    HW221798   1.062   4.556   3.840  1.4758  1.9337  0.8937
 3447SOL     OW21799   0.041   4.536   3.300  0.1026 -0.5952 -0.2006
 3447SOL    HW121800   0.050   4.452   3.254 -3.0559 -0.4695 -1.0507
 3447SOL    HW221801   4.719   4.520   3.382 -0.0699  2.1541  0.2370
 3448SOL     OW21802   0.437   3.188   6.379  0.0201  0.7209  0.0403
 3448SOL    HW121803   0.419   3.095   6.363 -0.8865  0.9873 -0.4423
 3448SOL    HW221804   0.518   3.169   6.427 -0.9522  1.6944  2.0786
 3449SOL     OW21805   2.435   2.121   8.224  0.7511 -0.3485  0.2860
 3449SOL    HW121806   2.425   2.123   8.320 -3.2437 -0.5389 -0.1131
 3449SOL    HW221807   2.341   2.120   8.206  0.7926  3.0117 -0.1126
 3450SOL     OW21808   2.696   3.098   0.436  0.1775  0.2291 -0.2669
 3450SOL    HW121809   2.676   3.088   0.343 -0.4497 -3.2304  0.2263
 3450SOL    HW221810   2.610   3.096   0.477  0.8372  0.9521  1.1673
 3451SOL     OW21811   1.590   4.515   7.060 -0.7719 -0.0940  0.0808
 3451SOL    HW121812   1.510   4.464   7.043  1.3763 -2.9744 -1.2903
 3451SOL    HW221813   1.576   4.607   7.037  0.2277 -0.5059 -2.1043
 3452SOL     OW21814   1.213   0.696   3.297 -0.5489 -0.5991 -0.0803
 3452SOL    HW121815   1.250   0.781   3.321 -2.4058  0.5937 -1.4099
 3452SOL    HW221816   1.158   0.717   3.222 -1.3565  0.2572  0.7410
 3453SOL     OW21817   3.354   4.394   4.471  0.0777  0.4547  0.3100
 3453SOL    HW121818   3.436   4.386   4.422  1.2290 -0.5429  2.4017
 3453SOL    HW221819   3.386   4.425   4.556  1.3255 -1.7521  0.6315
 3454SOL     OW21820   0.101   0.253   3.418 -0.2034 -0.1965 -0.0888
 3454SOL    HW121821   0.028   0.314   3.425 -1.6694 -2.0631  1.0619
 3454SOL    HW221822   0.097   0.210   3.503 -0.8798  1.6383  0.8091
 3455SOL     OW21823   1.978   2.588   9.815 -0.3366 -0.3570 -0.5173
 3455SOL    HW121824   1.946   2.664   9.766  1.1900  0.3043 -0.4947
 3455SOL    HW221825   1.903   2.529   9.821 -0.5711 -0.0155 -0.1363
 3456SOL     OW21826   1.761   4.028  12.496 -0.6528  0.1629 -0.2274
 3456SOL    HW121827   1.803   3.974  12.430 -0.6446  1.0066 -0.9201
 3456SOL    HW221828   1.830   4.061  12.554 -0.2304 -0.9495 -0.1113
 3457SOL     OW21829   1.704   3.523   2.545  0.3693  0.1556 -0.3277
 3457SOL    HW121830   1.719   3.569   2.627  0.7957 -2.8247  1.2974
 3457SOL    HW221831   1.618   3.490   2.572  1.0482  1.6734  3.7932
 3458SOL     OW21832   0.322   2.414  11.342 -0.4500 -0.0021 -0.5353
 3458SOL    HW121833   0.257   2.465  11.293 -0.2794  1.4866  0.7595
 3458SOL    HW221834   0.313   2.440  11.434  3.1909  0.3810 -0.2943
 3459SOL     OW21835   1.399   0.885   0.015  1.0953 -0.2231  0.3330
 3459SOL    HW121836   1.399   0.802  17.665  1.1248  0.7430 -1.3703
 3459SOL    HW221837   1.347   0.943  17.657  1.4337  1.0858  1.3831
 3460SOL     OW21838   0.729   0.323   3.253  0.1074  0.5380 -0.0819
 3460SOL    HW121839   0.799   0.349   3.194  0.6043  0.5959  0.5406
 3460SOL    HW221840   0.655   0.373   3.219  0.1705  0.5085 -0.2619
 3461SOL     OW21841   4.036   2.391   3.758 -0.7204 -0.4799  0.0226
 3461SOL    HW121842   4.104   2.425   3.817 -1.8888 -0.6942  1.4897
 3461SOL    HW221843   3.985   2.466   3.728  2.2923  1.9157  0.8194
 3462SOL     OW21844   0.484   1.594   4.726 -0.4906  0.0019  0.5019
 3462SOL    HW121845   0.439   1.615   4.644  1.0922  1.0002 -0.1115
 3462SOL    HW221846   0.576   1.609   4.709 -0.9799  1.9114 -0.4737
 3463SOL     OW21847   2.732   2.793   8.818 -0.7097 -0.0616  0.2733
 3463SOL    HW121848   2.664   2.797   8.886 -0.1879  0.6312  0.7548
 3463SOL    HW221849   2.729   2.699   8.805  1.5847 -0.1442  0.4501
 3464SOL     OW21850   0.641   1.223   6.942  0.2052  0.1674  0.0569
 3464SOL    HW121851   0.565   1.241   6.888  0.8921 -0.4484 -1.1087
 3464SOL    HW221852   0.591   1.195   7.019 -0.0063  0.2039 -0.0680
 3465SOL     OW21853   0.556   4.226  11.409 -0.5076 -0.1963  0.2684
 3465SOL    HW121854   0.542   4.289  11.480 -3.1885 -1.4771  0.8741
 3465SOL    HW221855   0.619   4.165  11.447 -0.1389  0.3989  0.6034
 3466SOL     OW21856   0.698   4.409   5.584  0.5201 -0.5239  0.1594
 3466SOL    HW121857   0.734   4.388   5.671 -0.2613  0.8699  0.8187
 3466SOL    HW221858   0.715   4.333   5.529  1.3865  0.5306 -1.0146
 3467SOL     OW21859   0.118   4.364   4.899 -0.4242  0.0218  0.4186
 3467SOL    HW121860   0.163   4.383   4.816 -1.9842 -0.0636 -0.4427
 3467SOL    HW221861   0.031   4.401   4.885 -0.5164 -0.0496  0.8027
 3468SOL     OW21862   1.508   4.618   7.768 -0.1114 -0.4029  0.1622
 3468SOL    HW121863   1.487   4.669   7.690 -0.1063  1.4306  1.3731
 3468SOL    HW221864   1.423   4.577   7.787  0.3939 -1.4549  0.1247
 3469SOL     OW21865   0.699   1.214   2.389 -0.5878 -0.1626 -0.3329
 3469SOL    HW121866   0.736   1.171   2.312 -1.1519  0.7645 -1.1247
 3469SOL    HW221867   0.604   1.210   2.381 -0.6431 -1.4698  1.0793
 3470SOL     OW21868   3.539   1.401  13.587 -0.0866  0.6208 -0.1241
 3470SOL    HW121869   3.559   1.494  13.597  0.1583  0.4100  1.3704
 3470SOL    HW221870   3.623   1.356  13.595 -0.5510  0.1448  2.0332
 3471SOL     OW21871   0.567   4.325   8.033 -0.5284  0.3771  0.1530
 3471SOL    HW121872   0.526   4.279   8.106 -0.8259  1.4993  0.6975
 3471SOL    HW221873   0.490   4.344   7.980 -0.8011  1.0007  0.7821
 3472SOL     OW21874   4.267   3.328   5.672 -0.0173  0.1694  0.0651
 3472SOL    HW121875   4.326   3.367   5.607 -1.5541  0.7510 -0.9735
 3472SOL    HW221876   4.228   3.405   5.713  1.8216  1.8625 -1.2964
 3473SOL     OW21877   1.364   1.090   5.606 -0.3118 -0.2379 -0.0272
 3473SOL    HW121878   1.415   1.015   5.576  0.3906  0.8988 -1.6770
 3473SOL    HW221879   1.346   1.075   5.698 -0.8544  0.4385 -0.0210
 3474SOL     OW21880   1.907   0.798   0.350  0.3917  0.2247  0.5563
 3474SOL    HW121881   1.822   0.753   0.349  0.4473  0.1637 -1.0197
 3474SOL    HW221882   1.885   0.859   0.421 -0.2854 -0.1317  0.6592
 3475SOL     OW21883   0.398   0.317   7.249  0.4739 -0.0018  0.1666
 3475SOL    HW121884   0.374   0.268   7.328 -1.9002 -1.1119 -1.2486
 3475SOL    HW221885   0.447   0.252   7.200 -0.9700 -0.5422 -0.5675
 3476SOL     OW21886   1.598   3.035   6.262  0.5825 -0.1328  0.1782
 3476SOL    HW121887   1.620   3.032   6.169 -1.1606 -0.7730 -0.2224
 3476SOL    HW221888   1.679   3.035   6.313  0.2476  1.7248  0.6978
 3477SOL     OW21889   1.919   2.873   3.908 -1.0366 -0.0829 -0.7678
 3477SOL    HW121890   1.901   2.812   3.837  2.2303 -1.1615 -0.6700
 3477SOL    HW221891   1.983   2.821   3.957 -0.4413  0.9447 -0.4440
 3478SOL     OW21892   3.647   1.267   3.091 -0.1505  0.2232 -0.6652
 3478SOL    HW121893   3.650   1.360   3.066  3.2410  0.4106  0.3338
 3478SOL    HW221894   3.739   1.241   3.099 -0.8430 -2.1290 -0.5667
 3479SOL     OW21895   0.673   3.130   1.494  0.3244 -0.4301  0.2181
 3479SOL    HW121896   0.711   3.137   1.406 -2.0777  1.4419 -0.7006
 3479SOL    HW221897   0.736   3.179   1.546  0.3206 -0.8327  0.6014
 3480SOL     OW21898   4.462   0.983  10.702 -0.0805  0.1622  0.5258
 3480SOL    HW121899   4.456   0.976  10.797 -1.4805  0.2525  0.4423
 3480SOL    HW221900   4.379   1.028  10.684 -0.7075 -0.3499  2.1071
 3481SOL     OW21901   2.555   2.359   7.732  0.2594 -0.0256 -0.6335
 3481SOL    HW121902   2.503   2.282   7.711 -1.0671  1.1339 -1.6104
 3481SOL    HW221903   2.620   2.353   7.662  0.8625  3.6095 -0.3956
 3482SOL     OW21904   1.678   3.559   3.094  0.0747  0.2816 -0.1787
 3482SOL    HW121905   1.681   3.648   3.060  0.3542  0.7719  1.1525
 3482SOL    HW221906   1.595   3.528   3.056 -0.4031  1.6150 -0.2026
 3483SOL     OW21907   1.261   0.995   9.947 -0.0106 -0.3065 -0.1832
 3483SOL    HW121908   1.356   0.992   9.936  0.0432  0.9823 -0.0715
 3483SOL    HW221909   1.259   0.996  10.042 -2.2473 -2.9332 -0.2159
 3484SOL     OW21910   3.956   0.084   5.918 -0.5425 -0.2158 -0.9347
 3484SOL    HW121911   3.977   0.029   5.993 -0.7903  1.0131  0.0399
 3484SOL    HW221912   3.906   0.151   5.964 -1.2666 -1.1395 -0.3908
 3485SOL     OW21913   2.739   1.760  12.134 -0.6928  0.1149  0.9508
 3485SOL    HW121914   2.802   1.803  12.075 -0.7257  2.7415  2.8535
 3485SOL    HW221915   2.661   1.794  12.090 -0.6283  0.3471  1.0153
 3486SOL     OW21916   1.053   2.164   2.007  0.4875 -0.3150 -0.3947
 3486SOL    HW121917   1.110   2.239   1.991 -1.1270  0.4191 -2.6439
 3486SOL    HW221918   1.112   2.106   2.056  0.0318  1.5316  2.3835
 3487SOL     OW21919   3.453   2.665   7.573  0.2337 -0.5289 -0.2195
 3487SOL    HW121920   3.451   2.674   7.668  0.1699  0.1716 -0.2875
 3487SOL    HW221921   3.464   2.570   7.564 -0.2845 -0.6154  0.0554
 3488SOL     OW21922   4.458   2.273   2.970 -0.1364  0.5402  0.3553
 3488SOL    HW121923   4.420   2.302   2.887 -0.4300  0.8974  0.6116
 3488SOL    HW221924   4.402   2.204   3.005 -0.2191  1.5736  2.2507
 3489SOL     OW21925   1.889   2.286   4.079 -0.4963 -0.2043  0.4707
 3489SOL    HW121926   1.954   2.217   4.068 -0.0912  0.2302  0.1846
 3489SOL    HW221927   1.922   2.322   4.161 -0.6453  1.8358 -0.3705
 3490SOL     OW21928   4.722   2.780   4.784 -0.1632 -0.5018  0.3703
 3490SOL    HW121929   4.657   2.799   4.851 -0.2540  0.2076  0.0885
 3490SOL    HW221930   0.043   2.863   4.770 -0.5639 -0.5030 -0.8919
 3491SOL     OW21931   3.396   2.938  16.098 -0.5164  0.0889 -0.1840
 3491SOL    HW121932   3.421   2.907  16.012  3.6373 -0.3222  1.1801
 3491SOL    HW221933   3.459   3.009  16.112  0.2257 -0.7673  0.7844
 3492SOL     OW21934   4.521   0.413   2.193  0.7518  0.7882 -0.2504
 3492SOL    HW121935   4.499   0.500   2.227 -1.7979  0.2436 -0.4763
 3492SOL    HW221936   4.521   0.437   2.100 -1.2176 -0.0097 -0.4711
 3493SOL     OW21937   1.804   4.296   8.077 -0.4751  0.4207  0.1657
 3493SOL    HW121938   1.779   4.210   8.112 -0.6201  0.2919 -0.2515
 3493SOL    HW221939   1.791   4.274   7.984  0.8071 -0.0103  0.0958
 3494SOL     OW21940   1.517   1.918   3.154 -0.1532  0.2258 -0.1651
 3494SOL    HW121941   1.525   1.939   3.061  0.7878 -0.8359 -0.3213
 3494SOL    HW221942   1.583   1.850   3.166  0.9728  1.1922 -0.7895
 3495SOL     OW21943   4.698   2.498   4.062  0.1007  0.0483 -0.2548
 3495SOL    HW121944   0.019   2.582   4.072 -0.3483  0.2848 -0.2505
 3495SOL    HW221945   4.611   2.521   4.094  0.3638 -0.3634  0.7282
 3496SOL     OW21946   1.736   1.193   4.749  0.3656 -0.0400  0.0675
 3496SOL    HW121947   1.730   1.289   4.744 -2.1143 -0.2420 -0.9053
 3496SOL    HW221948   1.643   1.175   4.732  0.2785 -0.7662  1.3521
 3497SOL     OW21949   2.767   2.462   1.550 -0.6150 -0.5549 -0.5514
 3497SOL    HW121950   2.764   2.393   1.617 -0.8297 -4.0808 -4.1697
 3497SOL    HW221951   2.856   2.463   1.514 -0.1740  1.5110  0.6307
 3498SOL     OW21952   0.512   4.718   3.892  0.6352  0.2197  0.6391
 3498SOL    HW121953   0.570   4.663   3.944 -0.4074  0.6906  2.2950
 3498SOL    HW221954   0.439   4.659   3.875  0.0196  1.1919 -0.0664
 3499SOL     OW21955   4.547   4.282   4.910 -0.3048  0.2540 -0.3646
 3499SOL    HW121956   4.530   4.326   4.993 -0.1444  0.0657 -0.2313
 3499SOL    HW221957   4.470   4.297   4.856 -0.5577  0.6509  0.1167
 3500SOL     OW21958   2.929   3.393   4.934 -0.1490 -0.2807  0.4895
 3500SOL    HW121959   2.893   3.385   5.023 -2.1096  1.0431 -0.1695
 3500SOL    HW221960   2.977   3.311   4.946 -0.0889 -0.3395 -0.1559
 3501SOL     OW21961   2.520   3.461   3.658 -0.1851 -0.1631  0.2768
 3501SOL    HW121962   2.522   3.366   3.662 -0.6016 -0.0913  2.2442
 3501SOL    HW221963   2.551   3.470   3.568  1.4177 -1.2011  0.7364
 3502SOL     OW21964   4.536   2.801   2.393 -0.5457  0.4871 -0.1050
 3502SOL    HW121965   4.555   2.821   2.302  0.5918  0.2153  0.0658
 3502SOL    HW221966   4.441   2.812   2.399 -0.6855 -1.7266  1.7542
 3503SOL     OW21967   2.779   2.536  15.546 -0.1134 -0.1041 -0.0864
 3503SOL    HW121968   2.743   2.468  15.602  0.1436 -1.0193 -1.0280
 3503SOL    HW221969   2.870   2.507  15.539  0.2246  0.6114  1.4057
 3504SOL     OW21970   2.040   4.503   4.291 -0.0772 -0.4812  0.0961
 3504SOL    HW121971   2.099   4.450   4.237  0.6537 -2.4599  2.7816
 3504SOL    HW221972   2.094   4.581   4.303 -1.0436  0.1377  0.3340
 3505SOL     OW21973   3.489   3.641   2.264  0.3575  0.2705 -0.4201
 3505SOL    HW121974   3.579   3.674   2.273 -0.6871  1.9277  4.0071
 3505SOL    HW221975   3.443   3.720   2.237 -0.7438  0.2433  1.3192
 3506SOL     OW21976   3.461   1.759   5.771  0.1854  0.0782 -0.2472
 3506SOL    HW121977   3.432   1.763   5.862 -0.3758 -1.1153 -0.3700
 3506SOL    HW221978   3.417   1.835   5.732  0.0512  0.4234  0.5896
 3507SOL     OW21979   1.731   3.717   3.993  0.0581  0.4605  0.5062
 3507SOL    HW121980   1.755   3.626   4.011  1.1882  0.2992 -1.8164
 3507SOL    HW221981   1.780   3.763   4.060  1.2311 -2.5744  1.7465
 3508SOL     OW21982   1.507   0.529  16.543 -0.5865 -0.1705 -0.5253
 3508SOL    HW121983   1.550   0.475  16.476  1.2875 -0.1852  0.6943
 3508SOL    HW221984   1.504   0.463  16.613 -1.9127  1.1771  0.6849
 3509SOL     OW21985   1.623   0.103   3.455  0.0426  0.2500  0.2298
 3509SOL    HW121986   1.611   0.188   3.413 -1.2971 -0.1084 -0.1203
 3509SOL    HW221987   1.702   0.118   3.507  0.2810 -1.6022  0.4064
 3510SOL     OW21988   3.297   4.169   8.191  0.0014 -0.3970  0.9279
 3510SOL    HW121989   3.285   4.208   8.277  0.2118  0.3261  0.6319
 3510SOL    HW221990   3.358   4.232   8.152 -0.5879 -0.6908 -0.4804
 3511SOL     OW21991   4.100   3.147   3.087  0.5483  0.1964  0.5315
 3511SOL    HW121992   4.114   3.124   3.179 -0.1205 -1.8509  0.1346
 3511SOL    HW221993   4.015   3.188   3.101  0.3250 -0.0675 -0.0591
 3512SOL     OW21994   4.481   3.535   5.499 -0.1550  0.3947  0.2597
 3512SOL    HW121995   4.433   3.616   5.480 -1.5480 -0.4650  0.1150
 3512SOL    HW221996   4.543   3.562   5.566 -1.7626 -2.5127  2.9145
 3513SOL     OW21997   3.293   3.937   8.835 -0.3064  0.2841 -0.2990
 3513SOL    HW121998   3.366   3.928   8.774  1.1376  0.9778  1.3110
 3513SOL    HW221999   3.220   3.893   8.792 -0.6426  1.2698 -0.7291
 3514SOL     OW22000   0.192   4.122   7.773 -0.4892 -0.3578  0.4452
 3514SOL    HW122001   0.163   4.137   7.863  1.3925  1.2705  0.7858
 3514SOL    HW222002   0.126   4.172   7.725 -1.2846 -1.5375  0.2959
 3515SOL     OW22003   0.811   2.379   4.972  0.3182 -0.2912 -0.1493
 3515SOL    HW122004   0.781   2.293   5.001 -0.5294  0.2035  0.4376
 3515SOL    HW222005   0.757   2.440   5.023 -0.4442 -0.4460 -0.7790
 3516SOL     OW22006   0.630   0.973   4.672 -0.2078  0.0514 -0.2933
 3516SOL    HW122007   0.621   0.878   4.657  1.0078 -0.0420 -0.4234
 3516SOL    HW222008   0.622   1.005   4.582 -1.6909  1.9711  0.5461
 3517SOL     OW22009   1.423   0.407   5.459 -0.1791  0.5205  0.0531
 3517SOL    HW122010   1.470   0.329   5.488 -0.3520  0.4700  0.1972
 3517SOL    HW222011   1.352   0.379   5.402  1.0580 -0.0505 -1.1900
 3518SOL     OW22012   2.918   0.944   5.061  0.2699  0.8348 -0.4656
 3518SOL    HW122013   2.982   0.975   5.125  0.0546 -2.0394  1.1666
 3518SOL    HW222014   2.850   1.010   5.064 -0.7358 -0.1776 -1.0488
 3519SOL     OW22015   0.634   3.503   5.743 -0.4231  0.1472  0.0847
 3519SOL    HW122016   0.647   3.454   5.824  0.2485  0.8860  0.4217
 3519SOL    HW222017   0.650   3.589   5.783  1.0693 -0.0082 -0.1668
 3520SOL     OW22018   4.229   4.266  12.682  0.0960  0.1488  0.2107
 3520SOL    HW122019   4.152   4.323  12.690 -1.0234 -1.1947 -0.9517
 3520SOL    HW222020   4.274   4.290  12.762  2.8874 -1.8236 -0.7888
 3521SOL     OW22021   2.956   3.578  13.675 -0.2617  0.3081  0.2192
 3521SOL    HW122022   2.933   3.529  13.754 -0.5931 -0.7791 -0.5572
 3521SOL    HW222023   3.050   3.562  13.677 -0.0987  1.2646  0.1639
 3522SOL     OW22024   2.998   1.625   3.478 -0.3780 -0.1264  0.0354
 3522SOL    HW122025   3.088   1.596   3.460 -0.0176  0.8814  0.2229
 3522SOL    HW222026   2.986   1.689   3.408 -3.0098  0.3625  0.9709
 3523SOL     OW22027   3.994   0.498   7.803  0.6279 -0.3722  0.5731
 3523SOL    HW122028   4.073   0.543   7.773 -0.6868  1.5600 -0.0021
 3523SOL    HW222029   4.006   0.502   7.898 -0.7688  0.8777  0.6973
 3524SOL     OW22030   2.991   2.828   5.403 -0.1342 -0.1910  0.2168
 3524SOL    HW122031   3.022   2.804   5.316  1.5417  0.6011  0.5916
 3524SOL    HW222032   2.987   2.741   5.443 -0.2910 -0.5785 -0.6426
 3525SOL     OW22033   0.117   2.255   9.227 -0.2259  0.1321  0.1489
 3525SOL    HW122034   0.052   2.185   9.232  0.2954 -0.4463 -1.2162
 3525SOL    HW222035   0.069   2.327   9.267 -0.1101  1.2287 -1.6832
 3526SOL     OW22036   2.884   0.799   9.302  0.3282  0.5737  0.3274
 3526SOL    HW122037   2.942   0.845   9.240 -0.0448  0.4596 -0.1060
 3526SOL    HW222038   2.899   0.708   9.278 -0.7700  0.6135 -0.4867
 3527SOL     OW22039   0.371   0.995   6.875  0.0921  0.4141  0.1800
 3527SOL    HW122040   0.282   0.962   6.860  0.4083 -0.9405  1.3075
 3527SOL    HW222041   0.415   0.918   6.911 -2.0552 -0.2491  1.4278
 3528SOL     OW22042   2.555   1.843   4.364 -0.3434 -0.3768  0.1056
 3528SOL    HW122043   2.529   1.883   4.281 -0.4314  0.0927  0.3626
 3528SOL    HW222044   2.475   1.793   4.377 -2.3358  2.5503 -1.0609
 3529SOL     OW22045   3.761   0.265   6.852 -0.3334 -0.5323  0.1769
 3529SOL    HW122046   3.743   0.208   6.926  1.5436 -1.5661 -0.1532
 3529SOL    HW222047   3.807   0.197   6.803  1.5682  0.4380  0.6138
 3530SOL     OW22048   0.244   4.387  13.416  0.0396  0.0328 -0.1999
 3530SOL    HW122049   0.219   4.382  13.324  2.8546  0.2584 -0.9921
 3530SOL    HW222050   0.303   4.311  13.417  0.3875  0.2500 -3.6673
 3531SOL     OW22051   2.058   0.106  16.511 -0.1418 -0.0064  0.2222
 3531SOL    HW122052   2.010   0.166  16.454  0.5011  1.2036  0.9405
 3531SOL    HW222053   2.059   0.161  16.590  0.4859  0.4314 -0.0898
 3532SOL     OW22054   4.318   0.275   9.390 -0.4311 -0.1443  0.0508
 3532SOL    HW122055   4.383   0.317   9.335  0.3586 -0.2294  0.9281
 3532SOL    HW222056   4.259   0.231   9.329 -1.6978 -0.2459  1.3327
 3533SOL     OW22057   1.567   2.340  11.140 -0.0317 -0.0018 -0.0243
 3533SOL    HW122058   1.549   2.432  11.162  0.7544  0.5666 -1.7614
 3533SOL    HW222059   1.610   2.345  11.055  0.0767  4.0690  0.2715
 3534SOL     OW22060   2.960   0.186  14.160 -0.6211 -0.8494 -0.4013
 3534SOL    HW122061   2.910   0.147  14.231 -0.8224 -1.8973 -1.1122
 3534SOL    HW222062   3.036   0.214  14.210  0.5724 -1.8324 -1.6646
 3535SOL     OW22063   3.943   2.794   6.786 -0.0711  0.4201  0.2648
 3535SOL    HW122064   3.986   2.722   6.740 -0.3094 -0.8900  2.1067
 3535SOL    HW222065   3.910   2.754   6.866  0.6398  0.5199  0.6132
 3536SOL     OW22066   3.782   1.643   4.331 -0.0944 -0.2073 -0.1699
 3536SOL    HW122067   3.784   1.638   4.427 -3.4396  3.8074  0.0826
 3536SOL    HW222068   3.875   1.639   4.310  0.2112 -1.0510  1.3486
 3537SOL     OW22069   4.508   2.816   7.925  0.0814  0.2227 -0.2580
 3537SOL    HW122070   4.505   2.806   7.830  1.6086 -0.7093 -0.2013
 3537SOL    HW222071   4.455   2.895   7.941  0.0683 -0.0691  1.1734
 3538SOL     OW22072   4.271   3.933   3.203  0.5593  0.0971  0.2503
 3538SOL    HW122073   4.279   4.018   3.247  0.1056  0.4216 -0.3022
 3538SOL    HW222074   4.310   3.868   3.262 -1.3775 -2.1679 -0.9551
 3539SOL     OW22075   2.868   2.795   0.751  0.1875  0.3147  0.0369
 3539SOL    HW122076   2.803   2.834   0.810  0.5246  0.8740  0.0428
 3539SOL    HW222077   2.914   2.869   0.711 -1.3959  0.2025 -1.9654
 3540SOL     OW22078   3.715   1.828  11.267  0.1008 -0.2566  0.0580
 3540SOL    HW122079   3.675   1.749  11.232 -1.7991  1.1003 -0.8368
 3540SOL    HW222080   3.809   1.819  11.255  0.3284 -0.2883  1.9157
 3541SOL     OW22081   2.753   1.998   4.977  1.2640 -0.5495 -0.8592
 3541SOL    HW122082   2.663   2.006   5.008  2.1017  0.1133  1.4050
 3541SOL    HW222083   2.775   1.907   4.994 -0.9749 -0.7835  0.8487
 3542SOL     OW22084   2.391   1.127   3.820 -0.0259 -0.4861 -0.5065
 3542SOL    HW122085   2.400   1.076   3.740 -0.5600 -0.1602 -0.7766
 3542SOL    HW222086   2.480   1.150   3.845 -0.2154  0.4133 -0.6613
 3543SOL     OW22087   3.988   4.569  16.772 -0.6931  0.4513  0.2011
 3543SOL    HW122088   3.963   4.657  16.799  1.4712  1.3266 -0.5919
 3543SOL    HW222089   3.976   4.569  16.677  0.7640 -2.3855 -0.0083
 3544SOL     OW22090   0.553   4.663   0.148 -0.4397 -0.3709 -0.7569
 3544SOL    HW122091   0.647   4.675   0.141 -0.7551  0.8956 -2.6526
 3544SOL    HW222092   0.532   4.664   0.055 -3.0587 -0.8128 -0.1889
 3545SOL     OW22093   1.547   1.895   6.154  0.1031 -0.2954  0.0284
 3545SOL    HW122094   1.473   1.860   6.204  1.2648 -1.4335  0.9097
 3545SOL    HW222095   1.503   1.965   6.104 -0.0062  0.1341  0.7239
 3546SOL     OW22096   1.422   2.996   6.033  0.0993 -0.4763  0.2023
 3546SOL    HW122097   1.348   3.029   6.083 -0.0003 -1.9897  1.0751
 3546SOL    HW222098   1.387   2.917   5.990 -0.4825 -0.1720  0.1174
 3547SOL     OW22099   3.708   1.749   1.747  0.0661  0.4565  0.1904
 3547SOL    HW122100   3.645   1.820   1.759 -2.3549 -1.5339 -0.6689
 3547SOL    HW222101   3.670   1.710   1.668  2.8590  0.5576 -1.2342
 3548SOL     OW22102   1.820   4.691   1.120  0.6311 -0.2161  0.1128
 3548SOL    HW122103   1.792   4.637   1.046 -1.7733  0.2877  0.6565
 3548SOL    HW222104   1.885   0.026   1.083  0.3836  1.0422  1.6569
 3549SOL     OW22105   3.331   1.419   8.801 -0.5036  0.1451 -0.3209
 3549SOL    HW122106   3.290   1.503   8.783  0.8370  0.5756 -1.3417
 3549SOL    HW222107   3.316   1.367   8.722  0.6067  2.4632 -2.0448
 3550SOL     OW22108   2.322   1.005   3.225  0.2348  0.2986  0.7564
 3550SOL    HW122109   2.283   1.058   3.294  3.2158 -0.4324  3.0354
 3550SOL    HW222110   2.322   0.920   3.268 -2.7671  0.3511  0.8206
 3551SOL     OW22111   3.423   0.044   6.008 -0.0109  0.6520 -0.0837
 3551SOL    HW122112   3.398   4.676   5.999  0.0889  0.4634  1.5520
 3551SOL    HW222113   3.474   0.070   5.931 -0.1320  0.5444 -0.1994
 3552SOL     OW22114   2.988   3.718   1.788 -0.0075 -0.8033  0.6653
 3552SOL    HW122115   3.052   3.789   1.789 -1.8364  0.8858 -2.3081
 3552SOL    HW222116   2.959   3.742   1.876  0.4536  0.1120  0.5684
 3553SOL     OW22117   3.013   2.639   9.081  0.2268 -0.1607  0.3648
 3553SOL    HW122118   3.021   2.729   9.113 -0.2085  0.7944 -2.2049
 3553SOL    HW222119   3.058   2.584   9.145  2.8286 -0.3249 -1.5780
 3554SOL     OW22120   1.977   3.985   0.490 -0.4929 -0.1636 -0.5036
 3554SOL    HW122121   1.896   4.021   0.528  1.4192  1.5398  1.9338
 3554SOL    HW222122   1.997   3.914   0.550  0.3077 -1.1996 -2.0191
 3555SOL     OW22123   1.643   0.915   5.819 -0.0578 -0.2706  0.1252
 3555SOL    HW122124   1.553   0.904   5.849  0.3683 -0.6463  1.2657
 3555SOL    HW222125   1.688   0.897   5.901  0.5973  0.9140  0.0290
 3556SOL     OW22126   1.245   1.975   7.843  0.2709 -0.0057  0.1245
 3556SOL    HW122127   1.169   2.028   7.867 -0.5560 -2.0631  2.0666
 3556SOL    HW222128   1.293   1.980   7.925 -1.3740 -1.0763  1.1707
 3557SOL     OW22129   3.466   1.449   6.369 -0.0626 -0.5370 -0.0348
 3557SOL    HW122130   3.511   1.377   6.324 -0.7519  0.8510 -2.8987
 3557SOL    HW222131   3.405   1.394   6.417  0.2583  0.1952  1.2122
 3558SOL     OW22132   1.194   1.509   8.327 -0.2903  0.1549  0.0575
 3558SOL    HW122133   1.150   1.445   8.383  2.2773 -0.2392  1.5884
 3558SOL    HW222134   1.120   1.533   8.270  0.5334 -2.0862 -1.9332
 3559SOL     OW22135   3.686   3.753   0.552  0.1246  0.2805  0.0730
 3559SOL    HW122136   3.674   3.847   0.566 -1.6922 -0.0323  0.6101
 3559SOL    HW222137   3.619   3.735   0.486  0.4046 -0.4058 -0.0191
 3560SOL     OW22138   4.434   0.198  13.398 -0.7280  0.4389 -0.2133
 3560SOL    HW122139   4.481   0.123  13.434  1.0226  1.9976  0.7653
 3560SOL    HW222140   4.344   0.166  13.397 -1.2946  2.0174  0.0174
 3561SOL     OW22141   3.129   3.429   5.192 -0.2027 -0.5324  0.1079
 3561SOL    HW122142   3.155   3.376   5.267  1.9591 -0.1574 -0.3889
 3561SOL    HW222143   3.108   3.508   5.241 -0.7889  0.6173 -1.9771
 3562SOL     OW22144   1.898   3.941   4.880 -0.0969  0.0149  0.1097
 3562SOL    HW122145   1.985   3.904   4.896 -0.0053  0.7866  1.3361
 3562SOL    HW222146   1.845   3.908   4.953  0.4119  0.9975  0.9207
 3563SOL     OW22147   0.043   0.106   1.266 -0.0433 -0.2461  0.4347
 3563SOL    HW122148   0.064   0.045   1.336 -1.0153 -0.0829  0.8638
 3563SOL    HW222149   0.133   0.116   1.234  0.6777 -0.7891  2.3146
 3564SOL     OW22150   3.685   1.122   1.534 -0.2423  0.1893 -0.3369
 3564SOL    HW122151   3.595   1.091   1.523  1.1170 -3.5315 -1.2438
 3564SOL    HW222152   3.736   1.041   1.523  1.0620  0.9143  0.4177
 3565SOL     OW22153   1.020   1.889   7.647 -0.4724  0.1081  0.3566
 3565SOL    HW122154   1.040   1.899   7.554 -1.9921  0.1195  0.0336
 3565SOL    HW222155   1.097   1.924   7.693  0.1949  1.1457 -1.5252
 3566SOL     OW22156   2.818   4.052   4.363 -0.1911  0.0904 -0.4405
 3566SOL    HW122157   2.914   4.054   4.369 -0.3922 -1.1445  3.0099
 3566SOL    HW222158   2.791   3.985   4.425 -1.9033  3.3047  2.2814
 3567SOL     OW22159   3.970   2.980  13.700 -0.5399  0.0560  0.5364
 3567SOL    HW122160   3.988   2.900  13.651 -0.4524 -0.5920  1.6215
 3567SOL    HW222161   4.055   3.021  13.686 -1.3099  1.8363  1.0896
 3568SOL     OW22162   3.654   4.362   9.747 -0.1195 -0.6039  0.2945
 3568SOL    HW122163   3.716   4.361   9.820  1.9757  1.8997 -1.4611
 3568SOL    HW222164   3.570   4.402   9.770  0.0943  0.9734 -1.7461
 3569SOL     OW22165   0.426   1.398   1.658  0.5177  0.6301  0.0429
 3569SOL    HW122166   0.393   1.430   1.742  0.6006  0.1752  0.2511
 3569SOL    HW222167   0.435   1.303   1.672  0.3700  0.5185 -0.6358
 3570SOL     OW22168   2.599   0.636   5.718  0.2438  0.2328  0.5634
 3570SOL    HW122169   2.628   0.638   5.809 -0.9000 -0.5289  0.9384
 3570SOL    HW222170   2.629   0.553   5.681  0.0675  0.3849  0.0803
 3571SOL     OW22171   3.793   2.422   8.168  0.7884 -0.1287  0.1344
 3571SOL    HW122172   3.888   2.411   8.180 -0.0808 -2.9328  4.1557
 3571SOL    HW222173   3.784   2.512   8.197 -2.7557 -0.5112  0.1200
 3572SOL     OW22174   1.545   2.173   8.713 -0.4459 -0.1667  0.8548
 3572SOL    HW122175   1.582   2.085   8.726  0.7049 -0.3018 -3.2575
 3572SOL    HW222176   1.534   2.202   8.803 -0.9945 -0.9140  1.0316
 3573SOL     OW22177   1.372   3.431   8.124 -0.0379  0.2844  0.2257
 3573SOL    HW122178   1.441   3.378   8.083  1.4096  0.8266  2.0059
 3573SOL    HW222179   1.328   3.365   8.178  1.7776 -0.3124  0.9657
 3574SOL     OW22180   0.266   2.565   6.783 -0.3255  0.4045  0.1217
 3574SOL    HW122181   0.337   2.528   6.834 -1.2799 -1.0281  0.4133
 3574SOL    HW222182   0.241   2.494   6.724 -0.2781  1.0738 -0.7076
 3575SOL     OW22183   1.925   0.795   3.092  0.4593  0.1518  0.2515
 3575SOL    HW122184   1.880   0.757   3.017  0.9865  2.7452 -1.4092
 3575SOL    HW222185   1.988   0.849   3.044  0.9492 -0.4674  0.2129
 3576SOL     OW22186   3.269   3.597   2.462 -0.9593  0.8108  0.3564
 3576SOL    HW122187   3.345   3.648   2.434 -1.4749  0.4916 -1.6545
 3576SOL    HW222188   3.204   3.667   2.474  0.6724  1.8662  2.9230
 3577SOL     OW22189   2.647   2.464   9.091  0.1379 -0.0591 -0.0207
 3577SOL    HW122190   2.689   2.421   9.166 -0.0087 -1.2114 -0.5944
 3577SOL    HW222191   2.605   2.536   9.137  0.0951 -0.4514  0.5628
 3578SOL     OW22192   3.217   0.569   2.330  0.1935  0.4658  0.4384
 3578SOL    HW122193   3.247   0.656   2.356 -0.6274  0.6439  0.8060
 3578SOL    HW222194   3.143   0.592   2.273 -1.4329 -1.1332  1.9370
 3579SOL     OW22195   1.428   0.023   4.801 -0.5001 -0.1984  0.0619
 3579SOL    HW122196   1.446   0.086   4.870 -1.4466  0.4437 -0.2765
 3579SOL    HW222197   1.461   4.665   4.838 -0.4932 -0.5315 -0.6765
 3580SOL     OW22198   4.669   0.418   5.739  0.2213 -0.3047 -0.1351
 3580SOL    HW122199   4.690   0.510   5.750 -0.8794 -0.2513  1.5626
 3580SOL    HW222200   4.717   0.394   5.660 -0.6796  0.0457 -0.7950
 3581SOL     OW22201   4.720   4.555   6.987 -0.3950  0.5040  0.1349
 3581SOL    HW122202   0.089   4.538   7.000 -0.3024 -0.7965 -2.3969
 3581SOL    HW222203   4.689   4.539   7.077 -0.1483 -1.0589 -0.0665
 3582SOL     OW22204   0.161   3.085   8.556 -0.6895  0.1455 -0.2747
 3582SOL    HW122205   0.167   3.145   8.481 -2.6386 -1.7247 -1.9418
 3582SOL    HW222206   0.163   3.142   8.633  0.9167 -1.1307  0.6361
 3583SOL     OW22207   1.438   3.948  13.623 -0.6058  0.9149 -0.0424
 3583SOL    HW122208   1.477   3.995  13.697  1.3169  0.5973 -0.8546
 3583SOL    HW222209   1.432   4.014  13.554 -0.5556  0.1403 -0.7916
 3584SOL     OW22210   3.295   4.405  10.609 -0.0986  0.0931  1.2591
 3584SOL    HW122211   3.309   4.354  10.689  1.0196 -1.5687  0.0084
 3584SOL    HW222212   3.224   4.359  10.563 -0.0015  0.8194  0.3831
 3585SOL     OW22213   3.319   3.381   6.741  0.3619 -0.0977 -0.8669
 3585SOL    HW122214   3.388   3.435   6.703 -0.5932  0.4902 -1.7624
 3585SOL    HW222215   3.316   3.296   6.697 -2.9380  0.0251 -0.9179
 3586SOL     OW22216   4.564   0.353   6.643  0.5964  0.0891  0.1550
 3586SOL    HW122217   4.511   0.319   6.715 -2.4563  0.2937 -1.9795
 3586SOL    HW222218   4.630   0.284   6.647  1.4376  1.0095  2.3024
 3587SOL     OW22219   0.887   0.408  16.986  0.1869  0.6425  0.0528
 3587SOL    HW122220   0.973   0.388  16.949  1.2844  2.8428  1.4122
 3587SOL    HW222221   0.846   0.437  16.905  0.6062  0.4590 -0.2247
 3588SOL     OW22222   1.039   2.032   9.557  0.4040 -0.1680  0.4285
 3588SOL    HW122223   1.074   2.116   9.588 -1.6489  0.9046 -0.2012
 3588SOL    HW222224   0.956   2.023   9.604 -0.5572  0.4153 -1.1580
 3589SOL     OW22225   0.275   1.407   3.350 -0.9558 -0.3360  0.7327
 3589SOL    HW122226   0.218   1.458   3.293 -0.4757 -0.8212 -0.1866
 3589SOL    HW222227   0.360   1.444   3.326  0.0938 -1.3201  2.8185
 3590SOL     OW22228   2.912   1.695   0.298  0.1294  0.3224 -0.3965
 3590SOL    HW122229   2.977   1.644   0.250  2.9472  1.2840  2.4246
 3590SOL    HW222230   2.892   1.646   0.378  0.2694  2.1201  0.7249
 3591SOL     OW22231   4.242   3.670   1.105  0.5593 -0.0699  0.0778
 3591SOL    HW122232   4.172   3.705   1.160  0.6128 -0.0819  0.1526
 3591SOL    HW222233   4.199   3.665   1.019 -1.3334 -0.3933  1.0480
 3592SOL     OW22234   1.251   4.451   3.611 -0.2132 -0.7470 -0.5034
 3592SOL    HW122235   1.281   4.426   3.524 -1.2653 -2.2214 -0.4355
 3592SOL    HW222236   1.332   4.476   3.655 -0.8880  1.6105 -0.5681
 3593SOL     OW22237   3.523   2.136  11.417  0.2679 -0.4575  0.5505
 3593SOL    HW122238   3.494   2.227  11.416  0.6114 -0.3397  1.3803
 3593SOL    HW222239   3.442   2.093  11.446  0.6217  0.7459  3.2523
 3594SOL     OW22240   4.075   1.104  11.408 -0.1013  0.0464 -0.6390
 3594SOL    HW122241   4.071   1.086  11.502 -1.4314 -1.4480 -0.9870
 3594SOL    HW222242   4.144   1.042  11.386  1.6005  0.3330  3.9106
 3595SOL     OW22243   1.808   2.133   2.542 -0.3153  0.4078  0.2101
 3595SOL    HW122244   1.718   2.134   2.509  0.1719 -2.2454 -1.2136
 3595SOL    HW222245   1.822   2.227   2.547 -2.6514  0.7812 -0.2680
 3596SOL     OW22246   3.267   3.824   8.384 -0.3087  0.0635  0.3241
 3596SOL    HW122247   3.232   3.907   8.416  1.4588  0.9647 -0.1218
 3596SOL    HW222248   3.300   3.845   8.296  1.8705 -2.5643  0.5226
 3597SOL     OW22249   4.038   1.355   1.405 -0.0557  0.3149  0.8781
 3597SOL    HW122250   4.001   1.335   1.491 -1.6069 -1.1655 -0.1493
 3597SOL    HW222251   4.027   1.272   1.359 -2.2165  1.8714 -1.4130
 3598SOL     OW22252   0.777   1.534  10.944  0.0662 -0.1385 -0.2009
 3598SOL    HW122253   0.769   1.621  10.984  2.1209 -0.3749  0.7088
 3598SOL    HW222254   0.689   1.500  10.954 -0.8125  2.1391 -0.1280
 3599SOL     OW22255   2.547   0.464   2.167 -0.3887 -0.1644  0.0960
 3599SOL    HW122256   2.545   0.544   2.114 -3.2774  0.0945  0.5968
 3599SOL    HW222257   2.532   0.401   2.097 -0.5803  1.5309 -1.3910
 3600SOL     OW22258   4.285   1.260  15.468 -0.1374  0.4466 -0.4392
 3600SOL    HW122259   4.380   1.250  15.476 -0.1381  0.9306  0.1673
 3600SOL    HW222260   4.256   1.170  15.485 -2.5288  1.3381  0.2381
 3601SOL     OW22261   4.514   1.834   5.030 -0.8486  0.0500 -0.0347
 3601SOL    HW122262   4.504   1.929   5.027 -2.7059 -0.1142  1.1737
 3601SOL    HW222263   4.426   1.810   5.060 -1.4651  1.0626 -1.0265
 3602SOL     OW22264   4.189   1.236   7.815  0.0393  0.2201 -0.0987
 3602SOL    HW122265   4.116   1.174   7.812  0.6549 -0.4574 -1.2224
 3602SOL    HW222266   4.221   1.220   7.904  2.8958  0.4276 -1.0697
 3603SOL     OW22267   2.776   2.210  11.531 -0.1717  0.2038  0.2415
 3603SOL    HW122268   2.789   2.288  11.476 -1.6762  0.0485 -0.3452
 3603SOL    HW222269   2.832   2.142  11.494 -2.0813 -1.5461  0.6047
 3604SOL     OW22270   3.852   2.564   3.655 -0.8019  0.3720 -0.1657
 3604SOL    HW122271   3.819   2.615   3.581 -0.9607 -2.4417 -2.0701
 3604SOL    HW222272   3.775   2.523   3.695 -2.1166 -0.5755 -3.6257
 3605SOL     OW22273   2.812   0.665   9.050  0.1111 -0.1552  0.3620
 3605SOL    HW122274   2.727   0.706   9.059  0.2576  0.4570 -1.0759
 3605SOL    HW222275   2.802   0.602   9.122 -1.5616 -2.2800 -1.7513
 3606SOL     OW22276   0.961   2.552  14.103 -0.7701 -0.1959 -0.4634
 3606SOL    HW122277   1.046   2.565  14.060 -1.1545 -0.0466 -1.1770
 3606SOL    HW222278   0.917   2.629  14.066  0.5639  0.8618  0.1469
 3607SOL     OW22279   0.291   1.868   4.665  0.2485 -0.3337 -0.6421
 3607SOL    HW122280   0.321   1.817   4.590  2.2621  0.4265 -0.3345
 3607SOL    HW222281   0.363   1.854   4.726  0.6728 -2.6440 -1.6650
 3608SOL     OW22282   0.978   0.856   2.522  0.0814 -0.0433  0.2167
 3608SOL    HW122283   0.935   0.788   2.471 -0.4314  1.4256 -1.3059
 3608SOL    HW222284   1.040   0.801   2.570  0.3167 -0.8116 -0.9901
 3609SOL     OW22285   4.568   4.571  14.666  0.7931 -0.0791 -0.2489
 3609SOL    HW122286   4.633   4.553  14.734 -0.0067  0.7489  0.7373
 3609SOL    HW222287   4.587   4.506  14.598  2.4774  2.0652 -1.8114
 3610SOL     OW22288   2.160   4.355   3.610  0.9452 -0.7188 -0.0278
 3610SOL    HW122289   2.193   4.412   3.540 -0.6731  1.3507  0.9156
 3610SOL    HW222290   2.122   4.280   3.564 -4.1333  2.7960 -1.5363
 3611SOL     OW22291   0.864   2.596   3.055 -0.2064  0.6062 -0.0971
 3611SOL    HW122292   0.887   2.512   3.013 -0.5659  0.4392  0.0331
 3611SOL    HW222293   0.944   2.638   3.085  1.1981  0.4436 -3.6000
 3612SOL     OW22294   1.762   4.650   7.742 -0.4414  0.4900 -0.2591
 3612SOL    HW122295   1.673   4.618   7.757 -0.6067  1.3399  0.5579
 3612SOL    HW222296   1.797   4.661   7.830 -2.0152  0.3503  0.3899
 3613SOL     OW22297   1.051   3.640  15.346 -0.4329  0.4405 -0.3858
 3613SOL    HW122298   0.972   3.635  15.401 -0.1660  1.5196  0.0833
 3613SOL    HW222299   1.103   3.565  15.377  0.7918  1.2168 -0.5586
 3614SOL     OW22300   0.300   2.409  14.660  0.1292 -0.0968 -0.3961
 3614SOL    HW122301   0.242   2.421  14.585 -0.7151 -0.7076  0.1504
 3614SOL    HW222302   0.247   2.344  14.708  0.2043  0.6514  0.7074
 3615SOL     OW22303   0.508   1.175   1.821  0.0073  0.0039  0.4263
 3615SOL    HW122304   0.571   1.115   1.859 -1.0301 -1.1773  0.2899
 3615SOL    HW222305   0.422   1.134   1.835  0.3325  0.0888  2.7223
 3616SOL     OW22306   0.289   1.940   6.006 -0.0093  0.1000  0.0298
 3616SOL    HW122307   0.210   1.902   6.044 -0.4847 -0.4091 -1.4588
 3616SOL    HW222308   0.277   1.918   5.913  1.2339  0.6182 -0.2582
 3617SOL     OW22309   4.510   0.959   7.580  0.4891  0.0693  0.2548
 3617SOL    HW122310   4.506   1.054   7.587 -1.0407 -0.0677  1.2903
 3617SOL    HW222311   4.418   0.935   7.593  0.6208 -0.0450  0.9632
 3618SOL     OW22312   2.683   2.601   6.635  0.2903  0.9952  0.2136
 3618SOL    HW122313   2.702   2.518   6.591  1.6686  0.7067  1.3375
 3618SOL    HW222314   2.591   2.614   6.615 -0.5912 -0.6899  3.0609
 3619SOL     OW22315   2.253   3.170   3.108  0.4490  0.3937  0.0794
 3619SOL    HW122316   2.161   3.176   3.133  0.7592  1.2729  1.0278
 3619SOL    HW222317   2.287   3.107   3.172  0.2590  0.4832  0.2695
 3620SOL     OW22318   0.538   0.531   5.177 -0.2050 -0.1976  0.3637
 3620SOL    HW122319   0.524   0.444   5.139 -1.8147 -0.0826  0.6692
 3620SOL    HW222320   0.616   0.503   5.225  0.5884 -2.6461 -2.3525
 3621SOL     OW22321   2.538   3.537   2.356  0.0149 -0.3391 -0.3272
 3621SOL    HW122322   2.518   3.499   2.441 -1.8235 -2.4455 -1.6700
 3621SOL    HW222323   2.621   3.492   2.337 -0.5974 -1.5737 -0.1031
 3622SOL     OW22324   1.501   2.534   7.658 -0.2155  0.5656  0.0798
 3622SOL    HW122325   1.407   2.549   7.651 -0.5102 -0.9239  0.9541
 3622SOL    HW222326   1.526   2.575   7.741  0.7403  3.1523 -1.4961
 3623SOL     OW22327   0.968   1.347   4.400 -0.8710 -0.2321  0.1792
 3623SOL    HW122328   0.894   1.299   4.363 -0.5532  0.0159 -0.7877
 3623SOL    HW222329   0.949   1.349   4.494 -4.4353 -1.2970 -0.5168
 3624SOL     OW22330   2.087   4.236  12.002 -0.0576  0.0732  0.1086
 3624SOL    HW122331   2.094   4.242  12.097 -0.5386  2.8367 -0.0354
 3624SOL    HW222332   1.993   4.221  11.995 -0.3924  1.7445  1.0632
 3625SOL     OW22333   3.144   4.182  16.346  0.1561 -0.5321  0.5722
 3625SOL    HW122334   3.196   4.237  16.404  0.4563 -0.0876 -0.1279
 3625SOL    HW222335   3.078   4.146  16.406  0.5640 -0.8588  0.8296
 3626SOL     OW22336   0.275   2.815  11.422  0.5082  0.2818 -0.2764
 3626SOL    HW122337   0.337   2.884  11.446 -0.5838  0.8704  0.8790
 3626SOL    HW222338   0.280   2.814  11.327 -0.3418 -1.6147 -0.3128
 3627SOL     OW22339   0.775   3.145   0.975  0.1919  0.4673 -0.5029
 3627SOL    HW122340   0.704   3.126   0.913 -3.0556  0.9880  3.0757
 3627SOL    HW222341   0.814   3.058   0.975  1.1810  0.9247  0.8598
 3628SOL     OW22342   4.020   3.709  12.759  0.0577 -0.6343  0.1659
 3628SOL    HW122343   4.061   3.729  12.675 -0.1352 -0.1748  0.1788
 3628SOL    HW222344   4.081   3.642  12.787 -0.3651 -0.8105  0.6526
 3629SOL     OW22345   0.361   3.235   2.028 -0.3166  0.3316 -0.1889
 3629SOL    HW122346   0.379   3.290   1.952  0.3493 -0.7484 -0.8061
 3629SOL    HW222347   0.377   3.148   1.993 -0.8554 -0.8992  2.5990
 3630SOL     OW22348   3.245   3.762   9.902 -0.6099  0.4648 -0.4293
 3630SOL    HW122349   3.165   3.756   9.851 -0.2721 -1.5255 -0.7277
 3630SOL    HW222350   3.271   3.671   9.889 -1.2113  0.2796 -0.3113
 3631SOL     OW22351   3.910   1.288  16.863 -0.3087  0.5318  0.2359
 3631SOL    HW122352   3.906   1.201  16.824 -0.5634  0.4601  0.4241
 3631SOL    HW222353   3.819   1.301  16.890 -0.3805  1.0386 -0.2363
 3632SOL     OW22354   4.300   0.419   0.519  0.2401  0.2280 -0.1695
 3632SOL    HW122355   4.233   0.486   0.529  0.0179  0.0806 -0.6829
 3632SOL    HW222356   4.311   0.388   0.609 -0.0151 -0.5707 -0.4137
 3633SOL     OW22357   1.395   0.474   4.501  0.3735 -0.0372  0.0977
 3633SOL    HW122358   1.441   0.418   4.565 -4.0885 -2.5942  1.1145
 3633SOL    HW222359   1.435   0.455   4.417 -1.0031 -0.5108 -0.4664
 3634SOL     OW22360   4.213   1.105   6.932  0.1976 -0.0273 -0.2365
 3634SOL    HW122361   4.126   1.143   6.943  0.9743  1.7305 -0.1372
 3634SOL    HW222362   4.220   1.091   6.838 -0.9336 -0.5762 -0.2451
 3635SOL     OW22363   0.016   0.286   5.219  0.1795  0.3158 -0.1984
 3635SOL    HW122364   0.074   0.283   5.143  2.0263 -0.9471  1.2386
 3635SOL    HW222365   4.669   0.337   5.181  1.0252  1.5224 -0.1600
 3636SOL     OW22366   1.481   2.515   8.920 -0.3855 -0.7769  0.2467
 3636SOL    HW122367   1.406   2.457   8.908 -1.1084  0.1270  0.2947
 3636SOL    HW222368   1.533   2.500   8.841  0.0083  1.3599  0.0737
 3637SOL     OW22369   0.021   3.501   1.087  0.4084 -0.2367  0.3216
 3637SOL    HW122370   0.015   3.408   1.111 -1.3784 -0.8829 -2.6955
 3637SOL    HW222371   4.678   3.549   1.136  0.6930 -1.7859  2.2411
 3638SOL     OW22372   4.307   1.313   5.115 -0.2512 -0.2612  0.2048
 3638SOL    HW122373   4.308   1.364   5.196 -2.1299 -1.0583  0.7358
 3638SOL    HW222374   4.314   1.228   5.158  1.2357 -0.2616 -0.0372
 3639SOL     OW22375   1.759   0.971   9.708 -0.7313 -0.1120  0.3742
 3639SOL    HW122376   1.741   0.918   9.786  1.5562 -1.1231  0.2157
 3639SOL    HW222377   1.705   1.047   9.731 -1.7576 -1.2657  1.7559
 3640SOL     OW22378   1.979   1.989   7.975  0.8840  0.2592  0.1481
 3640SOL    HW122379   1.914   2.059   7.969  0.4432 -0.3184 -1.9918
 3640SOL    HW222380   1.959   1.940   8.054  1.0128  1.9181  1.2150
 3641SOL     OW22381   4.356   3.890   2.884 -0.2962 -0.4093 -0.0489
 3641SOL    HW122382   4.312   3.808   2.908 -1.4007  0.6074  1.3510
 3641SOL    HW222383   4.355   3.887   2.788 -1.0228  1.2753 -0.1011
 3642SOL     OW22384   0.758   0.414   6.728  0.3424  0.0534  0.2711
 3642SOL    HW122385   0.769   0.504   6.760  0.4787  0.2001 -0.1910
 3642SOL    HW222386   0.701   0.422   6.652 -2.3256  0.2416  2.2963
 3643SOL     OW22387   3.511   1.261   4.703  0.3632  0.2739  0.6613
 3643SOL    HW122388   3.482   1.347   4.674  0.6093  0.5158  1.1346
 3643SOL    HW222389   3.442   1.203   4.669  0.8164 -0.6391  1.2885
 3644SOL     OW22390   4.476   0.025   6.312  0.5459  0.6254 -0.0708
 3644SOL    HW122391   4.539   4.714   6.250  0.3831 -1.1609  0.7840
 3644SOL    HW222392   4.482   0.119   6.295 -0.2279  0.7766  0.4387
 3645SOL     OW22393   3.143   4.096   3.859  0.7408 -0.1902  0.1915
 3645SOL    HW122394   3.177   4.007   3.870  1.9438  0.0315 -1.6927
 3645SOL    HW222395   3.196   4.157   3.911  0.1121 -0.9992  1.7859
 3646SOL     OW22396   1.641   4.313   6.103 -0.0422  0.2337 -0.2990
 3646SOL    HW122397   1.575   4.265   6.053  0.8769 -2.1615  0.8302
 3646SOL    HW222398   1.674   4.247   6.163 -0.2020  0.3409 -0.0905
 3647SOL     OW22399   2.438   3.226   5.768 -0.1270  0.0777 -0.4420
 3647SOL    HW122400   2.386   3.234   5.688  1.7127 -1.9845 -1.8621
 3647SOL    HW222401   2.524   3.204   5.733  0.5248 -0.8710  1.7070
 3648SOL     OW22402   0.716   3.531   7.006 -0.2960 -0.1963 -0.3290
 3648SOL    HW122403   0.689   3.461   6.947 -1.3329 -0.8562  0.9163
 3648SOL    HW222404   0.641   3.550   7.063 -1.3712 -0.4563 -1.6617
 3649SOL     OW22405   2.402   0.759  16.303  0.4573 -0.0737 -0.4759
 3649SOL    HW122406   2.344   0.767  16.227 -1.0357 -0.3507  0.6254
 3649SOL    HW222407   2.382   0.670  16.334 -0.8849 -0.0166 -1.1419
 3650SOL     OW22408   2.886   4.688   3.292 -0.3693 -0.5445  0.5073
 3650SOL    HW122409   2.844   0.041   3.253  0.7693  0.3409  1.0151
 3650SOL    HW222410   2.965   0.012   3.319  0.3980 -1.3805 -0.2498
 3651SOL     OW22411   2.480   1.994  12.275  0.1617  0.1852 -0.3777
 3651SOL    HW122412   2.527   1.964  12.352  1.4376 -1.8264 -1.9620
 3651SOL    HW222413   2.538   1.960  12.208 -0.4453  0.1098 -0.8680
 3652SOL     OW22414   0.117   1.160   0.506 -0.1749  0.1389  0.0780
 3652SOL    HW122415   0.090   1.239   0.554 -3.5319 -1.6720  1.1781
 3652SOL    HW222416   0.101   1.188   0.416 -0.4862 -0.8634 -0.1802
 3653SOL     OW22417   0.533   3.598   6.329 -0.9450  0.3109 -0.0091
 3653SOL    HW122418   0.498   3.521   6.285  0.6516  0.4940 -1.5746
 3653SOL    HW222419   0.576   3.644   6.257 -2.2519  0.1495 -0.8832
 3654SOL     OW22420   4.266   2.678   8.666  0.2386 -0.1521 -0.1487
 3654SOL    HW122421   4.306   2.648   8.748  0.6311  0.4851 -0.1046
 3654SOL    HW222422   4.310   2.763   8.663 -1.2972  0.6547  0.2966
 3655SOL     OW22423   2.832   3.724   4.391 -0.2406  0.2192  0.2970
 3655SOL    HW122424   2.846   3.744   4.299  2.7782  0.2136  0.7570
 3655SOL    HW222425   2.921   3.735   4.426 -0.2813  0.0292  0.4628
 3656SOL     OW22426   4.560   1.656  12.063 -0.9051 -0.2123 -0.5899
 3656SOL    HW122427   4.589   1.668  11.972 -0.7194 -0.4319 -0.5582
 3656SOL    HW222428   4.473   1.696  12.054 -0.8598 -0.4727 -2.1462
 3657SOL     OW22429   0.483   3.599   8.566  0.4657 -0.3277 -0.1299
 3657SOL    HW122430   0.421   3.534   8.598  0.2529 -0.9423 -1.7820
 3657SOL    HW222431   0.566   3.581   8.612 -1.2859 -1.7792  2.4635
 3658SOL     OW22432   1.368   1.826   3.748 -0.9745  0.3156 -0.3352
 3658SOL    HW122433   1.422   1.754   3.780  1.3781  2.2471  0.0701
 3658SOL    HW222434   1.325   1.849   3.830 -1.5540 -0.9385 -0.2863
 3659SOL     OW22435   0.912   2.798  15.624  0.4514  0.2114  0.3607
 3659SOL    HW122436   0.987   2.795  15.566 -0.3099  0.0907 -0.6100
 3659SOL    HW222437   0.845   2.844  15.573 -0.5446  0.3729  1.7995
 3660SOL     OW22438   1.969   2.178  14.567 -0.1742 -0.9090 -0.8073
 3660SOL    HW122439   1.961   2.271  14.546 -1.4706 -0.7674  0.3532
 3660SOL    HW222440   2.005   2.138  14.488  1.3934 -0.2872 -0.4034
 3661SOL     OW22441   1.433   2.968  14.223 -0.6358  0.3191  0.0612
 3661SOL    HW122442   1.361   2.941  14.279 -1.5186  0.7463 -0.8662
 3661SOL    HW222443   1.501   2.967  14.290 -1.0945  1.4064  0.5482
 3662SOL     OW22444   0.905   0.768   1.337  0.0439  0.4843  0.6294
 3662SOL    HW122445   0.875   0.739   1.423 -0.0920 -1.2573  0.0001
 3662SOL    HW222446   0.998   0.768   1.358  0.4243  1.7826 -1.0243
 3663SOL     OW22447   2.380   4.565   8.914  0.1676 -0.0737 -0.2912
 3663SOL    HW122448   2.289   4.559   8.885  0.0057 -2.7054  0.7966
 3663SOL    HW222449   2.416   4.642   8.870  0.3692  0.0729  0.1278
 3664SOL     OW22450   2.813   3.858  15.753  0.0764 -0.3552 -0.2054
 3664SOL    HW122451   2.902   3.868  15.787  0.0316 -0.3898 -0.0781
 3664SOL    HW222452   2.771   3.817  15.829  2.7676 -2.1591  0.3207
 3665SOL     OW22453   0.733   0.803  17.472  0.2634 -0.2062 -0.2770
 3665SOL    HW122454   0.675   0.759  17.410 -0.9119 -0.4121  0.9764
 3665SOL    HW222455   0.673   0.840  17.536  1.3803  1.2374 -0.0461
 3666SOL     OW22456   1.776   2.424   3.131  0.1230 -0.5157  0.1345
 3666SOL    HW122457   1.860   2.457   3.164  0.9357 -0.7401 -1.6904
 3666SOL    HW222458   1.788   2.432   3.036 -0.8619  2.2388  0.2429
 3667SOL     OW22459   0.870   3.468   4.318  0.2484 -0.2019 -0.0775
 3667SOL    HW122460   0.921   3.398   4.276  1.3765 -0.4927  1.7552
 3667SOL    HW222461   0.835   3.415   4.390  1.9274 -2.2947 -0.8026
 3668SOL     OW22462   2.643   3.683  14.854 -0.2978  0.2009 -0.2266
 3668SOL    HW122463   2.584   3.750  14.889  1.4967  1.6589  0.0211
 3668SOL    HW222464   2.577   3.622  14.820 -3.0166  1.8187  2.1888
 3669SOL     OW22465   1.228   4.385  12.015  0.2111  0.1020 -0.0306
 3669SOL    HW122466   1.303   4.372  11.956  0.4594 -0.3935  0.4011
 3669SOL    HW222467   1.181   4.445  11.957  0.7647 -1.0939 -1.7228
 3670SOL     OW22468   2.619   3.116   1.826 -0.1719 -0.5761  0.0449
 3670SOL    HW122469   2.530   3.152   1.822  0.2298  0.6783  2.6125
 3670SOL    HW222470   2.644   3.135   1.916 -0.1479 -1.9914  0.3362
 3671SOL     OW22471   3.114   2.925   3.718  0.6819 -0.0755 -0.1390
 3671SOL    HW122472   3.169   3.002   3.733  1.6805 -0.9023  0.4158
 3671SOL    HW222473   3.176   2.866   3.674  1.9511 -0.4465  2.1830
 3672SOL     OW22474   3.722   3.578   2.583 -0.1345 -0.6651  0.0016
 3672SOL    HW122475   3.794   3.556   2.642  0.4298  0.9936 -0.0653
 3672SOL    HW222476   3.701   3.668   2.606 -1.0897 -0.6447 -0.9561
 3673SOL     OW22477   1.480   1.803   4.503  0.4651 -0.5964 -0.5629
 3673SOL    HW122478   1.532   1.852   4.566 -0.3014 -1.8876  1.0592
 3673SOL    HW222479   1.463   1.871   4.438 -2.5377 -0.5873  0.2340
 3674SOL     OW22480   0.012   3.238   1.154  0.2770 -0.3385 -0.3825
 3674SOL    HW122481   0.077   3.170   1.173  0.3024  0.1713  1.3633
 3674SOL    HW222482   4.660   3.181   1.143 -0.7848  1.0266 -0.0375
 3675SOL     OW22483   2.200   4.122   7.232 -0.0900 -0.0607  0.5201
 3675SOL    HW122484   2.196   4.114   7.137 -1.2606 -1.5546  0.6856
 3675SOL    HW222485   2.206   4.031   7.261  0.8312 -0.4464 -0.8989
 3676SOL     OW22486   3.602   0.411   9.413  0.0776 -0.0363  0.0624
 3676SOL    HW122487   3.606   0.396   9.508  2.1991  0.4977  0.0659
 3676SOL    HW222488   3.657   0.336   9.392  0.3108  0.3878 -0.8451
 3677SOL     OW22489   4.242   0.366  12.258  0.2693 -0.1308  0.4653
 3677SOL    HW122490   4.294   0.288  12.278  0.5678  0.2066  1.0165
 3677SOL    HW222491   4.161   0.326  12.229 -0.5088  3.5904 -2.5774
 3678SOL     OW22492   4.412   1.779   5.861  0.1222 -0.7116 -0.3701
 3678SOL    HW122493   4.382   1.726   5.934 -0.6237  1.7091  1.0994
 3678SOL    HW222494   4.505   1.759   5.864  0.5236  1.0395 -1.0112
 3679SOL     OW22495   1.175   4.574  17.144 -0.3652 -0.5969 -0.6592
 3679SOL    HW122496   1.267   4.566  17.119 -0.9986 -0.6360 -2.9337
 3679SOL    HW222497   1.175   4.663  17.177 -1.6791 -0.6590 -0.5101
 3680SOL     OW22498   4.013   1.597  11.761  0.3563  0.0183  0.4997
 3680SOL    HW122499   4.029   1.573  11.853 -1.4549  1.3045  1.1599
 3680SOL    HW222500   3.938   1.656  11.774  0.2904 -0.3684  1.8975
 3681SOL     OW22501   2.813   1.877   6.052 -0.1215 -0.2531  0.3177
 3681SOL    HW122502   2.791   1.850   6.142  0.1445 -2.0797 -0.1650
 3681SOL    HW222503   2.898   1.837   6.035  1.4640  3.5831 -0.8187
 3682SOL     OW22504   0.446   4.083  12.221 -0.3335  0.1665 -0.2792
 3682SOL    HW122505   0.385   4.150  12.254  2.5370  2.0665  1.1363
 3682SOL    HW222506   0.471   4.051  12.307  0.5245  0.7302 -0.3203
 3683SOL     OW22507   4.238   3.900   5.932 -0.5365 -0.3560 -0.5187
 3683SOL    HW122508   4.197   3.966   5.876  0.6504  1.8442  1.2091
 3683SOL    HW222509   4.326   3.934   5.949 -1.4710  1.7677  0.0524
 3684SOL     OW22510   2.006   1.960   2.482  0.0960  0.4182  0.3791
 3684SOL    HW122511   1.945   2.033   2.492 -1.1212 -0.6261  0.5712
 3684SOL    HW222512   1.985   1.926   2.396  2.3723  0.6411 -0.2616
 3685SOL     OW22513   1.382   4.579  16.958 -0.0602 -0.1150  0.2604
 3685SOL    HW122514   1.452   4.523  16.924 -0.5767 -0.8648  0.4313
 3685SOL    HW222515   1.298   4.544  16.928  0.4208 -0.0812 -1.1098
 3686SOL     OW22516   4.682   1.294   8.863 -0.1762  0.3457  0.1845
 3686SOL    HW122517   0.019   1.348   8.914  1.6111 -1.2562 -0.2560
 3686SOL    HW222518   4.682   1.222   8.926  0.2819  0.5395  0.4096
 3687SOL     OW22519   1.264   0.426   6.742  0.1951  0.7226  0.3635
 3687SOL    HW122520   1.260   0.471   6.657 -0.2608  0.8810  0.4681
 3687SOL    HW222521   1.305   0.493   6.796 -1.1931  0.2674  1.9602
 3688SOL     OW22522   2.352   3.309   1.859  0.1709 -0.1475  0.7223
 3688SOL    HW122523   2.291   3.302   1.933 -1.3108 -0.1089 -0.5067
 3688SOL    HW222524   2.300   3.361   1.799 -1.2880  0.4016  2.4577
 3689SOL     OW22525   3.397   4.691   4.883  0.4513 -0.3175  0.5325
 3689SOL    HW122526   3.480   4.706   4.838 -0.7447  0.4634 -1.3985
 3689SOL    HW222527   3.393   0.042   4.942  2.5150 -0.8201  1.2991
 3690SOL     OW22528   2.848   1.007   8.247 -0.2266  0.5258  0.6168
 3690SOL    HW122529   2.837   1.094   8.285 -1.1778  1.0349 -0.8252
 3690SOL    HW222530   2.788   0.959   8.304  0.8954  1.2989  2.4579
 3691SOL     OW22531   0.746   4.495  17.505 -0.0059  0.0783 -0.1945
 3691SOL    HW122532   0.765   4.512  17.413  0.3801 -1.4702 -0.4022
 3691SOL    HW222533   0.801   4.563  17.543  0.0845  0.0132 -0.2093
 3692SOL     OW22534   2.430   0.164   4.336 -0.2928  0.5395  0.2243
 3692SOL    HW122535   2.363   0.176   4.268 -0.0697  0.2022 -0.0601
 3692SOL    HW222536   2.433   0.069   4.345 -0.4559  0.3270 -1.8790
 3693SOL     OW22537   1.044   3.962   0.869 -0.3523 -0.1270 -0.0925
 3693SOL    HW122538   0.986   3.925   0.803 -0.6395  1.7077 -0.8456
 3693SOL    HW222539   0.989   4.030   0.907 -0.7475 -0.5719  0.1383
 3694SOL     OW22540   2.192   0.535   6.918 -0.4163 -0.8062  0.0193
 3694SOL    HW122541   2.112   0.584   6.939  0.3976 -0.5546  2.5573
 3694SOL    HW222542   2.179   0.522   6.824 -1.7734 -0.0317  0.1005
 3695SOL     OW22543   4.544   4.266   1.320 -0.5077  0.2263 -0.5226
 3695SOL    HW122544   4.638   4.278   1.333 -0.1247 -3.0840 -0.3008
 3695SOL    HW222545   4.498   4.347   1.344 -1.3956 -0.8429  1.3633
 3696SOL     OW22546   2.425   2.755   1.332 -0.5056  0.1593  0.0834
 3696SOL    HW122547   2.514   2.788   1.349 -0.1793 -1.1387  0.8499
 3696SOL    HW222548   2.370   2.807   1.390 -0.6898  1.8358 -1.6001
 3697SOL     OW22549   0.204   2.888   2.198 -0.1479 -0.5801 -0.3397
 3697SOL    HW122550   0.143   2.961   2.190 -1.2660 -1.3563  1.0562
 3697SOL    HW222551   0.213   2.868   2.105  1.2009  1.6739 -0.6822
 3698SOL     OW22552   1.444   1.467   5.946  0.4317  0.6594  0.2408
 3698SOL    HW122553   1.371   1.415   5.911 -0.3743  1.4639  0.7192
 3698SOL    HW222554   1.517   1.406   5.937 -0.0322  0.1620 -0.1597
 3699SOL     OW22555   4.561   2.319   8.549  0.1941  0.7352  0.6825
 3699SOL    HW122556   4.626   2.304   8.481  1.7340 -1.0014  2.5345
 3699SOL    HW222557   4.589   2.402   8.589 -2.1778  0.5567  2.7346
 3700SOL     OW22558   1.303   2.589  17.661 -0.6882 -0.3005 -0.1708
 3700SOL    HW122559   1.270   2.594   0.054 -1.0036  1.0796 -0.3713
 3700SOL    HW222560   1.217   2.561  17.629 -0.7138  0.7029 -0.9580
 3701SOL     OW22561   4.288   4.019   1.053  0.2159  0.0781  0.3278
 3701SOL    HW122562   4.235   4.098   1.053  1.0354  0.6318  2.0855
 3701SOL    HW222563   4.303   4.012   1.147  3.5219 -1.7936 -0.3320
 3702SOL     OW22564   0.080   2.704   2.669  0.1904  0.2606 -0.3238
 3702SOL    HW122565   0.058   2.680   2.579  2.6038 -1.3902 -0.4802
 3702SOL    HW222566   0.171   2.731   2.656  0.5452 -0.5878  0.3755
 3703SOL     OW22567   1.381   4.347   7.095  0.3475  0.2645 -0.5704
 3703SOL    HW122568   1.286   4.359   7.104  0.1098 -3.4607  1.8643
 3703SOL    HW222569   1.395   4.276   7.158 -0.6211  1.5118  1.0648
 3704SOL     OW22570   1.837   2.779  15.310 -0.1798 -0.0440  0.4549
 3704SOL    HW122571   1.879   2.849  15.260 -0.2031 -0.9597 -0.8508
 3704SOL    HW222572   1.901   2.752  15.377  0.4716  0.3674  0.0012
 3705SOL     OW22573   3.476   0.591   6.292 -1.1074 -0.3894 -0.3905
 3705SOL    HW122574   3.544   0.524   6.303 -1.5629 -0.8205 -0.1834
 3705SOL    HW222575   3.452   0.617   6.381  1.3659 -0.5262  0.3368
 3706SOL     OW22576   4.372   3.814   7.047 -0.1791 -0.4056 -0.3196
 3706SOL    HW122577   4.325   3.751   7.102  0.3253  0.2683  0.8898
 3706SOL    HW222578   4.464   3.788   7.039  0.0608  0.7270 -1.2536
 3707SOL     OW22579   1.339   0.421   7.237  0.2760 -0.5798  0.1284
 3707SOL    HW122580   1.275   0.471   7.186  0.1552 -1.4117 -0.5354
 3707SOL    HW222581   1.303   0.439   7.324  1.6975  1.8807  0.2057
 3708SOL     OW22582   3.707   3.309  12.276  0.1195 -0.4062  0.7017
 3708SOL    HW122583   3.774   3.245  12.253 -0.1594 -0.5195  0.1949
 3708SOL    HW222584   3.758   3.379  12.317  0.5826  0.3388 -1.1518
 3709SOL     OW22585   4.638   0.494   0.106 -0.0921 -0.4010  0.1290
 3709SOL    HW122586   4.598   0.453   0.182  1.5698 -1.2420  0.5431
 3709SOL    HW222587   4.644   0.584   0.136  3.1869 -0.1645 -1.2984
 3710SOL     OW22588   1.736   3.833  17.609 -0.2597  0.1727 -0.1559
 3710SOL    HW122589   1.829   3.820  17.631 -0.5505  0.4439  1.2217
 3710SOL    HW222590   1.710   3.744  17.634  0.6732 -0.0165  0.1504
 3711SOL     OW22591   0.455   0.527   2.421 -0.0250 -0.2878 -0.4085
 3711SOL    HW122592   0.549   0.506   2.414 -0.1265 -0.3460 -1.6566
 3711SOL    HW222593   0.416   0.440   2.409 -2.5267  0.8235 -0.1877
 3712SOL     OW22594   2.892   1.148   7.521  0.6631  0.3573  0.6567
 3712SOL    HW122595   2.863   1.062   7.549  0.3540  0.5862  1.0357
 3712SOL    HW222596   2.910   1.134   7.428  0.9490 -1.3001  0.9690
 3713SOL     OW22597   1.333   4.493   4.029 -0.1553  0.0149 -0.0311
 3713SOL    HW122598   1.279   4.465   3.955 -0.5168  0.0645  0.2127
 3713SOL    HW222599   1.274   4.548   4.081 -1.1715  0.4603 -1.6588
 3714SOL     OW22600   2.750   4.008  12.544 -0.3248  0.0320  0.1960
 3714SOL    HW122601   2.691   4.079  12.569 -0.9304 -0.8704  1.3634
 3714SOL    HW222602   2.794   4.046  12.469  0.6450 -2.7352 -0.6361
 3715SOL     OW22603   4.116   4.472   5.843  0.4171  0.3047  0.4566
 3715SOL    HW122604   4.203   4.508   5.825 -0.0840  0.6001 -1.3537
 3715SOL    HW222605   4.118   4.462   5.938 -3.0068 -1.6909  0.3458
 3716SOL     OW22606   2.460   3.656   8.153 -0.5536 -0.1077 -0.0026
 3716SOL    HW122607   2.441   3.583   8.212  1.0718 -0.4922  0.0540
 3716SOL    HW222608   2.385   3.713   8.170  0.1144  0.9853 -0.7134
 3717SOL     OW22609   2.932   2.208  10.752  0.9748  0.6311  0.3441
 3717SOL    HW122610   2.991   2.142  10.787  0.0079  0.5426  1.7810
 3717SOL    HW222611   2.987   2.287  10.754  3.0306 -0.7348 -1.7558
 3718SOL     OW22612   1.595   0.181   0.968  0.3806  0.3883  0.4406
 3718SOL    HW122613   1.680   0.217   0.944 -1.3240  2.5049 -2.3955
 3718SOL    HW222614   1.548   0.264   0.977 -0.9788 -0.5071  1.6666
 3719SOL     OW22615   1.111   2.127   0.181 -0.2301 -0.9035 -0.3120
 3719SOL    HW122616   1.195   2.157   0.215  0.0674 -1.2178 -0.7684
 3719SOL    HW222617   1.126   2.033   0.169  1.2135 -0.5162 -1.4729
 3720SOL     OW22618   1.090   2.607   8.998 -0.1892 -0.3644  0.2192
 3720SOL    HW122619   1.133   2.539   9.050 -1.5426 -1.3874 -0.0085
 3720SOL    HW222620   1.082   2.567   8.911 -2.3746  0.2209  0.1508
 3721SOL     OW22621   0.657   3.148   7.632  0.0334  0.3488 -0.0464
 3721SOL    HW122622   0.662   3.178   7.542 -0.2888  0.5119 -0.0122
 3721SOL    HW222623   0.736   3.094   7.636 -0.8459 -1.0882 -1.8267
 3722SOL     OW22624   3.757   0.121  14.986  0.5393  0.2500  0.3967
 3722SOL    HW122625   3.755   0.173  14.906  2.3460 -0.4586 -0.1069
 3722SOL    HW222626   3.848   0.095  14.982  0.5227  0.1557  0.6555
 3723SOL     OW22627   0.770   3.920   0.343 -0.1197 -0.2525  0.3780
 3723SOL    HW122628   0.750   3.998   0.292  3.5609  0.1678 -0.3786
 3723SOL    HW222629   0.716   3.956   0.414  2.9725  1.7021  1.7322
 3724SOL     OW22630   1.109   3.652   7.193 -0.0177 -0.5495  0.6602
 3724SOL    HW122631   1.175   3.590   7.163 -1.6149 -2.0479  0.2593
 3724SOL    HW222632   1.059   3.666   7.113 -0.0220  0.4009  0.8323
 3725SOL     OW22633   2.799   4.432   3.434 -0.5971  0.1837  0.3471
 3725SOL    HW122634   2.878   4.419   3.486 -0.2452  0.3360 -0.1482
 3725SOL    HW222635   2.824   4.504   3.377 -1.4484 -1.2056 -1.8055
 3726SOL     OW22636   1.830   1.732   7.852  0.1090 -0.0007  0.2675
 3726SOL    HW122637   1.753   1.706   7.802  1.3487 -1.0426 -1.0907
 3726SOL    HW222638   1.829   1.824   7.825  0.2409 -1.2640 -4.0171
 3727SOL     OW22639   2.621   3.956   6.872 -0.1810  0.8608 -0.5643
 3727SOL    HW122640   2.624   3.943   6.777  1.0796 -1.5709 -0.1942
 3727SOL    HW222641   2.696   3.908   6.907 -1.9548 -0.7036  1.0688
 3728SOL     OW22642   2.181   3.640   8.403  0.4390  0.5445  0.0257
 3728SOL    HW122643   2.231   3.575   8.354  1.1004  0.4305  0.8700
 3728SOL    HW222644   2.180   3.602   8.491  2.3714  1.6227  0.4947
 3729SOL     OW22645   3.847   0.304   3.551 -0.1093  0.9663  0.2281
 3729SOL    HW122646   3.809   0.226   3.511  0.7673 -0.1154  1.4990
 3729SOL    HW222647   3.880   0.267   3.633 -0.0316  0.9271  0.1785
 3730SOL     OW22648   0.136   1.837   7.912 -0.7112  0.0191  0.4459
 3730SOL    HW122649   0.101   1.780   7.980  1.3449  0.1190  1.6146
 3730SOL    HW222650   0.098   1.800   7.832 -1.6514 -0.2076  1.0063
 3731SOL     OW22651   0.203   2.510  17.269  0.2922 -0.0679  0.0494
 3731SOL    HW122652   0.286   2.469  17.246 -0.4983 -0.9851 -1.1714
 3731SOL    HW222653   0.207   2.589  17.215 -1.2024  0.3964  0.6067
 3732SOL     OW22654   1.823   0.482   9.012  0.1227  0.1073 -0.1908
 3732SOL    HW122655   1.775   0.444   9.086  0.6435 -0.9217 -0.3799
 3732SOL    HW222656   1.755   0.530   8.967 -1.1959 -1.1078  0.4917
 3733SOL     OW22657   3.902   1.868   6.750  0.4737  0.3524 -0.1879
 3733SOL    HW122658   3.909   1.810   6.674  1.0073 -0.1041  0.2069
 3733SOL    HW222659   3.857   1.943   6.713  2.0768  1.7397  0.6399
 3734SOL     OW22660   4.374   1.889   2.882 -0.1259 -0.3643  0.0878
 3734SOL    HW122661   4.341   1.804   2.851 -1.4463  0.4548 -0.7586
 3734SOL    HW222662   4.377   1.930   2.796  1.2863  1.6323  1.0927
 3735SOL     OW22663   3.633   2.025  10.734 -0.0425 -0.1346  0.0200
 3735SOL    HW122664   3.577   1.954  10.703  1.9054 -2.0056  0.8141
 3735SOL    HW222665   3.674   2.053  10.653 -1.0608  0.6647 -0.2182
 3736SOL     OW22666   1.457   2.676   2.400 -0.4838 -0.1977 -0.1390
 3736SOL    HW122667   1.421   2.736   2.465  0.8500  0.1029  0.3310
 3736SOL    HW222668   1.429   2.719   2.320  4.1064 -2.9636 -3.1988
 3737SOL     OW22669   4.174   1.478  15.128 -0.6565 -0.2219  0.4320
 3737SOL    HW122670   4.081   1.501  15.125 -0.1652  1.8266  0.6256
 3737SOL    HW222671   4.186   1.501  15.220  0.4641  1.1500 -0.0633
 3738SOL     OW22672   0.040   3.173  14.617  0.3034  0.7262 -0.6417
 3738SOL    HW122673   0.028   3.199  14.709  2.6735 -0.7018  0.0776
 3738SOL    HW222674   0.003   3.253  14.580  2.5274  2.1323  0.2014
 3739SOL     OW22675   0.579   1.143   9.213 -0.1155 -0.2775  0.1096
 3739SOL    HW122676   0.631   1.170   9.138  0.6282 -0.2275  0.6408
 3739SOL    HW222677   0.639   1.171   9.282  0.2240 -0.5977 -0.0561
 3740SOL     OW22678   1.271   2.896  11.031 -0.1157 -0.1632 -0.4936
 3740SOL    HW122679   1.286   2.840  11.107 -2.7105  0.4334  0.4272
 3740SOL    HW222680   1.295   2.829  10.967 -2.2447 -1.6128  0.2323
 3741SOL     OW22681   1.267   1.012   5.314 -0.0400 -0.2088 -0.1071
 3741SOL    HW122682   1.172   1.022   5.308  0.0371  0.6869  0.1741
 3741SOL    HW222683   1.285   1.016   5.407 -1.3926 -2.4625  0.2458
 3742SOL     OW22684   4.631   4.600   4.333 -0.0217  0.3417  0.6153
 3742SOL    HW122685   4.622   4.660   4.259 -1.7358  0.2338  0.7482
 3742SOL    HW222686   4.542   4.565   4.341 -0.6208  1.8417  0.5169
 3743SOL     OW22687   1.368   3.945  16.486  0.0083  0.8318 -0.2646
 3743SOL    HW122688   1.376   4.035  16.457 -0.3266  0.2061 -2.2717
 3743SOL    HW222689   1.461   3.920  16.490  0.2749  1.8777 -0.0750
 3744SOL     OW22690   4.161   3.591   6.336 -0.1013  0.3341  0.9443
 3744SOL    HW122691   4.190   3.500   6.328  0.0505  0.2932  1.9494
 3744SOL    HW222692   4.240   3.644   6.325 -0.8119  1.6152  2.0209
 3745SOL     OW22693   1.437   3.836   0.862 -0.3219  0.3923  0.2597
 3745SOL    HW122694   1.402   3.746   0.859 -0.8839  0.6530 -1.0898
 3745SOL    HW222695   1.386   3.877   0.792 -0.4345 -1.1299 -0.5502
 3746SOL     OW22696   2.148   3.482  11.581 -0.0136 -0.0355  0.5419
 3746SOL    HW122697   2.202   3.557  11.557  0.7725 -1.5023 -2.3003
 3746SOL    HW222698   2.113   3.459  11.494 -1.3348 -2.1291  1.6361
 3747SOL     OW22699   2.598   1.594   7.714  0.1873  0.5241  0.0782
 3747SOL    HW122700   2.593   1.581   7.809  0.9253  1.2343  0.2067
 3747SOL    HW222701   2.651   1.520   7.684 -0.8996 -0.2663  0.0858
 3748SOL     OW22702   4.615   4.009   3.611  0.5831 -0.6906 -0.3060
 3748SOL    HW122703   4.612   4.081   3.549 -1.3551 -0.8789 -0.4442
 3748SOL    HW222704   4.641   4.052   3.693 -0.0936 -0.4564 -0.2153
 3749SOL     OW22705   0.685   3.892   2.940 -0.0293 -0.2815  0.2653
 3749SOL    HW122706   0.739   3.853   2.871 -1.1187  0.8334 -1.2329
 3749SOL    HW222707   0.713   3.838   3.014  1.5237 -0.6648 -0.5964
 3750SOL     OW22708   4.135   2.226   8.815 -0.0771  0.2632  0.1489
 3750SOL    HW122709   4.206   2.228   8.750  0.0706 -1.3195  0.2565
 3750SOL    HW222710   4.188   2.179   8.879  0.8271 -1.6229 -1.9722
 3751SOL     OW22711   1.776   0.381   7.101  0.0486 -0.0600 -0.0783
 3751SOL    HW122712   1.785   0.476   7.111 -1.7048  0.2215 -1.1131
 3751SOL    HW222713   1.861   0.357   7.139 -0.0506  0.0177  0.1954
 3752SOL     OW22714   0.367   0.983  14.991  0.2514  0.3298 -0.0253
 3752SOL    HW122715   0.426   1.041  15.039  2.1511 -0.7460 -1.0612
 3752SOL    HW222716   0.428   0.951  14.925  0.9218 -1.2190  1.3414
 3753SOL     OW22717   0.330   0.994   4.222  0.5802  0.1100 -0.2386
 3753SOL    HW122718   0.308   0.979   4.129  3.0972  0.5578 -0.9050
 3753SOL    HW222719   0.244   1.005   4.263  0.0539 -0.6766 -1.1254
 3754SOL     OW22720   1.878   1.552   3.939 -0.4587  0.4239 -0.3648
 3754SOL    HW122721   1.898   1.462   3.964 -0.0703  0.8154  0.7274
 3754SOL    HW222722   1.889   1.545   3.844  0.8917 -1.2262 -0.0703
 3755SOL     OW22723   1.306   1.634   0.863  0.3968 -0.6214 -0.0135
 3755SOL    HW122724   1.284   1.568   0.798  4.9473 -0.9287 -1.2421
 3755SOL    HW222725   1.237   1.616   0.928 -1.0264 -2.8070 -2.1467
 3756SOL     OW22726   2.897   3.938  10.394  0.2375 -0.0324  0.2243
 3756SOL    HW122727   2.915   3.921  10.486 -0.0176 -1.8393 -0.0478
 3756SOL    HW222728   2.836   4.011  10.404 -1.1835 -1.3137  0.8925
 3757SOL     OW22729   4.378   2.746   6.433 -0.4609  0.4022 -0.6009
 3757SOL    HW122730   4.360   2.739   6.339 -0.8742 -0.5371 -0.4491
 3757SOL    HW222731   4.456   2.691   6.428 -0.0529  0.8822  0.5481
 3758SOL     OW22732   1.320   3.813   5.368  0.2354 -0.0562  0.0203
 3758SOL    HW122733   1.268   3.872   5.314  1.3092  0.9383  0.0672
 3758SOL    HW222734   1.349   3.756   5.296  0.7067 -3.2560  2.7123
 3759SOL     OW22735   4.356   2.367   6.192  0.2484 -0.0509  0.3395
 3759SOL    HW122736   4.393   2.283   6.165  2.6378  1.0394  0.2469
 3759SOL    HW222737   4.362   2.422   6.114  1.0529 -0.9564 -0.2364
 3760SOL     OW22738   1.948   3.944   3.807  0.4943 -0.0028 -0.2274
 3760SOL    HW122739   2.001   3.878   3.763  0.8301  1.5878 -2.1978
 3760SOL    HW222740   1.892   3.885   3.859  1.0007  0.5005  0.8988
 3761SOL     OW22741   1.005   1.018  10.008 -0.2020 -0.6936 -0.1280
 3761SOL    HW122742   0.956   0.962   9.947 -0.1972  1.5105 -2.1286
 3761SOL    HW222743   1.087   1.029   9.961  0.9231  2.1863  2.5471
 3762SOL     OW22744   4.557   0.448  16.131  0.5394 -0.2656 -0.1394
 3762SOL    HW122745   4.533   0.373  16.076  0.0029 -0.7548  0.7572
 3762SOL    HW222746   4.633   0.411  16.177  0.6658  0.7742  0.4907
 3763SOL     OW22747   1.573   0.602   3.380 -0.1957 -0.0757  0.0625
 3763SOL    HW122748   1.664   0.625   3.366 -0.7305  1.7419 -0.5045
 3763SOL    HW222749   1.569   0.627   3.473  0.2722 -2.2773  0.6612
 3764SOL     OW22750   2.206   3.650   6.020  0.5473 -0.2838  0.4624
 3764SOL    HW122751   2.263   3.599   5.963 -1.0780 -1.1774 -0.3856
 3764SOL    HW222752   2.138   3.589   6.050 -0.5775  0.3078 -0.8581
 3765SOL     OW22753   2.367   4.446   4.502  0.1352  0.1044 -0.0027
 3765SOL    HW122754   2.299   4.381   4.520 -0.0668  0.5915  1.0153
 3765SOL    HW222755   2.425   4.426   4.576  2.1245 -0.6281 -1.7650
 3766SOL     OW22756   0.391   3.885   8.568  0.0235  0.1577 -0.4794
 3766SOL    HW122757   0.479   3.871   8.602  0.2844  0.5334 -0.9911
 3766SOL    HW222758   0.351   3.800   8.588 -2.7421  1.5984  0.1820
 3767SOL     OW22759   1.295   1.997  11.159  0.5034 -0.1054  0.0202
 3767SOL    HW122760   1.387   2.009  11.134 -0.1590  3.1184 -0.8673
 3767SOL    HW222761   1.282   1.912  11.118 -1.9535  0.2093  0.1817
 3768SOL     OW22762   2.626   4.278   5.475 -0.5513  0.3801 -0.1217
 3768SOL    HW122763   2.583   4.323   5.403  0.5804  1.1823 -0.2942
 3768SOL    HW222764   2.695   4.341   5.495 -1.5309  2.6754 -3.9119
 3769SOL     OW22765   4.375   3.577   0.553  0.0998  0.0163 -0.3348
 3769SOL    HW122766   4.431   3.633   0.499  1.8296 -1.8088 -0.4578
 3769SOL    HW222767   4.325   3.634   0.612  0.9334 -0.0495  0.4338
 3770SOL     OW22768   4.418   1.835   4.123  0.1931 -0.3326  0.2304
 3770SOL    HW122769   4.357   1.899   4.160  0.2029 -0.1900  0.0008
 3770SOL    HW222770   4.446   1.800   4.207  1.9709 -1.4546 -0.8184
 3771SOL     OW22771   3.940   3.856   2.511 -0.5489  0.2976 -0.6154
 3771SOL    HW122772   3.874   3.821   2.570 -1.6211 -0.1009 -2.0489
 3771SOL    HW222773   3.981   3.922   2.566 -1.3539 -0.7283  1.2059
 3772SOL     OW22774   0.847   0.897   8.046  0.2140 -0.3393 -0.4130
 3772SOL    HW122775   0.781   0.965   8.032 -0.4782 -0.7908  0.6621
 3772SOL    HW222776   0.926   0.951   8.042 -0.9184  1.2578 -1.0465
 3773SOL     OW22777   2.280   0.078   4.681 -0.0722 -0.2553 -0.1216
 3773SOL    HW122778   2.335   0.083   4.759 -0.0118 -2.7401 -0.0060
 3773SOL    HW222779   2.331   0.133   4.621 -0.2009 -1.4989 -1.3803
 3774SOL     OW22780   2.364   0.682   5.605  0.2809 -0.1387  0.3083
 3774SOL    HW122781   2.443   0.664   5.657  0.6022  0.9447  0.1849
 3774SOL    HW222782   2.395   0.744   5.539  1.1231 -0.7575  0.1061
 3775SOL     OW22783   0.142   4.637   4.413  0.1603 -0.2954 -0.1244
 3775SOL    HW122784   0.183   4.637   4.326  0.6486 -1.6247  0.1027
 3775SOL    HW222785   0.054   4.604   4.394  0.6715 -0.6526 -1.9379
 3776SOL     OW22786   0.324   3.037   2.926 -0.4562  0.0205  0.6461
 3776SOL    HW122787   0.260   3.038   2.997 -0.5609 -0.5788  0.5638
 3776SOL    HW222788   0.307   3.123   2.887 -0.5723 -0.7447 -1.0046
 3777SOL     OW22789   4.472   3.870   8.029 -0.5611  0.5894 -0.1953
 3777SOL    HW122790   4.505   3.911   7.949  0.3017 -0.7279 -0.5228
 3777SOL    HW222791   4.494   3.940   8.091  2.9676 -0.3304 -0.3960
 3778SOL     OW22792   3.886   4.482   6.412  1.0533 -0.0264  0.4993
 3778SOL    HW122793   3.881   4.571   6.379  0.8522 -0.7471 -1.3759
 3778SOL    HW222794   3.808   4.480   6.468  0.4433  1.6508 -0.2999
 3779SOL     OW22795   4.191   4.163   3.394  0.3773 -0.0314 -1.0298
 3779SOL    HW122796   4.193   4.160   3.489  0.0843  1.5641 -0.9732
 3779SOL    HW222797   4.095   4.159   3.391  0.3658 -0.2699 -0.1903
 3780SOL     OW22798   3.771   2.446   2.670  0.0525 -0.0783  0.9377
 3780SOL    HW122799   3.806   2.524   2.628 -3.3899  0.4279 -0.9594
 3780SOL    HW222800   3.819   2.450   2.753 -1.0531 -2.0111  1.6542
 3781SOL     OW22801   2.922   1.659  12.534 -0.1654  0.7149  0.7483
 3781SOL    HW122802   3.001   1.712  12.523 -0.3287  0.9780  0.8225
 3781SOL    HW222803   2.916   1.665  12.629 -0.3371  1.1401  0.7135
 3782SOL     OW22804   3.914   2.848   3.084  0.1382 -0.1114  0.1906
 3782SOL    HW122805   3.963   2.881   3.008 -1.8001 -0.9684 -1.4358
 3782SOL    HW222806   3.983   2.815   3.141  0.4793 -1.1805 -0.8344
 3783SOL     OW22807   1.667   1.780  17.601  0.1746  0.2831 -0.3663
 3783SOL    HW122808   1.747   1.767  17.651 -0.0132 -1.9885 -0.6406
 3783SOL    HW222809   1.631   1.856  17.648 -1.4067 -2.4318  2.8085
 3784SOL     OW22810   0.271   0.498   7.120 -0.0890  0.0942 -0.0760
 3784SOL    HW122811   0.326   0.425   7.148 -1.1052 -0.1582  1.2769
 3784SOL    HW222812   0.204   0.459   7.065 -0.5210  0.3440  0.2788
 3785SOL     OW22813   2.951   2.045   1.549 -0.0189 -0.1280  0.7004
 3785SOL    HW122814   3.011   1.971   1.539 -1.7743 -1.5052  0.1549
 3785SOL    HW222815   3.017   2.105   1.581  1.3505 -0.9088 -0.6454
 3786SOL     OW22816   4.148   0.992  16.902  0.2092 -0.1100  0.5203
 3786SOL    HW122817   4.222   1.043  16.869 -0.9783  0.7006 -0.8978
 3786SOL    HW222818   4.076   1.023  16.847 -0.7056  0.4542  2.0534
 3787SOL     OW22819   4.201   1.636   3.693 -0.0040  0.0531 -0.0231
 3787SOL    HW122820   4.176   1.586   3.616 -0.3372 -0.5504  0.4756
 3787SOL    HW222821   4.219   1.564   3.753  1.9945 -0.4691 -1.2460
 3788SOL     OW22822   3.665   2.398   5.535  0.0717  0.1869  0.2774
 3788SOL    HW122823   3.630   2.449   5.608 -0.2866  1.2811 -0.6700
 3788SOL    HW222824   3.633   2.447   5.460  1.6149 -0.7371 -0.9777
 3789SOL     OW22825   2.080   2.867   7.324  0.4768  0.2869 -0.0434
 3789SOL    HW122826   2.048   2.782   7.356 -0.2876  0.3362 -0.6815
 3789SOL    HW222827   2.172   2.872   7.347  0.2376 -0.6843  1.1146
 3790SOL     OW22828   1.659   0.789   3.794 -0.4852  0.4259 -0.0245
 3790SOL    HW122829   1.673   0.840   3.714  1.7866  1.7978  1.2315
 3790SOL    HW222830   1.583   0.745   3.755  1.2976 -1.1596 -1.7348
 3791SOL     OW22831   4.589   3.025   6.456  0.0051  0.6799  0.4442
 3791SOL    HW122832   4.562   3.055   6.543  0.2661  1.3409  0.3004
 3791SOL    HW222833   4.555   3.103   6.412 -0.8238 -1.9608 -3.4911
 3792SOL     OW22834   0.303   3.304   2.674  0.2791  0.0525 -0.7463
 3792SOL    HW122835   0.214   3.280   2.648 -0.3444 -1.4788  2.7840
 3792SOL    HW222836   0.344   3.264   2.598 -0.3258  1.3384 -1.7504
 3793SOL     OW22837   1.657   2.776  16.160 -0.1306  0.2245 -0.2302
 3793SOL    HW122838   1.632   2.867  16.175  0.7544  0.5777 -0.9424
 3793SOL    HW222839   1.741   2.764  16.204 -1.0625 -0.2877  1.4498
 3794SOL     OW22840   0.607   4.102  14.747  0.2245  0.1893 -0.0817
 3794SOL    HW122841   0.607   4.068  14.657 -2.1875  4.4854 -1.6875
 3794SOL    HW222842   0.621   4.196  14.737  0.2176  0.1997  0.0103
 3795SOL     OW22843   0.955   4.678   1.548  0.0274 -0.3953  0.1428
 3795SOL    HW122844   0.914   4.614   1.606 -0.1186  0.2225  0.7224
 3795SOL    HW222845   1.035   4.633   1.521 -1.1480 -0.4106 -3.3675
 3796SOL     OW22846   3.182   0.332   2.119  0.3048 -0.0414  0.3227
 3796SOL    HW122847   3.210   0.385   2.044 -0.0561 -0.8656 -0.4024
 3796SOL    HW222848   3.174   0.392   2.193 -0.3273 -0.8104  0.8677
 3797SOL     OW22849   3.780   1.818   8.725  0.5075  0.4581 -0.3193
 3797SOL    HW122850   3.835   1.806   8.648  0.4669  0.9081 -0.4161
 3797SOL    HW222851   3.835   1.804   8.802 -1.9114  0.2643  1.3854
 3798SOL     OW22852   1.008   3.646  11.646  0.2670 -0.0702 -0.2827
 3798SOL    HW122853   0.934   3.586  11.647  0.6096 -0.5060 -0.8107
 3798SOL    HW222854   0.994   3.684  11.733 -2.0328  0.3617 -0.8565
 3799SOL     OW22855   3.362   2.994   4.055  0.1302 -0.4040  0.1590
 3799SOL    HW122856   3.364   3.019   3.963  3.6178  1.3230  0.7056
 3799SOL    HW222857   3.455   2.974   4.069  0.2771  0.4669  0.4278
 3800SOL     OW22858   2.134   4.059  13.975  0.0436 -0.3955 -0.3507
 3800SOL    HW122859   2.115   4.059  13.882 -0.1773 -1.7323 -0.2953
 3800SOL    HW222860   2.091   4.140  14.005  1.7137  0.3990 -0.1091
 3801SOL     OW22861   3.686   3.391   9.639  0.4868 -0.4045  0.5095
 3801SOL    HW122862   3.762   3.333   9.649 -1.5140 -2.8681  1.5149
 3801SOL    HW222863   3.634   3.334   9.583  2.2822 -1.3018 -0.2601
 3802SOL     OW22864   1.357   0.787   8.717  0.0599  0.1817  0.2340
 3802SOL    HW122865   1.381   0.879   8.701  1.2062  0.2151  2.1795
 3802SOL    HW222866   1.261   0.780   8.712  0.2125 -1.5029 -0.1294
 3803SOL     OW22867   2.396   3.226   4.316  0.0225 -0.6264  0.1834
 3803SOL    HW122868   2.360   3.138   4.304 -0.1275 -0.5183 -0.1770
 3803SOL    HW222869   2.380   3.255   4.226 -1.5077 -0.4806  0.5042
 3804SOL     OW22870   1.986   2.054   6.601 -0.2652 -0.0189 -0.0075
 3804SOL    HW122871   1.990   2.061   6.696 -1.4005 -0.2506  0.0513
 3804SOL    HW222872   1.928   1.981   6.582  0.0314 -0.1376 -0.4651
 3805SOL     OW22873   2.556   0.085   7.288 -0.0253  1.1184 -0.3237
 3805SOL    HW122874   2.549   4.714   7.300 -1.8630  1.2150 -0.7193
 3805SOL    HW222875   2.467   0.111   7.313 -0.9603 -2.7947  0.4446
 3806SOL     OW22876   3.749   1.161  14.141  0.2630  0.3220  0.2423
 3806SOL    HW122877   3.779   1.092  14.200  0.7806  0.8586  0.6011
 3806SOL    HW222878   3.667   1.123  14.110  1.0469 -1.6316  0.5887
 3807SOL     OW22879   0.924   4.480   8.237 -0.1364 -0.0949  0.1046
 3807SOL    HW122880   0.840   4.453   8.275 -0.9185  1.5245 -0.4273
 3807SOL    HW222881   0.896   4.564   8.200 -1.1977  0.0632  1.2758
 3808SOL     OW22882   3.155   3.194   5.515  0.2003  0.5346  0.9628
 3808SOL    HW122883   3.212   3.167   5.587  0.3971  1.7066  1.2526
 3808SOL    HW222884   3.202   3.148   5.446 -0.9473  1.7045 -0.5837
 3809SOL     OW22885   0.619   0.605  14.294  0.2624 -0.0386  0.5275
 3809SOL    HW122886   0.563   0.590  14.370 -0.8504 -0.5808 -0.3950
 3809SOL    HW222887   0.567   0.578  14.218  0.9098  2.3850 -0.7782
 3810SOL     OW22888   3.795   1.612   4.623 -0.0467  0.0420  0.3806
 3810SOL    HW122889   3.836   1.527   4.609 -2.2453 -0.7948 -0.9651
 3810SOL    HW222890   3.776   1.611   4.717 -1.2491 -3.4246  0.0873
 3811SOL     OW22891   2.527   1.615   4.766  0.7249  0.4000  0.0176
 3811SOL    HW122892   2.521   1.593   4.859  1.2506 -1.4285 -0.3874
 3811SOL    HW222893   2.448   1.568   4.740  0.6196 -0.7141  2.4008
 3812SOL     OW22894   2.520   3.523   6.739 -0.8637  0.2877 -0.6663
 3812SOL    HW122895   2.454   3.589   6.717 -1.8865 -1.0889 -1.7705
 3812SOL    HW222896   2.568   3.516   6.656  1.9408 -1.1018  1.0690
 3813SOL     OW22897   1.361   0.303   5.132 -0.6427  0.7505  0.2992
 3813SOL    HW122898   1.309   0.360   5.189 -0.0406  1.3383  0.2679
 3813SOL    HW222899   1.331   0.216   5.156 -2.1342  1.2547  0.2569
 3814SOL     OW22900   0.585   1.644   5.567  0.5518  0.3793  0.3234
 3814SOL    HW122901   0.680   1.658   5.563  0.4656  0.5381 -0.9988
 3814SOL    HW222902   0.565   1.727   5.611 -0.5585  0.9046 -1.1950
 3815SOL     OW22903   2.307   2.898  16.979  0.2457  0.1075 -0.3210
 3815SOL    HW122904   2.316   2.958  16.905 -3.2540  1.3799  0.2852
 3815SOL    HW222905   2.344   2.815  16.951  2.1745  0.7484  0.3278
 3816SOL     OW22906   0.570   4.281  11.902  0.3140  0.1988 -0.6274
 3816SOL    HW122907   0.481   4.258  11.929  1.5632 -0.9412  2.4564
 3816SOL    HW222908   0.614   4.307  11.983 -1.7955  0.6123  0.3824
 3817SOL     OW22909   0.729   1.337   2.943  0.6215  0.1386 -0.2302
 3817SOL    HW122910   0.679   1.359   2.864  0.1725 -1.1409 -0.3133
 3817SOL    HW222911   0.668   1.278   2.989 -1.0803  2.6452  0.7143
 3818SOL     OW22912   2.966   2.453   7.232  0.8643 -0.4853  0.1911
 3818SOL    HW122913   2.974   2.517   7.162 -1.6922 -1.9185 -1.4142
 3818SOL    HW222914   2.947   2.374   7.181  1.0709 -1.1006  1.0643
 3819SOL     OW22915   2.230   0.284   2.482  0.4821 -0.4233  0.3245
 3819SOL    HW122916   2.168   0.295   2.409  0.4576 -1.0879  0.2463
 3819SOL    HW222917   2.214   0.191   2.496  0.4313 -0.2435  1.4769
 3820SOL     OW22918   1.999   2.213   5.570  0.2253 -0.4324 -0.2842
 3820SOL    HW122919   2.016   2.305   5.586 -1.7190  0.5846 -4.0179
 3820SOL    HW222920   2.085   2.175   5.551  0.5315  0.6003 -0.9300
 3821SOL     OW22921   0.173   3.228   6.801 -0.6546  0.2174 -0.4307
 3821SOL    HW122922   0.176   3.147   6.750 -1.6704  0.0242 -0.1664
 3821SOL    HW222923   0.204   3.189   6.882 -1.8595 -1.5666 -0.8425
 3822SOL     OW22924   3.929   3.437   3.638 -0.2334  0.2227 -0.1791
 3822SOL    HW122925   3.867   3.374   3.676 -0.4045  0.2448 -0.4231
 3822SOL    HW222926   3.977   3.469   3.714  1.4949 -2.4102 -0.1293
 3823SOL     OW22927   2.073   4.407   2.227 -0.0540  0.4132  0.0729
 3823SOL    HW122928   1.980   4.428   2.219 -0.6148 -2.3014 -0.6113
 3823SOL    HW222929   2.102   4.432   2.140 -0.4044  1.5281  0.2799
 3824SOL     OW22930   3.529   2.271   1.470  0.0585  0.3804  0.5786
 3824SOL    HW122931   3.511   2.280   1.564  0.0117 -0.5578  0.6565
 3824SOL    HW222932   3.604   2.331   1.467 -0.0436  0.4790  0.0018
 3825SOL     OW22933   1.952   0.513   4.979  0.7134 -0.0694  0.1033
 3825SOL    HW122934   1.927   0.492   5.069 -0.2858 -0.1496 -0.1911
 3825SOL    HW222935   1.939   0.608   4.983 -0.2039 -0.2356  1.1174
 3826SOL     OW22936   4.099   2.588   6.340 -0.3225 -0.1057  0.5791
 3826SOL    HW122937   4.161   2.610   6.271 -1.1512  3.8689  1.1086
 3826SOL    HW222938   4.121   2.497   6.361 -0.4348 -0.2170  0.2201
 3827SOL     OW22939   1.916   3.228   6.206  0.0512  0.3829  0.1468
 3827SOL    HW122940   1.899   3.140   6.172  2.3438  0.4603 -1.1912
 3827SOL    HW222941   1.944   3.214   6.296  1.0374 -3.0628 -0.6772
 3828SOL     OW22942   2.164   0.848   5.332  0.0399 -0.5981 -0.0159
 3828SOL    HW122943   2.149   0.772   5.389  0.4178 -1.0242 -0.4755
 3828SOL    HW222944   2.204   0.797   5.261 -1.4678  2.0824 -2.7615
 3829SOL     OW22945   0.512   1.977  14.219 -0.5388 -0.0589  0.1181
 3829SOL    HW122946   0.569   1.945  14.289  1.0481 -0.0256 -1.1478
 3829SOL    HW222947   0.550   2.065  14.209  0.5989 -0.4246  1.1793
 3830SOL     OW22948   2.495   3.799   5.726  0.1286 -0.1166 -0.1346
 3830SOL    HW122949   2.412   3.843   5.705  0.8714  0.8686 -1.0377
 3830SOL    HW222950   2.480   3.716   5.680  2.2950 -0.9580  0.7147
 3831SOL     OW22951   3.424   2.426   3.009 -0.5318 -0.0709 -0.0347
 3831SOL    HW122952   3.420   2.443   2.915 -0.3423  0.2172  0.0075
 3831SOL    HW222953   3.482   2.350   3.005  0.0448  0.1610  3.6709
 3832SOL     OW22954   1.681   2.449   7.180 -0.7260 -0.1934 -0.0491
 3832SOL    HW122955   1.729   2.373   7.215  1.7744  1.3134 -0.1500
 3832SOL    HW222956   1.701   2.508   7.253 -0.6633 -2.2220  1.5848
 3833SOL     OW22957   1.219   1.732   4.649 -0.2839 -0.1197 -0.1693
 3833SOL    HW122958   1.307   1.717   4.615 -0.2863  1.4402 -0.8383
 3833SOL    HW222959   1.229   1.766   4.738 -1.2767 -2.0013  0.6744
 3834SOL     OW22960   2.508   1.157   9.307  0.4624 -0.3224  0.5242
 3834SOL    HW122961   2.442   1.160   9.237 -0.1845 -1.7500  1.0751
 3834SOL    HW222962   2.577   1.106   9.265  1.0539  1.3460 -0.5181
 3835SOL     OW22963   1.133   4.105   3.476 -0.9109 -0.4922  0.7820
 3835SOL    HW122964   1.217   4.116   3.430 -0.9957 -1.7480  0.3266
 3835SOL    HW222965   1.091   4.190   3.464  1.2762  0.6286  0.8863
 3836SOL     OW22966   2.111   4.238  12.265 -0.0272 -0.4923 -0.0856
 3836SOL    HW122967   2.040   4.272  12.320  0.4726  1.2825 -0.5187
 3836SOL    HW222968   2.177   4.215  12.331 -0.1482 -1.8337 -0.4397
 3837SOL     OW22969   3.723   1.853   0.513  0.5754 -0.6079  0.3302
 3837SOL    HW122970   3.750   1.777   0.461  0.8599  0.3368 -0.9039
 3837SOL    HW222971   3.663   1.817   0.578 -1.7217  1.9842 -0.3297
 3838SOL     OW22972   3.070   3.604   1.537 -0.1392 -0.0424 -0.9051
 3838SOL    HW122973   3.047   3.684   1.489  0.6466 -1.3250 -3.4641
 3838SOL    HW222974   3.051   3.645   1.621 -0.6019  1.6720 -1.8633
 3839SOL     OW22975   2.248   3.089  14.139 -0.0061  0.0909 -0.4890
 3839SOL    HW122976   2.166   3.082  14.187  1.3988 -1.5835  1.6905
 3839SOL    HW222977   2.246   3.021  14.072 -1.8689 -1.5421  1.2135
 3840SOL     OW22978   3.968   3.517  16.979  0.7105  0.1946  0.6080
 3840SOL    HW122979   3.994   3.571  16.905 -1.8127 -0.4182 -0.7116
 3840SOL    HW222980   4.039   3.520  17.043  3.8775 -0.6046 -2.9342
 3841SOL     OW22981   3.332   2.437   9.534  0.4728 -0.1247 -0.2656
 3841SOL    HW122982   3.287   2.354   9.548  0.7465  0.0620  1.7204
 3841SOL    HW222983   3.254   2.492   9.541  0.9152  0.3744  0.7331
 3842SOL     OW22984   0.239   2.149   2.944  0.1581 -1.3313  0.6770
 3842SOL    HW122985   0.327   2.188   2.943 -1.6380  2.6795 -1.1505
 3842SOL    HW222986   0.205   2.200   3.017  2.0793  0.2728  0.4635
 3843SOL     OW22987   1.640   2.595  15.267  0.4368 -0.6124 -0.4102
 3843SOL    HW122988   1.616   2.626  15.180  2.6890 -1.2707 -1.2856
 3843SOL    HW222989   1.708   2.662  15.281 -1.1058  0.1954  3.1280
 3844SOL     OW22990   3.078   4.086   1.956  0.6321  0.1485 -0.5495
 3844SOL    HW122991   3.173   4.079   1.964  0.9232  1.1037 -3.2066
 3844SOL    HW222992   3.053   3.995   1.942  2.4128 -0.3213 -0.7146
 3845SOL     OW22993   1.857   1.494  17.595 -0.3714  0.2556  0.2981
 3845SOL    HW122994   1.934   1.439  17.612  0.5725  0.9218 -1.8180
 3845SOL    HW222995   1.867   1.564  17.660 -0.1200 -0.7752  1.3865
 3846SOL     OW22996   3.845   1.404   4.118  0.3201  0.1985  0.2189
 3846SOL    HW122997   3.800   1.408   4.203 -1.8498 -0.8547 -0.8763
 3846SOL    HW222998   3.933   1.376   4.141  0.0360 -0.5746  0.3624
 3847SOL     OW22999   1.175   2.346   2.463  0.1981 -0.5555 -0.2407
 3847SOL    HW123000   1.155   2.440   2.463 -1.6983 -0.9498 -2.3612
 3847SOL    HW223001   1.256   2.341   2.413 -0.1936 -2.5014 -0.6659
 3848SOL     OW23002   0.588   3.121   3.965  0.1453 -0.1523 -0.5417
 3848SOL    HW123003   0.626   3.053   4.021  1.6114  0.7745 -0.4053
 3848SOL    HW223004   0.539   3.066   3.904  1.7432 -0.8996 -1.1539
 3849SOL     OW23005   1.642   3.890   7.144  0.5588 -0.1675 -0.4422
 3849SOL    HW123006   1.560   3.866   7.186  1.9691 -0.7165  2.0144
 3849SOL    HW223007   1.700   3.896   7.221 -2.2749 -0.3215  1.6992
 3850SOL     OW23008   1.836   1.921   9.691  0.8735 -0.8248  0.1810
 3850SOL    HW123009   1.831   2.012   9.719 -0.6981 -0.5593 -0.9830
 3850SOL    HW223010   1.929   1.902   9.682  1.1054 -0.6342  2.2188
 3851SOL     OW23011   1.279   1.504   7.688 -0.0241 -0.0117 -0.9039
 3851SOL    HW123012   1.299   1.585   7.736  0.6025 -1.2442  0.9613
 3851SOL    HW223013   1.190   1.489   7.719  0.4026  0.6339  0.6818
 3852SOL     OW23014   3.297   3.315   2.800 -0.2873  0.2838  0.5292
 3852SOL    HW123015   3.327   3.316   2.709 -1.8635 -2.1867 -0.0090
 3852SOL    HW223016   3.363   3.268   2.850  0.0200 -1.5082 -1.5591
 3853SOL     OW23017   2.891   4.256  14.572  0.1530 -0.1775  0.2524
 3853SOL    HW123018   2.956   4.220  14.512  2.3381  3.2372  0.6109
 3853SOL    HW223019   2.854   4.171  14.595  0.4092 -0.4656 -0.3823
 3854SOL     OW23020   1.678   3.840   8.340  0.3876  0.4634 -0.9067
 3854SOL    HW123021   1.589   3.808   8.324  0.3430 -1.6061  3.5664
 3854SOL    HW223022   1.688   3.804   8.428  1.2177  2.0099 -0.3688
 3855SOL     OW23023   1.219   1.765   8.445 -0.2152  0.1475  0.0602
 3855SOL    HW123024   1.165   1.742   8.522  0.4077 -0.9423  0.1760
 3855SOL    HW223025   1.226   1.679   8.404  0.8366  0.3946 -0.2619
 3856SOL     OW23026   2.377   3.249   7.983 -0.2454 -0.1271 -0.3699
 3856SOL    HW123027   2.310   3.314   7.963 -0.4212 -0.5592 -1.1589
 3856SOL    HW223028   2.338   3.187   8.045 -0.5069  0.7196  0.3146
 3857SOL     OW23029   4.207   1.990   2.231  0.0002  0.1642 -0.2024
 3857SOL    HW123030   4.158   2.036   2.298 -0.7524 -0.4238 -0.3423
 3857SOL    HW223031   4.135   1.987   2.168 -1.9651  0.9150  2.0270
 3858SOL     OW23032   0.635   1.775   2.126  0.4754 -0.1301 -0.0568
 3858SOL    HW123033   0.598   1.813   2.046 -0.6929  1.1595  1.0800
 3858SOL    HW223034   0.554   1.768   2.177  0.5385  1.1441  0.2322
 3859SOL     OW23035   2.695   2.460   5.463  0.0786 -0.3548 -0.1872
 3859SOL    HW123036   2.606   2.426   5.466 -0.3640  0.6240 -2.1722
 3859SOL    HW223037   2.708   2.493   5.374  0.4758 -1.0383 -0.3848
 3860SOL     OW23038   0.483   4.476   5.760  0.0709 -0.0774 -0.7529
 3860SOL    HW123039   0.568   4.488   5.718  1.5622 -0.3343  2.1623
 3860SOL    HW223040   0.456   4.562   5.794 -0.6007 -1.2957  1.8416
 3861SOL     OW23041   2.387   3.937   9.710  0.8673  0.1308 -0.3672
 3861SOL    HW123042   2.364   3.981   9.792  0.4691  0.4637 -0.6528
 3861SOL    HW223043   2.384   4.016   9.656 -1.8411  0.1970 -0.1221
 3862SOL     OW23044   2.012   1.471  15.834  0.0227 -0.4891  0.1199
 3862SOL    HW123045   2.014   1.567  15.838 -1.2539 -0.4614 -0.0010
 3862SOL    HW223046   1.957   1.443  15.761  0.8008  0.2513 -0.7514
 3863SOL     OW23047   3.496   2.507  10.881  0.2054 -0.1677  0.5797
 3863SOL    HW123048   3.420   2.463  10.918 -0.3955 -0.9866 -1.6030
 3863SOL    HW223049   3.557   2.437  10.859  0.0796  0.0337 -0.4342
 3864SOL     OW23050   1.996   3.999   7.968  0.2590 -0.0365 -0.6004
 3864SOL    HW123051   2.046   4.064   8.018  0.1695 -0.3014 -0.1622
 3864SOL    HW223052   2.012   4.024   7.878  0.9850 -2.4879 -1.1727
 3865SOL     OW23053   4.454   0.264   9.638 -0.2801  0.1773  0.1272
 3865SOL    HW123054   4.399   0.246   9.562 -1.2872  0.4514  0.7907
 3865SOL    HW223055   4.410   0.346   9.663 -0.2524  0.2953 -0.2084
 3866SOL     OW23056   3.908   0.069  17.153 -0.1718  0.4882  0.6213
 3866SOL    HW123057   3.945   4.721  17.205 -1.7551 -0.5368  0.3476
 3866SOL    HW223058   3.988   0.085  17.104  1.0230  0.4536  2.5619
 3867SOL     OW23059   4.224   0.983   2.608  0.0683 -0.3810 -0.1671
 3867SOL    HW123060   4.255   1.050   2.669  1.7569 -2.0821  0.8984
 3867SOL    HW223061   4.170   0.932   2.669 -0.5969 -1.3925 -1.6077
 3868SOL     OW23062   4.340   3.558   7.621  0.2821  0.1029  0.4290
 3868SOL    HW123063   4.295   3.476   7.642  0.9191 -0.0340  1.2442
 3868SOL    HW223064   4.389   3.576   7.701  1.6895 -3.2511  0.3062
 3869SOL     OW23065   4.655   2.772   9.966 -0.4833 -0.6938 -0.0447
 3869SOL    HW123066   4.573   2.762   9.917  1.3291 -1.1137 -3.0124
 3869SOL    HW223067   4.650   2.865   9.986 -0.5837 -0.5606 -0.6780
 3870SOL     OW23068   4.541   1.550  10.672  0.1057  0.0095 -0.2706
 3870SOL    HW123069   4.608   1.543  10.604 -0.2547 -1.0954 -0.5088
 3870SOL    HW223070   4.544   1.460  10.705 -1.3344  1.1383  2.9158
 3871SOL     OW23071   1.895   4.497  13.681 -0.1454  0.4944 -0.2813
 3871SOL    HW123072   1.983   4.464  13.693 -0.5039  0.4906  2.2295
 3871SOL    HW223073   1.851   4.418  13.648 -0.1712 -0.5057  2.1891
 3872SOL     OW23074   4.582   1.945   3.568 -0.0442 -0.2773 -0.3451
 3872SOL    HW123075   4.515   1.971   3.504  0.7637  1.4885 -0.4810
 3872SOL    HW223076   4.631   2.024   3.587 -0.7375  0.2802 -0.8562
 3873SOL     OW23077   1.664   2.502   4.283 -0.0394  0.5221 -0.4406
 3873SOL    HW123078   1.633   2.564   4.349  0.7166  0.8709 -0.4030
 3873SOL    HW223079   1.756   2.525   4.294 -0.6077  2.8223 -0.4941
 3874SOL     OW23080   3.690   0.104  12.337  0.1944  0.3569 -0.5815
 3874SOL    HW123081   3.614   0.099  12.279  0.7597  0.9375 -1.3815
 3874SOL    HW223082   3.760   0.110  12.271  1.2569 -2.6399  0.2996
 3875SOL     OW23083   2.950   2.097   4.106 -0.1167 -0.3466 -0.8657
 3875SOL    HW123084   2.969   2.102   4.199 -0.1580 -1.6079 -0.7805
 3875SOL    HW223085   2.862   2.058   4.111 -0.1845 -0.2549 -1.3421
 3876SOL     OW23086   2.134   0.490   9.543 -0.2332 -0.5929 -0.0677
 3876SOL    HW123087   2.213   0.541   9.525 -1.1797  0.2719 -1.7091
 3876SOL    HW223088   2.164   0.402   9.565 -0.3929 -0.3042  1.3674
 3877SOL     OW23089   0.243   1.622  14.268 -0.1479 -0.5257 -0.5426
 3877SOL    HW123090   0.307   1.614  14.197 -0.5754  0.6715 -1.0698
 3877SOL    HW223091   0.296   1.623  14.348 -1.6704 -2.6408  0.4880
 3878SOL     OW23092   3.940   0.562   1.657 -1.0102  0.4574 -0.9247
 3878SOL    HW123093   3.921   0.487   1.713  1.8175  0.5274  0.1001
 3878SOL    HW223094   3.889   0.552   1.577 -0.9937  1.1295 -1.0234
 3879SOL     OW23095   0.491   4.683  16.875  0.0567  0.8609  0.4261
 3879SOL    HW123096   0.480   0.047  16.837 -1.9879 -0.2509 -1.5155
 3879SOL    HW223097   0.454   4.637  16.800 -0.7230  0.9060  0.7842
 3880SOL     OW23098   2.639   2.367   5.145 -0.1443 -0.0625  1.1638
 3880SOL    HW123099   2.677   2.325   5.069  2.0495 -0.3662  2.4228
 3880SOL    HW223100   2.703   2.436   5.166 -0.1227 -0.3859  2.1939
 3881SOL     OW23101   0.400   2.545   1.589 -0.1263  0.7420  0.2593
 3881SOL    HW123102   0.480   2.554   1.640 -0.0437  0.6716  0.1427
 3881SOL    HW223103   0.409   2.630   1.547 -2.1465  1.0353  0.4364
 3882SOL     OW23104   1.256   3.924  17.127 -0.2579 -0.0176 -0.3022
 3882SOL    HW123105   1.174   3.973  17.121  0.8306  1.5738 -2.3108
 3882SOL    HW223106   1.307   3.972  17.192 -0.6387  0.7175 -0.5421
 3883SOL     OW23107   4.621   3.454   8.256  0.1376 -0.6132 -0.2448
 3883SOL    HW123108   4.609   3.362   8.280 -1.3198 -0.3634  0.0102
 3883SOL    HW223109   4.689   3.477   8.319 -0.1595  1.2302 -0.5929
 3884SOL     OW23110   0.977   0.577  15.688  0.2428 -0.0706 -0.2408
 3884SOL    HW123111   0.929   0.640  15.634 -1.1923 -0.6631  0.3471
 3884SOL    HW223112   0.970   0.493  15.643 -1.1198 -1.1141  1.9310
 3885SOL     OW23113   2.991   3.483  12.210 -0.3416 -0.2214 -0.6455
 3885SOL    HW123114   2.900   3.512  12.220  0.0904  0.2291  2.1255
 3885SOL    HW223115   2.996   3.520  12.122 -0.0596  1.0996 -0.0694
 3886SOL     OW23116   0.437   4.712   5.981 -0.2413  0.7427  0.6390
 3886SOL    HW123117   0.493   0.065   5.989 -0.3874  1.0096 -0.9756
 3886SOL    HW223118   0.496   4.642   6.009 -0.6411  0.1026 -0.1169
 3887SOL     OW23119   3.028   4.249   5.963 -0.2039  0.0770  0.1196
 3887SOL    HW123120   3.104   4.203   5.998  0.0228 -0.4040 -1.0122
 3887SOL    HW223121   2.969   4.192   6.011 -0.4921  1.3133  1.2440
 3888SOL     OW23122   0.199   3.865  11.631  0.6389 -0.1490 -0.0900
 3888SOL    HW123123   0.115   3.824  11.609 -0.4987  1.5111  1.1779
 3888SOL    HW223124   0.185   3.884  11.723  1.0271  3.9450 -0.8845
 3889SOL     OW23125   3.604   3.378   7.542  0.3509 -0.0438 -0.5917
 3889SOL    HW123126   3.524   3.385   7.491 -0.6846 -0.2829  1.0163
 3889SOL    HW223127   3.606   3.466   7.580 -3.0921 -0.2834  0.0700
 3890SOL     OW23128   3.822   0.097   2.890  0.2953 -0.4603 -0.0192
 3890SOL    HW123129   3.823   0.111   2.985  1.1872 -1.2730  0.0925
 3890SOL    HW223130   3.907   0.130   2.862  0.3758  0.8662  1.7382
 3891SOL     OW23131   0.277   3.818   0.430  0.2147  0.6681  0.7145
 3891SOL    HW123132   0.260   3.728   0.457  0.3508  0.2549 -0.5420
 3891SOL    HW223133   0.231   3.870   0.496  0.1061  0.2603  0.9608
 3892SOL     OW23134   3.020   4.375   8.011  0.0376 -0.5790  0.1068
 3892SOL    HW123135   3.006   4.330   8.094  0.3929 -0.3847  0.2715
 3892SOL    HW223136   3.107   4.344   7.985  0.1298 -0.1383 -0.1165
 3893SOL     OW23137   3.338   4.510   6.848  0.5085 -0.5104 -0.1376
 3893SOL    HW123138   3.368   4.584   6.901 -0.4041 -1.1676  1.3077
 3893SOL    HW223139   3.246   4.504   6.873  1.6903  1.4798  4.7397
 3894SOL     OW23140   0.118   0.971   3.104  0.2948 -0.5786  0.3902
 3894SOL    HW123141   0.079   1.058   3.097  1.3522 -0.2603 -1.6537
 3894SOL    HW223142   0.208   1.003   3.107 -0.2080  0.7639  1.0184
 3895SOL     OW23143   4.380   3.156   4.065 -0.5282 -0.5038  0.6428
 3895SOL    HW123144   4.303   3.193   4.023 -0.2091 -0.1968  0.3378
 3895SOL    HW223145   4.375   3.224   4.132 -3.7174 -1.2989  1.2112
 3896SOL     OW23146   3.623   1.910   6.321  0.3412 -0.1659 -0.0797
 3896SOL    HW123147   3.539   1.866   6.308 -1.1523  2.9937 -1.0743
 3896SOL    HW223148   3.632   1.931   6.228  0.5285 -1.0619 -0.2677
 3897SOL     OW23149   1.757   1.355   6.829 -0.2605 -0.6964  0.4361
 3897SOL    HW123150   1.847   1.339   6.802  0.2434  3.6271 -0.5716
 3897SOL    HW223151   1.711   1.320   6.752  0.4058  1.0334 -0.7713
 3898SOL     OW23152   3.989   2.233   4.774  0.3385  0.1162  1.1482
 3898SOL    HW123153   3.910   2.285   4.788 -1.1208 -1.5033 -1.0312
 3898SOL    HW223154   3.962   2.142   4.764  1.1100  0.0331 -0.2553
 3899SOL     OW23155   0.502   2.937   3.292 -0.8260 -0.0571 -0.1004
 3899SOL    HW123156   0.427   2.995   3.306  0.8275  1.9928  0.1851
 3899SOL    HW223157   0.526   2.963   3.203  0.2482  0.9163  0.4740
 3900SOL     OW23158   0.095   4.146   5.636 -0.3636  0.0254  0.1304
 3900SOL    HW123159   0.120   4.126   5.546 -0.8406 -1.0842  0.2495
 3900SOL    HW223160   0.179   4.133   5.680 -0.9533  0.3347  1.3399
 3901SOL     OW23161   3.135   1.840   0.492 -0.2666  0.4271 -0.3161
 3901SOL    HW123162   3.230   1.850   0.484 -0.2002 -0.0076 -0.0887
 3901SOL    HW223163   3.093   1.914   0.450 -1.4213  0.5202  1.0074
 3902SOL     OW23164   3.111   1.199   7.845  0.1104 -0.0605  0.2368
 3902SOL    HW123165   3.059   1.121   7.865 -0.6111  0.3912  0.1131
 3902SOL    HW223166   3.072   1.260   7.907  1.1692  2.0513 -1.1820
 3903SOL     OW23167   0.146   4.657  15.119 -0.5648 -0.0226  0.0860
 3903SOL    HW123168   0.176   4.567  15.106 -0.2153  0.2573 -1.0787
 3903SOL    HW223169   0.155   4.692  15.030 -1.0468  1.1858  0.5101
 3904SOL     OW23170   1.632   3.921   3.310 -0.1325  0.1118  0.2388
 3904SOL    HW123171   1.610   3.893   3.221 -0.3546 -0.4193  0.4613
 3904SOL    HW223172   1.664   3.836   3.338 -2.4838 -0.9805 -0.4122
 3905SOL     OW23173   1.645   3.161  13.772 -0.1505 -0.7967 -0.6419
 3905SOL    HW123174   1.725   3.185  13.819  0.0934 -2.7496 -0.0549
 3905SOL    HW223175   1.673   3.189  13.685  1.8936 -0.8922 -0.0120
 3906SOL     OW23176   2.803   1.047   3.665  0.2028  0.1764 -0.4238
 3906SOL    HW123177   2.857   0.976   3.699  1.8491  1.2976 -0.6909
 3906SOL    HW223178   2.844   1.128   3.695 -1.0735  1.2385 -1.5507
 3907SOL     OW23179   0.271   4.640   7.204  0.3766 -0.3736 -0.2639
 3907SOL    HW123180   0.205   4.657   7.271  0.2907 -0.1695 -0.3999
 3907SOL    HW223181   0.338   4.594   7.255  0.7186  1.3283  0.8144
 3908SOL     OW23182   3.195   2.527  16.268  0.7185  0.3932 -0.3641
 3908SOL    HW123183   3.198   2.539  16.363  2.1721  3.0975 -0.7389
 3908SOL    HW223184   3.271   2.581  16.247 -0.0472  0.9526 -1.6839
 3909SOL     OW23185   3.454   4.309   3.352 -0.6296 -0.3361 -0.3429
 3909SOL    HW123186   3.465   4.359   3.271  2.8986 -1.5225 -0.5877
 3909SOL    HW223187   3.366   4.333   3.381  0.1457  2.1332  0.0432
 3910SOL     OW23188   0.465   1.595  14.088  0.1492 -0.8080 -0.3450
 3910SOL    HW123189   0.439   1.503  14.086  1.1471 -1.0968 -0.1641
 3910SOL    HW223190   0.552   1.601  14.127 -0.1052 -0.1783  0.1196
 3911SOL     OW23191   0.440   3.376   5.590 -0.3228  0.0482  0.2642
 3911SOL    HW123192   0.388   3.443   5.545 -0.2618  1.8180  2.8107
 3911SOL    HW223193   0.502   3.429   5.641  0.1871 -0.8095  0.5199
 3912SOL     OW23194   3.671   4.017   1.139 -0.5512 -0.0387  0.1282
 3912SOL    HW123195   3.721   3.955   1.087  1.3723  2.1511 -0.6410
 3912SOL    HW223196   3.596   4.019   1.079 -0.4135  2.4790  0.0350
 3913SOL     OW23197   4.024   2.990   7.767  0.2093 -0.4673  0.3430
 3913SOL    HW123198   4.024   2.943   7.850  1.9358 -1.4202 -0.1920
 3913SOL    HW223199   4.042   3.081   7.788 -2.8415  0.5149 -1.2115
 3914SOL     OW23200   0.840   4.039   8.277 -0.5129 -0.7352 -0.2641
 3914SOL    HW123201   0.811   4.054   8.187  1.4442 -0.3845 -0.8195
 3914SOL    HW223202   0.873   3.951   8.259  0.0593 -0.6086  0.2051
 3915SOL     OW23203   1.410   0.460  12.653 -0.5072 -0.0280 -0.5640
 3915SOL    HW123204   1.497   0.500  12.651 -1.0107  1.0354 -1.3377
 3915SOL    HW223205   1.416   0.380  12.600  1.5303 -0.4164  0.2603
 3916SOL     OW23206   2.810   0.529  11.248  0.7537 -0.5889 -0.0984
 3916SOL    HW123207   2.782   0.465  11.183  1.9769 -0.6158 -0.6087
 3916SOL    HW223208   2.821   0.610  11.198 -0.0565  0.7379  1.8468
 3917SOL     OW23209   1.269   0.896   3.675  0.2164 -0.6300  0.0367
 3917SOL    HW123210   1.191   0.943   3.645 -0.4054 -0.4322  1.9725
 3917SOL    HW223211   1.336   0.959   3.649  1.1270 -1.3811  0.5613
 3918SOL     OW23212   3.452   1.737   8.880 -0.1830  0.3751 -0.4534
 3918SOL    HW123213   3.455   1.823   8.922 -0.2681  0.2543 -0.1992
 3918SOL    HW223214   3.397   1.690   8.943  2.3411 -0.2442  1.2513
 3919SOL     OW23215   2.278   3.015   5.142 -0.1715  0.4265  0.4489
 3919SOL    HW123216   2.325   2.945   5.187  0.6725  0.2348 -0.7111
 3919SOL    HW223217   2.244   3.065   5.216 -0.0035 -0.8703  1.3999
 3920SOL     OW23218   2.996   2.442  10.951  0.0236  0.0751  0.2106
 3920SOL    HW123219   3.063   2.510  10.957 -0.8511  0.9124  0.6105
 3920SOL    HW223220   2.950   2.447  10.867 -0.0641 -1.8684  0.1401
 3921SOL     OW23221   1.549   0.136   5.013  0.2440 -0.1783  0.4978
 3921SOL    HW123222   1.502   0.209   5.054 -2.2408 -2.2214  1.2270
 3921SOL    HW223223   1.586   0.085   5.085 -1.2674 -0.2979  1.1920
 3922SOL     OW23224   1.409   3.163   6.389 -0.4280 -1.0076  0.0042
 3922SOL    HW123225   1.488   3.117   6.363  0.2342  0.1154  0.0072
 3922SOL    HW223226   1.354   3.162   6.311  1.4259 -0.1271 -1.3268
 3923SOL     OW23227   0.136   3.837   0.878 -0.4160  0.2591 -0.5619
 3923SOL    HW123228   0.165   3.747   0.895  0.3757  0.2003 -2.2275
 3923SOL    HW223229   0.103   3.819   0.790  1.5859 -0.0887 -1.2406
 3924SOL     OW23230   4.258   1.413   9.332  0.4992 -0.7196 -0.2392
 3924SOL    HW123231   4.297   1.367   9.406  0.6003  1.4636  1.0814
 3924SOL    HW223232   4.264   1.502   9.368 -1.3763  0.0569 -1.8056
 3925SOL     OW23233   0.364   1.847   2.161 -0.4470 -0.2502  0.9309
 3925SOL    HW123234   0.345   1.938   2.180  1.2373 -0.1615  2.2022
 3925SOL    HW223235   0.305   1.828   2.088  0.7090  2.6335 -0.7337
 3926SOL     OW23236   2.463   2.775  14.040  0.8765 -0.4784 -0.2237
 3926SOL    HW123237   2.513   2.828  14.102  1.8683 -0.6319 -0.8890
 3926SOL    HW223238   2.444   2.689  14.078 -2.5641 -0.2487 -1.4339
 3927SOL     OW23239   4.240   2.932   7.312  0.4933 -0.2129  0.4782
 3927SOL    HW123240   4.219   2.913   7.221 -0.0070  2.2751  0.0929
 3927SOL    HW223241   4.180   2.877   7.363 -1.1813  1.3279  0.1529
 3928SOL     OW23242   3.143   4.086   2.371 -0.0556  0.0983 -0.5934
 3928SOL    HW123243   3.158   4.114   2.281 -1.6277 -2.4575 -1.6628
 3928SOL    HW223244   3.078   4.149   2.404  2.0586  1.5039  0.8754
 3929SOL     OW23245   1.433   4.421   1.636 -0.1929 -0.0002 -0.5069
 3929SOL    HW123246   1.395   4.380   1.558  0.7011 -0.6929 -0.5817
 3929SOL    HW223247   1.517   4.450   1.600 -0.8914  0.3878 -1.8330
 3930SOL     OW23248   3.834   3.063   4.118  0.1255  0.1719 -0.1287
 3930SOL    HW123249   3.755   3.018   4.149  1.2967 -2.0582 -0.4019
 3930SOL    HW223250   3.859   3.111   4.196  1.4611  0.9677 -1.0418
 3931SOL     OW23251   1.090   3.322   5.032  0.6917 -0.2524  0.1570
 3931SOL    HW123252   1.096   3.269   5.112 -1.2812  0.2907  0.6465
 3931SOL    HW223253   0.997   3.340   5.036  0.6084 -0.1185 -2.6397
 3932SOL     OW23254   4.698   4.578   7.541 -0.7258 -0.0614  0.2075
 3932SOL    HW123255   4.619   4.526   7.526  0.7396 -1.8878 -1.1724
 3932SOL    HW223256   4.686   4.598   7.633 -2.0050  0.2269 -0.0112
 3933SOL     OW23257   4.334   3.703   3.351 -0.1303  0.4343 -0.7343
 3933SOL    HW123258   4.344   3.753   3.431  0.2399  0.5436 -0.8478
 3933SOL    HW223259   4.265   3.646   3.384  0.3848 -1.6113 -3.1381
 3934SOL     OW23260   1.636   1.976   4.631  0.3103 -0.3064 -0.1481
 3934SOL    HW123261   1.666   1.967   4.722 -3.9702  0.3443  1.2919
 3934SOL    HW223262   1.719   1.996   4.586 -0.5163  1.5358 -0.8691
 3935SOL     OW23263   3.347   2.597   6.940  0.0459 -0.1539 -0.0853
 3935SOL    HW123264   3.425   2.635   6.899  0.1737  0.5869  0.8450
 3935SOL    HW223265   3.358   2.623   7.032 -1.2686 -1.6126  0.4771
 3936SOL     OW23266   4.433   0.664   2.216  0.3176  0.4755  0.5212
 3936SOL    HW123267   4.392   0.725   2.278  1.9954  1.8609  0.2762
 3936SOL    HW223268   4.423   0.698   2.127 -0.3040  1.0583  0.8140
 3937SOL     OW23269   3.855   0.809  15.468 -0.2097 -0.2165 -0.6461
 3937SOL    HW123270   3.845   0.730  15.414 -0.2403  1.3262 -2.8695
 3937SOL    HW223271   3.881   0.767  15.551  1.0764  0.0698 -0.9029
 3938SOL     OW23272   0.861   4.448   4.016  0.1780 -0.3937  0.3996
 3938SOL    HW123273   0.857   4.471   4.109 -2.3531  0.7439  0.0027
 3938SOL    HW223274   0.884   4.356   4.029 -1.5067 -1.0067 -1.0331
 3939SOL     OW23275   2.544   4.121   7.070 -0.3403 -0.1371 -0.6190
 3939SOL    HW123276   2.586   4.065   7.005 -1.1060 -2.3762  0.8183
 3939SOL    HW223277   2.593   4.203   7.062 -2.2766  1.0062 -0.9158
 3940SOL     OW23278   1.397   4.243  16.424  0.2265  0.3489 -0.1474
 3940SOL    HW123279   1.488   4.258  16.399 -0.6337  4.6076 -0.7175
 3940SOL    HW223280   1.352   4.272  16.345 -0.0081 -0.8245 -0.4464
 3941SOL     OW23281   1.080   2.297  12.236  0.5624  0.8414 -0.0705
 3941SOL    HW123282   1.068   2.364  12.170  0.7310  0.2137 -0.7366
 3941SOL    HW223283   0.994   2.300  12.277  0.9952  3.4079  0.6058
 3942SOL     OW23284   1.296   1.759  13.077 -0.3660  0.1412 -0.4848
 3942SOL    HW123285   1.381   1.788  13.045 -0.3934  1.6192  0.7816
 3942SOL    HW223286   1.278   1.812  13.155  0.0283 -1.0474  0.4207
 3943SOL     OW23287   0.355   0.986   7.476 -0.2784  0.2001  0.5976
 3943SOL    HW123288   0.296   0.960   7.405 -0.4781 -0.9523  1.1875
 3943SOL    HW223289   0.360   0.905   7.527 -0.4117  1.4512  2.5966
 3944SOL     OW23290   4.679   3.754  11.514 -0.4058 -0.2593 -0.3111
 3944SOL    HW123291   4.653   3.670  11.552  0.7332  0.0823  1.1909
 3944SOL    HW223292   4.602   3.803  11.543  0.5992  1.4541 -0.5116
 3945SOL     OW23293   0.627   0.702   3.130 -0.1254  0.3012  0.1327
 3945SOL    HW123294   0.683   0.700   3.207  0.2774  0.2123 -0.1593
 3945SOL    HW223295   0.600   0.610   3.126  0.6514  0.0567  0.6324
 3946SOL     OW23296   1.782   1.177  12.818  0.6739 -0.6085 -0.8025
 3946SOL    HW123297   1.738   1.094  12.836 -3.6615  1.8725 -0.0107
 3946SOL    HW223298   1.772   1.217  12.904  0.3584  1.1606 -1.6691
 3947SOL     OW23299   2.248   0.272  14.894  0.1466  0.2493  0.0030
 3947SOL    HW123300   2.158   0.253  14.919  0.3472 -0.8117 -0.0750
 3947SOL    HW223301   2.293   0.187  14.899  1.5569  0.9328 -0.9175
 3948SOL     OW23302   0.526   2.582   8.974 -0.3467  0.4093  0.3890
 3948SOL    HW123303   0.619   2.591   8.953 -0.4227 -1.6375 -0.7867
 3948SOL    HW223304   0.483   2.658   8.935 -0.0240  0.5558  0.3224
 3949SOL     OW23305   2.753   1.956   0.228 -0.4394  0.0142  0.0804
 3949SOL    HW123306   2.674   1.903   0.213 -1.3818  1.6618 -0.7845
 3949SOL    HW223307   2.818   1.893   0.196  0.1396 -0.5957  2.4716
 3950SOL     OW23308   1.783   0.294   6.092 -0.0147 -0.5616 -0.0846
 3950SOL    HW123309   1.701   0.248   6.109 -0.0259 -0.6577 -0.4132
 3950SOL    HW223310   1.832   0.292   6.175 -1.2085  0.9906  0.6500
 3951SOL     OW23311   2.740   2.008   2.991 -0.1453  0.1858  0.1126
 3951SOL    HW123312   2.828   2.044   2.990  0.4997 -1.3850  1.5237
 3951SOL    HW223313   2.697   2.086   3.027 -1.6689 -0.9599  0.7985
 3952SOL     OW23314   3.521   3.884  13.994  0.7511  0.0505  0.6300
 3952SOL    HW123315   3.434   3.920  14.008 -0.3674 -1.3565 -2.7775
 3952SOL    HW223316   3.514   3.891  13.899  0.8260  0.5826  0.6626
 3953SOL     OW23317   0.810   2.104   8.335 -0.7178  0.0023  0.4265
 3953SOL    HW123318   0.736   2.151   8.296 -1.5543  0.4815  2.5901
 3953SOL    HW223319   0.868   2.161   8.386 -0.9025  1.2113 -0.7279
 3954SOL     OW23320   4.352   0.085  10.206  0.2256 -0.3296 -0.9364
 3954SOL    HW123321   4.308   0.145  10.266  0.3340 -0.4119 -0.7734
 3954SOL    HW223322   4.368   0.018  10.273 -0.7018 -1.0802 -1.4703
 3955SOL     OW23323   4.031   3.758   0.582  0.0243 -0.1070 -0.0882
 3955SOL    HW123324   3.969   3.832   0.580 -1.6300 -1.4527  1.4762
 3955SOL    HW223325   4.113   3.796   0.550 -1.0456  0.5358 -2.0476
 3956SOL     OW23326   1.295   0.357   4.855  0.9396 -0.7560  0.1700
 3956SOL    HW123327   1.248   0.438   4.876  0.3611 -1.0801  0.1177
 3956SOL    HW223328   1.329   0.324   4.938  0.5436 -1.0810  0.2013
 3957SOL     OW23329   3.229   2.006  17.165 -0.4219 -0.5983  0.0422
 3957SOL    HW123330   3.313   2.000  17.119 -0.3468 -2.3303  0.4095
 3957SOL    HW223331   3.238   1.953  17.245  2.2893 -2.0467 -1.2273
 3958SOL     OW23332   3.782   2.701   8.216  0.2109 -0.0648  0.9333
 3958SOL    HW123333   3.690   2.729   8.206  0.8378  1.4679 -0.6262
 3958SOL    HW223334   3.801   2.756   8.291  0.4439  0.6952  0.3181
 3959SOL     OW23335   0.004   2.687   0.178  0.5284  0.0339  0.4434
 3959SOL    HW123336   0.056   2.627   0.125 -0.9808  1.2756 -2.4615
 3959SOL    HW223337   4.704   2.625   0.247  0.1986 -0.0185  0.2858
 3960SOL     OW23338   4.350   1.559   3.086 -0.2546  0.1379 -0.8161
 3960SOL    HW123339   4.275   1.600   3.044  0.7497  1.6784 -1.1249
 3960SOL    HW223340   4.401   1.536   3.008 -0.2926  2.1624 -1.4377
 3961SOL     OW23341   1.393   4.669  15.947 -0.5807 -0.3059  0.1030
 3961SOL    HW123342   1.367   0.036  15.938  0.4924  0.0860  0.9605
 3961SOL    HW223343   1.318   4.630  15.903 -0.6372 -1.8137  1.5142
 3962SOL     OW23344   1.280   3.483   5.434  0.5780  0.2817 -0.2738
 3962SOL    HW123345   1.237   3.488   5.349 -0.1419 -1.5196  0.0087
 3962SOL    HW223346   1.206   3.482   5.495  0.1480 -0.9186 -0.8379
 3963SOL     OW23347   2.433   2.210  15.504  0.1918 -0.2125 -0.0380
 3963SOL    HW123348   2.523   2.206  15.472  1.3097 -0.4144  3.1760
 3963SOL    HW223349   2.433   2.300  15.539  0.8577 -0.3310  0.2748
 3964SOL     OW23350   3.761   4.171   0.806 -0.0840  0.5068  0.0994
 3964SOL    HW123351   3.846   4.127   0.796 -0.0906  0.3080  0.9099
 3964SOL    HW223352   3.716   4.154   0.724  0.9608  1.2590 -0.6315
 3965SOL     OW23353   3.934   1.365   7.689  0.0791 -0.2462 -0.1063
 3965SOL    HW123354   3.875   1.360   7.764 -0.0360  1.0039 -0.1035
 3965SOL    HW223355   3.949   1.272   7.673  4.0493  0.3735 -0.0651
 3966SOL     OW23356   1.027   2.485   6.353 -0.0600 -0.1170 -0.4816
 3966SOL    HW123357   1.002   2.458   6.441  1.7992 -1.8488 -0.4784
 3966SOL    HW223358   1.050   2.576   6.371 -0.8223 -0.3107  1.4469
 3967SOL     OW23359   4.105   3.936   1.550  0.2150  0.4337  0.1983
 3967SOL    HW123360   4.113   3.977   1.636 -1.6647  3.1145 -0.8989
 3967SOL    HW223361   4.036   3.983   1.504 -2.1233 -1.1043  2.1817
 3968SOL     OW23362   1.818   0.369   6.835  0.3101  0.2686 -1.2091
 3968SOL    HW123363   1.799   0.346   6.925  0.3256  0.5275 -1.1396
 3968SOL    HW223364   1.810   0.277   6.809 -1.6140  0.2948 -0.7432
 3969SOL     OW23365   0.851   4.673   0.572 -0.0419  0.5782 -0.7375
 3969SOL    HW123366   0.887   4.637   0.491 -0.1279  0.0662 -0.5516
 3969SOL    HW223367   0.896   4.618   0.636  0.1606  0.5605 -0.8955
 3970SOL     OW23368   3.567   2.826   3.542  0.4082 -0.0350  0.4240
 3970SOL    HW123369   3.639   2.790   3.490 -0.0355  0.5675 -0.6121
 3970SOL    HW223370   3.520   2.875   3.474  0.6768 -1.6243 -0.9026
 3971SOL     OW23371   3.465   4.486   4.710  0.0571 -0.1562  0.2580
 3971SOL    HW123372   3.435   4.524   4.792  2.1196 -0.4555  1.1373
 3971SOL    HW223373   3.489   4.398   4.739  0.7174  0.8711  2.8008
 3972SOL     OW23374   0.460   4.206   0.485 -0.1054 -0.8199  0.6234
 3972SOL    HW123375   0.406   4.204   0.407  0.5958  2.2509  0.0517
 3972SOL    HW223376   0.468   4.112   0.501 -3.2080 -1.0862  0.5940
 3973SOL     OW23377   1.325   4.596  15.690  0.6409 -0.2522  0.0208
 3973SOL    HW123378   1.290   4.561  15.608  1.1834  1.9199 -1.1590
 3973SOL    HW223379   1.413   4.619  15.662  0.8703  1.5457  2.2419
 3974SOL     OW23380   0.837   3.882   0.692  0.0483 -0.0712 -0.1776
 3974SOL    HW123381   0.769   3.900   0.757 -0.0225  0.1673 -0.3175
 3974SOL    HW223382   0.786   3.822   0.638  0.6531 -0.8668  0.1417
 3975SOL     OW23383   3.146   1.376  10.730  0.6630  0.5437  0.7284
 3975SOL    HW123384   3.151   1.297  10.677  5.3752  2.6336 -1.9667
 3975SOL    HW223385   3.175   1.438  10.663 -0.5681 -0.4492 -0.7144
 3976SOL     OW23386   0.358   1.014   9.153 -0.2072 -0.8354 -0.1917
 3976SOL    HW123387   0.443   1.055   9.167  0.9105 -2.2530 -2.7071
 3976SOL    HW223388   0.309   1.083   9.108 -0.8478 -2.4993 -2.0709
 3977SOL     OW23389   1.370   2.815   5.009 -0.0915  0.3498  0.5864
 3977SOL    HW123390   1.385   2.721   5.018  3.0112  0.6619 -1.2066
 3977SOL    HW223391   1.462   2.836   5.026 -0.7688  2.0765  2.0133
 3978SOL     OW23392   1.226   3.632   6.636 -0.4859  0.2490 -0.2527
 3978SOL    HW123393   1.304   3.641   6.581 -0.4288  0.5659 -0.1202
 3978SOL    HW223394   1.167   3.590   6.573 -0.4202 -0.0615 -0.1069
 3979SOL     OW23395   0.753   4.125  11.618 -0.2489  0.6052 -0.7492
 3979SOL    HW123396   0.823   4.081  11.571 -0.7061  0.0988 -0.9630
 3979SOL    HW223397   0.774   4.215  11.592 -1.2999  0.5713 -1.7283
 3980SOL     OW23398   2.705   2.200   8.507  0.3059 -0.2444  0.3115
 3980SOL    HW123399   2.634   2.217   8.568 -0.0845  1.1461 -0.5306
 3980SOL    HW223400   2.784   2.212   8.559  0.7685 -0.0735 -0.4354
 3981SOL     OW23401   0.870   2.570   1.523  0.2030  0.2874  0.3165
 3981SOL    HW123402   0.827   2.589   1.440  2.3276  0.7627 -0.6661
 3981SOL    HW223403   0.936   2.638   1.511  0.9665 -0.5617 -0.2811
 3982SOL     OW23404   1.538   3.816  10.659 -0.2586 -0.3149 -0.4530
 3982SOL    HW123405   1.498   3.750  10.715 -2.5153 -1.1750 -3.0552
 3982SOL    HW223406   1.521   3.787  10.569 -0.9993  1.2364 -0.8072
 3983SOL     OW23407   0.953   3.708   4.430 -0.3321  0.4760  0.0544
 3983SOL    HW123408   0.940   3.625   4.384 -0.2950 -0.6520  2.0778
 3983SOL    HW223409   0.910   3.766   4.366  0.2022  0.0391 -0.7039
 3984SOL     OW23410   4.619   2.777   3.832  0.3614  0.3244 -0.5367
 3984SOL    HW123411   4.534   2.814   3.857  0.4235  0.5085 -0.5944
 3984SOL    HW223412   4.602   2.685   3.849  0.8033  0.4152  0.3764
 3985SOL     OW23413   4.021   0.228   3.260  0.6705  0.4122 -0.0595
 3985SOL    HW123414   4.050   0.283   3.333 -0.3954  1.3119 -0.3054
 3985SOL    HW223415   4.037   0.280   3.181 -0.3896  0.3118 -0.3461
 3986SOL     OW23416   2.197   3.546   4.540  0.2624 -0.5761  0.5856
 3986SOL    HW123417   2.173   3.639   4.531  2.5657 -0.1418 -1.1964
 3986SOL    HW223418   2.245   3.542   4.457 -1.0012 -0.1296 -0.1670
 3987SOL     OW23419   0.603   4.297   3.332  0.2647 -0.0293  0.1043
 3987SOL    HW123420   0.691   4.269   3.308  0.3657 -0.2776  0.7639
 3987SOL    HW223421   0.549   4.221   3.313 -0.5039  1.0800 -2.1893
 3988SOL     OW23422   0.818   4.295   2.306  0.2011 -0.6931  0.2794
 3988SOL    HW123423   0.814   4.201   2.326  1.0186 -0.8232 -0.1526
 3988SOL    HW223424   0.912   4.297   2.290  0.1224  0.4878 -0.0393
 3989SOL     OW23425   2.533   2.678   8.204  0.2840 -0.2334  0.1163
 3989SOL    HW123426   2.542   2.734   8.127  3.0942 -1.0632 -0.1189
 3989SOL    HW223427   2.623   2.682   8.234  0.0562  0.4481  0.7331
 3990SOL     OW23428   2.482   3.071   8.422 -0.6464 -0.7403 -0.2717
 3990SOL    HW123429   2.572   3.080   8.390 -0.9222  4.1796  0.3173
 3990SOL    HW223430   2.499   2.992   8.473  1.3229 -0.3695 -0.3311
 3991SOL     OW23431   3.178   2.504  12.921 -0.1393  0.4180 -0.1569
 3991SOL    HW123432   3.137   2.443  12.860 -1.3334  2.7328 -1.6778
 3991SOL    HW223433   3.219   2.567  12.862 -0.0913 -1.3855 -2.0669
 3992SOL     OW23434   0.063   2.721  16.671 -0.3896  0.1986  0.0217
 3992SOL    HW123435   0.081   2.661  16.598  0.0057  1.1222 -0.6446
 3992SOL    HW223436   4.700   2.684  16.684 -0.5923  0.3661 -0.8516
 3993SOL     OW23437   3.969   0.358   8.612 -0.3515 -0.0539 -0.8677
 3993SOL    HW123438   3.984   0.382   8.704  0.3830  0.0147 -1.0000
 3993SOL    HW223439   4.061   0.361   8.584 -0.0651  1.2741  0.2301
 3994SOL     OW23440   0.942   2.502   5.610  0.7232  0.0744 -0.2581
 3994SOL    HW123441   0.939   2.483   5.516  3.0511 -0.1765 -0.2682
 3994SOL    HW223442   1.033   2.527   5.622  0.2893  1.7483 -0.4901
 3995SOL     OW23443   2.205   0.805  10.626 -0.3072  0.0574 -0.2916
 3995SOL    HW123444   2.262   0.778  10.554  0.8084 -0.7748  0.8919
 3995SOL    HW223445   2.233   0.738  10.688 -0.5396 -0.7017 -1.0044
 3996SOL     OW23446   2.517   2.083  10.550  0.0046  0.3465 -0.1654
 3996SOL    HW123447   2.498   2.015  10.616 -1.3928  1.1358  0.2338
 3996SOL    HW223448   2.574   2.138  10.605 -1.0083  0.9134  0.3032
 3997SOL     OW23449   0.095   2.146   7.858 -0.2407  0.3456  0.0308
 3997SOL    HW123450   0.160   2.148   7.788  1.7035 -0.3824  1.8351
 3997SOL    HW223451   0.106   2.056   7.888 -0.2869  1.7675  4.2373
 3998SOL     OW23452   0.328   0.284   0.372  0.1216 -0.3967 -0.4503
 3998SOL    HW123453   0.314   0.370   0.413 -1.0211 -0.0735 -1.5420
 3998SOL    HW223454   0.316   0.308   0.281  1.9841 -1.2772 -0.9235
 3999SOL     OW23455   0.646   0.895   1.858 -0.3148  0.1050 -0.1131
 3999SOL    HW123456   0.599   0.837   1.798 -0.8383 -0.1222  0.5146
 3999SOL    HW223457   0.722   0.842   1.882 -0.4123  1.3299  2.9170
 4000SOL     OW23458   0.663   0.959   6.696 -0.1942 -0.3728 -0.1203
 4000SOL    HW123459   0.630   1.007   6.621 -2.2767 -1.2519  0.2121
 4000SOL    HW223460   0.732   1.017   6.727  1.4159 -1.5460 -1.5303
 4001SOL     OW23461   0.098   2.833   8.123  0.2660 -0.2730  0.0631
 4001SOL    HW123462   0.163   2.884   8.170  0.0718  1.1293 -1.2023
 4001SOL    HW223463   0.065   2.788   8.202  1.0445 -0.5450  0.2289
 4002SOL     OW23464   1.386   4.694  13.930 -0.4363 -0.9155  0.0930
 4002SOL    HW123465   1.290   4.693  13.936 -0.4057  1.7385  0.8127
 4002SOL    HW223466   1.410   4.718  14.020 -0.9517  1.8669 -0.5201
 4003SOL     OW23467   1.818   1.982  17.422  0.2844  0.0337 -0.3144
 4003SOL    HW123468   1.746   2.006  17.363 -1.8202 -4.5505  0.3738
 4003SOL    HW223469   1.846   1.891  17.406  1.3680  0.6304 -1.7589
 4004SOL     OW23470   0.377   4.370   2.155  0.2636 -0.0746 -0.0035
 4004SOL    HW123471   0.455   4.399   2.202  0.5498  0.8258 -1.0547
 4004SOL    HW223472   0.396   4.370   2.062  1.3056 -0.4552  0.2150
 4005SOL     OW23473   0.445   3.743   0.929  0.5470 -0.2840  0.0663
 4005SOL    HW123474   0.363   3.693   0.927  0.9542 -0.9390 -0.0865
 4005SOL    HW223475   0.506   3.669   0.934  1.1997  0.2574  0.0746
 4006SOL     OW23476   4.355   2.950   4.727 -0.0031  0.3651  0.4834
 4006SOL    HW123477   4.386   2.875   4.676 -0.6687  0.4781 -0.0849
 4006SOL    HW223478   4.432   3.007   4.719  0.7970 -1.0016 -1.5286
 4007SOL     OW23479   0.377   1.428  12.111 -0.0591 -0.5092 -0.6422
 4007SOL    HW123480   0.442   1.472  12.056 -1.2372 -0.1482 -1.7585
 4007SOL    HW223481   0.313   1.390  12.051 -0.7571 -0.8113  0.2848
 4008SOL     OW23482   2.076   1.799   4.185 -0.5771 -0.3003  0.1082
 4008SOL    HW123483   2.063   1.891   4.208 -1.7013 -0.4954  0.2728
 4008SOL    HW223484   2.154   1.773   4.234 -0.0458 -0.9637 -1.1143
 4009SOL     OW23485   1.134   4.507   1.146 -0.3253  0.0904 -0.2635
 4009SOL    HW123486   1.052   4.530   1.190 -0.3783  0.0337 -0.3322
 4009SOL    HW223487   1.204   4.528   1.207 -0.1441  0.0596 -0.4590
 4010SOL     OW23488   0.661   2.778   3.684  0.2690 -0.7260 -0.0502
 4010SOL    HW123489   0.566   2.788   3.677  0.5870  0.5400 -2.6555
 4010SOL    HW223490   0.677   2.863   3.644  0.5515 -1.1985 -0.9253
 4011SOL     OW23491   2.017   0.066   0.985 -0.1960  0.1705 -0.5823
 4011SOL    HW123492   2.041   0.092   0.896 -1.3734  0.9285 -0.6821
 4011SOL    HW223493   2.103   0.058   1.026 -1.9011 -2.7606  2.4234
 4012SOL     OW23494   3.114   2.393   9.194 -0.4693  0.1934 -0.2222
 4012SOL    HW123495   3.112   2.355   9.106  1.0588 -0.8725  0.2226
 4012SOL    HW223496   3.208   2.382   9.202 -0.1846  1.8997 -1.2951
 4013SOL     OW23497   3.781   3.491   6.871 -0.0900  0.1853  0.4001
 4013SOL    HW123498   3.748   3.401   6.871  0.2243  0.0737  1.3656
 4013SOL    HW223499   3.858   3.467   6.820  0.1457 -0.6987  1.1653
 4014SOL     OW23500   3.135   1.389  15.192 -0.8937  0.2241 -0.3627
 4014SOL    HW123501   3.047   1.362  15.218  0.3543 -1.8082  1.7803
 4014SOL    HW223502   3.142   1.359  15.101  0.0299  1.4718 -0.7084
 4015SOL     OW23503   0.365   1.316   7.868  0.5843  0.1709 -0.6710
 4015SOL    HW123504   0.442   1.330   7.813 -0.0541  1.1598 -1.3207
 4015SOL    HW223505   0.299   1.279   7.809 -1.0258  1.1927  0.4935
 4016SOL     OW23506   2.566   3.049   2.743  0.3654 -0.3005  0.7479
 4016SOL    HW123507   2.501   3.079   2.807 -1.3488 -0.0696 -1.1030
 4016SOL    HW223508   2.507   3.047   2.668 -1.1851  2.4437  1.8823
 4017SOL     OW23509   0.663   2.524  11.579  0.3464  0.1792 -0.6102
 4017SOL    HW123510   0.754   2.542  11.604  0.7335 -1.0777 -1.0955
 4017SOL    HW223511   0.619   2.607  11.596 -1.1943 -0.7093 -0.2588
 4018SOL     OW23512   2.144   4.206  17.009 -0.6060  0.6084 -0.5729
 4018SOL    HW123513   2.122   4.204  16.916 -0.9017 -0.5258 -0.4768
 4018SOL    HW223514   2.066   4.230  17.059 -0.6379 -3.2469  1.2170
 4019SOL     OW23515   3.213   2.622   4.771  0.3560  0.1474 -0.4418
 4019SOL    HW123516   3.180   2.557   4.834  0.2471  0.6436  0.0085
 4019SOL    HW223517   3.207   2.571   4.691 -0.1121 -2.2385  1.0950
 4020SOL     OW23518   0.361   2.652   1.206  0.1543  0.2933  0.1615
 4020SOL    HW123519   0.360   2.683   1.297 -1.0870  0.9167 -0.0604
 4020SOL    HW223520   0.362   2.557   1.217 -1.0260  0.4030  1.3706
 4021SOL     OW23521   3.459   3.027  13.212 -0.1371  0.0040  0.1792
 4021SOL    HW123522   3.388   2.969  13.241 -0.6167  1.9680  2.9426
 4021SOL    HW223523   3.516   2.962  13.171 -0.1992  1.0799 -1.6222
 4022SOL     OW23524   1.724   2.775  10.288 -0.3779  0.3222 -0.5431
 4022SOL    HW123525   1.656   2.824  10.333  1.2424  0.6518  1.5262
 4022SOL    HW223526   1.803   2.808  10.331 -1.6089  0.1181  1.8569
 4023SOL     OW23527   1.943   1.840  10.432  0.3361  0.2391  0.2175
 4023SOL    HW123528   1.886   1.869  10.361 -0.5692 -1.2109  0.3439
 4023SOL    HW223529   1.977   1.924  10.462  3.8893 -0.5506 -1.5605
 4024SOL     OW23530   4.366   4.255   3.213 -0.3459 -0.1909  0.1878
 4024SOL    HW123531   4.345   4.348   3.209 -2.5840 -0.6629  0.9276
 4024SOL    HW223532   4.301   4.224   3.276  0.8708 -0.5665  1.2545
 4025SOL     OW23533   1.316   2.962   4.795 -0.4477  0.4959 -0.0906
 4025SOL    HW123534   1.296   2.895   4.860 -1.0833 -0.5446 -1.3682
 4025SOL    HW223535   1.394   3.001   4.836  0.7882 -0.3355 -1.6367
 4026SOL     OW23536   4.288   0.107   4.807  0.4835  0.5835 -0.1037
 4026SOL    HW123537   4.339   0.182   4.776  0.5003  0.1464 -1.1325
 4026SOL    HW223538   4.342   0.067   4.875 -0.7730  0.8327  1.0611
 4027SOL     OW23539   4.382   3.852   0.874  0.0971 -0.8978 -0.1398
 4027SOL    HW123540   4.338   3.911   0.935  0.1312 -1.1470  0.1233
 4027SOL    HW223541   4.441   3.817   0.941 -1.0495 -0.1584  1.2506
 4028SOL     OW23542   0.894   0.394   3.817  0.2723  0.1025 -0.0526
 4028SOL    HW123543   0.868   0.328   3.753 -1.1543  1.9570 -1.3840
 4028SOL    HW223544   0.856   0.475   3.783 -2.6257  0.5404  4.1900
 4029SOL     OW23545   4.287   2.500   7.059  0.1552  0.7804 -0.0027
 4029SOL    HW123546   4.246   2.572   7.106  0.0457  0.6806  0.0575
 4029SOL    HW223547   4.235   2.425   7.090  1.0816  0.4050  0.6247
 4030SOL     OW23548   4.448   1.677   8.163  0.0817  0.4075  0.1372
 4030SOL    HW123549   4.366   1.651   8.205 -0.4112  0.2943 -0.8962
 4030SOL    HW223550   4.520   1.670   8.226 -0.9481 -2.5085  1.0061
 4031SOL     OW23551   1.751   1.767   3.202  0.0978 -0.5900 -0.0721
 4031SOL    HW123552   1.796   1.693   3.163  0.9016  0.3586 -0.9621
 4031SOL    HW223553   1.814   1.786   3.272  2.3910 -0.3538 -2.2261
 4032SOL     OW23554   0.923   0.229   4.272 -0.3748  1.0049  0.5886
 4032SOL    HW123555   0.838   0.235   4.315 -0.2869  1.7482  0.6469
 4032SOL    HW223556   0.904   0.189   4.187  1.6578 -2.7979  1.8977
 4033SOL     OW23557   2.906   0.416   7.529  0.2004 -0.8744 -0.1943
 4033SOL    HW123558   2.926   0.484   7.465 -0.1181  0.7460  1.4278
 4033SOL    HW223559   2.813   0.431   7.548 -0.1105 -3.1617  0.0766
 4034SOL     OW23560   1.073   3.921   1.731  0.2033  0.2628 -0.2196
 4034SOL    HW123561   1.062   3.873   1.649 -2.8709  0.3053  0.1779
 4034SOL    HW223562   1.052   3.856   1.798 -1.3632  0.4945 -0.4945
 4035SOL     OW23563   3.159   1.006  11.563  0.5319 -0.1528  0.5573
 4035SOL    HW123564   3.096   1.019  11.633  1.2049 -2.2344  1.5397
 4035SOL    HW223565   3.111   1.007  11.480 -0.3745  0.9494  1.0945
 4036SOL     OW23566   3.830   2.147   2.771  0.0383 -0.4584 -0.0195
 4036SOL    HW123567   3.831   2.236   2.736 -1.6661 -0.6629 -0.5789
 4036SOL    HW223568   3.806   2.097   2.693 -2.2614  1.1727 -0.3789
 4037SOL     OW23569   3.842   2.245   3.118 -0.1237  0.1502 -1.0477
 4037SOL    HW123570   3.909   2.177   3.109 -1.8624 -1.8065  0.4936
 4037SOL    HW223571   3.842   2.253   3.213 -2.6468  0.1267 -1.0477
 4038SOL     OW23572   3.858   0.626   1.346  0.0467 -0.4864  0.0782
 4038SOL    HW123573   3.943   0.582   1.341  0.0912 -0.3832 -0.1085
 4038SOL    HW223574   3.821   0.627   1.257  0.2928 -1.8329 -0.0357
 4039SOL     OW23575   4.297   2.713   6.157  0.1081  0.5276 -0.3102
 4039SOL    HW123576   4.253   2.775   6.100  0.4233  0.6817 -0.3845
 4039SOL    HW223577   4.328   2.654   6.088 -2.4292 -2.3701  1.0354
 4040SOL     OW23578   3.109   2.016   8.292  0.1085  0.2312 -0.2076
 4040SOL    HW123579   3.075   2.101   8.319 -1.0094 -0.7359  1.4320
 4040SOL    HW223580   3.200   2.022   8.321  1.1592 -2.8224 -2.8202
 4041SOL     OW23581   1.707   3.827   5.243 -0.0463 -0.4218 -0.1158
 4041SOL    HW123582   1.661   3.802   5.163  0.0156 -0.3016 -0.1902
 4041SOL    HW223583   1.745   3.744   5.272 -0.0042 -0.1300  0.6400
 4042SOL     OW23584   4.295   4.489   8.064 -0.4739  0.0439  0.0841
 4042SOL    HW123585   4.373   4.543   8.074  0.2654 -0.8779 -0.7201
 4042SOL    HW223586   4.277   4.503   7.971 -1.3224 -1.7734 -0.0350
 4043SOL     OW23587   2.484   1.880  14.801 -0.4873  0.3148  0.2566
 4043SOL    HW123588   2.426   1.805  14.817 -0.9406 -0.1274 -3.5645
 4043SOL    HW223589   2.489   1.885  14.706 -4.0943 -0.3343  0.0330
 4044SOL     OW23590   2.651   4.448  15.474  0.1194  0.0161  0.0086
 4044SOL    HW123591   2.715   4.513  15.503  0.0748 -0.7535  1.8401
 4044SOL    HW223592   2.573   4.481  15.518  0.2629  0.4333 -0.0552
 4045SOL     OW23593   4.707   0.611   6.838 -0.0482 -0.1849 -0.1253
 4045SOL    HW123594   0.076   0.621   6.819  0.0590  0.1608  0.5871
 4045SOL    HW223595   4.708   0.544   6.907  1.2494  1.1670  1.1633
 4046SOL     OW23596   0.278   4.106   2.752  0.3758 -0.4138  0.0304
 4046SOL    HW123597   0.370   4.127   2.738  0.5269 -0.6635  0.6544
 4046SOL    HW223598   0.284   4.082   2.844  1.8460 -3.5115 -0.8672
 4047SOL     OW23599   3.598   2.541   6.116 -0.1061  0.0224  0.1467
 4047SOL    HW123600   3.641   2.618   6.079  0.1418 -0.8369 -1.3605
 4047SOL    HW223601   3.679   2.491   6.125 -0.0094 -0.1975 -2.0204
 4048SOL     OW23602   2.831   1.094   1.945  0.0220  0.2893 -0.1526
 4048SOL    HW123603   2.758   1.154   1.960 -1.9734 -1.8299 -1.3219
 4048SOL    HW223604   2.843   1.063   2.035 -0.7635  0.1253 -0.0992
 4049SOL     OW23605   2.772   2.391   3.608  0.1947 -0.2282 -0.4102
 4049SOL    HW123606   2.795   2.318   3.667  1.5683  1.6751  1.4294
 4049SOL    HW223607   2.723   2.451   3.664  1.0276  0.4127 -0.3736
 4050SOL     OW23608   3.319   3.980   6.536 -0.2640 -0.3558 -0.1868
 4050SOL    HW123609   3.337   3.987   6.442 -2.3972 -1.2686 -0.6688
 4050SOL    HW223610   3.405   3.959   6.571  0.5444  0.3035 -1.8145
 4051SOL     OW23611   0.090   1.620   8.095  0.1636 -0.2668 -0.3026
 4051SOL    HW123612   0.169   1.567   8.095 -0.2378 -0.8835  1.6470
 4051SOL    HW223613   0.104   1.683   8.165  0.0089 -2.4249  1.6672
 4052SOL     OW23614   3.788   2.511   9.100 -0.0124  0.2710 -0.2949
 4052SOL    HW123615   3.776   2.418   9.085  1.6945  0.0114 -0.0493
 4052SOL    HW223616   3.764   2.549   9.015  0.8897  1.0723 -0.1981
 4053SOL     OW23617   3.505   4.717   9.922  0.5988  0.0137 -0.1549
 4053SOL    HW123618   3.531   4.721  10.014 -0.9035 -0.8403  0.3002
 4053SOL    HW223619   3.462   4.632   9.910  0.4309 -0.0532  0.8869
 4054SOL     OW23620   4.288   2.197   8.286  0.7066 -0.4193  0.2221
 4054SOL    HW123621   4.305   2.139   8.361 -0.2728 -2.2372 -0.9566
 4054SOL    HW223622   4.322   2.282   8.313 -0.7061 -0.3198  1.6883
 4055SOL     OW23623   2.461   2.646   3.951  0.4934 -0.3008 -0.3401
 4055SOL    HW123624   2.524   2.714   3.974 -1.4522  0.9907  1.1565
 4055SOL    HW223625   2.482   2.574   4.011 -1.7840  0.1653  1.0249
 4056SOL     OW23626   3.599   2.253   0.673  0.0116 -0.2076 -0.2022
 4056SOL    HW123627   3.534   2.184   0.662 -1.2774  1.3115 -2.0809
 4056SOL    HW223628   3.556   2.332   0.640  1.5755  0.2648 -1.1344
 4057SOL     OW23629   0.447   3.837  13.991  0.0322  0.3288  0.0735
 4057SOL    HW123630   0.460   3.924  14.029  1.0747  1.2171 -2.3073
 4057SOL    HW223631   0.517   3.842  13.925 -0.5927  2.3879 -0.4277
 4058SOL     OW23632   3.247   2.917   3.099 -0.4624  0.6569 -0.0468
 4058SOL    HW123633   3.241   2.833   3.145  1.1417  0.6841  0.2256
 4058SOL    HW223634   3.274   2.884   3.013  0.9267  1.0849  0.2210
 4059SOL     OW23635   1.513   3.626  17.651  0.1250  0.4960 -0.6057
 4059SOL    HW123636   1.442   3.665   0.004 -1.4536 -1.9357 -0.9282
 4059SOL    HW223637   1.487   3.534  17.647  1.5557  0.0764 -0.3642
 4060SOL     OW23638   4.457   1.084   3.921 -0.0314  0.6702 -0.3474
 4060SOL    HW123639   4.364   1.094   3.942  0.0846  1.8700 -0.4335
 4060SOL    HW223640   4.478   1.177   3.916  2.8121 -0.0065 -1.2624
 4061SOL     OW23641   1.795   4.632   1.370  0.0757 -0.1158  0.6668
 4061SOL    HW123642   1.801   4.657   1.278 -1.1253 -0.9245  0.3705
 4061SOL    HW223643   1.882   4.600   1.395  0.8282  1.5468  0.1759
 4062SOL     OW23644   3.069   0.272  12.806  0.1539 -0.7609 -0.2709
 4062SOL    HW123645   3.019   0.342  12.764  2.3366  1.3764  0.6830
 4062SOL    HW223646   3.126   0.315  12.869 -0.1841 -0.3002 -0.2729
 4063SOL     OW23647   4.398   2.909   3.337  0.4417 -0.7780 -0.4181
 4063SOL    HW123648   4.449   2.828   3.328  1.2646 -0.3702  0.6076
 4063SOL    HW223649   4.462   2.973   3.307  0.7511 -1.0076 -0.2531
 4064SOL     OW23650   2.352   1.655   3.054 -0.7502  0.6399 -0.2971
 4064SOL    HW123651   2.268   1.702   3.050 -1.0103  0.0515 -1.6198
 4064SOL    HW223652   2.341   1.601   2.976 -1.2610 -0.2752  0.4143
 4065SOL     OW23653   2.265   0.800   7.832  0.4511 -0.0608 -0.0017
 4065SOL    HW123654   2.264   0.879   7.887  2.5991  1.1379 -1.7132
 4065SOL    HW223655   2.170   0.784   7.841  0.5334 -1.6644 -2.1296
 4066SOL     OW23656   2.981   1.199   6.378 -0.7094  0.7757 -0.2816
 4066SOL    HW123657   3.014   1.132   6.318 -0.5805  1.6302 -1.1658
 4066SOL    HW223658   2.908   1.237   6.328  0.4101  2.7836 -0.3786
 4067SOL     OW23659   2.421   0.989   5.787  0.3536 -0.2468 -0.4002
 4067SOL    HW123660   2.456   1.004   5.699 -1.5201 -0.5064 -1.1946
 4067SOL    HW223661   2.366   0.912   5.769 -0.5719  0.0582  1.1337
 4068SOL     OW23662   2.746   4.138   0.161  0.0624  0.2825 -0.4934
 4068SOL    HW123663   2.746   4.198   0.086  0.0487  0.7179 -0.1410
 4068SOL    HW223664   2.726   4.057   0.113 -1.9571  1.5791 -1.8358
 4069SOL     OW23665   0.192   4.067   8.575  0.8471 -0.4281  0.1196
 4069SOL    HW123666   0.270   4.012   8.582  1.1639  0.0838  0.6377
 4069SOL    HW223667   0.236   4.124   8.512 -1.6672  1.5249  0.0956
 4070SOL     OW23668   0.182   3.497   7.093 -0.0176 -0.4732  0.3750
 4070SOL    HW123669   0.206   3.408   7.070 -0.7936 -0.3268 -0.9987
 4070SOL    HW223670   0.113   3.514   7.028  0.9431  0.7536 -0.3322
 4071SOL     OW23671   2.789   3.067   3.964  0.0729  0.2840  0.1082
 4071SOL    HW123672   2.862   3.111   3.921  1.2118 -1.2290  0.4970
 4071SOL    HW223673   2.712   3.123   3.952 -0.1743 -0.0100  0.3123
 4072SOL     OW23674   4.556   2.246  13.090  0.0526 -0.3809  0.0891
 4072SOL    HW123675   4.487   2.297  13.048  1.3048  1.2138 -0.0685
 4072SOL    HW223676   4.554   2.156  13.057 -0.7244 -0.6468  0.8830
 4073SOL     OW23677   0.441   2.255   3.115 -0.0101  0.1634  0.0295
 4073SOL    HW123678   0.375   2.306   3.162 -0.5584  0.5106 -1.1113
 4073SOL    HW223679   0.470   2.328   3.060 -1.8359  2.1364  1.6527
 4074SOL     OW23680   1.878   1.419   6.446  0.1272 -0.2638 -0.3568
 4074SOL    HW123681   1.808   1.470   6.487 -0.2646 -0.5579 -0.6543
 4074SOL    HW223682   1.918   1.377   6.522  1.2516 -0.5444 -1.1100
 4075SOL     OW23683   0.543   1.421  10.898 -0.0828  0.1757  0.2344
 4075SOL    HW123684   0.515   1.469  10.820  1.0071  0.3241 -0.0573
 4075SOL    HW223685   0.495   1.466  10.968 -0.8701  0.9135 -0.7842
 4076SOL     OW23686   0.487   0.434   2.763 -0.0412 -0.2347 -0.2503
 4076SOL    HW123687   0.477   0.412   2.856 -0.1004 -0.0417 -0.2109
 4076SOL    HW223688   0.565   0.385   2.739  0.5202 -0.3233  1.7565
 4077SOL     OW23689   4.420   4.526   3.134 -0.3489  0.1283 -0.1971
 4077SOL    HW123690   4.375   4.601   3.095 -0.0401  0.9400  0.9920
 4077SOL    HW223691   4.492   4.503   3.076 -0.3713 -0.0065 -0.1732
 4078SOL     OW23692   2.088   4.530   6.193  0.1694 -0.1353  0.3981
 4078SOL    HW123693   2.055   4.441   6.176  1.2428 -0.5237  0.3188
 4078SOL    HW223694   2.031   4.571   6.128 -0.3827 -0.8288  0.4446
 4079SOL     OW23695   2.578   0.201   8.168  0.3160  0.4752  0.2294
 4079SOL    HW123696   2.666   0.217   8.132  0.0845 -0.0247 -0.5608
 4079SOL    HW223697   2.575   0.271   8.233  2.2285 -2.0443  3.0503
 4080SOL     OW23698   3.358   4.621   1.866 -0.3206  0.8448  0.2866
 4080SOL    HW123699   3.401   4.581   1.942 -0.9270  1.9674  1.2049
 4080SOL    HW223700   3.269   4.642   1.892 -0.1346 -1.3503  2.7097
 4081SOL     OW23701   4.349   0.374   7.331 -0.3621  0.0142 -0.0028
 4081SOL    HW123702   4.331   0.381   7.424  1.2511  2.2435  0.1563
 4081SOL    HW223703   4.385   0.461   7.313 -0.6392  0.3342  1.0523
 4082SOL     OW23704   0.100   2.272   7.392  0.0895 -0.0140  0.0804
 4082SOL    HW123705   0.079   2.195   7.339  1.2541  0.2814 -0.8275
 4082SOL    HW223706   0.105   2.340   7.325  0.2068 -0.4798 -0.3848
 4083SOL     OW23707   2.966   1.436   9.024  0.3086 -0.2227 -0.5555
 4083SOL    HW123708   2.964   1.523   9.065 -2.5474 -0.9248  0.8008
 4083SOL    HW223709   2.951   1.377   9.098 -2.4733 -2.1989 -2.6890
 4084SOL     OW23710   1.323   2.046   9.107  0.0668  0.3811 -0.5754
 4084SOL    HW123711   1.408   2.005   9.117 -1.2770 -2.0755  0.8797
 4084SOL    HW223712   1.283   2.026   9.192  1.1477 -2.4421 -0.7485
 4085SOL     OW23713   3.017   0.673   3.124 -0.2062 -0.1421 -0.2361
 4085SOL    HW123714   2.949   0.628   3.075 -0.1980  1.5228 -1.7662
 4085SOL    HW223715   3.085   0.686   3.057 -0.0289 -1.0348 -0.2341
 4086SOL     OW23716   3.185   0.112   4.050  0.7050 -0.4015  0.7638
 4086SOL    HW123717   3.116   0.115   4.116 -1.6011  0.2208 -1.7248
 4086SOL    HW223718   3.230   0.192   4.078 -2.3767  1.0927  1.3537
 4087SOL     OW23719   4.165   4.192   0.195 -0.2631  0.2966  0.1027
 4087SOL    HW123720   4.125   4.269   0.154  1.0047  1.6464  1.3834
 4087SOL    HW223721   4.201   4.146   0.119 -0.9140  0.2822 -0.1983
 4088SOL     OW23722   0.130   0.581   3.798 -0.2912 -0.1589  0.5128
 4088SOL    HW123723   0.103   0.671   3.814  2.4804  0.4641  1.7316
 4088SOL    HW223724   0.224   0.590   3.817 -0.4291  1.1335  0.5597
 4089SOL     OW23725   1.976   4.202   8.826 -0.3939  0.5754 -0.2882
 4089SOL    HW123726   2.045   4.158   8.876  0.6917  2.4829 -0.1153
 4089SOL    HW223727   1.906   4.216   8.891 -1.4068 -2.0739 -0.8015
 4090SOL     OW23728   0.465   3.340   5.933 -0.0110  0.8247 -0.0466
 4090SOL    HW123729   0.506   3.257   5.911 -0.5123  0.4014  0.5958
 4090SOL    HW223730   0.401   3.349   5.862 -1.3599  2.6913  1.3856
 4091SOL     OW23731   1.214   3.456   2.906 -0.3552 -0.0176 -0.2980
 4091SOL    HW123732   1.281   3.432   2.970 -0.6669  1.4868  0.6098
 4091SOL    HW223733   1.215   3.381   2.848 -0.5134  0.6402 -1.1528
 4092SOL     OW23734   2.894   4.155   3.106 -0.0315  0.4515 -0.3888
 4092SOL    HW123735   2.856   4.131   3.022  0.9686 -1.4147 -0.3035
 4092SOL    HW223736   2.840   4.125   3.179  0.2020  1.8509  0.3633
 4093SOL     OW23737   1.615   1.002   8.667  0.2028 -0.4967 -0.2573
 4093SOL    HW123738   1.552   1.003   8.594  0.4727  0.3279 -0.4831
 4093SOL    HW223739   1.682   0.950   8.623  0.0003  0.1566 -1.3374
 4094SOL     OW23740   2.458   1.723   5.675 -0.2053 -0.1051 -0.3607
 4094SOL    HW123741   2.492   1.766   5.753 -1.6041  1.0408 -0.3801
 4094SOL    HW223742   2.389   1.670   5.715 -1.3783  0.6163 -1.4233
 4095SOL     OW23743   2.129   0.631   7.313 -0.8473  0.7177  0.1982
 4095SOL    HW123744   2.116   0.706   7.256 -1.5279  1.9920  2.0471
 4095SOL    HW223745   2.206   0.586   7.278 -1.1131  0.4787 -0.0783
 4096SOL     OW23746   4.121   4.473   7.139 -0.5672 -0.5886  0.5993
 4096SOL    HW123747   4.172   4.422   7.075 -0.1517  0.9955 -0.3186
 4096SOL    HW223748   4.077   4.407   7.193 -2.2396  1.8093  2.1439
 4097SOL     OW23749   1.701   1.709  16.872  0.3302 -0.6477  0.1524
 4097SOL    HW123750   1.717   1.717  16.966 -1.8091  2.0442  0.2828
 4097SOL    HW223751   1.758   1.775  16.833 -1.2458 -1.1034 -2.9110
 4098SOL     OW23752   3.629   3.453  12.043 -0.0192  0.1800  0.2327
 4098SOL    HW123753   3.547   3.409  12.019  0.4669 -1.4378  1.5218
 4098SOL    HW223754   3.624   3.444  12.138 -1.0119  1.4412  0.2963
 4099SOL     OW23755   4.591   1.352   2.102 -0.3066  0.3199 -0.9805
 4099SOL    HW123756   4.506   1.379   2.067  0.5597  2.9903 -0.9864
 4099SOL    HW223757   4.622   1.435   2.138  1.1695 -0.9510  0.6705
 4100SOL     OW23758   3.467   4.149  16.358 -0.6848 -0.3067 -0.2552
 4100SOL    HW123759   3.505   4.237  16.350  0.9496 -0.9602  0.2714
 4100SOL    HW223760   3.504   4.105  16.434  0.1095  2.4958  0.9992
 4101SOL     OW23761   3.948   3.475   6.616  0.0431  0.0398 -0.3649
 4101SOL    HW123762   3.926   3.453   6.525  0.0717  0.2555 -0.4253
 4101SOL    HW223763   4.030   3.426   6.623 -0.3213 -0.4664  0.3504
 4102SOL     OW23764   3.335   3.001   8.841 -0.3403 -0.6078 -0.3636
 4102SOL    HW123765   3.387   3.038   8.770 -0.8652 -0.3430 -0.6099
 4102SOL    HW223766   3.252   3.037   8.810  0.0426  1.6442  1.2317
 4103SOL     OW23767   2.422   2.510  14.148 -0.3626 -0.3769  0.0772
 4103SOL    HW123768   2.501   2.459  14.163 -1.6334 -2.6502 -0.8987
 4103SOL    HW223769   2.357   2.464  14.202 -0.9468 -0.3043 -0.5531
 4104SOL     OW23770   2.580   0.118   5.951  0.1553 -0.6487 -0.6017
 4104SOL    HW123771   2.656   0.176   5.941  1.1793 -1.9119 -0.1728
 4104SOL    HW223772   2.611   0.046   5.896  1.8681 -0.2886 -0.1132
 4105SOL     OW23773   0.223   2.022   5.324  0.0321 -0.8111 -0.1398
 4105SOL    HW123774   0.240   1.929   5.314 -0.5988 -0.9811  0.3425
 4105SOL    HW223775   0.137   2.016   5.365  0.7005 -2.2861  1.0128
 4106SOL     OW23776   4.639   0.045   5.622  0.5042  0.1060 -0.0921
 4106SOL    HW123777   4.664   4.706   5.554 -0.4248 -3.6558  3.0553
 4106SOL    HW223778   4.676   0.128   5.592 -0.7189  0.1673 -1.4114
 4107SOL     OW23779   0.020   3.567  16.866 -0.3598 -0.1568 -0.3977
 4107SOL    HW123780   0.067   3.641  16.828 -0.7193 -0.5949 -1.6736
 4107SOL    HW223781   4.676   3.612  16.917  1.3931 -0.0932  1.9001
 4108SOL     OW23782   4.244   3.733   4.796 -0.5105  0.4850 -0.1124
 4108SOL    HW123783   4.317   3.795   4.790  0.4779 -0.8573 -2.1130
 4108SOL    HW223784   4.169   3.793   4.796 -0.7750  0.1540 -0.5651
 4109SOL     OW23785   2.174   2.128  12.130 -0.0947  0.2410 -0.6810
 4109SOL    HW123786   2.175   2.046  12.080 -0.5779 -1.0737  1.4231
 4109SOL    HW223787   2.113   2.177  12.075 -0.7752  2.2256  1.8561
 4110SOL     OW23788   2.096   1.730  14.934 -0.0917 -0.0800  0.1327
 4110SOL    HW123789   2.178   1.714  14.887 -1.6999 -1.1657 -2.3316
 4110SOL    HW223790   2.063   1.796  14.873  0.2978  0.2846  0.3100
 4111SOL     OW23791   4.374   2.978  16.093 -0.2318  0.0531  0.6994
 4111SOL    HW123792   4.396   2.965  16.001 -1.3800 -1.7217  0.6778
 4111SOL    HW223793   4.284   3.008  16.087 -1.1850 -2.5307  1.9191
 4112SOL     OW23794   2.455   2.866  15.868 -0.3438 -0.0125  0.2511
 4112SOL    HW123795   2.442   2.959  15.885 -0.6762  0.0667 -0.4464
 4112SOL    HW223796   2.502   2.844  15.948 -1.5013 -2.0485  0.3818
 4113SOL     OW23797   2.080   4.610   7.203 -0.0450  0.3573 -0.0555
 4113SOL    HW123798   2.028   4.544   7.249  3.0397 -0.8405  1.6764
 4113SOL    HW223799   2.100   4.574   7.117  0.4545 -4.5583  2.1494
 4114SOL     OW23800   2.955   4.566   5.674 -0.6147  0.1358 -0.1055
 4114SOL    HW123801   2.990   4.478   5.663  0.5633  0.5297  0.5134
 4114SOL    HW223802   3.015   4.599   5.741 -0.1980  0.0638 -0.4436
 4115SOL     OW23803   4.700   4.208   6.328  0.0076  0.1018  0.1122
 4115SOL    HW123804   0.060   4.229   6.369 -0.0339 -0.1887  0.3496
 4115SOL    HW223805   4.695   4.116   6.354 -0.7339 -0.0486 -0.5889
 4116SOL     OW23806   1.866   3.700   7.785 -0.4259 -0.2885 -0.0444
 4116SOL    HW123807   1.787   3.713   7.838 -0.9307  2.0539 -1.3600
 4116SOL    HW223808   1.924   3.676   7.858 -0.5469 -2.3321 -0.6113
 4117SOL     OW23809   1.173   0.683  14.372  0.2431 -0.1819  0.0274
 4117SOL    HW123810   1.122   0.602  14.376 -1.5445  0.9168 -0.1711
 4117SOL    HW223811   1.112   0.749  14.404  2.4660  1.5341  0.6467
 4118SOL     OW23812   2.512   1.455  16.625  0.2360  0.1775  0.0165
 4118SOL    HW123813   2.515   1.434  16.719  0.2128  2.1138  0.4546
 4118SOL    HW223814   2.417   1.451  16.614 -0.0908 -0.9941  3.1919
 4119SOL     OW23815   3.952   0.126   5.241 -0.0750 -0.3884  0.4812
 4119SOL    HW123816   4.021   0.097   5.300  0.0426 -1.4211 -0.1698
 4119SOL    HW223817   4.002   0.135   5.160 -0.9816  2.5982  0.2266
 4120SOL     OW23818   4.288   3.375  14.877 -0.9943  0.2407 -0.0362
 4120SOL    HW123819   4.202   3.395  14.913 -0.6956 -0.4398  1.0371
 4120SOL    HW223820   4.285   3.422  14.793  0.3152  0.9679  0.3048
 4121SOL     OW23821   3.186   0.456  10.654  0.2616 -0.0386 -0.1793
 4121SOL    HW123822   3.128   0.507  10.710 -0.7412 -0.2525 -1.0334
 4121SOL    HW223823   3.130   0.405  10.596 -1.3568  1.0975  0.3841
 4122SOL     OW23824   1.509   1.999   2.858 -0.5887 -0.5404 -0.0422
 4122SOL    HW123825   1.598   1.988   2.824 -0.8469 -0.1156 -0.8522
 4122SOL    HW223826   1.489   2.085   2.821  2.5552  0.2891  0.1661
 4123SOL     OW23827   3.124   2.102   1.877  0.0962  0.4702 -0.4471
 4123SOL    HW123828   3.165   2.122   1.962 -1.0333  0.2472  0.1469
 4123SOL    HW223829   3.093   2.188   1.846 -1.6536 -0.2382 -0.6804
 4124SOL     OW23830   2.721   2.432   2.339  0.1351 -0.3864 -0.0085
 4124SOL    HW123831   2.763   2.404   2.258  1.6474  1.0414  0.2851
 4124SOL    HW223832   2.738   2.356   2.394 -0.3445 -0.7980 -0.4178
 4125SOL     OW23833   1.516   4.038   2.313 -0.2642 -0.5428  0.1536
 4125SOL    HW123834   1.593   4.036   2.257 -0.3657  2.0404 -0.0604
 4125SOL    HW223835   1.480   3.949   2.306  2.2465 -1.7191  2.3515
 4126SOL     OW23836   2.400   3.644  16.476 -0.5337  0.0646  0.2572
 4126SOL    HW123837   2.396   3.629  16.570 -1.4116  0.0174  0.2121
 4126SOL    HW223838   2.482   3.694  16.467 -0.8189  0.5321  0.2730
 4127SOL     OW23839   4.677   1.152   4.565 -0.1799  0.1742  0.4077
 4127SOL    HW123840   4.715   1.239   4.578 -0.8088  0.7208 -1.4451
 4127SOL    HW223841   4.682   1.114   4.652  0.8506 -1.6227 -0.4375
 4128SOL     OW23842   1.734   2.881   2.230 -0.0756 -0.3030 -0.3974
 4128SOL    HW123843   1.639   2.879   2.231 -0.0862  0.8095 -0.0027
 4128SOL    HW223844   1.756   2.825   2.304 -2.2316  2.1652  2.0915
 4129SOL     OW23845   1.163   4.308   3.248  0.2708 -0.2022 -0.2082
 4129SOL    HW123846   1.227   4.373   3.277 -0.7577  1.3603 -1.4669
 4129SOL    HW223847   1.164   4.319   3.153  0.5847 -0.0862 -0.1941
 4130SOL     OW23848   3.058   4.631   1.939  0.4699 -0.1650  0.2172
 4130SOL    HW123849   3.018   4.715   1.963  2.0515  0.6173  0.1164
 4130SOL    HW223850   3.014   4.597   1.861 -0.8817  0.8021  0.5500
 4131SOL     OW23851   1.660   2.179   6.501  0.3493 -0.2627  0.3537
 4131SOL    HW123852   1.698   2.228   6.574 -1.3174  0.8715  0.4493
 4131SOL    HW223853   1.640   2.096   6.545  3.4803 -0.1179  2.0442
 4132SOL     OW23854   4.424   3.508   7.186 -0.0764  0.4867 -0.5443
 4132SOL    HW123855   4.394   3.417   7.180 -0.2491  0.5356 -0.4387
 4132SOL    HW223856   4.470   3.521   7.103  3.5399 -1.1889  1.1916
 4133SOL     OW23857   3.330   2.897   7.402  0.4474 -0.2065 -0.3956
 4133SOL    HW123858   3.400   2.950   7.364 -0.6255 -0.1612 -2.3201
 4133SOL    HW223859   3.359   2.887   7.493  0.0903 -0.7892 -0.3441
 4134SOL     OW23860   0.119   1.483   7.539  0.0576  0.0246  0.2378
 4134SOL    HW123861   0.032   1.449   7.520 -0.5921  1.3401  0.8415
 4134SOL    HW223862   0.173   1.404   7.536  0.1023  0.1347 -2.1842
 4135SOL     OW23863   0.806   0.016  11.307  0.2294 -0.8057 -0.2993
 4135SOL    HW123864   0.753   0.015  11.227  1.8982 -0.1188 -1.4246
 4135SOL    HW223865   0.747   4.714  11.378  3.2680 -0.1858  2.4372
 4136SOL     OW23866   0.224   0.382   0.119  0.2140  0.2347  0.2640
 4136SOL    HW123867   0.132   0.381   0.145  0.4499 -1.9419  1.0661
 4136SOL    HW223868   0.236   0.473   0.092 -1.0416  0.2430 -0.2667
 4137SOL     OW23869   1.393   1.295   4.775 -0.1313  0.4751 -0.1123
 4137SOL    HW123870   1.308   1.331   4.801 -0.3685 -0.4801  0.4363
 4137SOL    HW223871   1.395   1.300   4.679 -1.5888  1.2813 -0.1102
 4138SOL     OW23872   2.828   3.763   5.509  0.0597 -0.3721 -0.0470
 4138SOL    HW123873   2.820   3.854   5.482 -0.0095 -0.8684 -1.7297
 4138SOL    HW223874   2.815   3.766   5.604  1.2242  1.2970  0.0559
 4139SOL     OW23875   3.787   0.243   9.378  0.0004 -0.2494 -0.2254
 4139SOL    HW123876   3.875   0.277   9.364  0.2231  0.5543  3.2541
 4139SOL    HW223877   3.806   0.156   9.412  1.0033  0.2189  0.3843
 4140SOL     OW23878   1.165   4.599   7.442  0.1608  0.4337  0.0398
 4140SOL    HW123879   1.189   4.514   7.406  1.3271 -0.3999  2.8029
 4140SOL    HW223880   1.071   4.600   7.424 -0.1152  0.5713  1.4590
 4141SOL     OW23881   2.645   0.163  15.883  0.0749  0.1090 -0.6877
 4141SOL    HW123882   2.592   0.154  15.804  0.4457  2.6342 -1.2249
 4141SOL    HW223883   2.670   0.255  15.875  0.7838  0.1148  1.5715
 4142SOL     OW23884   2.823   0.577  17.266 -0.6773 -0.1556  0.2016
 4142SOL    HW123885   2.847   0.562  17.174 -1.1837  3.4255 -0.5200
 4142SOL    HW223886   2.788   0.492  17.293 -0.6483 -0.5182 -0.8805
 4143SOL     OW23887   2.645   1.266   8.156 -0.0665  0.7049 -0.2327
 4143SOL    HW123888   2.661   1.203   8.086 -2.9562 -1.0239  0.6518
 4143SOL    HW223889   2.550   1.274   8.145 -0.2542 -0.7115  0.3798
 4144SOL     OW23890   2.542   0.379   5.601 -0.1924 -0.4781  0.2956
 4144SOL    HW123891   2.464   0.355   5.650 -1.2795 -1.5972 -1.9993
 4144SOL    HW223892   2.502   0.388   5.514 -0.1863  2.2113  0.5970
 4145SOL     OW23893   4.265   1.477   7.673 -0.4501 -0.3896 -0.3167
 4145SOL    HW123894   4.223   1.401   7.714 -1.4331 -0.4276 -1.3757
 4145SOL    HW223895   4.188   1.532   7.655  1.0000  0.3773 -4.2097
 4146SOL     OW23896   0.112   3.932  10.031 -0.5373 -0.2314 -0.0831
 4146SOL    HW123897   0.117   4.019   9.992  1.9858  1.0282  3.0816
 4146SOL    HW223898   0.100   3.955  10.123 -0.3508  1.3792 -0.4656
 4147SOL     OW23899   2.375   0.283   8.616 -0.0408 -0.0469  0.2420
 4147SOL    HW123900   2.280   0.274   8.631 -0.4279  0.7341 -1.7372
 4147SOL    HW223901   2.399   0.348   8.681  1.4230  1.0391 -1.3790
 4148SOL     OW23902   1.895   1.875  13.739  0.3487  0.5375 -0.6549
 4148SOL    HW123903   1.847   1.792  13.735 -0.4784  0.9257  1.2660
 4148SOL    HW223904   1.853   1.903  13.820 -1.1666  0.9906 -1.6091
 4149SOL     OW23905   4.702   2.502   0.367 -0.3023 -0.2357  0.8328
 4149SOL    HW123906   0.037   2.429   0.384  0.7469  0.3405 -0.3571
 4149SOL    HW223907   4.621   2.451   0.369  1.1259 -2.5689 -0.8751
 4150SOL     OW23908   2.465   2.610   7.841 -0.0455  0.1828 -0.6458
 4150SOL    HW123909   2.515   2.552   7.783  0.3663  0.0478 -0.1611
 4150SOL    HW223910   2.533   2.666   7.879  0.8817 -0.6452 -1.0804
 4151SOL     OW23911   2.332   2.918   7.422 -0.0292  0.5183  0.0295
 4151SOL    HW123912   2.388   2.995   7.424 -0.0974  0.6211 -1.5096
 4151SOL    HW223913   2.376   2.853   7.477 -1.2411 -0.1485  0.2215
 4152SOL     OW23914   0.048   1.407   5.088  0.1965  0.3080 -0.2355
 4152SOL    HW123915   0.140   1.430   5.098  0.5419 -1.4114  0.3909
 4152SOL    HW223916   0.013   1.489   5.053 -0.7848 -1.8302 -4.2191
 4153SOL     OW23917   1.921   3.675   0.309  0.4215  0.2075  0.4948
 4153SOL    HW123918   1.829   3.672   0.286  0.5089 -0.4953  0.2280
 4153SOL    HW223919   1.941   3.767   0.297  0.2852  0.2333  0.4697
 4154SOL     OW23920   1.521   4.205   0.765  0.3445 -0.3583  0.2825
 4154SOL    HW123921   1.432   4.174   0.779  0.6176 -1.4939 -0.4267
 4154SOL    HW223922   1.560   4.173   0.847 -0.3688  0.7101  1.0339
 4155SOL     OW23923   3.458   4.562   7.136 -0.3777 -0.2474 -0.1857
 4155SOL    HW123924   3.512   4.503   7.085 -0.8165 -0.4938 -0.3684
 4155SOL    HW223925   3.389   4.500   7.159 -0.0089 -0.1672  1.1589
 4156SOL     OW23926   2.732   3.057   2.431 -0.0258 -0.3227 -0.8689
 4156SOL    HW123927   2.727   3.147   2.464 -1.4335 -1.1800  1.2796
 4156SOL    HW223928   2.822   3.056   2.399  0.8761 -0.6969  1.6813
 4157SOL     OW23929   0.628   0.093   4.892 -0.0596  0.4646  0.1818
 4157SOL    HW123930   0.704   0.037   4.902 -1.1935 -1.2098 -0.6305
 4157SOL    HW223931   0.615   0.066   4.801 -2.2483 -4.0539  1.8746
 4158SOL     OW23932   1.089   2.806  17.435 -0.5144 -0.1211  0.2849
 4158SOL    HW123933   1.097   2.719  17.475  1.6690  0.0164  0.1011
 4158SOL    HW223934   1.099   2.865  17.510 -1.5583  1.5300 -0.8797
 4159SOL     OW23935   1.768   3.425   3.962  0.1417  0.1712  0.5150
 4159SOL    HW123936   1.792   3.408   3.871  0.0322 -1.4125  0.7812
 4159SOL    HW223937   1.857   3.422   3.995 -0.5825 -1.5336  2.3572
 4160SOL     OW23938   1.744   3.681   1.712  0.7415  0.5544  0.5796
 4160SOL    HW123939   1.676   3.695   1.778 -1.3066 -0.2370 -1.3307
 4160SOL    HW223940   1.688   3.700   1.636  0.9366 -0.3004  0.2279
 4161SOL     OW23941   0.646   0.530   5.596  0.4037 -0.4096  0.3012
 4161SOL    HW123942   0.693   0.610   5.620 -3.2261  1.4261  1.3810
 4161SOL    HW223943   0.683   0.508   5.511  2.6437  0.1793  1.1293
 4162SOL     OW23944   2.080   0.589   7.598 -0.0016  0.2404  0.1241
 4162SOL    HW123945   2.056   0.497   7.612  0.1508  0.6709  3.2435
 4162SOL    HW223946   2.073   0.597   7.503  1.5610 -2.1809 -0.1867
 4163SOL     OW23947   2.665   3.406   3.399 -0.3258 -0.2954  0.4238
 4163SOL    HW123948   2.639   3.317   3.423  0.5735 -1.4176 -2.7354
 4163SOL    HW223949   2.674   3.394   3.304 -1.2411 -0.7818  0.3960
 4164SOL     OW23950   2.062   2.186   0.720  0.2098 -0.0115 -0.3413
 4164SOL    HW123951   2.133   2.178   0.656 -0.0723  1.8410 -0.8616
 4164SOL    HW223952   1.993   2.147   0.667 -0.3621 -0.9096  1.0521
 4165SOL     OW23953   4.703   3.705  11.253  0.1472 -0.1649 -0.0189
 4165SOL    HW123954   4.693   3.796  11.225 -1.4574 -0.7703 -1.4190
 4165SOL    HW223955   4.705   3.730  11.346 -1.4415 -0.6575  0.1554
 4166SOL     OW23956   1.521   3.535  15.931 -0.2742  0.3542  0.3093
 4166SOL    HW123957   1.525   3.538  16.027 -2.7120 -1.2762  0.4632
 4166SOL    HW223958   1.544   3.442  15.922 -0.9394  0.0363  1.7741
 4167SOL     OW23959   1.878   2.369   8.946 -0.7154 -0.0918  0.2220
 4167SOL    HW123960   1.786   2.353   8.926  0.5767 -3.9566 -2.5290
 4167SOL    HW223961   1.890   2.316   9.025  0.4190 -0.8447 -0.4498
 4168SOL     OW23962   4.455   1.542   3.503 -0.3836 -0.0922  0.4015
 4168SOL    HW123963   4.375   1.590   3.527 -1.7239 -1.6551 -0.9273
 4168SOL    HW223964   4.469   1.492   3.584 -1.2417  1.2387  1.3839
 4169SOL     OW23965   4.596   1.388   5.654  0.0863 -0.3344 -0.2112
 4169SOL    HW123966   4.534   1.407   5.724 -0.1381  1.8980 -0.9941
 4169SOL    HW223967   4.658   1.326   5.691  0.0104  0.3484  1.0750
 4170SOL     OW23968   1.900   3.853   1.528 -0.2469  0.5535 -0.1101
 4170SOL    HW123969   1.811   3.884   1.513 -0.1096  1.4755  0.9792
 4170SOL    HW223970   1.870   3.781   1.583 -0.3248 -0.4582 -1.4894
 4171SOL     OW23971   4.637   1.030   2.597 -0.7151 -0.3704  0.2975
 4171SOL    HW123972   4.600   0.952   2.637 -2.9324  0.4079 -0.2303
 4171SOL    HW223973   4.567   1.056   2.537 -0.2602  0.1780  0.0037
 4172SOL     OW23974   2.396   1.218  11.452  0.2194 -0.2627  0.1291
 4172SOL    HW123975   2.378   1.272  11.375 -0.9405 -0.8241  0.0052
 4172SOL    HW223976   2.328   1.238  11.516  0.9790 -0.7458  1.0863
 4173SOL     OW23977   3.587   1.182   5.681  0.0611 -0.0560  0.5689
 4173SOL    HW123978   3.635   1.263   5.702 -0.5306  1.1164 -2.5486
 4173SOL    HW223979   3.515   1.192   5.742 -1.2332 -0.2944 -0.9340
 4174SOL     OW23980   0.971   3.217   6.182 -0.2336  0.0892 -0.2829
 4174SOL    HW123981   0.919   3.176   6.250 -1.2044  0.4004 -0.8361
 4174SOL    HW223982   0.939   3.307   6.179  3.1415  1.3281  0.5841
 4175SOL     OW23983   2.218   4.487   7.011  0.2728 -0.5625  0.2292
 4175SOL    HW123984   2.294   4.429   7.015  0.2902 -0.4462  1.6735
 4175SOL    HW223985   2.257   4.554   6.955 -0.2307  0.8099  1.4842
 4176SOL     OW23986   1.250   2.179   5.239 -0.1085  0.5291 -0.3612
 4176SOL    HW123987   1.273   2.096   5.198 -0.6188  0.5883 -0.7613
 4176SOL    HW223988   1.254   2.156   5.332  1.4323  2.7947  0.1430
 4177SOL     OW23989   3.293   3.611   2.994  0.3679  0.1425  0.4106
 4177SOL    HW123990   3.365   3.550   2.977 -1.1314 -1.1040 -1.3271
 4177SOL    HW223991   3.226   3.561   3.040 -0.6553  1.3713  0.2285
 4178SOL     OW23992   3.801   4.462  17.690  0.0221 -0.1191 -0.1095
 4178SOL    HW123993   3.775   4.553  17.670 -1.0055  0.1506  2.4941
 4178SOL    HW223994   3.824   4.436  17.601  0.5929  3.3131 -0.9967
 4179SOL     OW23995   0.684   2.757   5.631 -0.1054 -0.0281 -0.4751
 4179SOL    HW123996   0.764   2.800   5.604 -0.8452  1.2020 -0.7089
 4179SOL    HW223997   0.628   2.797   5.565 -0.5090 -1.5029 -1.0287
 4180SOL     OW23998   1.829   2.961   3.049 -0.7537  0.1526  0.1910
 4180SOL    HW123999   1.876   2.880   3.030 -2.6154 -1.0283  0.7056
 4180SOL    HW224000   1.789   2.948   3.135  0.3787  0.3539  0.7559
 4181SOL     OW24001   1.713   0.254   1.228 -0.3035 -0.1294 -0.8223
 4181SOL    HW124002   1.714   0.225   1.137  1.3205  0.5507 -1.0187
 4181SOL    HW224003   1.624   0.227   1.250 -0.0526  0.1309  0.5159
 4182SOL     OW24004   4.120   1.247   4.930 -0.7565 -0.1517 -0.0152
 4182SOL    HW124005   4.186   1.234   4.998 -0.1602 -0.8877 -0.7390
 4182SOL    HW224006   4.072   1.164   4.926  1.6874 -1.4385 -2.1114
 4183SOL     OW24007   1.938   1.516   3.657 -0.6401  0.9043 -0.4743
 4183SOL    HW124008   1.971   1.555   3.576 -1.9362 -0.5956 -1.7448
 4183SOL    HW224009   1.944   1.421   3.646  1.0914  0.8969  0.5482
 4184SOL     OW24010   0.417   2.410   2.857 -0.0155  0.1979  0.3373
 4184SOL    HW124011   0.486   2.344   2.847 -1.9071 -2.0705  2.2825
 4184SOL    HW224012   0.363   2.402   2.779 -0.8830 -1.2609  1.0827
 4185SOL     OW24013   3.663   0.212   4.520  0.7117 -0.4070  0.0140
 4185SOL    HW124014   3.743   0.259   4.495  0.2465 -1.5400 -3.6720
 4185SOL    HW224015   3.603   0.263   4.465 -0.1561 -1.7937 -0.3007
 4186SOL     OW24016   4.448   0.570   1.313 -0.9313  0.0632  0.6630
 4186SOL    HW124017   4.494   0.652   1.330  0.0161 -0.0503 -1.2677
 4186SOL    HW224018   4.510   0.497   1.321  0.0370  0.6941 -1.2448
 4187SOL     OW24019   0.355   0.460  13.309  0.2408  0.2506  0.2102
 4187SOL    HW124020   0.394   0.440  13.224  0.1806  0.1765  0.2004
 4187SOL    HW224021   0.313   0.545  13.296  0.1814  0.5242  2.2303
 4188SOL     OW24022   0.899   3.322   3.512  0.7723 -0.3008 -0.5140
 4188SOL    HW124023   0.813   3.346   3.547  2.0804  1.8818  1.2206
 4188SOL    HW224024   0.873   3.322   3.420  0.5435 -0.0541 -0.4504
 4189SOL     OW24025   3.772   1.093   9.475 -0.1565 -0.1472  0.1480
 4189SOL    HW124026   3.744   1.018   9.423 -1.6885 -0.4108  1.3426
 4189SOL    HW224027   3.793   1.154   9.404 -4.1718 -0.8718 -1.6387
 4190SOL     OW24028   0.653   4.564   6.109  0.1751 -0.4338  0.6854
 4190SOL    HW124029   0.656   4.481   6.156 -0.4102 -0.4514  0.6926
 4190SOL    HW224030   0.721   4.614   6.156 -0.7729  2.2506 -0.8168
 4191SOL     OW24031   4.433   4.599   6.940 -0.0138 -0.2449 -0.3750
 4191SOL    HW124032   4.528   4.610   6.930 -0.6146  2.8255 -2.6695
 4191SOL    HW224033   4.429   4.522   6.998 -1.3917 -1.3185 -1.9035
 4192SOL     OW24034   1.403   0.111  16.820  0.1569 -0.2463  0.2330
 4192SOL    HW124035   1.403   0.055  16.743 -2.2712 -0.4447  0.3777
 4192SOL    HW224036   1.376   0.041  16.879  0.5926 -1.2546 -0.7861
 4193SOL     OW24037   1.828   4.538   8.693 -0.2796  0.4492 -0.0435
 4193SOL    HW124038   1.909   4.542   8.643 -1.4138  2.6735 -1.6469
 4193SOL    HW224039   1.793   4.623   8.668  1.7589  1.4842  0.6478
 4194SOL     OW24040   3.197   1.197   9.819  0.6743  0.2786  0.1127
 4194SOL    HW124041   3.212   1.236   9.905 -0.2490  0.4729  0.1929
 4194SOL    HW224042   3.140   1.261   9.774 -0.2053  0.5320  1.5826
 4195SOL     OW24043   3.235   0.024  16.307  0.4173  0.0081  0.3341
 4195SOL    HW124044   3.246   4.671  16.250  0.9440 -0.2288  0.7592
 4195SOL    HW224045   3.278   4.712  16.384  1.5638 -2.2897 -1.3501
 4196SOL     OW24046   2.067   4.722   7.529 -0.0783 -0.2766 -0.2287
 4196SOL    HW124047   2.109   4.710   7.444  0.1098 -1.9786  0.1028
 4196SOL    HW224048   2.004   0.065   7.506  0.6581 -0.0192 -1.4743
 4197SOL     OW24049   2.347   3.184   0.133  0.1674 -0.5964  0.1944
 4197SOL    HW124050   2.298   3.266   0.145 -0.6168 -1.1385  0.6520
 4197SOL    HW224051   2.436   3.199   0.166  1.7829 -3.5837 -2.8779
 4198SOL     OW24052   1.828   0.644   3.333 -0.4194 -0.2137 -0.2814
 4198SOL    HW124053   1.876   0.700   3.395  1.7513 -1.2714 -1.0080
 4198SOL    HW224054   1.853   0.685   3.250 -0.1678 -0.5378 -0.3634
 4199SOL     OW24055   2.589   3.748  13.405 -0.8253  0.9041 -0.1210
 4199SOL    HW124056   2.670   3.724  13.360 -1.3265 -0.6840 -0.1956
 4199SOL    HW224057   2.622   3.745  13.495 -2.4826 -2.9242  0.3832
 4200SOL     OW24058   0.848   0.457   9.052 -0.3321 -0.1484 -0.1493
 4200SOL    HW124059   0.887   0.380   9.010  0.9283 -0.0784  0.8991
 4200SOL    HW224060   0.865   0.450   9.146  3.0947  2.2030 -0.6231
 4201SOL     OW24061   0.768   1.314   0.073  0.1624 -0.1363 -0.3124
 4201SOL    HW124062   0.812   1.264   0.142 -0.6538  1.2720  1.2273
 4201SOL    HW224063   0.758   1.237   0.018 -0.3621  1.1819 -2.0711
 4202SOL     OW24064   4.690   1.829  12.553 -0.9541 -0.6635  1.1717
 4202SOL    HW124065   0.045   1.869  12.589  0.1040  0.2924 -2.1959
 4202SOL    HW224066   4.711   1.799  12.464 -2.2191  0.0282  0.6353
 4203SOL     OW24067   0.492   3.325   1.037  0.2882 -0.1796 -0.0236
 4203SOL    HW124068   0.549   3.255   1.004  0.3678  0.4248 -1.1591
 4203SOL    HW224069   0.405   3.303   1.003  1.1568  1.7826 -3.4758
 4204SOL     OW24070   1.803   1.624   8.718 -0.2425 -0.1419  0.4070
 4204SOL    HW124071   1.794   1.652   8.809  1.0846 -3.7936  1.6525
 4204SOL    HW224072   1.879   1.566   8.723  0.4348  0.6492 -0.7321
 4205SOL     OW24073   3.417   0.859  11.529  0.2578  0.5427 -0.7233
 4205SOL    HW124074   3.343   0.919  11.543 -1.1100 -0.8578 -1.9528
 4205SOL    HW224075   3.422   0.866  11.433  0.4970 -1.1405 -0.8267
 4206SOL     OW24076   3.234   4.192   3.149 -0.0893  0.4759 -0.8018
 4206SOL    HW124077   3.212   4.161   3.061 -0.0353  0.6976 -0.8951
 4206SOL    HW224078   3.225   4.285   3.127 -1.7906  0.2169 -1.2128
 4207SOL     OW24079   4.606   2.232   1.841 -0.3990  0.1981 -0.0695
 4207SOL    HW124080   4.565   2.231   1.928  1.3240  1.5094  0.7685
 4207SOL    HW224081   4.578   2.312   1.797 -0.4210  1.0141  1.4320
 4208SOL     OW24082   0.002   4.284   7.713  0.2220  0.5563 -0.3724
 4208SOL    HW124083   4.697   4.364   7.757 -3.5000  0.6727 -2.9729
 4208SOL    HW224084   4.647   4.267   7.661  0.7960 -1.0257 -0.7342
 4209SOL     OW24085   2.268   3.979   0.031 -0.0320  0.6536  0.4259
 4209SOL    HW124086   2.296   4.020  17.647  1.2670  1.1649  1.1333
 4209SOL    HW224087   2.347   3.933   0.060 -0.4793  0.5633  1.5187
 4210SOL     OW24088   2.405   3.765   4.755  0.0439 -0.2244 -0.0789
 4210SOL    HW124089   2.465   3.835   4.729 -1.6799  1.0329 -0.7023
 4210SOL    HW224090   2.366   3.756   4.668 -0.4579 -1.7057  0.3020
 4211SOL     OW24091   3.497   4.532   8.658 -0.1738 -0.8719  0.2467
 4211SOL    HW124092   3.504   4.586   8.580 -1.1509 -2.2848 -0.8259
 4211SOL    HW224093   3.429   4.578   8.708 -3.3801 -3.5978 -1.6124
 4212SOL     OW24094   4.151   2.997   1.251 -0.3327 -0.1965  0.3656
 4212SOL    HW124095   4.142   3.011   1.345  1.4846 -3.0596  0.9766
 4212SOL    HW224096   4.088   2.928   1.233  1.3949 -1.4346 -0.8804
 4213SOL     OW24097   0.430   1.328  17.571  0.3159 -0.4869  0.2884
 4213SOL    HW124098   0.425   1.341  17.477  0.1102 -1.4866  0.1602
 4213SOL    HW224099   0.410   1.421  17.584  0.5955 -0.5622  1.3122
 4214SOL     OW24100   3.618   3.052   8.228  0.1069  0.4259  0.6612
 4214SOL    HW124101   3.576   3.053   8.142  2.3358  0.7111 -0.4404
 4214SOL    HW224102   3.564   2.986   8.271 -0.0722 -0.2649 -0.6281
 4215SOL     OW24103   2.749   4.029   1.811  0.5304  0.7424 -0.5478
 4215SOL    HW124104   2.785   3.962   1.870  0.3384  2.5776  1.6405
 4215SOL    HW224105   2.669   4.055   1.856  1.8280  0.3766  1.9987
 4216SOL     OW24106   2.346   3.821  16.081 -0.2499 -0.4482 -0.1094
 4216SOL    HW124107   2.268   3.832  16.135  1.1280  0.4172  1.6914
 4216SOL    HW224108   2.400   3.880  16.134 -1.5262  0.9058 -0.3346
 4217SOL     OW24109   3.762   2.703   0.971 -0.0071  0.1853 -0.3262
 4217SOL    HW124110   3.737   2.796   0.970 -1.2682 -0.1451  1.0714
 4217SOL    HW224111   3.737   2.673   1.058  0.4187  1.5310  0.2721
 4218SOL     OW24112   0.887   0.848  17.260 -0.0020 -0.4466 -0.0252
 4218SOL    HW124113   0.956   0.781  17.263  0.4820  0.0550  0.1511
 4218SOL    HW224114   0.848   0.828  17.345  1.1452 -2.8548 -0.0532
 4219SOL     OW24115   3.370   3.963   3.187 -0.1212  0.6934  0.3157
 4219SOL    HW124116   3.321   4.044   3.168  0.2562  0.1293 -2.9991
 4219SOL    HW224117   3.367   3.957   3.282  0.4090 -0.6134  0.2440
 4220SOL     OW24118   3.430   3.070  17.602  0.4519 -0.4462  0.1863
 4220SOL    HW124119   3.365   3.079  17.533  0.9766 -0.4548 -0.3077
 4220SOL    HW224120   3.373   3.028  17.667 -1.5235  2.1972  0.1292
 4221SOL     OW24121   3.126   4.056  10.229  0.6328  0.7662  0.1318
 4221SOL    HW124122   3.213   4.028  10.257  0.6139 -0.6889 -1.2631
 4221SOL    HW224123   3.074   3.991  10.275 -1.8802  0.1963 -3.4867
 4222SOL     OW24124   1.413   2.731   3.968  0.4827 -0.0406 -0.5087
 4222SOL    HW124125   1.324   2.744   3.934 -1.5120 -2.8757  3.6555
 4222SOL    HW224126   1.445   2.689   3.888 -0.9174 -0.5846 -0.7909
 4223SOL     OW24127   0.084   3.472   4.314 -0.4815 -0.0222 -0.5123
 4223SOL    HW124128   0.063   3.421   4.392 -0.9563 -0.8871 -1.2092
 4223SOL    HW224129   0.149   3.412   4.278  2.9877  2.4891  1.5479
 4224SOL     OW24130   4.004   0.144   4.252 -0.2831 -0.3848  0.4880
 4224SOL    HW124131   4.008   0.067   4.308 -0.4015 -0.3955  0.4811
 4224SOL    HW224132   4.094   0.143   4.219  1.0154 -1.5526  4.0208
 4225SOL     OW24133   3.430   3.031   4.423  0.1219 -0.4809 -0.3306
 4225SOL    HW124134   3.453   2.965   4.489 -0.2695 -1.4472 -1.1686
 4225SOL    HW224135   3.336   3.015   4.424 -0.3564  2.3757 -0.0973
 4226SOL     OW24136   4.472   4.023   6.018  0.1398 -0.3334 -0.0789
 4226SOL    HW124137   4.458   4.117   6.024  0.2428 -0.3767  0.8268
 4226SOL    HW224138   4.473   3.991   6.108 -0.0584 -1.7955 -0.5924
 4227SOL     OW24139   2.038   2.498   7.771 -0.8273 -0.4375  0.0725
 4227SOL    HW124140   1.964   2.478   7.828 -1.1756  1.1778  0.1658
 4227SOL    HW224141   2.089   2.559   7.824 -2.0053  1.2902 -0.8051
 4228SOL     OW24142   0.916   4.235  17.332  0.2810  0.0035 -0.3819
 4228SOL    HW124143   0.990   4.295  17.340  0.5928 -0.4630  0.2187
 4228SOL    HW224144   0.839   4.267  17.380  0.4774 -0.1520  0.0372
 4229SOL     OW24145   2.589   0.268   4.827  0.9723  0.4770  0.2664
 4229SOL    HW124146   2.549   0.283   4.742 -1.0991  1.5459  1.4466
 4229SOL    HW224147   2.537   0.193   4.856  0.3053  1.2164  0.9894
 4230SOL     OW24148   4.000   4.390  17.434  0.0915 -0.6733 -0.7607
 4230SOL    HW124149   3.998   4.301  17.470  3.0100  0.0883  1.3421
 4230SOL    HW224150   4.074   4.427  17.484 -1.0896  0.8426 -0.1520
 4231SOL     OW24151   3.073   2.396   6.648  0.3802  0.1535  0.2692
 4231SOL    HW124152   3.156   2.401   6.697  0.0663  1.9888  0.6329
 4231SOL    HW224153   3.014   2.402   6.723 -4.1223 -0.4877 -3.2716
 4232SOL     OW24154   2.206   2.279   3.936  0.3624  0.3128  0.3847
 4232SOL    HW124155   2.149   2.302   3.863 -1.1856  0.5889  1.6922
 4232SOL    HW224156   2.218   2.185   3.919  2.0882  1.1302 -2.8181
 4233SOL     OW24157   0.541   0.699  12.352 -0.2734 -0.0305 -0.1143
 4233SOL    HW124158   0.470   0.755  12.383 -0.1206  0.1942 -0.1643
 4233SOL    HW224159   0.485   0.622  12.339 -2.4996  1.5216  0.3612
 4234SOL     OW24160   3.367   2.282   5.374  0.6796  0.4128  0.2354
 4234SOL    HW124161   3.438   2.229   5.408  0.1775 -0.2020  0.3293
 4234SOL    HW224162   3.366   2.353   5.438 -1.2320 -1.1897  1.9948
 4235SOL     OW24163   2.273   2.751   1.117 -0.5650  0.1540 -0.2184
 4235SOL    HW124164   2.319   2.723   1.196  1.7567  2.1369 -0.8522
 4235SOL    HW224165   2.296   2.844   1.122  0.2996 -0.0734  0.0128
 4236SOL     OW24166   2.961   2.280   5.511 -0.2864 -0.9777 -0.6274
 4236SOL    HW124167   2.866   2.294   5.505 -0.3954 -0.2907  2.7232
 4236SOL    HW224168   2.969   2.230   5.592  1.0760 -0.3429 -0.3668
 4237SOL     OW24169   3.887   4.531   3.532  0.3996  0.4885  0.4822
 4237SOL    HW124170   3.973   4.572   3.519  2.1899 -3.4048 -0.1842
 4237SOL    HW224171   3.879   4.474   3.456 -0.6236 -0.7968  1.5544
 4238SOL     OW24172   3.184   2.180   7.934  0.3339  0.8942 -0.0717
 4238SOL    HW124173   3.222   2.249   7.989  2.4296  0.0909 -0.5041
 4238SOL    HW224174   3.141   2.116   7.991 -0.5956  0.9442 -0.7111
 4239SOL     OW24175   3.432   3.673   5.572 -0.4282  0.1924  0.1384
 4239SOL    HW124176   3.434   3.765   5.548  0.8840 -0.6657 -3.0582
 4239SOL    HW224177   3.338   3.656   5.579  0.1934 -3.6107 -0.8101
 4240SOL     OW24178   0.232   4.633   7.514 -0.1076  0.5414  0.0741
 4240SOL    HW124179   0.265   4.554   7.558  0.3523 -0.5286 -2.1959
 4240SOL    HW224180   0.139   4.610   7.508  0.1373 -0.6380  0.7089
 4241SOL     OW24181   2.913   0.028   8.102  0.1054  0.3305  0.3000
 4241SOL    HW124182   2.893   0.110   8.057  0.1230  0.2748  0.1886
 4241SOL    HW224183   2.984   0.070   8.150 -0.3902 -0.1696  1.4765
 4242SOL     OW24184   2.058   4.138   3.486  0.1103 -0.8472  0.1280
 4242SOL    HW124185   2.014   4.119   3.404  2.9103  0.9891 -1.8269
 4242SOL    HW224186   2.144   4.098   3.473 -0.7674 -3.0995  1.4190
 4243SOL     OW24187   4.253   3.179   8.491  0.3105 -0.0647 -0.0244
 4243SOL    HW124188   4.286   3.217   8.410  1.2104 -1.9292 -0.5034
 4243SOL    HW224189   4.241   3.087   8.469 -1.2800  0.3323 -0.8461
 4244SOL     OW24190   3.727   4.037   4.884  0.0185  0.7005 -0.1832
 4244SOL    HW124191   3.746   4.131   4.878 -0.0770  0.7039 -0.4292
 4244SOL    HW224192   3.729   4.026   4.979  2.2141  0.3634 -0.2711
 4245SOL     OW24193   0.414   0.782  17.254 -0.3622  0.0517  0.2934
 4245SOL    HW124194   0.326   0.773  17.217 -0.4378  0.3396  0.4021
 4245SOL    HW224195   0.474   0.722  17.210  0.6355  0.8841  0.5101
 4246SOL     OW24196   1.305   2.308   7.173 -0.1597 -0.2455 -0.3720
 4246SOL    HW124197   1.232   2.366   7.196  0.5384  0.5704 -0.2035
 4246SOL    HW224198   1.310   2.262   7.256  1.2432 -2.6495 -1.8080
 4247SOL     OW24199   1.346   0.197   6.002 -0.3871  0.0571  0.0110
 4247SOL    HW124200   1.369   0.256   5.931  0.1573  1.8043  1.6213
 4247SOL    HW224201   1.431   0.191   6.046 -0.5371 -1.8369  0.0489
 4248SOL     OW24202   3.343   4.698   8.788 -0.4759 -0.2594  0.3475
 4248SOL    HW124203   3.291   0.052   8.806 -0.5850 -0.1676 -0.3438
 4248SOL    HW224204   3.281   4.634   8.823 -1.1466  1.1715  1.7580
 4249SOL     OW24205   3.237   0.353  10.098  0.4778 -0.2277  0.0355
 4249SOL    HW124206   3.152   0.325  10.064 -1.0603  2.7655  1.4039
 4249SOL    HW224207   3.267   0.272  10.140 -1.9374 -1.1821 -0.0632
 4250SOL     OW24208   2.444   4.483   4.072 -0.3748 -0.2222  0.4408
 4250SOL    HW124209   2.349   4.471   4.078 -0.4974  1.2940  1.4176
 4250SOL    HW224210   2.466   4.395   4.040 -0.4040 -0.4593  1.0657
 4251SOL     OW24211   1.643   2.841   9.276 -0.3661 -0.5173  0.3930
 4251SOL    HW124212   1.569   2.785   9.301 -0.9776  0.2162  0.1953
 4251SOL    HW224213   1.689   2.834   9.360 -1.7152  0.2299  1.1866
 4252SOL     OW24214   3.093   1.670   5.163  0.2803  0.0456  0.2258
 4252SOL    HW124215   3.007   1.636   5.138 -0.1255  0.3571  1.1753
 4252SOL    HW224216   3.119   1.724   5.089 -1.1892  0.8086  0.2673
 4253SOL     OW24217   3.371   3.906   5.449 -0.0508  0.4614 -0.6396
 4253SOL    HW124218   3.281   3.887   5.423  0.4174 -1.9144 -0.4965
 4253SOL    HW224219   3.355   3.992   5.489  0.2798  0.1443  0.1706
 4254SOL     OW24220   3.577   0.020  11.418 -0.1880 -0.0165  0.3546
 4254SOL    HW124221   3.511   0.029  11.487  0.7221  0.6368  1.1480
 4254SOL    HW224222   3.562   0.106  11.378 -1.2215  0.5197  1.9013
 4255SOL     OW24223   3.631   3.575   9.274 -0.4376 -0.1652 -0.1640
 4255SOL    HW124224   3.622   3.575   9.370 -1.8661  2.0499 -0.2949
 4255SOL    HW224225   3.620   3.483   9.250 -0.0514  0.1560 -1.5416
 4256SOL     OW24226   4.190   0.760   8.860  0.4989  0.3088  0.4176
 4256SOL    HW124227   4.240   0.837   8.834 -1.6095  1.3890 -0.4410
 4256SOL    HW224228   4.170   0.724   8.774  2.0496  0.7102 -0.1205
 4257SOL     OW24229   1.633   0.008   8.395  0.2779 -0.3004 -0.3923
 4257SOL    HW124230   1.584   0.086   8.420  0.8007  0.1303 -0.7281
 4257SOL    HW224231   1.719   0.046   8.379 -0.2685  1.1529  0.1717
 4258SOL     OW24232   4.142   0.364   0.266  0.3426 -0.3411 -0.3292
 4258SOL    HW124233   4.204   0.361   0.340  0.9312  0.0376 -0.8059
 4258SOL    HW224234   4.088   0.287   0.284 -0.0918  0.1920  0.6874
 4259SOL     OW24235   2.656   0.221   9.168  0.3213  0.3219 -0.1411
 4259SOL    HW124236   2.721   0.150   9.168 -0.6640 -0.5811 -1.6743
 4259SOL    HW224237   2.575   0.172   9.179 -0.5693  2.3576  2.2203
 4260SOL     OW24238   1.859   3.473  17.650  0.0937 -0.1366  0.4837
 4260SOL    HW124239   1.896   3.389  17.678 -0.0525 -0.3059  0.1785
 4260SOL    HW224240   1.781   3.462   0.007 -1.9192  2.2328 -1.9089
 4261SOL     OW24241   1.686   0.117   9.408 -0.2964 -0.1279  0.8117
 4261SOL    HW124242   1.658   0.107   9.317 -1.6848 -0.5608  1.2836
 4261SOL    HW224243   1.760   0.174   9.389 -0.9202  0.5801  0.5167
 4262SOL     OW24244   0.932   1.650  15.766 -0.1519  0.0350  0.1094
 4262SOL    HW124245   0.955   1.563  15.735  1.0109  0.4368 -0.1380
 4262SOL    HW224246   1.020   1.670  15.798  0.3451 -1.1106 -0.5514
 4263SOL     OW24247   3.922   1.021  16.753 -0.4904  0.6853 -0.1872
 4263SOL    HW124248   3.864   0.948  16.774  0.2430 -0.0713 -0.8363
 4263SOL    HW224249   3.908   1.039  16.660 -1.0174  1.3351  0.0117
 4264SOL     OW24250   3.387   2.692   7.829 -0.7202  0.0151 -0.0181
 4264SOL    HW124251   3.466   2.652   7.864 -2.0778  0.0130  3.0299
 4264SOL    HW224252   3.330   2.698   7.906  0.1914  0.7716  0.5854
 4265SOL     OW24253   2.971   0.691  11.032 -0.2286 -0.4449  0.7289
 4265SOL    HW124254   3.030   0.646  11.093 -1.3911 -1.2453  1.2512
 4265SOL    HW224255   3.019   0.772  11.015 -1.3028 -0.1535 -0.9107
 4266SOL     OW24256   3.478   2.339  13.773  0.0882 -0.1655  0.0253
 4266SOL    HW124257   3.386   2.365  13.778 -0.1826 -0.8534 -1.5482
 4266SOL    HW224258   3.493   2.335  13.679 -0.0915  2.3444 -0.1215
 4267SOL     OW24259   0.673   0.092   6.305  0.5422 -0.2873 -0.2183
 4267SOL    HW124260   0.761   0.073   6.275 -0.0611 -1.8068 -1.0533
 4267SOL    HW224261   0.643   0.146   6.232  0.4304  0.4054  0.3521
 4268SOL     OW24262   1.637   4.103   6.267 -0.2141  0.3970 -0.1094
 4268SOL    HW124263   1.566   4.042   6.285 -1.1221  1.4894  0.0353
 4268SOL    HW224264   1.701   4.045   6.226  0.3853 -0.2043  1.7019
 4269SOL     OW24265   2.352   1.710   1.012 -0.0251 -0.4084  0.4116
 4269SOL    HW124266   2.424   1.684   1.070 -1.1509 -0.6968  1.6960
 4269SOL    HW224267   2.287   1.739   1.077  1.0488 -1.0125  1.7566
 4270SOL     OW24268   0.783   0.874   7.327 -0.0271  0.0012  0.2766
 4270SOL    HW124269   0.860   0.840   7.372  0.9121 -0.5049 -1.7402
 4270SOL    HW224270   0.793   0.967   7.347  1.7007 -0.7455  2.8089
 4271SOL     OW24271   2.763   1.438  16.335 -0.2021  0.5922  0.2275
 4271SOL    HW124272   2.815   1.368  16.295 -0.5406  0.4637  0.0043
 4271SOL    HW224273   2.677   1.417  16.299  0.6982 -1.2349 -0.8790
 4272SOL     OW24274   3.187   3.894   2.748  0.3376  0.6493  0.3934
 4272SOL    HW124275   3.163   3.835   2.819  0.8331  1.8793  1.5952
 4272SOL    HW224276   3.151   3.851   2.671 -1.8020  2.0232  0.6261
 4273SOL     OW24277   2.148   1.865  17.430 -0.1537 -0.3692 -0.0875
 4273SOL    HW124278   2.111   1.923  17.497 -3.2532 -1.7504 -0.6439
 4273SOL    HW224279   2.172   1.931  17.364 -1.6349  1.1646  0.9152
 4274SOL     OW24280   0.794   2.276   4.084 -0.5225  0.4993  0.1839
 4274SOL    HW124281   0.774   2.321   4.166  0.8230  0.8446  0.3318
 4274SOL    HW224282   0.705   2.269   4.050  0.8219 -0.0360 -3.1607
 4275SOL     OW24283   3.383   0.855  10.120 -0.5650 -0.3982  0.1348
 4275SOL    HW124284   3.468   0.833  10.082 -0.3659  2.2219 -0.8823
 4275SOL    HW224285   3.344   0.768  10.112  1.0056 -1.1121  0.3672
 4276SOL     OW24286   2.771   3.342   0.090 -0.2045 -0.6339 -0.5448
 4276SOL    HW124287   2.774   3.354   0.185  0.0804  1.1019 -0.7761
 4276SOL    HW224288   2.864   3.321   0.076  0.3149 -0.6748  2.7932
 4277SOL     OW24289   0.244   0.018  17.430 -0.1657  0.7201  0.0788
 4277SOL    HW124290   0.202   4.676  17.376  0.4147  0.0776  0.4050
 4277SOL    HW224291   0.288   4.688  17.496 -0.5181 -0.0515 -0.3211
 4278SOL     OW24292   3.653   3.938   3.350  0.9542 -0.2120  0.2084
 4278SOL    HW124293   3.582   3.944   3.414  1.0554  0.8714  0.2176
 4278SOL    HW224294   3.711   4.011   3.369 -0.1008  1.5306 -3.2777
 4279SOL     OW24295   4.302   1.733   5.547 -0.1957  0.3589 -0.0751
 4279SOL    HW124296   4.284   1.785   5.468  0.6549  0.8328  0.0421
 4279SOL    HW224297   4.394   1.711   5.537 -0.5175 -0.1472 -1.8806
 4280SOL     OW24298   4.617   0.689   9.648  0.4101  0.1086 -0.0559
 4280SOL    HW124299   4.677   0.751   9.688 -1.1253  1.1181  0.6863
 4280SOL    HW224300   4.563   0.745   9.592 -0.2574 -0.5452 -0.0781
 4281SOL     OW24301   0.682   3.159  11.863 -0.4877 -0.2015 -0.5182
 4281SOL    HW124302   0.618   3.212  11.815 -1.4266 -0.2182  0.6915
 4281SOL    HW224303   0.719   3.109  11.791  0.0336  0.3249 -0.6208
 4282SOL     OW24304   3.168   0.692   3.348 -0.3004  0.2430 -0.7970
 4282SOL    HW124305   3.212   0.763   3.301  2.2957 -0.6013  0.3590
 4282SOL    HW224306   3.095   0.673   3.289 -1.0478  2.3645 -0.5571
 4283SOL     OW24307   3.215   3.681   5.306  0.1260 -0.1185 -0.7200
 4283SOL    HW124308   3.270   3.668   5.229  2.2211 -1.9018  1.0661
 4283SOL    HW224309   3.171   3.764   5.289  2.3015  1.2046  0.0945
 4284SOL     OW24310   2.365   0.012  13.950  0.2395 -0.0019  0.3355
 4284SOL    HW124311   2.390   4.657  13.999 -1.3963 -1.0286 -0.4751
 4284SOL    HW224312   2.271   0.019  13.967  0.7025  2.4387  1.9098
 4285SOL     OW24313   3.489   1.069   3.010  0.4995 -0.5131  0.5202
 4285SOL    HW124314   3.459   1.123   2.937 -2.4261 -1.7336  0.8170
 4285SOL    HW224315   3.538   1.139   3.053 -1.4949  1.1172  0.1350
 4286SOL     OW24316   1.340   0.766   5.727  0.5741 -0.1332 -0.2430
 4286SOL    HW124317   1.403   0.746   5.796 -0.0445 -1.9135 -0.1829
 4286SOL    HW224318   1.400   0.794   5.658 -0.0303  0.2905 -0.6004
 4287SOL     OW24319   2.824   2.249   7.644 -0.2142  0.2507  0.5395
 4287SOL    HW124320   2.822   2.262   7.549  1.4163 -1.9481  0.2036
 4287SOL    HW224321   2.905   2.294   7.668 -0.9996  1.3104  1.1382
 4288SOL     OW24322   2.504   1.396   2.811 -0.8267 -0.1778 -0.2562
 4288SOL    HW124323   2.413   1.419   2.829 -1.0196 -1.3356  0.2573
 4288SOL    HW224324   2.497   1.355   2.724 -0.9878 -0.7676  0.0355
 4289SOL     OW24325   0.792   4.485  14.261  0.0674  0.4429 -0.3634
 4289SOL    HW124326   0.770   4.576  14.243  0.7385  0.6046 -0.3337
 4289SOL    HW224327   0.884   4.499  14.242  0.3524  0.2860  0.8831
 4290SOL     OW24328   2.563   0.502   3.256  0.0172  0.3473  0.3668
 4290SOL    HW124329   2.519   0.576   3.214  1.6505 -0.0554 -2.0380
 4290SOL    HW224330   2.649   0.542   3.243  1.4800 -2.0944  2.6800
 4291SOL     OW24331   4.225   0.361   8.966 -0.1090  0.1031  0.1537
 4291SOL    HW124332   4.313   0.362   8.931  0.3171  0.9194  1.2388
 4291SOL    HW224333   4.206   0.270   8.943  0.7309 -0.0573  0.0949
 4292SOL     OW24334   1.657   1.422  12.665  0.8068 -0.2840  0.3397
 4292SOL    HW124335   1.626   1.340  12.627 -1.1261  0.2217  0.8358
 4292SOL    HW224336   1.751   1.410  12.676  0.8613 -1.6842 -1.7206
 4293SOL     OW24337   4.446   2.909   9.006 -0.1523 -0.1564 -0.3711
 4293SOL    HW124338   4.401   2.943   9.084  2.3583 -1.3081  1.5728
 4293SOL    HW224339   4.488   2.989   8.975 -3.5435  2.4764  1.7254
 4294SOL     OW24340   1.791   0.651   2.324 -0.7956  0.0449 -0.5398
 4294SOL    HW124341   1.746   0.677   2.243  1.6897  0.9588 -1.6224
 4294SOL    HW224342   1.829   0.739   2.336 -1.0483 -0.0045  0.6154
 4295SOL     OW24343   0.085   0.320  10.633 -0.3432 -0.2969 -1.0593
 4295SOL    HW124344   0.054   0.404  10.599 -0.3380  0.2414  0.2566
 4295SOL    HW224345   0.005   0.273  10.610  0.1789 -0.7673 -1.9163
 4296SOL     OW24346   3.078   1.342   3.683  0.5004 -0.3900 -0.3326
 4296SOL    HW124347   2.996   1.358   3.638  0.5134 -2.8445 -1.2258
 4296SOL    HW224348   3.137   1.299   3.621 -0.2377  0.7848 -1.8292
 4297SOL     OW24349   0.085   0.156   2.414 -0.6815  0.3873  0.0657
 4297SOL    HW124350   4.721   0.163   2.377 -0.1057 -1.0036 -1.6194
 4297SOL    HW224351   0.060   0.157   2.506 -1.8155 -0.5502 -0.2345
 4298SOL     OW24352   2.967   1.475   7.082 -0.2143 -0.7778 -0.8783
 4298SOL    HW124353   2.951   1.383   7.061  3.1483 -1.5498 -0.0237
 4298SOL    HW224354   2.924   1.483   7.167  1.9578 -2.5101  0.3701
 4299SOL     OW24355   1.507   3.279   6.719 -0.1055  0.6422  0.0833
 4299SOL    HW124356   1.597   3.255   6.700 -0.0555 -0.9924  2.4805
 4299SOL    HW224357   1.456   3.202   6.694  1.3851 -0.1921 -0.3276
 4300SOL     OW24358   4.404   3.927   4.562 -0.0880 -0.2882  0.0785
 4300SOL    HW124359   4.409   3.924   4.658 -1.1872  1.3869  0.1823
 4300SOL    HW224360   4.426   4.016   4.537 -1.2978  0.4606  1.6401
 4301SOL     OW24361   2.160   1.595  15.162 -0.0359  0.2556 -0.3616
 4301SOL    HW124362   2.149   1.651  15.240  0.0667  0.1175 -0.2482
 4301SOL    HW224363   2.127   1.651  15.092  0.0737 -1.5194 -1.8346
 4302SOL     OW24364   4.682   0.536   9.404 -0.1003  0.1207 -0.3186
 4302SOL    HW124365   4.657   0.562   9.493 -3.7969 -0.3706 -1.2185
 4302SOL    HW224366   0.053   0.531   9.415 -0.1480 -1.1216 -0.4801
 4303SOL     OW24367   4.346   0.193   3.168 -0.6188 -0.3033  0.3185
 4303SOL    HW124368   4.437   0.169   3.183  0.1504  1.4252 -1.5971
 4303SOL    HW224369   4.335   0.270   3.223  1.4042 -1.1743  1.9682
 4304SOL     OW24370   2.349   2.119  11.777 -0.1408 -0.2139  0.2026
 4304SOL    HW124371   2.336   2.124  11.872  1.8940 -0.3441  0.4904
 4304SOL    HW224372   2.445   2.120  11.777 -0.1354 -0.0424  3.9923
 4305SOL     OW24373   2.440   0.622  15.956  1.2082  0.8952  0.2384
 4305SOL    HW124374   2.406   0.708  15.982 -0.0629  0.3026  0.5174
 4305SOL    HW224375   2.487   0.651  15.877  1.4917 -1.7314 -0.5484
 4306SOL     OW24376   3.944   3.293  16.790 -0.1619 -0.1611 -0.1793
 4306SOL    HW124377   4.036   3.267  16.793  0.2574  1.2749 -0.5451
 4306SOL    HW224378   3.957   3.370  16.846  2.0092  0.9231 -2.1643
 4307SOL     OW24379   2.865   1.352  15.290  0.5952 -1.0004  0.0640
 4307SOL    HW124380   2.887   1.431  15.339  1.3893 -1.4689  0.4547
 4307SOL    HW224381   2.803   1.387  15.225  1.7417 -2.4957 -1.8433
 4308SOL     OW24382   1.793   4.514   5.455 -0.0568 -0.4433  0.1529
 4308SOL    HW124383   1.787   4.594   5.508  1.1434  0.4392 -1.0482
 4308SOL    HW224384   1.700   4.500   5.437  0.1419 -2.4473  0.7137
 4309SOL     OW24385   2.339   2.269   7.002  0.1009 -0.5127 -0.4478
 4309SOL    HW124386   2.310   2.302   6.917 -0.2582 -2.4251 -1.0917
 4309SOL    HW224387   2.389   2.345   7.030 -1.6110  0.8413 -1.0961
 4310SOL     OW24388   3.378   1.185   6.629 -0.2305  0.3281 -0.3287
 4310SOL    HW124389   3.398   1.099   6.667  1.3784  0.0875 -1.6950
 4310SOL    HW224390   3.338   1.153   6.548 -2.6814 -0.0252  1.0287
 4311SOL     OW24391   4.501   0.378   9.226  0.1483 -0.7705  0.3705
 4311SOL    HW124392   4.542   0.351   9.144 -0.9494 -1.8983  0.1829
 4311SOL    HW224393   4.576   0.375   9.285  0.6811  1.9186 -0.1975
 4312SOL     OW24394   4.121   0.170   9.192  0.5087 -0.1497 -0.7103
 4312SOL    HW124395   4.098   0.169   9.099 -2.9240  1.1350  0.0999
 4312SOL    HW224396   4.081   0.251   9.224 -0.2049 -0.9045  0.3229
 4313SOL     OW24397   3.542   3.000   2.790 -0.0743 -0.3028 -0.3683
 4313SOL    HW124398   3.474   2.962   2.734  2.4708 -1.1689 -2.8232
 4313SOL    HW224399   3.611   2.936   2.775 -0.2537  0.1766 -3.2016
 4314SOL     OW24400   3.593   0.923  14.401 -0.3106  0.2058 -0.4496
 4314SOL    HW124401   3.661   0.884  14.345 -1.6220 -2.6288 -0.0142
 4314SOL    HW224402   3.522   0.949  14.342 -0.0776 -2.4000 -1.8829
 4315SOL     OW24403   4.673   3.114   9.652  0.4490 -0.2679 -0.3282
 4315SOL    HW124404   0.045   3.106   9.650  0.4267 -1.0056  1.2208
 4315SOL    HW224405   4.665   3.209   9.656  0.2835 -0.2380 -1.4671
 4316SOL     OW24406   2.901   2.117   0.387  0.1322 -0.2812  0.5040
 4316SOL    HW124407   2.844   2.061   0.334  0.5571  1.0848 -1.4160
 4316SOL    HW224408   2.847   2.138   0.463 -1.0595  0.9779 -0.6583
 4317SOL     OW24409   0.989   1.212   3.883 -0.1505  0.3458  0.4444
 4317SOL    HW124410   1.071   1.195   3.838 -0.8380 -0.1756 -0.6130
 4317SOL    HW224411   0.971   1.301   3.854 -2.1205 -0.6061 -1.2522
 4318SOL     OW24412   3.832   0.634   4.054 -0.4073 -0.1958 -0.0490
 4318SOL    HW124413   3.861   0.543   4.061  0.0397 -0.0414  0.1438
 4318SOL    HW224414   3.748   0.637   4.099 -0.7644 -1.3683 -0.6260
 4319SOL     OW24415   1.634   1.999   6.699  0.8190  0.1346 -0.1844
 4319SOL    HW124416   1.591   1.913   6.693  2.3855 -0.4792 -2.8814
 4319SOL    HW224417   1.669   1.988   6.787 -1.6624  1.0044  0.9187
 4320SOL     OW24418   2.581   2.373   2.805  0.3522  0.1674  0.4491
 4320SOL    HW124419   2.572   2.465   2.778 -1.2751 -0.1628 -0.1081
 4320SOL    HW224420   2.547   2.335   2.724  0.5795  1.8772 -0.4697
 4321SOL     OW24421   1.023   0.686   6.877 -0.5797  0.3570 -0.2116
 4321SOL    HW124422   1.068   0.746   6.817  0.5059 -0.6912 -0.4463
 4321SOL    HW224423   0.931   0.699   6.853  0.2131 -0.0467 -3.5182
 4322SOL     OW24424   1.140   1.416   4.816  0.3041  0.7955 -0.5059
 4322SOL    HW124425   1.065   1.409   4.756  0.3683  0.9776 -0.6063
 4322SOL    HW224426   1.121   1.354   4.886  0.1211  2.3650  0.8282
 4323SOL     OW24427   2.299   0.171   9.425  0.4223 -0.2983  0.3167
 4323SOL    HW124428   2.281   0.178   9.519  1.1745  0.5281  0.3942
 4323SOL    HW224429   2.214   0.144   9.389  0.3566 -0.1807  0.3862
 4324SOL     OW24430   1.000   0.494  12.390  0.1748 -0.2835  0.2265
 4324SOL    HW124431   0.945   0.569  12.366 -0.1413 -0.4850  0.3125
 4324SOL    HW224432   1.071   0.518  12.450 -1.3701  0.0351  1.9354
 4325SOL     OW24433   3.334   1.426   4.177 -0.5898  0.0776 -0.4446
 4325SOL    HW124434   3.412   1.481   4.191  1.5060 -3.0903  0.1536
 4325SOL    HW224435   3.317   1.463   4.090  1.0328 -1.7856 -1.5760
 4326SOL     OW24436   3.318   1.447   9.320 -0.7586  0.0391  0.5244
 4326SOL    HW124437   3.363   1.362   9.329 -0.8158 -0.1139 -0.6796
 4326SOL    HW224438   3.289   1.436   9.230 -0.3007 -0.4808  0.4333
 4327SOL     OW24439   1.118   1.812   5.428 -0.1894  0.2558 -0.5226
 4327SOL    HW124440   1.149   1.833   5.516  0.8371  0.0849 -0.8338
 4327SOL    HW224441   1.203   1.808   5.384 -1.3202  1.6725 -2.8346
 4328SOL     OW24442   2.757   1.943  15.530 -0.2736 -0.1365 -0.5325
 4328SOL    HW124443   2.681   1.893  15.560  0.7689 -2.3536 -1.5691
 4328SOL    HW224444   2.833   1.904  15.572 -0.5785 -0.1931 -0.0317
 4329SOL     OW24445   2.053   0.284   9.951  0.3616 -0.1800 -0.1716
 4329SOL    HW124446   2.135   0.282   9.999  0.2533  0.3174  0.0307
 4329SOL    HW224447   2.011   0.357   9.995  1.1406  0.4951 -0.5521
 4330SOL     OW24448   0.627   4.371   6.994  0.4989 -0.1353  0.2462
 4330SOL    HW124449   0.539   4.336   7.009  0.4397  0.2300  0.7452
 4330SOL    HW224450   0.621   4.451   6.942 -3.4731  0.8416  2.2017
 4331SOL     OW24451   2.720   3.738  12.445 -0.7729  0.0362  0.5262
 4331SOL    HW124452   2.698   3.814  12.500  0.5503  0.6396  0.2275
 4331SOL    HW224453   2.809   3.766  12.419 -0.7590 -0.6730 -0.1939
 4332SOL     OW24454   1.217   2.227   4.792  0.5238  0.2801  0.1559
 4332SOL    HW124455   1.248   2.286   4.724 -0.8154  0.9479  0.1218
 4332SOL    HW224456   1.270   2.150   4.770 -0.6270 -0.5170  0.1616
 4333SOL     OW24457   3.792   0.610   4.379 -0.0236 -0.4979  0.1030
 4333SOL    HW124458   3.880   0.638   4.404 -0.4514  1.0336 -0.1537
 4333SOL    HW224459   3.800   0.517   4.356 -1.0178 -0.2082 -1.3748
 4334SOL     OW24460   1.752   0.950   7.227 -0.5411 -0.4572 -0.2963
 4334SOL    HW124461   1.799   0.974   7.148 -1.9052  0.8363 -0.7215
 4334SOL    HW224462   1.787   1.013   7.291 -1.4072  1.2568 -1.5074
 4335SOL     OW24463   3.129   1.503   5.613  0.1923  0.2189  0.2703
 4335SOL    HW124464   3.115   1.470   5.525  0.9098  1.3519 -0.2706
 4335SOL    HW224465   3.219   1.535   5.604  0.5920 -1.2581 -0.9912
 4336SOL     OW24466   1.960   2.391   4.314 -0.6656 -0.3560 -0.3490
 4336SOL    HW124467   1.943   2.323   4.379 -0.2001  0.9811  1.1864
 4336SOL    HW224468   1.931   2.460   4.373  1.0871  0.8798 -0.9205
 4337SOL     OW24469   4.240   4.522   6.144 -0.0489 -0.5264  0.0254
 4337SOL    HW124470   4.259   4.541   6.236 -2.4019 -1.6064  0.7186
 4337SOL    HW224471   4.289   4.602   6.122 -0.1444 -0.4473  0.1052
 4338SOL     OW24472   2.012   0.848   6.701  0.0363  0.5685  0.1961
 4338SOL    HW124473   2.001   0.780   6.768 -0.2601  1.1963  0.7883
 4338SOL    HW224474   1.922   0.878   6.694 -0.0714  0.3258  0.5042
 4339SOL     OW24475   0.366   4.378   3.121  0.3122 -0.0010  0.1476
 4339SOL    HW124476   0.447   4.419   3.091 -0.2532  0.5002 -0.7168
 4339SOL    HW224477   0.399   4.291   3.138  1.4769  0.8046  1.9579
 4340SOL     OW24478   3.532   2.714   9.452 -0.0022 -0.3910 -0.2273
 4340SOL    HW124479   3.603   2.737   9.391  0.9054 -2.3246  0.1072
 4340SOL    HW224480   3.565   2.630   9.484 -0.9713 -0.1784  1.2895
 4341SOL     OW24481   2.663   2.849   7.522  0.3872 -0.4548  0.0318
 4341SOL    HW124482   2.691   2.766   7.561  0.9850 -1.2486 -2.1078
 4341SOL    HW224483   2.639   2.905   7.596  0.2222 -2.2622  1.3730
 4342SOL     OW24484   1.149   1.544   4.138 -0.6821 -0.2237 -0.5444
 4342SOL    HW124485   1.195   1.554   4.055  1.3066 -0.7789  0.5101
 4342SOL    HW224486   1.210   1.602   4.184  0.2894 -2.7034  1.3291
 4343SOL     OW24487   1.807   2.970   4.968 -0.1951  0.7415 -0.1050
 4343SOL    HW124488   1.746   3.041   4.949  1.4944  2.0360 -0.7150
 4343SOL    HW224489   1.753   2.912   5.023  1.8545 -0.4743  0.6255
 4344SOL     OW24490   3.763   0.614   7.520 -0.0522 -0.2750 -0.0409
 4344SOL    HW124491   3.697   0.546   7.505  0.1508 -0.4873  0.0222
 4344SOL    HW224492   3.807   0.619   7.435  0.1283  0.8619  0.1178
 4345SOL     OW24493   1.125   1.958  11.367 -0.0370  0.1095 -0.1668
 4345SOL    HW124494   1.195   2.001  11.317 -1.5497 -0.8357 -3.0697
 4345SOL    HW224495   1.130   1.872  11.326 -0.2518  1.2923 -2.6266
 4346SOL     OW24496   4.457   3.681   7.385  0.7101 -0.0004 -0.0051
 4346SOL    HW124497   4.415   3.640   7.460 -0.3044  1.0379 -0.0060
 4346SOL    HW224498   4.445   3.625   7.309  1.7303  1.8740 -1.5634
 4347SOL     OW24499   0.341   2.383   8.884 -0.2130  0.3569 -0.4251
 4347SOL    HW124500   0.365   2.465   8.842  0.7333  0.0426 -0.4829
 4347SOL    HW224501   0.344   2.405   8.977 -0.5638  1.3824 -0.6624
 4348SOL     OW24502   1.101   2.426   7.317 -0.2553  0.1617  0.5576
 4348SOL    HW124503   1.089   2.495   7.382 -0.2161  2.8918 -2.3181
 4348SOL    HW224504   1.009   2.405   7.302 -0.3320 -0.1198  1.4493
 4349SOL     OW24505   4.430   2.389  10.406 -0.1140  0.0546  0.8464
 4349SOL    HW124506   4.360   2.444  10.370  1.7947  0.0905 -2.7410
 4349SOL    HW224507   4.476   2.350  10.332  0.9763 -1.6391  2.4098
 4350SOL     OW24508   0.933   3.310   2.571  0.1035 -0.0327  0.2201
 4350SOL    HW124509   0.870   3.249   2.534 -0.0361  0.0737  0.2823
 4350SOL    HW224510   1.010   3.254   2.579 -0.3206 -0.6583 -0.1116
 4351SOL     OW24511   1.991   2.699   1.926 -0.0082  0.4382 -0.6412
 4351SOL    HW124512   2.038   2.679   1.845  0.3917 -0.5877 -0.1543
 4351SOL    HW224513   1.912   2.745   1.900  0.4427 -0.0642 -2.8562
 4352SOL     OW24514   0.035   1.002   5.465 -0.0255 -0.4670 -0.1425
 4352SOL    HW124515   0.130   1.013   5.461  0.0474 -0.2004  1.8875
 4352SOL    HW224516   0.009   1.094   5.457  1.2021 -0.1186 -0.1396
 4353SOL     OW24517   4.386   3.608   7.891  0.9043 -0.2862  0.3433
 4353SOL    HW124518   4.385   3.558   7.973 -1.3187 -1.9496 -0.6895
 4353SOL    HW224519   4.470   3.654   7.898  0.5806  0.0816  1.7374
 4354SOL     OW24520   3.297   3.890   5.814 -0.0667  0.0998 -0.0401
 4354SOL    HW124521   3.355   3.966   5.810 -0.5263  0.3559 -1.7177
 4354SOL    HW224522   3.254   3.904   5.898 -0.3215  0.2962 -0.2047
 4355SOL     OW24523   2.995   0.711   5.503 -0.0479 -0.4561  0.1882
 4355SOL    HW124524   2.949   0.752   5.429  1.7367  2.9242  0.9301
 4355SOL    HW224525   2.941   0.633   5.516 -0.4207 -0.0905  0.9125
 4356SOL     OW24526   2.293   1.459   8.874  0.3970  0.6651  0.0339
 4356SOL    HW124527   2.343   1.538   8.853  0.6107  1.3058  2.9060
 4356SOL    HW224528   2.373   1.406   8.876  0.2583  0.4014 -1.7380
 4357SOL     OW24529   0.552   4.163  10.844 -0.3300 -0.0468  0.5114
 4357SOL    HW124530   0.471   4.116  10.863 -0.6340  1.4280  2.9008
 4357SOL    HW224531   0.581   4.193  10.930  2.7693 -0.6343 -0.3103
 4358SOL     OW24532   3.972   4.618   9.822 -0.7144  0.3126 -0.1786
 4358SOL    HW124533   3.932   4.607   9.908  1.1142  2.4223  0.9623
 4358SOL    HW224534   3.896   4.659   9.781 -0.7059  1.0768  0.5659
 4359SOL     OW24535   1.410   3.536   4.418 -0.3719 -0.8112  0.2266
 4359SOL    HW124536   1.356   3.477   4.471  0.6264 -2.6232 -0.7876
 4359SOL    HW224537   1.494   3.529   4.463  0.3687 -0.5649 -1.1469
 4360SOL     OW24538   4.515   4.208  10.288  0.1599 -0.2458  0.0446
 4360SOL    HW124539   4.603   4.211  10.326 -0.8099 -1.3641  2.3697
 4360SOL    HW224540   4.466   4.235  10.366 -0.6869  1.3975 -1.0620
 4361SOL     OW24541   3.479   4.252   2.854 -0.2042 -0.6006 -0.0908
 4361SOL    HW124542   3.497   4.161   2.876  0.1292 -0.8758 -1.5054
 4361SOL    HW224543   3.385   4.242   2.870 -0.2088 -2.0471 -1.1210
 4362SOL     OW24544   2.162   2.062   3.273 -0.6176  0.0933  0.5432
 4362SOL    HW124545   2.249   2.092   3.246 -1.5356  1.8488 -0.5197
 4362SOL    HW224546   2.167   2.074   3.367  0.4298 -2.6785  0.8282
 4363SOL     OW24547   1.415   3.915   7.526  0.3706 -0.3039 -0.0617
 4363SOL    HW124548   1.381   3.852   7.590  2.0888 -1.5419 -0.3583
 4363SOL    HW224549   1.416   3.991   7.584 -1.4560 -0.6499  0.4029
 4364SOL     OW24550   0.643   3.595   7.910  0.3535 -0.7718  0.0086
 4364SOL    HW124551   0.682   3.683   7.902  1.4419 -1.2365  0.2046
 4364SOL    HW224552   0.666   3.563   7.997 -1.2381 -0.1578  0.6561
 4365SOL     OW24553   3.088   0.565   8.626  0.0498  0.2415 -0.0655
 4365SOL    HW124554   3.080   0.586   8.533 -1.0943  1.6775  0.3709
 4365SOL    HW224555   3.092   0.469   8.619 -0.7269  0.0949  1.6453
 4366SOL     OW24556   1.080   2.098   3.850  0.2621  0.4740  0.3353
 4366SOL    HW124557   1.056   2.008   3.871 -2.4743  0.6673 -2.0161
 4366SOL    HW224558   1.132   2.095   3.769 -0.4029 -0.0377 -0.0695
 4367SOL     OW24559   0.759   2.202  15.105 -0.3199 -0.0178 -0.3219
 4367SOL    HW124560   0.845   2.209  15.146 -0.3345  1.0753 -0.4729
 4367SOL    HW224561   0.738   2.291  15.077 -0.2673 -0.0078 -0.3304
 4368SOL     OW24562   4.578   0.998   8.419  0.2139 -0.0056 -0.0744
 4368SOL    HW124563   4.630   1.034   8.347 -0.4563  2.2832  0.5823
 4368SOL    HW224564   4.592   1.061   8.489 -1.1173 -1.9026  1.8991
 4369SOL     OW24565   0.386   4.211   1.557 -0.4328  0.2730 -0.2187
 4369SOL    HW124566   0.296   4.225   1.528 -1.4952 -0.7931  2.5178
 4369SOL    HW224567   0.429   4.296   1.543  0.6964 -0.5653 -1.7326
 4370SOL     OW24568   1.564   2.641   1.942 -0.3728  0.1534 -0.0321
 4370SOL    HW124569   1.640   2.694   1.921  0.0476 -0.1307  0.7649
 4370SOL    HW224570   1.602   2.560   1.976 -0.0381 -0.7433 -2.5430
 4371SOL     OW24571   4.262   3.707   2.074  0.1445  0.6720 -0.1529
 4371SOL    HW124572   4.229   3.791   2.105  0.2472  0.6341  0.0522
 4371SOL    HW224573   4.194   3.645   2.102  1.4679  0.1631  1.8823
 4372SOL     OW24574   3.540   3.177   9.506  0.0810 -0.3340 -0.0708
 4372SOL    HW124575   3.504   3.148   9.590 -0.1060 -0.1884 -0.1002
 4372SOL    HW224576   3.617   3.123   9.489  1.2308  1.5235 -0.8146
 4373SOL     OW24577   0.451   1.212   2.294 -1.0460 -0.0337  0.2723
 4373SOL    HW124578   0.485   1.175   2.213 -2.2682 -0.1284 -0.1990
 4373SOL    HW224579   0.356   1.203   2.289 -0.7808 -1.7483 -1.7481
 4374SOL     OW24580   3.721   0.152   1.600 -0.3173 -0.3504  0.1010
 4374SOL    HW124581   3.649   0.103   1.640  0.4181 -3.3277 -2.1962
 4374SOL    HW224582   3.799   0.119   1.644  0.9765  1.6455 -0.7418
 4375SOL     OW24583   2.458   1.508   7.384 -0.3262 -0.3416 -0.7099
 4375SOL    HW124584   2.516   1.556   7.326  1.5023 -1.9770 -0.2318
 4375SOL    HW224585   2.402   1.572   7.428  0.6165  0.4184 -0.6247
 4376SOL     OW24586   0.624   1.951   3.757 -0.1715 -0.0271  0.0269
 4376SOL    HW124587   0.648   1.987   3.842 -0.9272  0.4856  0.0191
 4376SOL    HW224588   0.711   1.944   3.717  0.5085  1.7959  1.1822
 4377SOL     OW24589   1.864   4.046  16.887  0.9397  0.4867 -0.5675
 4377SOL    HW124590   1.797   3.997  16.840  1.2194  1.6527 -2.1960
 4377SOL    HW224591   1.880   4.001  16.970 -0.2579  0.0615 -0.5767
 4378SOL     OW24592   3.774   3.788  15.323  0.5145 -0.4233  0.0626
 4378SOL    HW124593   3.683   3.774  15.350 -0.4952  0.8785 -2.6386
 4378SOL    HW224594   3.811   3.793  15.411 -2.3727 -1.3945  1.3517
 4379SOL     OW24595   4.298   2.094   4.315 -0.4640 -0.6053  0.1394
 4379SOL    HW124596   4.349   2.115   4.393  1.5689 -0.9368 -1.1010
 4379SOL    HW224597   4.212   2.076   4.353 -0.5680  1.6062  0.9510
 4380SOL     OW24598   4.508   3.567   4.796  0.1065  0.5866 -0.1342
 4380SOL    HW124599   4.439   3.563   4.731  1.3254 -1.7259 -1.2557
 4380SOL    HW224600   4.568   3.618   4.741 -0.7098  0.6361 -0.9783
 4381SOL     OW24601   4.088   2.302   6.237 -1.1210 -0.1379 -0.4433
 4381SOL    HW124602   4.078   2.211   6.263 -0.4200  0.0567  0.4956
 4381SOL    HW224603   4.183   2.308   6.226 -1.0729 -0.1585 -0.0372
 4382SOL     OW24604   1.915   2.367   1.402  0.0090 -0.0503 -0.1957
 4382SOL    HW124605   1.938   2.279   1.434  2.8110  0.8521  0.3141
 4382SOL    HW224606   1.927   2.363   1.307  1.6012 -0.4697  0.0212
 4383SOL     OW24607   3.215   0.281  16.327  0.2457  0.5259 -0.2594
 4383SOL    HW124608   3.300   0.293  16.283  1.6427  0.3591  2.3937
 4383SOL    HW224609   3.199   0.192  16.296 -0.2229 -0.1989  2.0851
 4384SOL     OW24610   3.326   1.572  10.016  0.3063  0.0941 -0.4109
 4384SOL    HW124611   3.265   1.577  10.090  2.6864 -0.1175  1.5305
 4384SOL    HW224612   3.304   1.482   9.993 -0.4480  0.5803 -1.6131
 4385SOL     OW24613   0.467   3.875  13.697  0.3662  0.1275  0.1014
 4385SOL    HW124614   0.373   3.861  13.691 -0.0977  3.7835 -1.1971
 4385SOL    HW224615   0.497   3.911  13.614 -1.1502  0.2210 -0.3907
 4386SOL     OW24616   0.507   3.949   0.553 -0.1704  0.4034 -0.2265
 4386SOL    HW124617   0.554   3.865   0.557 -2.4462 -0.8501  0.2853
 4386SOL    HW224618   0.433   3.913   0.504 -0.2667 -2.3288  1.9405
 4387SOL     OW24619   3.783   4.409   7.628 -0.6660  0.3162 -0.2915
 4387SOL    HW124620   3.778   4.379   7.718  1.1785  0.2211 -0.2163
 4387SOL    HW224621   3.690   4.413   7.604 -0.3462 -0.2690 -1.6461
 4388SOL     OW24622   3.609   2.850   9.106  0.2536  0.4605 -0.3316
 4388SOL    HW124623   3.669   2.800   9.161 -1.0426 -1.5039 -0.7168
 4388SOL    HW224624   3.602   2.787   9.035  1.2306  0.6140 -0.5677
 4389SOL     OW24625   0.576   3.958   0.835 -0.5431 -0.0855  0.1850
 4389SOL    HW124626   0.533   3.976   0.751 -1.3018  0.5870  0.7244
 4389SOL    HW224627   0.543   3.872   0.860  1.0828 -0.8781 -0.3653
 4390SOL     OW24628   2.755   2.305   9.269  0.3754 -0.0557  0.1583
 4390SOL    HW124629   2.698   2.250   9.323  0.2287 -1.5885 -1.5539
 4390SOL    HW224630   2.773   2.238   9.203  0.0177  0.9018 -0.9137
 4391SOL     OW24631   3.958   1.137   1.292  0.5149 -0.3177  0.8502
 4391SOL    HW124632   3.976   1.045   1.271 -0.3762 -0.4604  0.7238
 4391SOL    HW224633   3.884   1.146   1.233  1.3289  1.7953  0.1698
 4392SOL     OW24634   2.205   1.907   6.557  0.3016  0.3170  0.1279
 4392SOL    HW124635   2.125   1.957   6.540  0.7717  0.0698 -2.9523
 4392SOL    HW224636   2.259   1.967   6.608 -1.5608  0.1643  2.2499
 4393SOL     OW24637   2.975   1.548  17.605 -0.1378  0.0805 -0.0722
 4393SOL    HW124638   2.966   1.587  17.518 -0.1235 -0.0709 -0.1420
 4393SOL    HW224639   2.931   1.465  17.584 -0.7414  0.5969 -0.8604
 4394SOL     OW24640   3.104   3.513   9.401  0.2322  0.0536 -0.0276
 4394SOL    HW124641   3.199   3.496   9.401  0.2683  0.2550 -0.3340
 4394SOL    HW224642   3.076   3.431   9.361 -2.0247  0.8730 -0.1075
 4395SOL     OW24643   0.175   2.924   0.722  0.1518 -0.6152  0.5519
 4395SOL    HW124644   0.250   2.867   0.738  0.1045 -0.5637  0.9462
 4395SOL    HW224645   0.141   2.882   0.643  0.7995  1.1888 -0.6742
 4396SOL     OW24646   4.067   3.956   4.844  0.2820  0.5303 -0.0951
 4396SOL    HW124647   4.129   4.014   4.888 -0.5139  0.6697  0.8403
 4396SOL    HW224648   3.989   4.006   4.864 -0.2161  1.4707 -4.3166
 4397SOL     OW24649   2.381   0.994   5.087 -0.0903  0.0320 -0.4594
 4397SOL    HW124650   2.305   1.043   5.120 -0.0491 -0.6354  0.6041
 4397SOL    HW224651   2.350   0.963   5.002 -1.1580  0.5696 -0.2711
 4398SOL     OW24652   3.966   3.886   5.134  0.1957  0.1198  0.0714
 4398SOL    HW124653   3.932   3.823   5.070 -0.1660 -0.7117  1.0737
 4398SOL    HW224654   3.907   3.867   5.208  1.2894 -3.2735  0.0760
 4399SOL     OW24655   1.495   2.046   8.089 -0.1070 -0.4188 -0.0846
 4399SOL    HW124656   1.449   1.984   8.145 -0.2892  0.1656  0.4206
 4399SOL    HW224657   1.583   2.032   8.126  0.3257 -2.1459 -1.8147
 4400SOL     OW24658   1.700   4.535   1.792  0.6188  0.5086 -0.4295
 4400SOL    HW124659   1.642   4.611   1.797 -2.7505 -2.0408 -1.2607
 4400SOL    HW224660   1.687   4.506   1.702  1.8054 -0.4727 -0.2885
 4401SOL     OW24661   2.146   0.434  13.964  0.0137 -0.0298 -0.3558
 4401SOL    HW124662   2.128   0.365  13.899 -2.1803  0.2338 -0.0225
 4401SOL    HW224663   2.058   0.447  13.999 -0.5193  0.2834 -1.8052
 4402SOL     OW24664   0.160   1.948   8.901  0.1084  0.0141  0.3297
 4402SOL    HW124665   0.138   1.861   8.867 -1.4009  0.9308 -1.0230
 4402SOL    HW224666   0.189   1.922   8.989 -1.2078 -1.0234  0.4587
 4403SOL     OW24667   0.134   3.112   5.517 -0.2119 -0.1653 -0.2885
 4403SOL    HW124668   0.128   3.027   5.474  0.6334 -0.8590  0.9372
 4403SOL    HW224669   0.165   3.171   5.448 -0.8128 -0.8962 -1.1744
 4404SOL     OW24670   1.985   2.316  17.174  0.8718 -0.3349  0.4628
 4404SOL    HW124671   2.069   2.347  17.206  1.2605  1.1483 -1.9945
 4404SOL    HW224672   1.961   2.273  17.256 -1.5150  0.3519  0.1215
 4405SOL     OW24673   4.484   3.344   0.393  0.3751 -0.3269 -0.1153
 4405SOL    HW124674   4.392   3.343   0.366  0.3113  1.2224  0.0434
 4405SOL    HW224675   4.496   3.432   0.430  0.0427 -0.7612  1.0387
 4406SOL     OW24676   0.315   3.345   3.873  0.0351  0.5735  0.1015
 4406SOL    HW124677   0.334   3.436   3.852 -1.2213  0.9403  0.5457
 4406SOL    HW224678   0.402   3.310   3.890 -1.2741 -2.4045  0.7388
 4407SOL     OW24679   1.601   4.594   3.315  0.3376  0.1500 -0.2105
 4407SOL    HW124680   1.694   4.584   3.336  0.8193 -2.3545 -3.6307
 4407SOL    HW224681   1.601   4.686   3.339  2.3041  0.2111 -0.4125
 4408SOL     OW24682   4.461   0.305   4.663 -0.0990 -0.4265  0.8234
 4408SOL    HW124683   4.535   0.331   4.718  2.0244 -3.1070 -0.7046
 4408SOL    HW224684   4.426   0.391   4.639  0.4083 -0.3105  0.4861
 4409SOL     OW24685   3.553   4.121   9.393  0.4037 -0.0523  0.4570
 4409SOL    HW124686   3.562   4.033   9.431 -2.2859 -1.2738 -1.6670
 4409SOL    HW224687   3.524   4.170   9.470  0.0808 -2.2353  1.7528
 4410SOL     OW24688   1.268   1.145   5.920 -0.4927  0.3035 -0.1056
 4410SOL    HW124689   1.358   1.169   5.899 -1.0779  0.6317 -2.2207
 4410SOL    HW224690   1.218   1.226   5.908 -1.4291 -0.0415  1.5012
 4411SOL     OW24691   3.758   1.908   4.513 -0.6109  0.0845 -0.2579
 4411SOL    HW124692   3.816   1.834   4.533 -0.7760 -0.3359 -1.3264
 4411SOL    HW224693   3.713   1.920   4.596 -0.7149  5.0466 -1.0594
 4412SOL     OW24694   2.485   2.413  17.219  0.6096 -0.0444  0.1462
 4412SOL    HW124695   2.496   2.418  17.124  1.4228 -1.3326  0.1824
 4412SOL    HW224696   2.501   2.506  17.238 -0.9874 -0.1086  1.8574
 4413SOL     OW24697   2.819   3.939  10.649  0.1097  0.5869 -0.0697
 4413SOL    HW124698   2.891   3.912  10.705  1.3470  2.0670 -0.9413
 4413SOL    HW224699   2.758   3.972  10.715 -0.1832  1.5554 -0.8140
 4414SOL     OW24700   2.072   3.481   0.423  0.1871 -0.5916 -0.4503
 4414SOL    HW124701   2.014   3.550   0.389  0.0974 -0.0855  0.7164
 4414SOL    HW224702   2.033   3.460   0.508  3.9279 -1.8662  0.9557
 4415SOL     OW24703   3.716   1.805  14.345  0.2994 -0.0177 -0.2090
 4415SOL    HW124704   3.716   1.713  14.316  2.3352  0.0662 -0.4271
 4415SOL    HW224705   3.629   1.798  14.384  1.1816 -0.5830  1.6615
 4416SOL     OW24706   2.995   4.188  14.336 -0.2020  0.1868  0.0186
 4416SOL    HW124707   2.945   4.259  14.296  0.9013  0.6719 -0.4925
 4416SOL    HW224708   2.957   4.120  14.281 -0.5101  2.8937 -3.1700
 4417SOL     OW24709   4.595   1.771  14.193 -0.6612 -0.6285  0.4780
 4417SOL    HW124710   4.545   1.750  14.272 -0.7860  2.2595  1.1653
 4417SOL    HW224711   4.554   1.853  14.166 -1.2365 -0.7354  1.0388
 4418SOL     OW24712   0.073   0.132   4.122  0.6873 -0.5978 -0.1113
 4418SOL    HW124713   0.111   0.076   4.190  4.3695  1.4838 -0.4503
 4418SOL    HW224714   0.142   0.120   4.057  0.5975 -3.7152  0.3648
 4419SOL     OW24715   0.752   3.373   5.962 -0.5521 -0.0151  0.4117
 4419SOL    HW124716   0.741   3.409   6.050 -1.0003 -0.6725  0.6245
 4419SOL    HW224717   0.718   3.285   5.973  0.2916 -0.3342  0.5159
 4420SOL     OW24718   0.622   3.950  12.050 -0.1705  0.2630 -0.2772
 4420SOL    HW124719   0.677   3.890  12.100 -1.3209 -1.7075 -1.4133
 4420SOL    HW224720   0.558   3.975  12.116  0.1202  0.5816 -0.1156
 4421SOL     OW24721   3.673   4.021   0.277  0.0375  0.2880  0.4711
 4421SOL    HW124722   3.695   4.100   0.227  2.7426 -1.1434 -0.6281
 4421SOL    HW224723   3.600   3.996   0.221 -0.7529  1.2971  1.0572
 4422SOL     OW24724   2.207   3.665   2.646  0.8125  0.2766 -0.7874
 4422SOL    HW124725   2.117   3.687   2.623  1.1536  2.6165  0.1660
 4422SOL    HW224726   2.218   3.582   2.598 -0.6817  0.3064 -1.1913
 4423SOL     OW24727   0.959   3.214  12.097 -0.3315  0.3583 -0.4204
 4423SOL    HW124728   1.038   3.169  12.069 -2.0932 -1.6690 -2.1957
 4423SOL    HW224729   0.989   3.305  12.101  0.3703  0.0577  1.0089
 4424SOL     OW24730   0.475   2.063   1.277 -0.1174  0.0528 -0.5712
 4424SOL    HW124731   0.526   1.991   1.316 -0.9007  0.7347  1.7209
 4424SOL    HW224732   0.483   2.130   1.345  0.9067  0.6048 -1.2211
 4425SOL     OW24733   3.982   2.779   8.047 -0.5242 -0.3121 -0.1730
 4425SOL    HW124734   3.971   2.874   8.045 -0.0188 -0.1775  3.2674
 4425SOL    HW224735   3.902   2.747   8.088 -1.2746  0.0202 -1.4036
 4426SOL     OW24736   0.597   4.646   1.275  0.0088 -0.8638 -0.5648
 4426SOL    HW124737   0.513   4.608   1.250 -0.6201 -0.4951  0.9853
 4426SOL    HW224738   0.566   0.010   1.298  0.6847 -0.4663 -1.1646
 4427SOL     OW24739   1.906   3.048   6.673 -0.3773  0.0903  0.0412
 4427SOL    HW124740   1.966   3.029   6.745 -1.0774 -1.0741  0.3212
 4427SOL    HW224741   1.825   3.055   6.723 -1.0497 -2.8956 -0.5978
 4428SOL     OW24742   1.934   3.848   1.199 -0.0712 -0.4064  0.2330
 4428SOL    HW124743   1.947   3.797   1.279 -0.0713  0.8087  1.0010
 4428SOL    HW224744   1.840   3.839   1.185 -0.0985  0.5382 -0.1934
 4429SOL     OW24745   4.147   3.005   3.406  0.6153 -0.2619  0.7003
 4429SOL    HW124746   4.230   2.966   3.377  0.9507  2.4987 -2.1329
 4429SOL    HW224747   4.118   2.946   3.475 -1.4834 -1.3696 -1.1415
 4430SOL     OW24748   0.467   0.878   3.244  0.4929 -0.3034 -0.2384
 4430SOL    HW124749   0.491   0.810   3.180  4.3862 -1.5601  2.5526
 4430SOL    HW224750   0.427   0.943   3.187 -1.8766 -2.4963 -1.0941
 4431SOL     OW24751   1.293   3.950   3.147 -0.2787 -0.1651 -0.5978
 4431SOL    HW124752   1.263   4.023   3.201  2.4319  2.4899 -2.6426
 4431SOL    HW224753   1.350   4.006   3.093 -0.8196  3.1685  2.2759
 4432SOL     OW24754   4.478   1.670   1.336  0.0662  0.4087 -0.0179
 4432SOL    HW124755   4.482   1.587   1.288 -0.6593  0.7472 -0.6630
 4432SOL    HW224756   4.569   1.686   1.360  0.7493 -0.5609 -1.9161
 4433SOL     OW24757   3.044   2.345   1.813 -0.1405 -0.1385 -0.7116
 4433SOL    HW124758   2.952   2.325   1.797 -0.0575  0.8269 -2.3108
 4433SOL    HW224759   3.060   2.437   1.792 -0.6204  0.4114  1.2521
 4434SOL     OW24760   3.828   2.612   6.423 -0.0300 -0.2038 -0.3943
 4434SOL    HW124761   3.916   2.631   6.390  0.3048 -1.8597 -0.4454
 4434SOL    HW224762   3.863   2.540   6.476  0.8318  1.0857  0.7906
 4435SOL     OW24763   2.173   4.293   9.835 -0.2875 -0.0470  0.2525
 4435SOL    HW124764   2.197   4.386   9.828  1.8585 -0.6613 -0.3106
 4435SOL    HW224765   2.095   4.296   9.890  0.0311 -1.3905  0.7762
 4436SOL     OW24766   4.180   0.345   1.803 -0.8842  0.3259  0.2102
 4436SOL    HW124767   4.255   0.365   1.747  0.2380  1.0981  1.9886
 4436SOL    HW224768   4.196   0.394   1.884 -0.3970 -0.7787  0.7935
 4437SOL     OW24769   4.297   2.200  10.106  0.6004 -0.0049  0.0262
 4437SOL    HW124770   4.261   2.241  10.027 -2.8107 -1.3424  0.8703
 4437SOL    HW224771   4.389   2.226  10.103  0.7365 -0.3174  1.5469
 4438SOL     OW24772   4.345   2.518   3.450  0.1127 -0.3126  0.1098
 4438SOL    HW124773   4.296   2.451   3.403 -1.2181 -0.2363  1.3771
 4438SOL    HW224774   4.417   2.466   3.486  0.3749 -0.6609 -0.9288
 4439SOL     OW24775   0.386   3.211   4.258  0.1984 -0.5012  0.0433
 4439SOL    HW124776   0.462   3.158   4.234 -0.8470 -1.1782 -1.7600
 4439SOL    HW224777   0.335   3.173   4.188  0.3004  0.9940 -0.8385
 4440SOL     OW24778   0.294   1.456   1.923 -0.6116 -0.0364  0.4230
 4440SOL    HW124779   0.211   1.409   1.911  0.4554 -1.3932 -1.4996
 4440SOL    HW224780   0.293   1.491   2.012 -2.6086 -2.6867  1.4445
 4441SOL     OW24781   4.577   0.082  11.369  0.2610 -0.1444  0.2716
 4441SOL    HW124782   4.509   0.089  11.435 -0.6108  1.0080 -0.7674
 4441SOL    HW224783   4.614   4.719  11.389  0.8290 -0.1180 -0.6589
 4442SOL     OW24784   3.405   1.969  11.818 -0.2514  0.1637 -0.0992
 4442SOL    HW124785   3.486   2.005  11.854 -0.9592  0.9940  0.6837
 4442SOL    HW224786   3.340   2.029  11.857  0.3298 -0.6108  2.0901
 4443SOL     OW24787   3.598   1.352   8.875 -0.0643 -0.1373  0.0911
 4443SOL    HW124788   3.549   1.415   8.821 -1.0471  0.1980  1.3632
 4443SOL    HW224789   3.587   1.269   8.830  0.3671 -0.7214  1.0724
 4444SOL     OW24790   3.426   2.169   3.734 -0.1931  0.0439 -0.2087
 4444SOL    HW124791   3.332   2.185   3.729 -0.4327 -0.9955  1.2414
 4444SOL    HW224792   3.446   2.127   3.650 -0.3285  0.7935 -0.6247
 4445SOL     OW24793   2.463   3.910  14.384  0.5515 -0.0004 -0.6290
 4445SOL    HW124794   2.387   3.962  14.412  0.5758  0.1792 -0.9003
 4445SOL    HW224795   2.464   3.845  14.454 -0.2865 -0.6866 -1.2642
 4446SOL     OW24796   0.990   4.175   7.442 -0.3310 -0.4143 -0.6763
 4446SOL    HW124797   0.951   4.089   7.455  0.3995 -0.3852  1.6702
 4446SOL    HW224798   0.913   4.233   7.446  0.3012  0.3310  1.0709
 4447SOL     OW24799   2.156   1.115   0.941 -0.1863 -0.3337  0.5729
 4447SOL    HW124800   2.141   1.061   0.863 -1.2439  0.4563  0.2370
 4447SOL    HW224801   2.073   1.111   0.989 -0.4769 -2.0006 -0.0552
 4448SOL     OW24802   3.215   4.353   7.552 -0.4844  0.0314  0.3749
 4448SOL    HW124803   3.148   4.362   7.484 -0.1832 -1.4653 -0.1106
 4448SOL    HW224804   3.240   4.441   7.580  0.0620  0.1866 -0.5849
 4449SOL     OW24805   3.470   3.343   4.485  0.4404  0.4467 -0.2122
 4449SOL    HW124806   3.496   3.251   4.488 -1.0030  0.0435 -0.1983
 4449SOL    HW224807   3.382   3.326   4.452  1.3521 -1.5710 -1.5917
 4450SOL     OW24808   0.676   1.602   1.844 -0.0253  0.4421 -0.0083
 4450SOL    HW124809   0.607   1.664   1.867 -0.1726  0.7840 -1.4199
 4450SOL    HW224810   0.691   1.633   1.755 -0.3968  2.9697  0.8093
 4451SOL     OW24811   4.133   3.079   5.615 -0.0860  0.6011 -0.3681
 4451SOL    HW124812   4.171   3.165   5.632  0.3680  0.3159  0.0681
 4451SOL    HW224813   4.216   3.036   5.636 -1.0480 -2.2100 -2.2506
 4452SOL     OW24814   3.202   3.742   9.526  0.8705  0.0250 -0.6683
 4452SOL    HW124815   3.142   3.668   9.524 -0.6169  1.1754  0.8846
 4452SOL    HW224816   3.263   3.714   9.594  1.3723  0.0614 -1.1062
 4453SOL     OW24817   4.190   4.121   0.489  0.3125  0.0868 -0.5488
 4453SOL    HW124818   4.192   4.143   0.396 -0.0210  0.3630 -0.4912
 4453SOL    HW224819   4.258   4.174   0.531 -0.9392  1.4293 -0.2114
 4454SOL     OW24820   2.702   4.066  14.370  0.1332 -0.7400  0.5054
 4454SOL    HW124821   2.733   4.028  14.452 -0.0573 -1.1857  0.3723
 4454SOL    HW224822   2.614   4.027  14.363  0.0901 -0.7108  0.9017
 4455SOL     OW24823   3.028   0.716  12.219  0.1125  0.7340  0.1571
 4455SOL    HW124824   3.096   0.737  12.283  1.2527 -1.5188 -0.2876
 4455SOL    HW224825   2.987   0.644  12.267  1.1936  1.6368  2.4287
 4456SOL     OW24826   0.181   3.364   1.456 -0.2131 -0.3854 -0.0790
 4456SOL    HW124827   0.148   3.328   1.539 -1.1470  0.7295  0.0369
 4456SOL    HW224828   0.263   3.315   1.451  0.1655  0.1026  1.2666
 4457SOL     OW24829   0.238   4.610   8.496 -0.7834 -0.5087  0.4730
 4457SOL    HW124830   0.189   4.634   8.574  1.9543  0.1912  1.9752
 4457SOL    HW224831   0.202   4.672   8.432 -0.1900 -2.2276 -1.5504
 4458SOL     OW24832   3.132   4.602   5.238  0.9008 -0.0997  0.1034
 4458SOL    HW124833   3.108   4.687   5.274 -2.2532 -1.3154  0.7974
 4458SOL    HW224834   3.220   4.635   5.217  0.4613  1.3977  0.6218
 4459SOL     OW24835   1.888   2.516   5.803 -0.1639  0.1672  0.1376
 4459SOL    HW124836   1.808   2.506   5.854 -1.5522  1.1798 -1.7995
 4459SOL    HW224837   1.952   2.464   5.851  0.3705 -0.8146 -1.6442
 4460SOL     OW24838   2.266   2.155   9.105 -0.3103 -0.5663 -0.6697
 4460SOL    HW124839   2.322   2.160   9.027  0.7729 -1.0996  0.0830
 4460SOL    HW224840   2.296   2.231   9.153  0.2428 -2.3392  1.7882
 4461SOL     OW24841   1.952   2.253   3.276 -0.5503  0.1767  0.4774
 4461SOL    HW124842   1.880   2.198   3.245 -0.7627  0.7032  0.0280
 4461SOL    HW224843   2.025   2.191   3.270 -1.5906 -1.1187  1.2297
 4462SOL     OW24844   1.737   4.306   6.569 -0.6613 -0.1663 -0.0922
 4462SOL    HW124845   1.749   4.234   6.507 -0.8005  0.7703 -1.2237
 4462SOL    HW224846   1.762   4.276   6.656 -0.8078 -0.9459 -0.3215
 4463SOL     OW24847   0.843   0.226   3.577  0.1089 -0.3832  0.0870
 4463SOL    HW124848   0.786   0.236   3.500 -0.6035 -1.8532  0.4218
 4463SOL    HW224849   0.801   0.148   3.614 -0.5244 -0.7319 -1.3598
 4464SOL     OW24850   0.717   2.626   8.109 -0.0686  0.0641  0.0565
 4464SOL    HW124851   0.792   2.670   8.148 -0.3494  0.5072  0.0968
 4464SOL    HW224852   0.645   2.634   8.171 -2.4086  0.2571 -2.6479
 4465SOL     OW24853   3.737   1.166   3.959  0.7647 -0.1032  0.0295
 4465SOL    HW124854   3.735   1.241   4.019  0.5203 -0.0932  0.0105
 4465SOL    HW224855   3.658   1.115   3.980 -0.4223  0.6914 -2.5403
 4466SOL     OW24856   1.440   1.425  13.848  0.2537  0.9499 -0.1850
 4466SOL    HW124857   1.506   1.488  13.878  2.8021 -1.6556 -0.3479
 4466SOL    HW224858   1.435   1.445  13.755  0.4876 -1.4029 -0.6898
 4467SOL     OW24859   1.874   4.576   6.736 -0.0982  1.1781  0.5707
 4467SOL    HW124860   1.940   4.522   6.694  0.5018  1.6406  0.9228
 4467SOL    HW224861   1.879   4.540   6.825 -2.7496 -1.1555 -0.2029
 4468SOL     OW24862   0.245   1.490   1.472 -0.0154  0.0535 -0.0496
 4468SOL    HW124863   0.304   1.461   1.541 -1.0876  0.1504  0.9032
 4468SOL    HW224864   0.292   1.447   1.400 -1.5261 -0.7775 -0.5483
 4469SOL     OW24865   1.403   3.922   1.114 -0.2984  0.0643  0.3322
 4469SOL    HW124866   1.424   3.909   1.022  0.2772  2.9581  0.0452
 4469SOL    HW224867   1.308   3.912   1.114 -0.0819 -1.9231 -0.9370
 4470SOL     OW24868   2.587   1.581   4.166  0.3644 -0.1828  0.1672
 4470SOL    HW124869   2.603   1.503   4.113 -1.1874  0.4957 -1.2830
 4470SOL    HW224870   2.669   1.592   4.215  0.8512  0.0088 -0.6962
 4471SOL     OW24871   2.962   2.631  13.581 -0.2651  0.0089  0.2427
 4471SOL    HW124872   3.021   2.676  13.641  1.4869  0.6611 -1.9626
 4471SOL    HW224873   2.960   2.545  13.624 -2.0855 -0.7412 -1.3302
 4472SOL     OW24874   0.140   3.794   9.594 -0.0984 -0.3869 -0.1377
 4472SOL    HW124875   0.133   3.881   9.633 -0.2068 -0.5311  0.1634
 4472SOL    HW224876   0.218   3.768   9.644  0.3905 -0.0809 -0.7459
 4473SOL     OW24877   3.601   2.245   3.908  0.1138  0.5316  0.5882
 4473SOL    HW124878   3.544   2.221   3.835  1.4009 -0.3720 -0.1195
 4473SOL    HW224879   3.546   2.209   3.977  0.2937  0.0265  0.4670
 4474SOL     OW24880   2.945   0.267   6.384  0.2539  0.4473  0.2783
 4474SOL    HW124881   3.040   0.262   6.371  0.4328  0.5329  1.5772
 4474SOL    HW224882   2.929   0.194   6.443 -0.3458 -0.1854 -0.6655
 4475SOL     OW24883   2.160   0.826   2.903  0.6933  0.0508 -0.3129
 4475SOL    HW124884   2.154   0.737   2.937  0.1346 -0.8783 -2.8397
 4475SOL    HW224885   2.254   0.844   2.902  0.8409 -0.7332 -0.1956
 4476SOL     OW24886   0.364   0.800   7.118  0.0621 -0.3649  0.1843
 4476SOL    HW124887   0.309   0.722   7.126  0.3141 -0.5953 -0.3245
 4476SOL    HW224888   0.451   0.764   7.134 -0.1071 -0.0893  1.6836
 4477SOL     OW24889   3.255   2.491   2.422 -0.2216  0.5447  0.8225
 4477SOL    HW124890   3.348   2.487   2.445 -0.4964 -3.4355  1.2459
 4477SOL    HW224891   3.222   2.557   2.482  0.1835  0.6357  0.9490
 4478SOL     OW24892   3.900   4.238   3.800  0.2922  0.5593 -0.3293
 4478SOL    HW124893   3.949   4.204   3.725 -0.6576  0.7400 -1.0311
 4478SOL    HW224894   3.880   4.153   3.838  1.3888  1.1789  1.6636
 4479SOL     OW24895   4.169   2.846   2.625  0.0069 -0.4808 -0.3044
 4479SOL    HW124896   4.247   2.878   2.580 -0.1880 -2.9402 -2.3779
 4479SOL    HW224897   4.108   2.891   2.567  1.7286  0.7208 -1.1965
 4480SOL     OW24898   0.030   4.060   2.443 -0.4787 -0.6353 -0.8739
 4480SOL    HW124899   0.062   4.133   2.390 -3.4751  1.1878 -0.1834
 4480SOL    HW224900   0.067   3.991   2.388 -0.3683 -0.7262 -0.6859
 4481SOL     OW24901   0.641   3.141  13.330 -0.1417  0.1107  0.1652
 4481SOL    HW124902   0.659   3.192  13.409 -0.6270  2.4941 -1.2974
 4481SOL    HW224903   0.582   3.071  13.357  0.1133  1.0892  3.2829
 4482SOL     OW24904   2.937   0.407  15.645  0.1892  0.0095 -0.3438
 4482SOL    HW124905   2.969   0.454  15.568 -0.2330  0.2847 -0.3523
 4482SOL    HW224906   2.942   0.472  15.714  1.9197  0.3209 -0.7687
 4483SOL     OW24907   0.275   2.709   4.231 -0.2263  0.2987 -0.2214
 4483SOL    HW124908   0.311   2.642   4.174 -2.2783 -0.4949 -0.5621
 4483SOL    HW224909   0.199   2.737   4.180 -0.8351  2.3948  1.8227
 4484SOL     OW24910   2.896   2.948   2.122 -0.4256 -0.5479 -0.1738
 4484SOL    HW124911   2.958   3.007   2.164 -0.9094  2.4329 -3.6112
 4484SOL    HW224912   2.929   2.941   2.032 -1.3671 -1.0685 -0.4772
 4485SOL     OW24913   1.245   0.929   7.198  0.2578  0.8316 -0.2658
 4485SOL    HW124914   1.328   0.976   7.204  0.6194  0.0269  1.1666
 4485SOL    HW224915   1.200   0.962   7.276 -0.6515  1.9948 -1.2967
 4486SOL     OW24916   1.514   4.489   3.744 -0.0395  0.0659 -0.4346
 4486SOL    HW124917   1.527   4.396   3.758 -0.3999 -0.1843 -1.7439
 4486SOL    HW224918   1.605   4.516   3.736 -0.5207  2.2074  1.3325
 4487SOL     OW24919   0.618   3.318  13.546 -0.5701 -0.3634  0.1473
 4487SOL    HW124920   0.566   3.399  13.538  1.4669  0.8183 -1.0222
 4487SOL    HW224921   0.597   3.285  13.633 -0.5496  0.9687  0.6600
 4488SOL     OW24922   2.473   1.006   4.105  0.1169 -0.4035 -0.0714
 4488SOL    HW124923   2.488   0.912   4.108  4.2168  0.2356 -1.5116
 4488SOL    HW224924   2.527   1.033   4.031  0.4614  0.2876  0.4321
 4489SOL     OW24925   1.208   0.290   7.030 -0.2402 -0.1515 -0.0856
 4489SOL    HW124926   1.160   0.224   7.079 -0.4269  0.3756  0.4472
 4489SOL    HW224927   1.148   0.363   7.015  2.0914  1.7991  0.0554
 4490SOL     OW24928   4.384   3.653   0.028 -0.3640 -0.0765  0.8716
 4490SOL    HW124929   4.461   3.651  17.670 -2.7601  3.5276 -2.5883
 4490SOL    HW224930   4.320   3.615  17.664  0.7756 -0.4233 -0.0939
 4491SOL     OW24931   4.341   3.894   0.202 -0.0837  0.1669 -0.2823
 4491SOL    HW124932   4.430   3.931   0.194  0.0775  0.3687  2.5735
 4491SOL    HW224933   4.365   3.812   0.160  0.7011 -0.0087  0.5117
 4492SOL     OW24934   4.622   4.557   9.740 -0.2691  0.0144 -0.2550
 4492SOL    HW124935   4.703   4.523   9.701 -0.0801 -0.2803  0.4013
 4492SOL    HW224936   4.576   4.481   9.776 -0.2725 -0.8916 -2.1773
 4493SOL     OW24937   3.685   3.170   1.955 -0.4199  0.4456  0.2823
 4493SOL    HW124938   3.721   3.239   2.011 -0.4569  0.0190  0.8281
 4493SOL    HW224939   3.723   3.207   1.875  0.5781 -1.3057 -0.0695
 4494SOL     OW24940   3.768   2.055  11.001 -0.4879 -0.3081  0.1785
 4494SOL    HW124941   3.739   2.048  10.911  0.5933  0.1191 -0.2058
 4494SOL    HW224942   3.835   2.123  10.994  1.8997 -2.3117  3.2966
 4495SOL     OW24943   1.461   3.484   5.727  0.0568 -0.4788 -0.5661
 4495SOL    HW124944   1.371   3.501   5.699 -0.4162 -0.4913  0.9288
 4495SOL    HW224945   1.439   3.451   5.814 -2.3225  0.2211 -0.9220
 4496SOL     OW24946   1.896   1.955   5.234  0.1775 -0.1779  0.1400
 4496SOL    HW124947   1.973   2.011   5.229 -0.8553  1.3128  1.1123
 4496SOL    HW224948   1.891   1.930   5.142  0.6746 -0.8478  0.2967
 4497SOL     OW24949   3.206   1.810   0.146  0.1065  0.2877  0.0930
 4497SOL    HW124950   3.161   1.749   0.204 -1.2014  2.9249  1.8277
 4497SOL    HW224951   3.269   1.851   0.205 -1.1488  0.8899  1.0123
 4498SOL     OW24952   4.246   4.001   7.847 -0.7648 -0.0943 -0.5960
 4498SOL    HW124953   4.341   4.002   7.859 -0.8490  0.1750  0.0560
 4498SOL    HW224954   4.207   3.950   7.918 -1.4920 -0.2072 -1.0865
 4499SOL     OW24955   1.277   2.623   6.663 -0.4444 -0.1279  0.0593
 4499SOL    HW124956   1.335   2.549   6.681  0.3182  0.8602  1.5905
 4499SOL    HW224957   1.301   2.684   6.733  0.1593 -0.6161  0.2803
 4500SOL     OW24958   2.592   0.634   9.891  0.1824 -0.0926  0.2378
 4500SOL    HW124959   2.615   0.550   9.851 -1.4947 -0.1141 -0.6704
 4500SOL    HW224960   2.642   0.635   9.973 -2.1740  1.3729  1.6426
 4501SOL     OW24961   2.757   1.357   7.725  0.3858 -0.1264 -0.0851
 4501SOL    HW124962   2.767   1.327   7.635 -0.6763  1.2528 -0.6533
 4501SOL    HW224963   2.708   1.280   7.754  0.4751  0.2157  1.0019
 4502SOL     OW24964   1.270   3.646   3.221 -0.0997  0.3675 -0.1056
 4502SOL    HW124965   1.334   3.707   3.184  0.2829  1.2427  2.0018
 4502SOL    HW224966   1.190   3.699   3.220  0.3447  1.0378 -0.2086
 4503SOL     OW24967   0.147   4.114   0.943 -0.3035  0.2363  0.1084
 4503SOL    HW124968   0.239   4.098   0.963  0.0333  0.7684 -0.9823
 4503SOL    HW224969   0.117   4.028   0.913 -0.6028 -0.4372  2.3724
 4504SOL     OW24970   4.675   2.442  14.713  0.1348 -0.2913 -1.2155
 4504SOL    HW124971   4.599   2.480  14.758  0.1268  0.3569 -1.7899
 4504SOL    HW224972   4.622   2.433  14.633  0.1147  0.8175 -1.3230
 4505SOL     OW24973   1.034   4.716   6.557 -0.5495  0.0694 -0.2003
 4505SOL    HW124974   1.099   0.061   6.542 -1.4051  1.1390  1.0697
 4505SOL    HW224975   1.079   4.650   6.609  0.3833  0.4924 -0.4609
 4506SOL     OW24976   0.231   4.586   5.324 -0.1317 -0.1500 -0.1770
 4506SOL    HW124977   0.288   4.510   5.332  0.5428  0.4434  0.8261
 4506SOL    HW224978   0.168   4.571   5.394  0.4194 -0.7890  0.1848
 4507SOL     OW24979   0.884   0.025   6.160 -0.2298 -0.0349  0.2508
 4507SOL    HW124980   0.928   0.083   6.222  0.3206  0.8508 -0.9659
 4507SOL    HW224981   0.946   4.677   6.145 -1.0600 -0.2309 -2.2914
 4508SOL     OW24982   4.116   3.604   6.923  0.0039  0.1636  0.1375
 4508SOL    HW124983   4.053   3.623   6.993 -2.1794  2.3391 -2.4247
 4508SOL    HW224984   4.160   3.525   6.955 -0.6208 -0.0369  0.4919
 4509SOL     OW24985   2.785   3.570   3.575 -0.6173 -0.7498 -0.2369
 4509SOL    HW124986   2.760   3.513   3.502  0.0829 -0.3282 -0.8039
 4509SOL    HW224987   2.776   3.516   3.653  0.8289  3.1930  2.6654
 4510SOL     OW24988   2.869   3.804   0.850 -0.6509 -0.0840  0.1909
 4510SOL    HW124989   2.783   3.818   0.890  0.0415  3.0417  0.6466
 4510SOL    HW224990   2.852   3.835   0.761  1.9173  0.2627 -0.1867
 4511SOL     OW24991   3.010   1.237   6.946  0.5501  0.2797  0.1764
 4511SOL    HW124992   2.992   1.233   6.852 -1.1724 -0.6537  0.5516
 4511SOL    HW224993   3.104   1.226   6.932  0.4323  0.1503 -0.5076
 4512SOL     OW24994   0.605   0.441   6.526  0.1280  0.1748  0.5156
 4512SOL    HW124995   0.623   0.426   6.433 -1.9631  0.4079  0.0716
 4512SOL    HW224996   0.572   0.356   6.552 -3.0065  0.7057 -1.6462
 4513SOL     OW24997   0.181   4.720   9.968  0.1188 -0.0135 -0.5467
 4513SOL    HW124998   0.129   0.020  10.044  0.6674 -1.8659  0.4186
 4513SOL    HW224999   0.185   4.625   9.974 -1.5945 -0.0562 -0.1472
 4514SOL     OW25000   2.147   0.159   6.881  0.8008  0.3148 -0.1243
 4514SOL    HW125001   2.099   0.156   6.798  0.3469  0.5570  0.1351
 4514SOL    HW225002   2.193   0.075   6.879 -1.0459 -0.6841 -1.0631
 4515SOL     OW25003   0.870   2.697   6.072  0.1748  0.5892  0.4046
 4515SOL    HW125004   0.848   2.670   5.983 -0.2390  1.5431  0.2106
 4515SOL    HW225005   0.888   2.787   6.045  2.2186  0.2186  0.5232
 4516SOL     OW25006   2.098   1.895   0.041 -0.1672  0.2404  0.6484
 4516SOL    HW125007   2.062   1.967  17.686  0.3301 -0.3389 -0.5027
 4516SOL    HW225008   2.174   1.939   0.077 -0.6378 -0.1475  2.1327
 4517SOL     OW25009   1.995   2.041  11.157  0.2921 -0.2807  0.0148
 4517SOL    HW125010   2.031   1.966  11.204  2.0724  0.8869  0.5116
 4517SOL    HW225011   2.065   2.058  11.093  2.0022  0.8395  2.1971
 4518SOL     OW25012   2.263   0.161   5.119 -0.3658 -0.0169  0.3234
 4518SOL    HW125013   2.183   0.128   5.161 -0.6633  0.6970  0.3130
 4518SOL    HW225014   2.223   0.234   5.071  0.2592 -0.3214 -0.6515
 4519SOL     OW25015   3.056   0.847   3.572  0.2310 -0.4115 -0.1261
 4519SOL    HW125016   3.039   0.784   3.502  2.1008 -1.3646  0.2701
 4519SOL    HW225017   3.135   0.890   3.538 -0.0566 -0.6124 -1.0372
 4520SOL     OW25018   0.023   2.638   2.032  0.2123  0.1467  0.1855
 4520SOL    HW125019   0.094   2.580   2.004 -0.4414 -0.1696 -0.8395
 4520SOL    HW225020   0.015   2.605   2.121 -0.7762  0.3514  0.1784
 4521SOL     OW25021   4.365   0.588   5.855 -0.5860 -0.4437 -0.0951
 4521SOL    HW125022   4.309   0.654   5.896  0.1098 -0.1918  0.4589
 4521SOL    HW225023   4.449   0.621   5.887 -0.6054 -2.2878  1.7921
 4522SOL     OW25024   1.808   0.668   9.288  0.5518 -0.0437  0.3733
 4522SOL    HW125025   1.777   0.740   9.343  4.3244  0.8888  1.2577
 4522SOL    HW225026   1.728   0.617   9.274  2.3730 -2.2786 -1.8342
 4523SOL     OW25027   1.007   1.340   6.759 -0.1099 -0.2026  0.3374
 4523SOL    HW125028   1.069   1.353   6.831  0.5634  1.4040 -0.5464
 4523SOL    HW225029   0.976   1.249   6.766  0.7654 -0.5742 -0.6257
 4524SOL     OW25030   3.635   0.055   6.552  0.5788  0.3468  0.7453
 4524SOL    HW125031   3.569   0.020   6.492  1.6248 -0.7157  0.2119
 4524SOL    HW225032   3.665   4.702   6.600  1.4817  0.9771  1.2129
 4525SOL     OW25033   0.051   0.713   1.848 -0.4408 -0.1338  0.4264
 4525SOL    HW125034   0.078   0.750   1.932 -1.0537  0.3904  0.3951
 4525SOL    HW225035   4.682   0.697   1.863 -0.9353 -1.1179 -3.6820
 4526SOL     OW25036   4.301   1.954   7.583 -0.8471 -0.3237  0.2615
 4526SOL    HW125037   4.349   2.001   7.652  0.3318  2.3001 -2.3694
 4526SOL    HW225038   4.227   2.014   7.570 -0.8551 -0.3760  0.0687
 4527SOL     OW25039   0.764   4.245   3.621  0.4183 -0.4678 -0.4362
 4527SOL    HW125040   0.751   4.155   3.650  1.1284 -1.4797 -3.2574
 4527SOL    HW225041   0.860   4.250   3.626  0.4603 -2.0741  0.5678
 4528SOL     OW25042   0.037   1.171   0.216  0.0096 -0.2805 -0.2525
 4528SOL    HW125043   4.712   1.089   0.215 -1.1506  0.4221 -0.6706
 4528SOL    HW225044   0.083   1.160   0.133 -1.2919 -0.1846 -0.9814
 4529SOL     OW25045   3.692   1.442   5.633  0.0458  0.1864 -0.1722
 4529SOL    HW125046   3.728   1.521   5.674 -0.8249 -0.0865  1.1073
 4529SOL    HW225047   3.768   1.409   5.584  0.5584 -0.7477  1.2354
 4530SOL     OW25048   1.577   4.100  10.542  0.6308 -0.2664  0.2028
 4530SOL    HW125049   1.488   4.126  10.564  0.1182 -1.8007 -0.0622
 4530SOL    HW225050   1.588   4.017  10.587  1.5741 -0.2899 -0.0571
 4531SOL     OW25051   1.868   0.293   0.971  0.0273  0.4730 -0.3911
 4531SOL    HW125052   1.938   0.358   0.972 -0.3836  0.9122 -0.0793
 4531SOL    HW225053   1.910   0.207   0.970  1.1318  1.0070 -0.0022
 4532SOL     OW25054   2.824   2.515  10.759 -0.4356  0.0843  0.1823
 4532SOL    HW125055   2.765   2.490  10.687  1.0948 -1.2105 -0.6209
 4532SOL    HW225056   2.862   2.591  10.715 -0.3494 -1.5785 -2.6381
 4533SOL     OW25057   0.533   3.720  14.253  0.2776 -0.4124 -0.0768
 4533SOL    HW125058   0.604   3.657  14.241  1.2440  0.9105 -1.2964
 4533SOL    HW225059   0.532   3.760  14.166 -1.5159  0.3100  0.2753
 4534SOL     OW25060   3.039   2.620   7.019  0.3988  0.4923  0.2472
 4534SOL    HW125061   3.117   2.565   7.020 -0.3864 -0.5931  0.7291
 4534SOL    HW225062   3.080   2.706   7.006  1.6710 -0.1283  0.1234
 4535SOL     OW25063   4.017   2.075   2.950 -0.0217  0.0250  0.2691
 4535SOL    HW125064   3.947   2.095   2.888 -0.1974 -1.8732 -0.1460
 4535SOL    HW225065   4.002   1.980   2.952 -0.3294  0.0362 -1.2394
 4536SOL     OW25066   3.345   4.053   0.464 -0.1165 -0.1990 -0.2400
 4536SOL    HW125067   3.320   4.132   0.416 -0.6331 -0.6127 -0.6456
 4536SOL    HW225068   3.290   4.053   0.542  2.7920  1.8460  1.8242
 4537SOL     OW25069   2.198   2.337   8.223 -0.2181 -0.1505 -0.5502
 4537SOL    HW125070   2.209   2.426   8.190  3.5992 -0.3790  0.1531
 4537SOL    HW225071   2.191   2.351   8.318 -0.9846 -1.6817 -0.3841
 4538SOL     OW25072   2.284   0.355  12.604 -0.0999 -0.2310  0.5284
 4538SOL    HW125073   2.352   0.406  12.560 -0.4115  0.0831  0.4060
 4538SOL    HW225074   2.231   0.423  12.647 -1.3918  0.1447 -1.6342
 4539SOL     OW25075   0.002   4.549   7.282 -0.2075  0.1779  0.5020
 4539SOL    HW125076   0.023   4.461   7.249 -2.6823  0.1918 -1.0833
 4539SOL    HW225077   4.718   4.540   7.377  0.5289 -2.8042  0.2934
 4540SOL     OW25078   1.034   1.892   1.054  0.3313  0.1587 -0.9617
 4540SOL    HW125079   0.956   1.938   1.085  1.1489  0.1467  1.0967
 4540SOL    HW225080   1.053   1.836   1.129  1.8294 -1.2703 -2.4099
 4541SOL     OW25081   4.190   0.062   2.329 -0.4163  0.0235  0.2304
 4541SOL    HW125082   4.263   0.102   2.376  1.1692 -1.4615 -0.9487
 4541SOL    HW225083   4.177   0.122   2.256 -1.6610 -0.6950 -0.1399
 4542SOL     OW25084   0.023   3.685   0.670  0.0615 -0.1151 -0.1821
 4542SOL    HW125085   4.683   3.616   0.690  0.0742 -0.4334 -1.2581
 4542SOL    HW225086   0.094   3.656   0.613  0.5957 -0.9375  0.8942
 4543SOL     OW25087   4.665   3.924  16.292  0.8363  0.4243 -0.0198
 4543SOL    HW125088   4.722   3.934  16.216  0.0716  2.4616 -0.3120
 4543SOL    HW225089   4.722   3.966  16.356  1.8546 -2.0131  0.6662
 4544SOL     OW25090   2.528   0.218  13.883  0.7161 -0.6530  0.3855
 4544SOL    HW125091   2.453   0.160  13.891 -1.2024  1.6831 -0.3813
 4544SOL    HW225092   2.492   0.284  13.823  1.7038 -0.2308  0.2590
 4545SOL     OW25093   3.755   3.197   2.670 -0.0782  0.2335  0.5987
 4545SOL    HW125094   3.817   3.234   2.733  1.3780  2.4419 -2.1072
 4545SOL    HW225095   3.703   3.135   2.721  1.6246 -0.8402  1.0537
 4546SOL     OW25096   0.814   2.727   7.161 -0.3751 -0.0349  0.2344
 4546SOL    HW125097   0.818   2.820   7.185  2.0957 -0.3049  0.8474
 4546SOL    HW225098   0.905   2.713   7.134 -0.3302  0.8742 -0.0819
 4547SOL     OW25099   0.582   4.234   4.118  0.3906 -0.0554 -0.0611
 4547SOL    HW125100   0.514   4.171   4.142  1.6684 -1.4860 -0.2364
 4547SOL    HW225101   0.656   4.174   4.114 -0.0953 -0.6515 -0.2060
 4548SOL     OW25102   2.278   0.865   3.879 -0.2523 -0.2286  0.2152
 4548SOL    HW125103   2.242   0.890   3.964 -2.3122 -1.7012 -0.2249
 4548SOL    HW225104   2.320   0.949   3.863 -0.1525 -0.7373 -2.1911
 4549SOL     OW25105   1.285   0.759   7.974 -0.0582 -0.0971  0.3397
 4549SOL    HW125106   1.191   0.754   7.986 -0.6209  0.3399 -3.7534
 4549SOL    HW225107   1.293   0.847   7.937  0.0021 -0.1758  0.1647
 4550SOL     OW25108   0.028   3.969   6.427 -0.0873 -0.5144 -0.1882
 4550SOL    HW125109   0.118   3.970   6.459 -0.2447  0.9870  0.2300
 4550SOL    HW225110   4.711   3.914   6.493 -0.3782 -1.2380 -0.9696
 4551SOL     OW25111   0.115   4.064   9.550  0.5185  0.1027 -0.0786
 4551SOL    HW125112   0.072   4.148   9.538  1.1082  0.2956 -0.8973
 4551SOL    HW225113   0.057   4.016   9.490 -0.2285  0.4578  0.3646
 4552SOL     OW25114   1.004   1.054   8.574  0.3980 -0.0872  0.2676
 4552SOL    HW125115   0.931   1.066   8.635 -1.0602  3.5272 -2.1680
 4552SOL    HW225116   0.956   1.006   8.507 -0.4361  1.6980 -0.4095
 4553SOL     OW25117   3.818   4.473   8.497 -0.2444  0.3920  0.0897
 4553SOL    HW125118   3.809   4.523   8.578  1.9410  0.8979  0.0118
 4553SOL    HW225119   3.887   4.410   8.518 -3.0496 -2.8649 -0.5237
 4554SOL     OW25120   4.472   0.641   3.888 -0.4350  0.0339  0.1711
 4554SOL    HW125121   4.428   0.640   3.803  0.6115 -1.5998 -0.3601
 4554SOL    HW225122   4.492   0.734   3.901  1.2542 -0.0313 -1.8912
 4555SOL     OW25123   2.315   2.485   2.665 -0.0398 -0.0237 -0.2444
 4555SOL    HW125124   2.312   2.575   2.632 -0.4531 -0.0598 -0.3021
 4555SOL    HW225125   2.384   2.445   2.612  0.1196  0.3582 -0.3278
 4556SOL     OW25126   0.416   1.252   4.034 -0.0218  0.1273 -0.4229
 4556SOL    HW125127   0.447   1.342   4.028 -1.0760  0.5140 -0.0400
 4556SOL    HW225128   0.448   1.228   4.121  2.6723  1.0853 -1.1325
 4557SOL     OW25129   3.686   4.545   6.687  0.8539 -0.1441  0.3955
 4557SOL    HW125130   3.731   4.505   6.761  2.9616  1.0919 -0.2066
 4557SOL    HW225131   3.602   4.499   6.693  0.4085  0.3070 -2.1545
 4558SOL     OW25132   2.549   0.637  17.250 -0.1631 -0.0186  0.5633
 4558SOL    HW125133   2.574   0.730  17.249  2.5831 -0.8060 -1.5259
 4558SOL    HW225134   2.634   0.599  17.270  0.0661  0.1490 -0.0977
 4559SOL     OW25135   0.269   3.745  10.729 -0.2778 -0.4959  0.2638
 4559SOL    HW125136   0.204   3.789  10.674 -0.1204  1.9657  2.0742
 4559SOL    HW225137   0.246   3.779  10.815  2.3692 -0.1508  0.8374
 4560SOL     OW25138   1.068   4.064   2.486  0.0965 -0.7425 -0.0287
 4560SOL    HW125139   1.133   4.090   2.552 -0.4372  0.0185  0.1934
 4560SOL    HW225140   1.075   4.144   2.433  0.0507 -1.5206 -1.2118
 4561SOL     OW25141   0.023   1.945   8.534  0.3342 -1.6562  0.4705
 4561SOL    HW125142   0.044   2.005   8.463  0.5170 -0.6495  1.3741
 4561SOL    HW225143   4.718   1.999   8.608  0.7128  1.2790 -1.5563
 4562SOL     OW25144   4.162   1.254  14.961  0.4445  0.0925 -0.1053
 4562SOL    HW125145   4.190   1.185  15.022  2.3491  1.7055  0.8378
 4562SOL    HW225146   4.184   1.322  15.023  0.5173  1.7126 -1.9113
 4563SOL     OW25147   1.969   3.331  13.306 -0.4184 -0.6072  0.1308
 4563SOL    HW125148   1.943   3.320  13.398 -0.5826 -0.6080  0.0837
 4563SOL    HW225149   1.912   3.267  13.263  0.3107 -0.6997 -0.6862
 4564SOL     OW25150   3.680   1.151   1.181  0.2217  0.2138  0.7505
 4564SOL    HW125151   3.601   1.186   1.221  0.3249  0.4836  0.7131
 4564SOL    HW225152   3.668   1.056   1.194  2.9162  0.2706  3.7494
 4565SOL     OW25153   0.194   3.581   0.500 -0.7809 -0.9644  0.1468
 4565SOL    HW125154   0.157   3.560   0.414  1.8423  0.0456 -1.2381
 4565SOL    HW225155   0.244   3.501   0.514 -0.9308 -1.1891 -0.5876
 4566SOL     OW25156   0.452   0.760   4.332 -0.0909 -0.4849 -0.1757
 4566SOL    HW125157   0.409   0.845   4.320 -0.2066 -0.6468 -0.9430
 4566SOL    HW225158   0.535   0.777   4.287  0.2111  0.2753  0.6863
 4567SOL     OW25159   2.455   0.687   3.507 -0.4562  0.5541 -0.6344
 4567SOL    HW125160   2.537   0.640   3.496 -0.0735  0.1680  4.0423
 4567SOL    HW225161   2.478   0.743   3.582 -1.9494  0.8851 -0.4099
 4568SOL     OW25162   2.202   3.814   4.562 -0.0325 -0.0991 -0.7631
 4568SOL    HW125163   2.250   3.887   4.523  0.6819 -0.6844 -0.9916
 4568SOL    HW225164   2.132   3.864   4.603 -0.7990 -1.0998 -0.8607
 4569SOL     OW25165   3.098   1.502   4.294  0.5190  0.1152  0.1243
 4569SOL    HW125166   3.143   1.581   4.323  2.1220 -0.3294 -1.1456
 4569SOL    HW225167   3.170   1.452   4.256  0.3016 -0.0982 -0.0094
 4570SOL     OW25168   0.831   0.412  15.384  0.5201 -0.0615 -0.1717
 4570SOL    HW125169   0.896   0.360  15.430 -0.1793 -0.0562  0.8351
 4570SOL    HW225170   0.884   0.475  15.335  2.6879 -0.7559  1.3266
 4571SOL     OW25171   0.030   3.459   2.238 -0.1358 -0.2796 -0.2628
 4571SOL    HW125172   4.675   3.416   2.271 -0.1863  1.1838  1.5687
 4571SOL    HW225173   4.705   3.528   2.193  0.0716  0.4286  0.5979
 4572SOL     OW25174   2.528   3.567   2.758  0.2184  0.3804 -0.0892
 4572SOL    HW125175   2.594   3.516   2.805 -0.7444 -1.2835 -0.5431
 4572SOL    HW225176   2.477   3.502   2.710  2.9275 -1.7449 -0.0728
 4573SOL     OW25177   0.150   3.075  11.626  0.0327  0.1734  0.1101
 4573SOL    HW125178   0.118   3.070  11.716 -1.0845 -1.7587 -0.4176
 4573SOL    HW225179   0.241   3.104  11.637 -0.6192  2.6540 -1.0999
 4574SOL     OW25180   3.784   3.715   4.871 -0.2445  0.1893 -0.4319
 4574SOL    HW125181   3.742   3.709   4.956  1.5796  1.5086  0.5868
 4574SOL    HW225182   3.738   3.787   4.828 -1.6537 -0.5826 -0.1902
 4575SOL     OW25183   4.652   0.753   5.423 -0.6156 -0.7718  0.0948
 4575SOL    HW125184   4.709   0.822   5.457  0.3536 -0.6484 -1.7851
 4575SOL    HW225185   4.608   0.738   5.507 -0.2443  0.4301  0.4970
 4576SOL     OW25186   2.007   0.810   6.422  0.1604  0.0002  0.4200
 4576SOL    HW125187   2.100   0.821   6.442 -0.4526  1.6682  2.4128
 4576SOL    HW225188   1.976   0.816   6.513  1.1173 -0.3772  0.7761
 4577SOL     OW25189   1.220   0.592  13.148  0.0420 -0.5201  0.0421
 4577SOL    HW125190   1.216   0.686  13.133 -0.8986 -0.3921  1.1046
 4577SOL    HW225191   1.184   0.554  13.068 -1.7260  0.3155  0.4531
 4578SOL     OW25192   3.354   2.115   8.571  1.0074 -0.1306  0.6416
 4578SOL    HW125193   3.358   2.113   8.475  2.1185  1.4207  0.6592
 4578SOL    HW225194   3.427   2.055   8.585  0.1433 -0.7908  2.2794
 4579SOL     OW25195   1.871   3.290   2.647  0.1946 -0.0996  0.2296
 4579SOL    HW125196   1.810   3.228   2.688  0.4694 -1.4986 -1.4497
 4579SOL    HW225197   1.815   3.336   2.584  1.4058  2.5003  1.0524
 4580SOL     OW25198   3.094   4.285   0.494 -0.2908  0.4658  0.1260
 4580SOL    HW125199   3.163   4.273   0.428 -3.2213  0.0065 -2.8627
 4580SOL    HW225200   3.098   4.378   0.515 -1.1860 -0.3777  3.9530
 4581SOL     OW25201   0.788   0.480   0.271 -0.3158 -0.0715  0.2821
 4581SOL    HW125202   0.848   0.419   0.229 -0.2616 -0.8362  1.4710
 4581SOL    HW225203   0.783   0.451   0.362 -0.1345  3.3199  1.3862
 4582SOL     OW25204   0.202   0.440   5.638 -0.1194 -0.1041 -0.1968
 4582SOL    HW125205   0.290   0.475   5.623  0.3736 -0.1629  2.6207
 4582SOL    HW225206   0.224   0.372   5.701  0.6724  0.5467  0.2299
 4583SOL     OW25207   2.155   1.945   7.777  0.0364 -0.1157 -0.0481
 4583SOL    HW125208   2.083   1.954   7.839 -0.7878 -0.0884 -1.0274
 4583SOL    HW225209   2.220   1.902   7.834  1.3444  2.3711  0.3597
 4584SOL     OW25210   4.390   0.861   5.349 -0.0976 -0.1450  0.1351
 4584SOL    HW125211   4.483   0.839   5.346  0.4548  1.9616  2.0785
 4584SOL    HW225212   4.350   0.784   5.308 -2.8991  1.6995 -0.5986
 4585SOL     OW25213   1.115   1.104   2.383  0.4931 -0.5968  0.1769
 4585SOL    HW125214   1.195   1.101   2.331 -0.3483 -1.5504 -1.0652
 4585SOL    HW225215   1.129   1.038   2.451 -0.0166 -2.4746 -1.5387
 4586SOL     OW25216   2.268   2.086  14.787  0.1913  0.0740 -0.2095
 4586SOL    HW125217   2.349   2.043  14.815  0.1120  2.3513  3.4585
 4586SOL    HW225218   2.199   2.022  14.774 -1.2023  1.6876 -0.7433
 4587SOL     OW25219   4.135   3.270   3.977 -0.0787 -0.0050  0.3834
 4587SOL    HW125220   4.055   3.222   3.956 -0.5442  1.2007 -0.6168
 4587SOL    HW225221   4.184   3.279   3.895  1.7466  0.1219  1.4932
 4588SOL     OW25222   2.618   0.090   7.753  0.0817 -0.2232 -0.1290
 4588SOL    HW125223   2.572   0.169   7.723 -2.6799 -0.9743  2.2067
 4588SOL    HW225224   2.704   0.105   7.712  2.0204 -1.6677  3.4577
 4589SOL     OW25225   3.614   2.223   2.971  0.0482  0.0063 -0.7046
 4589SOL    HW125226   3.656   2.237   2.886  0.6956  0.8576 -0.2436
 4589SOL    HW225227   3.691   2.243   3.024 -0.6151 -1.4257  0.8169
 4590SOL     OW25228   2.017   1.793   8.628  0.5797  0.6211 -0.6455
 4590SOL    HW125229   2.047   1.828   8.712 -0.7201  1.3244 -0.4660
 4590SOL    HW225230   1.925   1.777   8.652  0.8438 -0.0324 -0.0325
 4591SOL     OW25231   1.200   1.743   5.739  0.5613  0.8575 -0.7509
 4591SOL    HW125232   1.204   1.795   5.819 -4.0242 -0.5889  0.4395
 4591SOL    HW225233   1.240   1.799   5.672  2.0116  1.4780  0.6493
 4592SOL     OW25234   1.323   1.883   7.606  0.1678  0.2165 -0.3027
 4592SOL    HW125235   1.308   1.924   7.691 -1.8968 -1.8956  0.3617
 4592SOL    HW225236   1.329   1.961   7.552 -2.1162  1.5189  1.3372
 4593SOL     OW25237   0.058   1.876   4.460 -0.2359  0.0896 -1.1288
 4593SOL    HW125238   0.141   1.828   4.457 -1.0563 -1.4668  1.4517
 4593SOL    HW225239   0.063   1.918   4.545  1.6708  0.6693 -1.5246
 4594SOL     OW25240   4.084   2.169   1.633  0.7608 -0.8255  0.2433
 4594SOL    HW125241   4.079   2.131   1.545 -0.7186 -2.5686  1.0856
 4594SOL    HW225242   4.048   2.094   1.679 -3.5507  1.3157  0.3935
 4595SOL     OW25243   3.229   3.744   6.610  0.2100 -0.0988  0.8153
 4595SOL    HW125244   3.288   3.814   6.581 -0.7943  0.3375 -0.1942
 4595SOL    HW225245   3.245   3.673   6.548 -0.3047  0.9526 -0.5106
 4596SOL     OW25246   0.415   0.767   2.238 -0.4977  0.1031 -0.2337
 4596SOL    HW125247   0.389   0.678   2.261 -0.1674  0.7238  2.5983
 4596SOL    HW225248   0.505   0.753   2.208 -0.4703 -0.8462  0.3091
 4597SOL     OW25249   4.010   4.171  17.600 -0.1506 -0.3476 -0.2183
 4597SOL    HW125250   3.949   4.105  17.567 -0.9916  0.7274 -0.8473
 4597SOL    HW225251   4.080   4.110  17.620 -1.7815 -1.9246  0.7119
 4598SOL     OW25252   4.514   0.416   0.323  0.5469  0.1600  0.1002
 4598SOL    HW125253   4.446   0.391   0.385  1.0437  0.0072  0.5896
 4598SOL    HW225254   4.515   0.511   0.330  1.3099  0.2463 -1.1264
 4599SOL     OW25255   2.029   4.461   5.345  0.0621  0.1866 -0.0115
 4599SOL    HW125256   2.079   4.460   5.427  0.1539  1.3502 -0.0531
 4599SOL    HW225257   1.943   4.481   5.382 -0.7008 -0.5955 -1.3500
 4600SOL     OW25258   2.464   2.017   9.817 -0.0069  0.1453  0.1557
 4600SOL    HW125259   2.473   1.940   9.873 -0.2549 -0.1002 -0.1437
 4600SOL    HW225260   2.500   2.088   9.869  0.3743  0.5929 -0.7167
 4601SOL     OW25261   3.031   4.708   8.894  0.2361 -0.2932  0.3673
 4601SOL    HW125262   3.106   0.044   8.898 -1.0304  1.3611 -0.4476
 4601SOL    HW225263   3.007   4.711   8.801  0.4346 -0.5729  0.3077
 4602SOL     OW25264   0.075   2.514  16.486  0.2505  0.1848  0.0442
 4602SOL    HW125265   0.017   2.552  16.419 -0.1158  0.5385  0.5524
 4602SOL    HW225266   0.110   2.436  16.443  0.8540 -0.6535  2.0618
 4603SOL     OW25267   1.013   1.682   2.957 -0.2242  0.1301 -0.0612
 4603SOL    HW125268   1.029   1.678   3.051 -1.4673  0.5608  0.1595
 4603SOL    HW225269   0.991   1.772   2.935 -0.6204 -0.3721 -1.7318
 4604SOL     OW25270   1.473   4.163   7.279 -0.2552  0.3829 -0.0168
 4604SOL    HW125271   1.452   4.070   7.267  1.0350 -0.1721  2.0148
 4604SOL    HW225272   1.432   4.180   7.364  0.3902 -0.2295  0.4248
 4605SOL     OW25273   1.208   3.768   4.842 -0.8894 -0.5452 -0.1628
 4605SOL    HW125274   1.161   3.684   4.844 -0.7889 -0.5886  0.4212
 4605SOL    HW225275   1.177   3.803   4.759  0.7210 -0.1407 -0.5823
 4606SOL     OW25276   3.165   4.036  14.508  0.4858  0.1707 -0.0727
 4606SOL    HW125277   3.217   4.028  14.428 -0.7640 -0.2034 -0.8468
 4606SOL    HW225278   3.087   4.076  14.470  1.0040 -1.0998 -2.5095
 4607SOL     OW25279   3.945   1.788   5.639  0.7997  0.2888  0.1789
 4607SOL    HW125280   3.860   1.750   5.666  1.6849 -0.6772  1.6310
 4607SOL    HW225281   4.003   1.713   5.656 -1.1818 -1.8216 -2.3476
 4608SOL     OW25282   0.365   1.883  15.495 -0.1935 -0.5714  0.5872
 4608SOL    HW125283   0.287   1.833  15.471  0.2391 -0.0449 -1.9408
 4608SOL    HW225284   0.359   1.874  15.590 -0.0384  2.9892  0.9367
 4609SOL     OW25285   0.243   3.574   0.948 -0.2772  0.0358  0.2555
 4609SOL    HW125286   0.161   3.559   0.994  0.5216  1.1479  2.0685
 4609SOL    HW225287   0.264   3.485   0.921  1.7405  0.4092  0.5696
 4610SOL     OW25288   0.456   2.101   2.303 -0.2181 -0.9979 -0.0370
 4610SOL    HW125289   0.464   2.066   2.391  1.4514  0.0409  0.2323
 4610SOL    HW225290   0.543   2.079   2.270 -1.0892 -2.4288 -1.3908
 4611SOL     OW25291   4.436   0.450  14.297 -0.2673 -0.2916  0.4482
 4611SOL    HW125292   4.349   0.490  14.299 -1.2554 -2.3251 -1.8879
 4611SOL    HW225293   4.417   0.358  14.310  0.2193 -0.4949 -0.2550
 4612SOL     OW25294   2.773   2.623   5.222 -0.4373 -0.5625 -0.4539
 4612SOL    HW125295   2.824   2.704   5.215  1.4298 -2.0377 -4.0928
 4612SOL    HW225296   2.842   2.566   5.187 -0.9160 -1.3078 -0.1568
 4613SOL     OW25297   0.882   1.490   7.358  0.6232 -0.4599  0.0304
 4613SOL    HW125298   0.947   1.560   7.350  0.9738 -0.4846  2.9589
 4613SOL    HW225299   0.882   1.467   7.265 -0.9740 -1.3153  0.2294
 4614SOL     OW25300   2.222   1.996   3.857  0.2185 -0.1629  0.1416
 4614SOL    HW125301   2.292   1.991   3.792 -0.9235  0.8213 -1.1778
 4614SOL    HW225302   2.142   1.963   3.816 -1.2064  2.2302  0.9872
 4615SOL     OW25303   3.007   3.190   2.041  0.2930 -0.0250  0.5011
 4615SOL    HW125304   3.013   3.285   2.036 -0.6727 -0.0208 -0.8631
 4615SOL    HW225305   3.013   3.169   2.134 -0.9209 -0.1994  0.5431
 4616SOL     OW25306   0.239   0.182   8.918  0.0743 -0.0123 -0.4022
 4616SOL    HW125307   0.259   0.268   8.954  0.4030  0.0152 -0.6507
 4616SOL    HW225308   0.154   0.162   8.959 -0.8888  0.1060 -2.3154
 4617SOL     OW25309   2.906   2.066   8.059  0.3888  0.0147 -0.1881
 4617SOL    HW125310   2.880   2.051   8.149  0.5259 -0.6967 -0.2697
 4617SOL    HW225311   2.873   2.151   8.029  1.5321  0.1935 -0.9564
 4618SOL     OW25312   2.985   3.653  17.373  0.0756 -0.3273  0.0077
 4618SOL    HW125313   3.028   3.706  17.306  1.4567  0.3648  1.4262
 4618SOL    HW225314   2.932   3.716  17.421 -0.5823  0.2694 -1.5196
 4619SOL     OW25315   0.801   2.267   1.966  0.6976  0.2451  0.5674
 4619SOL    HW125316   0.832   2.272   1.875  1.5171  0.3164  0.8485
 4619SOL    HW225317   0.882   2.241   2.010  1.2168 -1.8790 -1.6088
 4620SOL     OW25318   2.441   3.383   5.472  0.2837 -0.6603  0.1160
 4620SOL    HW125319   2.497   3.431   5.411  0.9735 -0.7735  0.6624
 4620SOL    HW225320   2.421   3.457   5.529  2.0499 -0.0784 -0.0034
 4621SOL     OW25321   4.112   2.262  11.493  0.1464  0.7315 -0.0250
 4621SOL    HW125322   4.061   2.327  11.444  0.2898 -0.5589 -1.8755
 4621SOL    HW225323   4.166   2.217  11.428 -0.2403  1.4415 -0.8463
 4622SOL     OW25324   1.754   1.870   6.936 -0.5101  0.4784 -0.2633
 4622SOL    HW125325   1.732   1.790   6.887  1.0570  0.0732 -0.2795
 4622SOL    HW225326   1.669   1.886   6.978  0.9527  0.6951  2.5376
 4623SOL     OW25327   4.326   3.655   6.637 -0.3592  0.2590  0.4268
 4623SOL    HW125328   4.272   3.645   6.715  1.4961 -0.4294  1.6164
 4623SOL    HW225329   4.350   3.566   6.612 -0.9153 -0.2003  1.5572
 4624SOL     OW25330   4.241   3.266   0.260  0.2405  0.3698 -0.0336
 4624SOL    HW125331   4.194   3.349   0.251  0.0237  0.4623  1.8426
 4624SOL    HW225332   4.247   3.253   0.166 -1.5795  2.2373 -0.4235
 4625SOL     OW25333   4.547   3.693   3.164  0.3769  0.0695 -0.4838
 4625SOL    HW125334   4.486   3.734   3.227 -0.9294 -0.6633 -1.2815
 4625SOL    HW225335   4.586   3.774   3.131 -1.7698  0.4420 -2.0930
 4626SOL     OW25336   4.351   3.697   5.064  0.3055 -0.6871  0.5921
 4626SOL    HW125337   4.443   3.703   5.040 -0.1224 -0.3786 -0.9921
 4626SOL    HW225338   4.307   3.709   4.980 -1.1303 -0.3668  1.3916
 4627SOL     OW25339   0.410   1.736   3.095  0.5143  0.1151 -0.3038
 4627SOL    HW125340   0.348   1.797   3.057 -1.3548 -1.1958  0.6410
 4627SOL    HW225341   0.483   1.796   3.112  0.5155  0.3361 -1.1115
 4628SOL     OW25342   2.053   3.223  11.747 -0.1672  0.4071  0.2996
 4628SOL    HW125343   2.123   3.163  11.723  0.2897  1.3861 -0.8220
 4628SOL    HW225344   2.053   3.292  11.681 -0.7677  1.2280  1.1416
 4629SOL     OW25345   0.353   3.082   6.960  0.3074  0.2474 -0.0834
 4629SOL    HW125346   0.443   3.098   6.988  0.7464  0.8041 -1.8127
 4629SOL    HW225347   0.358   2.991   6.932  1.3085  0.0673  0.6939
 4630SOL     OW25348   3.278   1.031  14.984 -0.6060 -0.2138 -0.3355
 4630SOL    HW125349   3.252   1.035  15.076  0.5489 -1.4913  0.0350
 4630SOL    HW225350   3.371   1.010  14.994 -0.0126  1.9174 -1.5431
 4631SOL     OW25351   1.110   4.645   4.171 -0.1154  0.5788 -0.0745
 4631SOL    HW125352   1.052   4.578   4.207  0.7434 -1.9030 -3.2722
 4631SOL    HW225353   1.133   4.693   4.250 -0.1519 -1.2702  1.0645
 4632SOL     OW25354   1.750   2.442  17.429  0.2440 -0.1761  0.0722
 4632SOL    HW125355   1.718   2.428  17.340  1.2009 -2.0751  0.0217
 4632SOL    HW225356   1.765   2.536  17.422 -0.0035 -0.2343 -1.2068
 4633SOL     OW25357   2.366   0.048   2.728  0.4654  0.2136 -0.5034
 4633SOL    HW125358   2.456   0.068   2.754  0.7053 -1.2267 -0.2399
 4633SOL    HW225359   2.369   0.059   2.633 -0.0758 -1.3846 -0.7075
 4634SOL     OW25360   0.753   2.021   5.780 -0.5663  0.3539  0.3623
 4634SOL    HW125361   0.796   2.040   5.863 -0.8709  0.5273  0.4804
 4634SOL    HW225362   0.772   2.101   5.731  2.0277  0.4673  1.5797
 4635SOL     OW25363   0.867   0.632   1.867 -0.3106 -0.2870 -0.1857
 4635SOL    HW125364   0.839   0.552   1.911 -0.6779 -0.3956 -0.6107
 4635SOL    HW225365   0.888   0.696   1.935 -3.7053 -0.8726  1.4032
 4636SOL     OW25366   0.705   3.802   7.244 -0.4222 -0.5948  0.3035
 4636SOL    HW125367   0.610   3.804   7.257 -0.2712 -1.0948  1.4446
 4636SOL    HW225368   0.731   3.731   7.303 -0.3384  0.2288  1.2477
 4637SOL     OW25369   4.349   3.448   0.917 -0.5397  0.5394 -0.4000
 4637SOL    HW125370   4.310   3.405   0.993 -1.9649  1.5022 -0.5845
 4637SOL    HW225371   4.304   3.533   0.910 -1.6686  0.1052  1.6143
 4638SOL     OW25372   1.357   3.014   7.511 -0.2995 -0.1385 -0.3112
 4638SOL    HW125373   1.326   2.975   7.429 -0.0079 -0.2676 -0.3574
 4638SOL    HW225374   1.415   3.077   7.469  0.8763 -1.3786 -0.5312
 4639SOL     OW25375   2.094   4.695  14.254 -0.2133 -0.1200 -0.2022
 4639SOL    HW125376   2.158   0.038  14.277 -0.6291 -0.4416  1.9137
 4639SOL    HW225377   2.041   0.007  14.182 -1.5251  0.8319  1.2356
 4640SOL     OW25378   1.172   2.008   2.225  0.2487  0.1672 -0.7800
 4640SOL    HW125379   1.107   2.074   2.251  0.7195  0.2872  0.1079
 4640SOL    HW225380   1.145   1.934   2.279  1.7825  1.2117  1.4483
 4641SOL     OW25381   1.045   4.248  16.344  0.1908  0.0444  0.0907
 4641SOL    HW125382   0.959   4.241  16.302  1.1032 -0.7776 -1.6611
 4641SOL    HW225383   1.101   4.220  16.271  1.0559  0.0761  0.7489
 4642SOL     OW25384   2.481   4.680   0.085  0.4825 -0.2669 -1.1171
 4642SOL    HW125385   2.474   4.587   0.066  0.8612 -0.8930  1.8511
 4642SOL    HW225386   2.445   4.720   0.005  0.1947  1.9438  0.0982
 4643SOL     OW25387   2.336   3.152   7.097 -0.5991  0.8143 -0.6859
 4643SOL    HW125388   2.368   3.117   7.181 -2.2662  0.4679 -0.1911
 4643SOL    HW225389   2.274   3.081   7.079 -2.7834  2.3821  0.6643
 4644SOL     OW25390   4.667   4.603   0.951 -0.6821  0.2692  0.7891
 4644SOL    HW125391   4.576   4.611   0.925 -0.6126 -0.9319  0.1473
 4644SOL    HW225392   4.678   4.508   0.964 -1.1575 -0.0820 -1.3767
 4645SOL     OW25393   3.687   2.836   6.532  0.1802 -0.7519 -0.1904
 4645SOL    HW125394   3.615   2.833   6.470  1.6564 -0.5431 -1.9108
 4645SOL    HW225395   3.759   2.780   6.504  0.3048 -0.0913 -1.2096
 4646SOL     OW25396   3.169   2.306  17.282 -0.8594 -0.2788  0.0897
 4646SOL    HW125397   3.191   2.219  17.248 -0.7769  1.1157 -3.4569
 4646SOL    HW225398   3.255   2.327  17.318 -0.6678 -0.4497 -0.2682
 4647SOL     OW25399   4.149   0.727   5.121 -0.1530 -0.7329 -0.5040
 4647SOL    HW125400   4.075   0.670   5.096 -0.6501  0.1593 -1.0700
 4647SOL    HW225401   4.195   0.678   5.189 -1.3777  1.4278  1.9022
 4648SOL     OW25402   1.721   2.759   7.031 -0.6151  0.0421  0.0107
 4648SOL    HW125403   1.632   2.774   7.064  0.2737  0.6499  2.0920
 4648SOL    HW225404   1.771   2.807   7.097 -0.5567 -0.5379  0.3925
 4649SOL     OW25405   4.389   1.805  11.906  0.2969 -0.1490  0.0992
 4649SOL    HW125406   4.297   1.809  11.930 -0.3216  0.6422 -2.3580
 4649SOL    HW225407   4.392   1.829  11.813 -0.3361 -3.1358 -0.6667
 4650SOL     OW25408   3.201   0.107   0.238 -0.0423 -0.0594  0.0835
 4650SOL    HW125409   3.224   0.116   0.146  0.2623  0.9774  0.2628
 4650SOL    HW225410   3.116   0.151   0.235  0.3046  0.6256  0.3769
 4651SOL     OW25411   1.516   3.568   2.030  0.2891 -0.4286 -0.0666
 4651SOL    HW125412   1.494   3.635   1.965  1.2719 -1.1367 -1.1122
 4651SOL    HW225413   1.431   3.558   2.073  1.0353 -0.8677  1.2958
 4652SOL     OW25414   3.793   2.124   6.665 -0.5942 -0.1904  0.1171
 4652SOL    HW125415   3.718   2.065   6.670 -1.4196  0.7556 -1.2558
 4652SOL    HW225416   3.792   2.149   6.573  1.0008 -0.3630  0.0471
 4653SOL     OW25417   4.235   0.133   8.087  0.0947 -0.0652  0.1563
 4653SOL    HW125418   4.251   0.215   8.134 -1.8932 -0.7060  1.9289
 4653SOL    HW225419   4.305   0.080   8.125  0.9050  0.5065 -0.5184
 4654SOL     OW25420   2.494   0.330   3.452  0.0658  0.0453  0.2397
 4654SOL    HW125421   2.406   0.367   3.448 -0.8277 -2.1793 -0.4006
 4654SOL    HW225422   2.542   0.372   3.380  0.8008  0.2684  0.8551
 4655SOL     OW25423   1.554   0.822  11.935 -0.8610 -0.1488 -0.1288
 4655SOL    HW125424   1.601   0.779  11.863 -2.2959 -0.7104 -0.7155
 4655SOL    HW225425   1.618   0.888  11.964 -1.2940  1.5469 -2.9471
 4656SOL     OW25426   0.006   3.787   7.582  0.0043  0.0325 -0.1012
 4656SOL    HW125427   4.699   3.727   7.649 -0.6336 -0.1293 -0.5291
 4656SOL    HW225428   4.706   3.729   7.509 -2.7016  2.1201 -0.9025
 4657SOL     OW25429   0.269   4.065   6.818 -0.3469 -0.1932 -0.1165
 4657SOL    HW125430   0.233   4.152   6.804 -0.0365 -0.0363  0.0530
 4657SOL    HW225431   0.263   4.026   6.731 -1.5509  0.8515 -0.5040
 4658SOL     OW25432   1.502   4.538   5.393 -0.0490 -0.1156 -0.3866
 4658SOL    HW125433   1.423   4.553   5.445 -0.2110 -0.1918 -0.6115
 4658SOL    HW225434   1.468   4.473   5.333  1.3555  0.7256 -2.1067
 4659SOL     OW25435   1.478   3.889   6.611 -0.2704 -0.4932  0.0178
 4659SOL    HW125436   1.459   3.972   6.654  2.7203 -0.5537  1.4079
 4659SOL    HW225437   1.496   3.835   6.688 -2.2273  2.3958  2.4875
 4660SOL     OW25438   2.882   1.912  11.910 -0.1467  0.7465 -0.6385
 4660SOL    HW125439   2.946   1.871  11.968  0.7592  0.6210 -1.7252
 4660SOL    HW225440   2.917   1.893  11.823 -0.6601  0.6504 -0.8278
 4661SOL     OW25441   3.994   4.624   6.152 -0.1636 -0.0158  0.0218
 4661SOL    HW125442   3.978   4.651   6.242  0.4400  1.2022 -0.2387
 4661SOL    HW225443   4.074   4.572   6.151 -2.5929 -3.7971  2.8589
 4662SOL     OW25444   0.391   2.128  12.548  0.2499 -0.0770  0.1898
 4662SOL    HW125445   0.451   2.123  12.473 -0.4291  2.4715 -0.5385
 4662SOL    HW225446   0.406   2.217  12.581  1.9312  0.4736 -2.0834
 4663SOL     OW25447   0.159   0.043   2.808  0.3725  0.2689  0.3967
 4663SOL    HW125448   0.236   0.069   2.859  1.3047  0.1661 -0.9354
 4663SOL    HW225449   0.199   4.695   2.759 -2.7807 -1.2702  0.0664
 4664SOL     OW25450   0.200   3.221   7.112  0.1067  0.2342 -0.5009
 4664SOL    HW125451   0.261   3.161   7.068 -1.0405 -1.4220  0.1752
 4664SOL    HW225452   0.215   3.188   7.201 -2.3229  1.7085  0.4340
 4665SOL     OW25453   4.115   2.618   8.441  0.1164 -0.3237 -0.1189
 4665SOL    HW125454   4.043   2.593   8.499  0.9169 -1.1776  0.5103
 4665SOL    HW225455   4.177   2.633   8.512 -0.4863 -1.3084  0.6194
 4666SOL     OW25456   2.210   1.335   0.231 -0.0427  0.0176  0.9028
 4666SOL    HW125457   2.132   1.297   0.273  1.3876 -0.2475  3.3161
 4666SOL    HW225458   2.279   1.272   0.252 -0.7016 -0.5418  1.3936
 4667SOL     OW25459   3.649   3.099   5.849 -0.1506  0.5594  1.0723
 4667SOL    HW125460   3.679   3.147   5.772 -0.7942  0.6656  0.8860
 4667SOL    HW225461   3.662   3.153   5.928 -3.5237 -0.1207  2.0725
 4668SOL     OW25462   1.290   0.692   6.218 -0.1700 -0.2653  0.3215
 4668SOL    HW125463   1.212   0.640   6.239  0.0256 -0.3761  0.7829
 4668SOL    HW225464   1.276   0.764   6.279 -2.2982 -0.3242 -0.0889
 4669SOL     OW25465   3.033   3.124  11.027  0.0599 -0.5277  0.6740
 4669SOL    HW125466   3.026   3.211  10.989  0.3024 -0.9119 -0.2446
 4669SOL    HW225467   3.119   3.090  11.003  1.5259  3.2690  0.5197
 4670SOL     OW25468   3.690   0.999   9.752 -0.0667  0.4242  0.3461
 4670SOL    HW125469   3.617   1.042   9.796 -0.8038 -0.6991  0.2012
 4670SOL    HW225470   3.770   1.036   9.790  1.6956 -1.7327 -1.2320
 4671SOL     OW25471   1.627   0.645   8.923 -0.4257  0.0340  0.1758
 4671SOL    HW125472   1.573   0.649   9.002  0.4952  1.1013  0.7458
 4671SOL    HW225473   1.652   0.737   8.914 -2.6692  0.4235 -2.2661
 4672SOL     OW25474   4.009   2.025   6.144  0.1767  0.6019  0.1187
 4672SOL    HW125475   3.929   2.007   6.094  0.0365  0.8253  0.2648
 4672SOL    HW225476   4.058   2.079   6.082  4.1021 -1.6560  1.2079
 4673SOL     OW25477   2.876   0.472   9.227 -0.0482  0.1188 -0.4005
 4673SOL    HW125478   2.822   0.410   9.277  0.3721 -0.3180 -0.4827
 4673SOL    HW225479   2.868   0.430   9.141  2.3342  0.6553 -0.8843
 4674SOL     OW25480   0.008   4.601   3.948  0.0129 -0.0704  0.8012
 4674SOL    HW125481   0.056   4.518   3.949 -1.5981 -1.0197 -0.4275
 4674SOL    HW225482   0.074   4.663   3.919 -0.9528  0.6487  0.1093
 4675SOL     OW25483   0.754   3.870   6.994  0.8210  0.1272 -0.1129
 4675SOL    HW125484   0.739   3.824   7.076  0.1033  0.2823 -0.1603
 4675SOL    HW225485   0.695   3.945   6.989 -1.3995 -1.6226 -0.2826
 4676SOL     OW25486   2.382   3.387  10.118  0.5299  0.3785  0.2451
 4676SOL    HW125487   2.450   3.407  10.182  2.0988  0.5027 -1.4759
 4676SOL    HW225488   2.410   3.304  10.080  0.0757 -0.4634  1.7324
 4677SOL     OW25489   2.620   1.069   5.238 -0.3032 -0.3594  0.1201
 4677SOL    HW125490   2.544   1.034   5.192 -0.3525 -1.6437  1.1766
 4677SOL    HW225491   2.655   1.121   5.166  3.2428 -0.0085  2.0883
 4678SOL     OW25492   1.879   2.139  10.929  0.7378  0.2201 -0.1972
 4678SOL    HW125493   1.793   2.098  10.935  2.0949 -2.5663  0.4621
 4678SOL    HW225494   1.921   2.118  11.013 -1.9168 -0.9837  0.8272
 4679SOL     OW25495   2.459   3.333  15.356  0.3801 -0.1705 -0.7730
 4679SOL    HW125496   2.478   3.394  15.428  1.6070 -1.8553  0.3179
 4679SOL    HW225497   2.548   3.318  15.325  0.0249 -1.3160 -1.2468
 4680SOL     OW25498   2.809   0.208   1.666  0.1800  0.3680  0.8324
 4680SOL    HW125499   2.835   0.123   1.631  0.0332  0.0889  1.4052
 4680SOL    HW225500   2.845   0.273   1.606  0.3571 -0.2819  0.2347
 4681SOL     OW25501   1.040   0.491   1.413 -0.8063  0.0511 -0.3485
 4681SOL    HW125502   0.964   0.502   1.471  0.2738 -1.7330  1.3930
 4681SOL    HW225503   1.029   0.564   1.352 -1.0126  1.6358  1.5720
 4682SOL     OW25504   2.782   2.798   8.518  0.3064 -0.0307  0.2104
 4682SOL    HW125505   2.802   2.775   8.609  1.7575 -2.5155 -0.7261
 4682SOL    HW225506   2.695   2.837   8.521  1.2245  1.9334  0.9330
 4683SOL     OW25507   4.002   0.358   7.083 -0.0821 -0.7204 -0.2261
 4683SOL    HW125508   3.980   0.445   7.116 -0.4015 -1.0326  0.3941
 4683SOL    HW225509   3.943   0.333   7.012 -2.4083  1.1696  1.0520
 4684SOL     OW25510   1.468   1.167  15.844 -0.0969  0.4768 -0.7442
 4684SOL    HW125511   1.548   1.167  15.791 -0.0500  2.5291 -0.7014
 4684SOL    HW225512   1.460   1.262  15.859  0.4044 -0.0179  2.6674
 4685SOL     OW25513   1.007   1.068   5.321 -0.1339  0.3591 -0.9947
 4685SOL    HW125514   0.946   1.048   5.249 -2.8883 -0.9620  1.7063
 4685SOL    HW225515   0.971   1.146   5.363 -0.1548 -1.1223  1.6762
 4686SOL     OW25516   1.121   2.942  14.703 -0.1181  0.7440  0.5372
 4686SOL    HW125517   1.154   2.858  14.736  0.4011  0.5047 -0.6181
 4686SOL    HW225518   1.029   2.922  14.690  0.0480 -0.3259  1.0501
 4687SOL     OW25519   1.630   4.586   4.332  0.6084 -0.0391 -0.2233
 4687SOL    HW125520   1.597   4.662   4.284  0.5346  0.2872  0.3427
 4687SOL    HW225521   1.595   4.513   4.281 -0.4755  0.6547 -0.4728
 4688SOL     OW25522   0.757   3.515   9.420 -0.7778 -0.3757  0.1080
 4688SOL    HW125523   0.707   3.439   9.389  0.2737 -2.4685  3.5181
 4688SOL    HW225524   0.784   3.481   9.506  2.6355 -0.8007 -1.1601
 4689SOL     OW25525   0.995   3.921   6.111  0.1527 -0.7497 -0.1469
 4689SOL    HW125526   1.078   3.883   6.139  0.3491 -0.2988 -0.1212
 4689SOL    HW225527   0.943   3.933   6.191  0.6009 -2.2022  0.3547
 4690SOL     OW25528   1.761   2.405   5.591  0.2379 -0.6175  0.2869
 4690SOL    HW125529   1.707   2.402   5.670 -2.3274 -0.4672 -1.4422
 4690SOL    HW225530   1.844   2.441   5.624 -0.6969 -0.3026  2.3143
 4691SOL     OW25531   2.225   2.080  17.299 -1.0729  0.2519  0.9232
 4691SOL    HW125532   2.318   2.087  17.320 -0.7954  2.4931 -1.0240
 4691SOL    HW225533   2.188   2.168  17.312 -0.5677  0.3767  1.5399
 4692SOL     OW25534   3.860   1.815   1.428 -0.6865 -0.0258  0.6288
 4692SOL    HW125535   3.779   1.767   1.445 -0.1632 -1.0636  0.2224
 4692SOL    HW225536   3.905   1.740   1.390 -1.7610 -0.0290 -0.6289
 4693SOL     OW25537   3.637   1.459   1.832  0.2077 -0.2309  0.7153
 4693SOL    HW125538   3.629   1.365   1.817  3.3925 -0.2628 -0.8030
 4693SOL    HW225539   3.660   1.490   1.744  0.9122 -0.6130  0.7612
 4694SOL     OW25540   3.125   0.948   5.243 -0.4616  0.2156  0.0012
 4694SOL    HW125541   3.184   1.022   5.231 -0.4786  0.4767  1.4880
 4694SOL    HW225542   3.146   0.906   5.326  0.3384  0.3908 -0.1143
 4695SOL     OW25543   0.441   1.640   1.236  0.5182 -0.3006  0.0837
 4695SOL    HW125544   0.518   1.692   1.211  1.3065 -0.0525  3.0425
 4695SOL    HW225545   0.399   1.702   1.295  0.6131 -0.7716  0.6473
 4696SOL     OW25546   3.359   3.342   2.535 -0.3972 -0.3382 -0.0199
 4696SOL    HW125547   3.337   3.433   2.517  0.4286  0.2140  1.8089
 4696SOL    HW225548   3.450   3.347   2.505 -0.3246 -2.5275 -0.2110
 4697SOL     OW25549   2.272   3.684   1.885 -0.2020 -0.1484 -0.1588
 4697SOL    HW125550   2.334   3.643   1.945 -0.4520  1.9403  1.5503
 4697SOL    HW225551   2.302   3.768   1.921 -0.9671 -0.5784  1.4931
 4698SOL     OW25552   4.277   0.815   2.391  0.3292 -0.0910  0.1307
 4698SOL    HW125553   4.292   0.742   2.451  1.1974 -0.2375 -0.2733
 4698SOL    HW225554   4.261   0.879   2.461 -0.1149 -0.7468  0.6305
 4699SOL     OW25555   0.261   0.381   1.053 -0.0987 -0.0420 -0.7861
 4699SOL    HW125556   0.332   0.427   1.008  0.3517  0.1651  0.1310
 4699SOL    HW225557   0.298   0.293   1.060  2.3656  1.0810  0.5902
 4700SOL     OW25558   4.228   4.178  10.084  0.4056  0.2700 -0.3488
 4700SOL    HW125559   4.160   4.121  10.046 -1.0501  1.4201  0.5616
 4700SOL    HW225560   4.168   4.247  10.111  1.9377  1.2468  0.4819
 4701SOL     OW25561   4.455   1.341  13.783  0.4000  0.1243 -0.5480
 4701SOL    HW125562   4.511   1.413  13.813  0.1339 -0.7289  1.9671
 4701SOL    HW225563   4.414   1.384  13.707  0.7398 -1.5606 -1.6860
 4702SOL     OW25564   0.361   0.072  17.095 -0.2106  0.5583  0.1848
 4702SOL    HW125565   0.346   0.166  17.103  0.2016  0.5750  0.8110
 4702SOL    HW225566   0.402   0.062  17.010  1.4940  0.6785  1.0020
 4703SOL     OW25567   2.970   3.479  12.756 -0.1564  0.2500 -0.4762
 4703SOL    HW125568   2.891   3.425  12.759  0.1225 -0.1223  0.0330
 4703SOL    HW225569   3.000   3.465  12.846  0.9710  0.9511 -0.7408
 4704SOL     OW25570   0.216   1.820   1.930 -0.3292 -0.3055  0.5321
 4704SOL    HW125571   0.182   1.867   1.854  0.4612  1.0567  1.0256
 4704SOL    HW225572   0.135   1.789   1.970 -0.3785 -0.8536  0.0086
 4705SOL     OW25573   2.857   3.843   2.006  0.2776  0.0533 -0.7389
 4705SOL    HW125574   2.843   3.879   2.093  2.5609 -1.8562  0.3927
 4705SOL    HW225575   2.784   3.782   2.006 -0.1331  0.5418  2.2438
 4706SOL     OW25576   2.600   2.071   6.741 -0.6215 -0.0171 -0.0533
 4706SOL    HW125577   2.645   2.145   6.782  1.6748 -2.5313  1.9769
 4706SOL    HW225578   2.681   2.038   6.703  0.1247 -0.6197  2.0741
 4707SOL     OW25579   2.861   1.233   0.424 -0.2060  0.4609  0.1462
 4707SOL    HW125580   2.923   1.286   0.475  0.2202  1.9244 -1.8930
 4707SOL    HW225581   2.818   1.179   0.491  0.6219  1.5991  1.6121
 4708SOL     OW25582   1.470   0.209  15.741  0.2237 -0.4456 -0.0925
 4708SOL    HW125583   1.452   0.263  15.817  0.2025 -0.5803 -0.0020
 4708SOL    HW225584   1.564   0.215  15.725  0.1589 -0.3921 -0.4615
 4709SOL     OW25585   3.031   2.290   4.330  0.4763  0.2063  0.2928
 4709SOL    HW125586   2.944   2.316   4.301  2.4817  3.9511 -2.3494
 4709SOL    HW225587   3.060   2.373   4.367  0.5142 -0.6845  2.2710
 4710SOL     OW25588   2.415   2.794   5.180 -0.7418 -0.0404  0.1845
 4710SOL    HW125589   2.480   2.785   5.250 -0.4555  5.3496  0.5790
 4710SOL    HW225590   2.405   2.698   5.178  3.3397 -0.4543 -1.5720
 4711SOL     OW25591   2.231   4.488   7.983 -0.7192  0.3448 -0.3539
 4711SOL    HW125592   2.232   4.500   7.888 -1.3975  1.1027 -0.2640
 4711SOL    HW225593   2.243   4.393   7.978 -1.3416  0.2795 -0.6495
 4712SOL     OW25594   4.150   0.302   3.512  0.4713  0.2342 -0.1158
 4712SOL    HW125595   4.213   0.241   3.550 -0.2066  1.1606  2.4523
 4712SOL    HW225596   4.074   0.287   3.568  0.3762  1.4484  0.0852
 4713SOL     OW25597   1.175   3.808  15.066 -0.6621 -0.2138 -0.2950
 4713SOL    HW125598   1.234   3.738  15.092  0.8465  0.9499 -0.6195
 4713SOL    HW225599   1.119   3.755  15.009 -1.7927  1.0639 -0.3868
 4714SOL     OW25600   3.432   1.882  17.027  0.1315 -0.0740 -0.2015
 4714SOL    HW125601   3.440   1.826  17.105  0.2575 -0.7582 -0.7109
 4714SOL    HW225602   3.518   1.870  16.988  0.6806  1.5095  0.5466
 4715SOL     OW25603   2.370   2.821   1.611  0.6289  0.2284  0.4201
 4715SOL    HW125604   2.416   2.904   1.603  0.7264  0.0232 -1.1669
 4715SOL    HW225605   2.441   2.762   1.637  1.5777  1.5775  0.8794
 4716SOL     OW25606   3.367   3.618  12.059  0.0837 -0.1145  0.1721
 4716SOL    HW125607   3.310   3.547  12.087  1.4909 -1.3185  0.0044
 4716SOL    HW225608   3.421   3.633  12.137 -1.4182  0.1953  1.1466
 4717SOL     OW25609   3.535   1.091   2.319  0.3003 -0.4664 -0.1667
 4717SOL    HW125610   3.505   1.067   2.231 -1.0238  0.1609  0.1163
 4717SOL    HW225611   3.459   1.131   2.361 -0.1265  0.2450 -1.6236
 4718SOL     OW25612   0.727   3.166   2.495 -0.4090 -0.4043 -0.2524
 4718SOL    HW125613   0.662   3.106   2.531 -0.9783 -0.5124 -1.4730
 4718SOL    HW225614   0.770   3.112   2.429 -1.8128 -2.4129  0.4586
 4719SOL     OW25615   0.712   2.595  16.185 -0.2772 -0.0274 -0.4825
 4719SOL    HW125616   0.789   2.626  16.138  0.3793  1.0016  1.2628
 4719SOL    HW225617   0.731   2.502  16.181  2.6013  0.5388  0.3003
 4720SOL     OW25618   3.860   0.191   4.810  0.0811  0.1696 -0.2365
 4720SOL    HW125619   3.830   0.279   4.789  1.2689  0.6166 -0.0297
 4720SOL    HW225620   3.934   0.206   4.869 -0.0875  1.8468 -0.4577
 4721SOL     OW25621   3.828   1.040  16.293 -0.4154 -0.0427  0.0323
 4721SOL    HW125622   3.834   0.961  16.240 -1.5656  0.3600 -0.6894
 4721SOL    HW225623   3.759   1.022  16.356  0.7020 -0.4677  1.1424
 4722SOL     OW25624   2.519   1.118  13.582  0.2002 -0.0225 -0.0562
 4722SOL    HW125625   2.470   1.037  13.590 -1.5478  1.2097  1.6109
 4722SOL    HW225626   2.456   1.181  13.546  0.2221  0.9512  1.6104
 4723SOL     OW25627   1.824   2.085   8.492 -0.4235 -0.4038  0.3369
 4723SOL    HW125628   1.792   2.002   8.528  0.7742 -0.0413  2.1795
 4723SOL    HW225629   1.918   2.068   8.488  0.1371  2.5135  1.5331
 4724SOL     OW25630   0.108   1.488  12.432  0.2843  0.4074 -0.3991
 4724SOL    HW125631   0.044   1.553  12.403 -0.2462 -0.5533 -1.3381
 4724SOL    HW225632   0.185   1.546  12.431 -0.4268  1.3424 -1.1034
 4725SOL     OW25633   3.134   4.056   8.470 -0.4331 -0.0948 -0.8273
 4725SOL    HW125634   3.098   4.007   8.544 -1.3702  0.0258 -1.1984
 4725SOL    HW225635   3.155   4.141   8.508  2.3350 -1.5811  1.0383
 4726SOL     OW25636   3.079   1.156   3.180 -0.5823  1.0971  0.0020
 4726SOL    HW125637   3.099   1.065   3.157 -0.8578  0.3608  2.6783
 4726SOL    HW225638   3.026   1.147   3.259  0.1024 -0.2698  0.3150
 4727SOL     OW25639   2.898   0.690   4.096  0.3043 -0.5517 -0.7295
 4727SOL    HW125640   2.940   0.752   4.155  1.3200  0.2220 -2.2505
 4727SOL    HW225641   2.903   0.610   4.149  1.7079  0.5076  0.7472
 4728SOL     OW25642   2.591   2.663   2.278 -0.1761 -0.0854 -0.0522
 4728SOL    HW125643   2.634   2.590   2.323  0.8524  0.9244  0.6360
 4728SOL    HW225644   2.498   2.646   2.285 -0.6347  1.5796 -2.1437
 4729SOL     OW25645   4.435   3.989  13.416  0.1913  0.5890  0.2752
 4729SOL    HW125646   4.434   4.021  13.506  0.9289  0.8910  0.1750
 4729SOL    HW225647   4.373   3.917  13.429  0.5999  0.6070  2.2408
 4730SOL     OW25648   2.305   3.580   5.566 -0.2896 -0.6730 -0.1055
 4730SOL    HW125649   2.232   3.534   5.609  0.2412 -1.8042 -0.4168
 4730SOL    HW225650   2.272   3.669   5.579 -0.6814 -0.7727 -0.4007
 4731SOL     OW25651   3.875   0.887   1.493  0.0912 -0.5617 -0.2359
 4731SOL    HW125652   3.876   0.842   1.577  3.1909 -0.3812 -0.1916
 4731SOL    HW225653   3.852   0.820   1.429  1.4321 -0.7183 -0.5571
 4732SOL     OW25654   2.455   2.538   8.610  0.1872  0.3606 -0.0288
 4732SOL    HW125655   2.479   2.447   8.597 -2.1197 -0.5565  2.1040
 4732SOL    HW225656   2.509   2.565   8.685  2.0988  0.5590 -1.4911
 4733SOL     OW25657   3.860   3.123   2.949  0.6231 -1.0078 -0.6318
 4733SOL    HW125658   3.882   3.210   2.916  0.4774 -0.7925 -0.1634
 4733SOL    HW225659   3.926   3.074   2.900  2.5114  0.9853 -0.0818
 4734SOL     OW25660   3.247   1.044   6.431  0.1352 -0.2204  0.0276
 4734SOL    HW125661   3.186   1.036   6.503  0.0905 -2.6814 -0.2702
 4734SOL    HW225662   3.195   1.029   6.352  0.5563  0.9322 -0.4671
 4735SOL     OW25663   4.511   1.774   4.390  0.0857 -0.1179 -0.1368
 4735SOL    HW125664   4.563   1.827   4.452  0.4036 -0.5198 -0.0567
 4735SOL    HW225665   4.583   1.733   4.343  0.7451 -0.0140  0.7679
 4736SOL     OW25666   0.770   3.725   2.413  0.2075 -0.0281  0.2268
 4736SOL    HW125667   0.721   3.643   2.412  0.8314 -0.4021  0.5771
 4736SOL    HW225668   0.750   3.753   2.502  0.7477  1.8027 -0.2322
 4737SOL     OW25669   1.611   4.720   5.227  0.4757 -0.4604 -0.4210
 4737SOL    HW125670   1.551   4.683   5.291 -0.1158 -1.9425 -1.8304
 4737SOL    HW225671   1.664   4.644   5.200 -0.5036 -1.2389 -0.1310
 4738SOL     OW25672   4.543   1.811  10.738 -0.2547  0.0638 -0.1167
 4738SOL    HW125673   4.556   1.718  10.717  3.5800  0.6518 -0.3946
 4738SOL    HW225674   4.536   1.847  10.650  0.6811  2.2861  0.7097
 4739SOL     OW25675   3.061   3.213   3.046  0.2971  0.2808 -0.1101
 4739SOL    HW125676   3.142   3.234   3.091 -0.0299  2.8478 -0.7524
 4739SOL    HW225677   3.016   3.297   3.056  1.9457  1.4842 -2.7061
 4740SOL     OW25678   1.034   4.113  11.448 -0.5204 -0.3224 -0.2501
 4740SOL    HW125679   1.006   4.035  11.497  1.0778  0.7247  2.3558
 4740SOL    HW225680   0.981   4.106  11.369  0.2174 -0.8008 -0.6993
 4741SOL     OW25681   1.750   0.217   4.040  1.2119 -0.3140  0.3808
 4741SOL    HW125682   1.793   0.284   4.094  2.2792 -1.1644  0.5933
 4741SOL    HW225683   1.793   0.141   4.079 -0.5521 -0.8533  1.2348
 4742SOL     OW25684   0.990   2.534   4.521 -0.3498 -0.6801 -0.0088
 4742SOL    HW125685   1.082   2.557   4.505 -0.9545  0.1546 -2.2336
 4742SOL    HW225686   0.992   2.515   4.615 -1.7575  2.1911  0.6195
 4743SOL     OW25687   4.709   1.499   8.314  0.2819 -0.7111 -0.2892
 4743SOL    HW125688   0.071   1.487   8.356  0.2393  0.6807  0.2134
 4743SOL    HW225689   4.724   1.530   8.225 -0.1248  1.1586  0.2820
 4744SOL     OW25690   1.697   2.409  10.649  0.1173  0.3994 -0.2747
 4744SOL    HW125691   1.713   2.328  10.601  1.1151 -1.1424  2.6842
 4744SOL    HW225692   1.762   2.463  10.604  1.3534 -0.9881 -0.1304
 4745SOL     OW25693   0.004   3.633   6.301  0.3052  0.5393  0.3680
 4745SOL    HW125694   4.702   3.720   6.331 -0.5819  0.2444  0.4928
 4745SOL    HW225695   0.082   3.648   6.248  0.0268  0.9799  0.0827
 4746SOL     OW25696   3.041   4.058  16.102 -0.1796 -0.0940 -0.4345
 4746SOL    HW125697   3.093   4.092  16.175 -1.2622  2.1046 -0.6943
 4746SOL    HW225698   3.047   4.139  16.052  2.3223 -0.7307 -1.1505
 4747SOL     OW25699   0.524   0.548   0.238  0.7631 -0.5102 -0.5884
 4747SOL    HW125700   0.608   0.513   0.269  0.0367 -0.8037  1.0296
 4747SOL    HW225701   0.553   0.620   0.181 -1.3734  2.0430  1.5405
 4748SOL     OW25702   3.973   1.020   4.507  0.7138  0.1876  0.4722
 4748SOL    HW125703   3.887   1.030   4.549  0.7676  0.7682  0.4454
 4748SOL    HW225704   3.943   0.956   4.443  0.0582  0.1190  0.8460
 4749SOL     OW25705   1.418   0.007   2.182  0.4846 -0.0422 -0.6770
 4749SOL    HW125706   1.416   0.074   2.114 -1.2058  0.1058 -0.4850
 4749SOL    HW225707   1.511   0.012   2.203 -0.3631  0.8963  2.7796
 4750SOL     OW25708   0.794   2.558   4.331  0.5008 -0.2311 -0.0677
 4750SOL    HW125709   0.754   2.471   4.326  1.2920 -0.6137  0.2197
 4750SOL    HW225710   0.862   2.534   4.394  2.2674  2.4490 -0.9223
 4751SOL     OW25711   0.243   0.507  16.296  0.5388  0.3783  0.5618
 4751SOL    HW125712   0.164   0.461  16.326  2.1731 -1.4410  2.1587
 4751SOL    HW225713   0.263   0.446  16.225  0.9034  0.7961  0.3038
 4752SOL     OW25714   0.435   2.193   5.390 -0.2923 -0.8694  0.4641
 4752SOL    HW125715   0.364   2.135   5.361 -0.4124 -0.0922 -0.8121
 4752SOL    HW225716   0.455   2.164   5.478 -0.1128 -1.0135  0.3752
 4753SOL     OW25717   2.132   4.000  16.596  0.8403  0.9727  0.3112
 4753SOL    HW125718   2.120   4.077  16.652  0.4881 -0.5907  2.3665
 4753SOL    HW225719   2.053   4.014  16.545 -0.6649  1.3748  2.7499
 4754SOL     OW25720   1.027   2.534   8.107  0.0743  0.3991  0.0550
 4754SOL    HW125721   1.064   2.585   8.034 -0.7192  0.4667 -0.3045
 4754SOL    HW225722   1.003   2.458   8.054 -0.7945  0.2059  0.7307
 4755SOL     OW25723   3.608   2.271   4.643  0.8716 -0.2714 -0.6755
 4755SOL    HW125724   3.564   2.195   4.605 -2.1263  1.6265 -1.0041
 4755SOL    HW225725   3.673   2.270   4.573  0.2591 -0.5023 -1.2446
 4756SOL     OW25726   4.582   4.186   4.277 -0.3873 -0.3027 -0.0254
 4756SOL    HW125727   4.511   4.149   4.330  0.0358 -3.1245 -1.3971
 4756SOL    HW225728   4.544   4.270   4.251 -0.4712  0.5224  2.8324
 4757SOL     OW25729   2.046   3.337   6.818  0.0270  0.1020  0.0196
 4757SOL    HW125730   2.077   3.338   6.909 -0.1957  1.5122  0.0828
 4757SOL    HW225731   1.982   3.408   6.813  0.3722  0.3022 -1.4835
 4758SOL     OW25732   1.314   3.049   5.581  0.4071 -0.0480 -0.0754
 4758SOL    HW125733   1.317   2.979   5.646 -0.9080  0.0833  0.1111
 4758SOL    HW225734   1.256   3.116   5.616  0.2805 -0.7225  1.0145
 4759SOL     OW25735   3.726   1.508   9.862 -0.1060  0.0797 -0.0148
 4759SOL    HW125736   3.666   1.505   9.787 -1.2325 -0.7447  0.9282
 4759SOL    HW225737   3.734   1.603   9.866 -0.5038  0.1935 -1.6710
 4760SOL     OW25738   3.703   1.965   8.158 -0.1247 -0.0660  0.0616
 4760SOL    HW125739   3.672   1.908   8.229  2.7200 -0.4605  0.9923
 4760SOL    HW225740   3.694   1.918   8.076 -1.4491  0.5881 -0.1774
 4761SOL     OW25741   1.730   4.566   8.975  0.1143 -0.3267  0.4531
 4761SOL    HW125742   1.642   4.542   8.947  0.9474 -1.4562 -1.1927
 4761SOL    HW225743   1.797   4.563   8.906  0.9194  0.5155  1.1902
 4762SOL     OW25744   0.089   4.275   6.766  0.0690 -0.8007  0.9960
 4762SOL    HW125745   0.033   4.310   6.696  0.3956  0.1517  1.2109
 4762SOL    HW225746   0.027   4.216   6.808 -1.8210 -0.2065 -0.9076
 4763SOL     OW25747   0.829   3.614   2.175  1.1610  0.2135  0.4450
 4763SOL    HW125748   0.850   3.541   2.232 -0.2065 -1.5625 -1.3232
 4763SOL    HW225749   0.821   3.684   2.240  0.1116  0.0813  0.4589
 4764SOL     OW25750   0.462   2.395   2.093 -0.0274  0.2492 -0.0936
 4764SOL    HW125751   0.460   2.366   2.002  3.0663 -0.1851 -0.0285
 4764SOL    HW225752   0.556   2.408   2.099  0.0214  0.8462 -1.9448
 4765SOL     OW25753   3.157   1.657  12.972 -0.3280  0.3542 -0.2309
 4765SOL    HW125754   3.209   1.586  13.010  1.1865  0.5222 -1.9924
 4765SOL    HW225755   3.068   1.628  12.953  0.5801 -1.0609 -2.2433
 4766SOL     OW25756   4.664   4.207   3.822  0.1502 -0.2481  0.2755
 4766SOL    HW125757   0.031   4.228   3.802 -0.1950  0.3020 -0.7307
 4766SOL    HW225758   4.663   4.205   3.918  2.2850  0.2396  0.3070
 4767SOL     OW25759   2.998   2.692  10.664  0.2459 -0.1821  0.2645
 4767SOL    HW125760   3.064   2.697  10.733  1.8905 -0.5736 -1.2788
 4767SOL    HW225761   3.036   2.691  10.576  0.4278 -0.9530  0.3494
 4768SOL     OW25762   1.235   2.824   5.877 -0.2522  0.1266  0.5917
 4768SOL    HW125763   1.159   2.874   5.848  0.7601  0.6417 -1.1906
 4768SOL    HW225764   1.188   2.764   5.935 -0.3000 -0.1694  0.2461
 4769SOL     OW25765   1.934   1.718   5.457 -0.1045  0.2376  0.3215
 4769SOL    HW125766   2.005   1.710   5.393 -1.6600 -0.8898 -1.2854
 4769SOL    HW225767   1.936   1.813   5.467  2.3020  0.2693 -0.5807
 4770SOL     OW25768   0.797   3.027   2.284 -0.8080 -0.1752  0.5131
 4770SOL    HW125769   0.804   2.931   2.284 -0.5001 -0.1688  2.9660
 4770SOL    HW225770   0.789   3.052   2.192  0.4058  1.7592  0.9335
 4771SOL     OW25771   3.497   1.946   6.884  0.0058 -0.1520 -0.2248
 4771SOL    HW125772   3.583   1.911   6.907 -0.0135  0.9768  1.6246
 4771SOL    HW225773   3.445   1.907   6.954  0.3568  0.2017  0.2312
 4772SOL     OW25774   2.943   1.791  16.473 -0.3683 -0.0713  0.8991
 4772SOL    HW125775   2.924   1.753  16.559 -1.3315  0.0075  0.7278
 4772SOL    HW225776   2.895   1.874  16.474  3.6144  2.2215  1.2897
 4773SOL     OW25777   4.064   0.638   0.732  0.1355  0.6012  0.4475
 4773SOL    HW125778   3.973   0.623   0.705  0.3271 -1.3340  0.8830
 4773SOL    HW225779   4.063   0.732   0.715 -0.5439  0.3553 -0.8466
 4774SOL     OW25780   1.335   0.376  14.644 -0.1989 -0.4730 -0.2390
 4774SOL    HW125781   1.366   0.443  14.583  1.3901  0.3171  1.4258
 4774SOL    HW225782   1.287   0.428  14.709  2.4559 -0.1971  1.5289
 4775SOL     OW25783   2.091   3.242   4.734  0.1300  0.2942 -0.2182
 4775SOL    HW125784   2.121   3.157   4.765 -0.5142  0.6944  1.5227
 4775SOL    HW225785   2.155   3.250   4.663 -0.5881 -0.7826 -0.9926
 4776SOL     OW25786   4.020   2.344  16.812  0.3570 -0.5703  0.1270
 4776SOL    HW125787   4.040   2.279  16.880  0.6227 -0.4089  0.2028
 4776SOL    HW225788   4.070   2.421  16.841 -0.6502  0.0968  0.0659
 4777SOL     OW25789   2.516   3.748  14.580  0.3491  0.0771  0.3886
 4777SOL    HW125790   2.542   3.813  14.645  1.6410  0.5981 -0.6542
 4777SOL    HW225791   2.581   3.679  14.593 -1.8737 -2.3309 -1.3729
 4778SOL     OW25792   3.218   3.318   3.396 -0.2910  0.2067  0.1587
 4778SOL    HW125793   3.228   3.411   3.416 -1.8173  0.1093  1.3626
 4778SOL    HW225794   3.274   3.304   3.319 -0.9193 -1.1786 -0.0464
 4779SOL     OW25795   1.510   4.716   0.109  0.4277 -0.1191 -0.1257
 4779SOL    HW125796   1.577   0.060   0.108 -0.8106  1.1189  1.1788
 4779SOL    HW225797   1.456   0.019   0.035 -1.7485 -0.8041  1.2303
 4780SOL     OW25798   3.581   1.559   2.540  0.5392 -0.1255 -1.2885
 4780SOL    HW125799   3.539   1.615   2.475 -1.1823  0.2889  0.1812
 4780SOL    HW225800   3.634   1.623   2.586 -0.5540  1.4549 -2.2034
 4781SOL     OW25801   4.415   1.189   7.997  0.0248 -0.1462 -0.2572
 4781SOL    HW125802   4.421   1.250   8.071  0.1932 -1.0067  0.4425
 4781SOL    HW225803   4.373   1.112   8.036 -4.0250  1.3734 -1.6327
 4782SOL     OW25804   2.613   0.929  12.853  0.3575 -0.2992  0.2012
 4782SOL    HW125805   2.571   0.862  12.908  1.4730 -1.1279  0.0396
 4782SOL    HW225806   2.702   0.913  12.882  0.2852 -0.2246  0.4625
 4783SOL     OW25807   3.466   3.222   3.610 -0.4699  0.3149 -0.2353
 4783SOL    HW125808   3.500   3.211   3.521 -1.5735 -2.3647 -0.3258
 4783SOL    HW225809   3.377   3.249   3.589 -1.0300 -1.4613 -0.2144
 4784SOL     OW25810   2.244   4.454   2.443 -0.2139  0.0350  0.4663
 4784SOL    HW125811   2.196   4.436   2.362  0.2908  1.4710 -0.1540
 4784SOL    HW225812   2.204   4.396   2.508 -0.6673 -2.0816 -1.7395
 4785SOL     OW25813   1.241   4.169   6.218 -0.1129  0.1032  0.1773
 4785SOL    HW125814   1.236   4.124   6.303  1.6188 -1.5820 -0.6025
 4785SOL    HW225815   1.290   4.246   6.247 -1.8950 -0.0309  3.6446
 4786SOL     OW25816   4.595   2.493   5.626  0.1128  0.4114 -0.2972
 4786SOL    HW125817   4.528   2.428   5.605  3.0357 -2.5789 -0.1191
 4786SOL    HW225818   4.538   2.547   5.682  0.5087 -3.7003  4.0585
 4787SOL     OW25819   1.262   3.079   3.364 -0.2086  0.1469  0.5875
 4787SOL    HW125820   1.264   3.174   3.353 -2.3943  0.1441  0.1827
 4787SOL    HW225821   1.195   3.056   3.428  0.1856  1.4573  1.4588
 4788SOL     OW25822   4.703   0.204   2.656 -0.6716 -0.4889  0.0873
 4788SOL    HW125823   4.620   0.188   2.701 -2.0783 -0.9866 -2.6243
 4788SOL    HW225824   0.038   0.147   2.704  0.0281 -0.8364 -1.1785
 4789SOL     OW25825   0.506   2.649   2.690 -0.3893  0.2418  0.1580
 4789SOL    HW125826   0.430   2.706   2.701  0.4278  1.1859  0.8785
 4789SOL    HW225827   0.495   2.592   2.766 -1.9327 -0.4766 -0.5988
 4790SOL     OW25828   1.162   4.194  13.273 -0.5830  0.4043 -0.3839
 4790SOL    HW125829   1.078   4.149  13.279  0.5244 -1.5849  0.1313
 4790SOL    HW225830   1.133   4.260  13.210 -2.2596 -0.2391 -0.2992
 4791SOL     OW25831   1.759   0.283   8.375 -0.7055  0.2028 -0.1794
 4791SOL    HW125832   1.790   0.221   8.308 -1.0886  1.5157 -1.5774
 4791SOL    HW225833   1.828   0.273   8.441 -0.5738  0.8866 -0.2177
 4792SOL     OW25834   2.292   3.126   1.336 -0.4377  0.4515  0.1708
 4792SOL    HW125835   2.218   3.134   1.397 -1.5155 -0.3012 -1.0528
 4792SOL    HW225836   2.297   3.214   1.300  0.7880  1.4710  2.8004
 4793SOL     OW25837   4.106   4.585  12.148  0.7849 -0.2061 -0.3239
 4793SOL    HW125838   4.017   4.618  12.162  0.1586 -2.6725  1.5158
 4793SOL    HW225839   4.092   4.517  12.082 -1.1621 -0.3558  0.2145
 4794SOL     OW25840   1.336   3.291   8.418 -0.5747  0.3157 -0.1358
 4794SOL    HW125841   1.371   3.202   8.407 -1.2581 -0.0186  0.4045
 4794SOL    HW225842   1.379   3.306   8.503 -1.5377  0.5542  0.3125
 4795SOL     OW25843   1.617   1.551   7.251  0.3317 -0.4525 -0.4200
 4795SOL    HW125844   1.612   1.612   7.325 -4.6563 -0.1087 -1.0378
 4795SOL    HW225845   1.524   1.526   7.247  0.0441  0.4570  0.5738
 4796SOL     OW25846   1.338   1.138  11.371 -0.1765  0.2964 -0.0861
 4796SOL    HW125847   1.295   1.096  11.446 -0.1236 -0.6828 -0.6080
 4796SOL    HW225848   1.383   1.062  11.336 -2.4290 -1.0923 -0.0111
 4797SOL     OW25849   2.678   0.241   6.307  0.0244  0.7152 -0.8054
 4797SOL    HW125850   2.637   0.242   6.393 -0.2317 -1.2890 -0.9031
 4797SOL    HW225851   2.771   0.260   6.316  0.1389  0.2364 -1.0196
 4798SOL     OW25852   3.374   1.959   1.651 -0.5256 -0.1246 -0.0456
 4798SOL    HW125853   3.427   1.994   1.722  3.1882 -0.5347 -2.6234
 4798SOL    HW225854   3.318   1.894   1.695 -0.4357 -0.9365 -1.1239
 4799SOL     OW25855   4.067   2.361  12.353  0.2006 -0.0367 -0.0911
 4799SOL    HW125856   4.049   2.447  12.391 -0.2958  1.3208 -3.3959
 4799SOL    HW225857   4.043   2.301  12.424  0.0903 -3.0396 -2.6129
 4800SOL     OW25858   2.341   1.341   4.123  0.0443  0.1888 -0.0655
 4800SOL    HW125859   2.353   1.419   4.069 -0.0484  2.4245  3.1909
 4800SOL    HW225860   2.318   1.278   4.054 -1.2327 -0.2272  0.7327
 4801SOL     OW25861   3.924   3.090   2.155 -0.2463 -0.2271  0.4765
 4801SOL    HW125862   3.961   3.153   2.094 -2.2044  0.4403 -0.0409
 4801SOL    HW225863   3.856   3.148   2.190  0.0996  0.7412 -0.4780
 4802SOL     OW25864   0.766   0.527   8.782 -0.1600 -0.0724 -0.0522
 4802SOL    HW125865   0.822   0.483   8.846  0.4072 -1.0522 -1.2181
 4802SOL    HW225866   0.716   0.591   8.833  0.8183  0.1474  0.6284
 4803SOL     OW25867   1.811   1.692   7.433  0.6067 -0.1375  0.3222
 4803SOL    HW125868   1.806   1.718   7.341  3.5554  0.3956  0.3137
 4803SOL    HW225869   1.888   1.749   7.442 -1.9189  3.1776  1.0617
 4804SOL     OW25870   1.470   0.713   9.562 -0.1117  0.1373 -0.4573
 4804SOL    HW125871   1.551   0.738   9.516  0.6462  1.9811  1.8627
 4804SOL    HW225872   1.460   0.786   9.623  1.0877 -1.6482  1.8508
 4805SOL     OW25873   2.105   2.288   2.708 -0.0322  0.6031  0.1273
 4805SOL    HW125874   2.059   2.269   2.790  1.9398 -1.1921  0.8109
 4805SOL    HW225875   2.190   2.325   2.729  0.5804 -1.0635  0.5280
 4806SOL     OW25876   3.880   3.918   8.602  0.2638 -0.6096  0.3061
 4806SOL    HW125877   3.954   3.901   8.661 -0.4384  1.9351  1.9222
 4806SOL    HW225878   3.861   3.825   8.587  0.2915 -0.6297  0.3951
 4807SOL     OW25879   0.028   1.624  13.921 -0.0063  0.5631 -0.2812
 4807SOL    HW125880   4.665   1.613  13.961  0.3977  2.0688  0.9919
 4807SOL    HW225881   0.011   1.653  13.832  1.7862 -1.4733 -1.2845
 4808SOL     OW25882   0.918   1.491   2.782  0.5906  0.5127 -0.1684
 4808SOL    HW125883   0.881   1.432   2.848  2.8996 -2.2647 -1.3427
 4808SOL    HW225884   0.956   1.557   2.841 -0.5414 -0.5442  1.7266
 4809SOL     OW25885   4.373   4.667  12.906 -0.3681  0.2849 -0.4238
 4809SOL    HW125886   4.335   4.653  12.993  0.3166 -0.0981 -0.1834
 4809SOL    HW225887   4.387   4.575  12.885  0.0041  0.0338  0.9306
 4810SOL     OW25888   2.359   1.099  13.194  0.3115 -0.0105  0.0887
 4810SOL    HW125889   2.317   1.144  13.267  1.5386 -2.3510  2.2202
 4810SOL    HW225890   2.431   1.160  13.181 -0.2300  0.1705 -2.1086
 4811SOL     OW25891   3.783   1.308   5.999 -0.6893 -0.1540  0.2490
 4811SOL    HW125892   3.840   1.280   5.928 -0.1090  0.4931  0.4553
 4811SOL    HW225893   3.778   1.401   5.976  0.5855 -0.5919 -1.8109
 4812SOL     OW25894   0.137   1.190  12.373 -0.0411 -0.3208  0.0912
 4812SOL    HW125895   0.062   1.171  12.429 -0.1527  1.2461  0.4475
 4812SOL    HW225896   0.115   1.271  12.327 -0.1843 -0.5189 -0.1918
 4813SOL     OW25897   0.690   2.906   0.626  0.1006  0.4690 -0.1220
 4813SOL    HW125898   0.621   2.925   0.563 -0.2682 -1.0376 -0.1718
 4813SOL    HW225899   0.765   2.910   0.567  1.4373 -3.0321  1.3061
 4814SOL     OW25900   2.822   1.499   7.325  0.3506  0.0675 -0.4537
 4814SOL    HW125901   2.785   1.413   7.345  0.6362  0.4909  1.9188
 4814SOL    HW225902   2.754   1.565   7.319 -1.5007 -1.8079  0.1548
 4815SOL     OW25903   4.275   0.327   8.278 -0.1274 -0.0670  0.0409
 4815SOL    HW125904   4.308   0.406   8.322  3.0741 -0.5729 -1.3957
 4815SOL    HW225905   4.346   0.265   8.299  0.7708  0.5461 -1.1748
 4816SOL     OW25906   3.615   0.854   8.668  0.4807  0.0744  0.1200
 4816SOL    HW125907   3.669   0.785   8.707 -1.9070 -1.6065  0.4509
 4816SOL    HW225908   3.526   0.832   8.698  0.4277  0.9250  0.5928
 4817SOL     OW25909   4.157   0.729   8.117 -0.0663 -0.2596 -0.2950
 4817SOL    HW125910   4.082   0.777   8.082 -0.3881  0.1401  0.9338
 4817SOL    HW225911   4.129   0.639   8.103 -0.3319 -0.5464  2.0666
 4818SOL     OW25912   2.581   1.828   7.098  1.1673 -0.4840 -0.1953
 4818SOL    HW125913   2.563   1.922   7.094  0.3321 -0.6143  0.3939
 4818SOL    HW225914   2.560   1.799   7.009 -0.7381  0.2198  0.0213
 4819SOL     OW25915   1.277   4.206  11.475 -0.1100 -0.6434  0.2271
 4819SOL    HW125916   1.187   4.174  11.473 -0.7099  1.1747 -1.4235
 4819SOL    HW225917   1.297   4.235  11.386  1.0756  1.1468  1.0565
 4820SOL     OW25918   2.484   0.415   2.461 -0.3420  0.3015  0.0530
 4820SOL    HW125919   2.515   0.401   2.372  1.0998 -0.2056  0.6446
 4820SOL    HW225920   2.406   0.360   2.449 -0.8811  0.4627  2.7203
 4821SOL     OW25921   0.109   1.082   4.332 -0.5361  0.2369  0.2002
 4821SOL    HW125922   0.047   1.143   4.291  1.7164  1.7209 -1.0097
 4821SOL    HW225923   0.064   1.069   4.415  1.1235 -1.4096  0.8370
 4822SOL     OW25924   1.295   2.749  14.787  0.0226  0.5308 -0.0173
 4822SOL    HW125925   1.388   2.770  14.795  0.7081 -2.6041  0.1970
 4822SOL    HW225926   1.293   2.655  14.771 -0.9627 -0.0023  3.2205
 4823SOL     OW25927   0.722   1.632   5.916 -0.0513  0.1207  0.3758
 4823SOL    HW125928   0.642   1.658   5.961  0.2634 -2.5761  2.5311
 4823SOL    HW225929   0.772   1.714   5.916  1.0188 -0.5256  0.2239
 4824SOL     OW25930   1.517   4.204   4.687  0.2270 -0.7660  0.4743
 4824SOL    HW125931   1.527   4.197   4.592  3.9879 -0.9675  0.8867
 4824SOL    HW225932   1.567   4.282   4.710  0.3643 -1.4160  2.3764
 4825SOL     OW25933   2.008   4.696  11.591  0.3632 -0.5151 -0.2515
 4825SOL    HW125934   1.950   0.037  11.630  1.1815  0.2694 -0.3202
 4825SOL    HW225935   2.051   0.025  11.524 -0.0867 -0.7450 -0.7209
 4826SOL     OW25936   1.324   3.030   1.333 -0.2004 -0.1864 -0.3696
 4826SOL    HW125937   1.297   2.971   1.263 -2.5742 -0.1353  0.4875
 4826SOL    HW225938   1.382   2.972   1.381 -0.4507 -0.1799 -0.0605
 4827SOL     OW25939   3.220   1.768  16.638 -0.2381  0.3103  0.6631
 4827SOL    HW125940   3.237   1.789  16.546 -3.8386  2.4132  0.4445
 4827SOL    HW225941   3.240   1.847  16.688 -0.0683 -0.0248  1.1219
 4828SOL     OW25942   1.837   4.643   3.931  0.2128 -0.0197  0.4326
 4828SOL    HW125943   1.797   4.692   3.860  1.1427 -0.8585 -0.6733
 4828SOL    HW225944   1.788   4.682   4.003 -1.9995 -0.8658 -0.6285
 4829SOL     OW25945   4.185   4.458   8.348  0.6632  0.0830 -0.3525
 4829SOL    HW125946   4.264   4.488   8.305  1.4452  0.2314  1.1793
 4829SOL    HW225947   4.187   4.362   8.352  0.2720  0.0279 -1.5283
 4830SOL     OW25948   2.138   0.146  12.317  0.3783  0.2486  0.1142
 4830SOL    HW125949   2.161   0.065  12.272  0.5998  0.0799  0.5342
 4830SOL    HW225950   2.159   0.122  12.407  0.0370  1.4692  0.5145
 4831SOL     OW25951   2.588   4.343   6.098 -0.1872  0.2802 -0.3657
 4831SOL    HW125952   2.665   4.358   6.044  1.9043 -0.9588  2.3077
 4831SOL    HW225953   2.540   4.425   6.101 -0.9280 -0.2432  2.5862
 4832SOL     OW25954   4.473   3.822   4.284  0.0689 -0.0872 -0.4468
 4832SOL    HW125955   4.421   3.850   4.360 -1.8413 -1.8110 -1.1161
 4832SOL    HW225956   4.560   3.799   4.317 -0.7314 -2.2805  0.1751
 4833SOL     OW25957   2.274   0.852   4.852 -0.5997 -0.0607  0.2363
 4833SOL    HW125958   2.186   0.836   4.888 -1.3432 -1.6678 -2.2917
 4833SOL    HW225959   2.254   0.945   4.843  0.6224  0.1269 -0.5016
 4834SOL     OW25960   2.233   1.987   5.320 -0.0900  0.6243 -0.2721
 4834SOL    HW125961   2.296   1.924   5.356 -0.3980 -0.0614 -0.9322
 4834SOL    HW225962   2.214   2.036   5.400 -1.1029  1.7900 -1.2267
 4835SOL     OW25963   0.023   3.921   8.698 -0.1300  0.2448  0.0983
 4835SOL    HW125964   4.674   3.968   8.657  0.3098 -1.3213 -2.4931
 4835SOL    HW225965   0.095   3.975   8.665  1.6824 -0.7192  2.4600
 4836SOL     OW25966   1.558   0.298   4.673 -0.1969  0.0634 -0.4896
 4836SOL    HW125967   1.571   0.233   4.604 -0.1854  0.5011 -0.8980
 4836SOL    HW225968   1.554   0.235   4.746  0.3297  1.7764  1.0180
 4837SOL     OW25969   0.029   4.297   7.119 -0.1022 -0.4044  0.2375
 4837SOL    HW125970   4.690   4.232   7.152  0.5244 -0.4691  1.2808
 4837SOL    HW225971   4.701   4.333   7.046 -1.3639 -0.8413  0.9111
 4838SOL     OW25972   0.310   2.872  11.158 -0.8402 -0.5997 -0.2924
 4838SOL    HW125973   0.252   2.892  11.085 -0.8825 -4.7019 -1.3905
 4838SOL    HW225974   0.391   2.882  11.109 -0.8141 -0.5090 -0.2298
 4839SOL     OW25975   1.934   3.335   4.437  0.1039 -0.5622  0.3357
 4839SOL    HW125976   1.887   3.405   4.392  0.2625 -1.3823 -1.1124
 4839SOL    HW225977   2.008   3.321   4.376 -1.0020  0.4890 -1.2442
 4840SOL     OW25978   3.392   1.962  12.991 -0.0886  0.0555 -0.3481
 4840SOL    HW125979   3.483   1.933  13.001  0.0984  0.2920 -1.3503
 4840SOL    HW225980   3.405   2.053  12.967 -0.9317  0.4995  0.9046
 4841SOL     OW25981   1.291   0.225   8.957  0.0345  0.0839  0.0138
 4841SOL    HW125982   1.333   0.152   8.910 -4.4108 -1.7165 -1.1215
 4841SOL    HW225983   1.202   0.234   8.924 -0.5001  1.0701  1.7851
 4842SOL     OW25984   3.622   4.021   0.552 -0.1912 -0.7747 -0.3890
 4842SOL    HW125985   3.660   4.043   0.467  0.7674 -0.8226  0.0338
 4842SOL    HW225986   3.528   4.019   0.533 -0.3370  1.7402  0.1588
 4843SOL     OW25987   0.427   0.601   5.487 -0.0268 -0.2557  0.1869
 4843SOL    HW125988   0.507   0.569   5.529 -0.6857 -1.2880  0.6747
 4843SOL    HW225989   0.388   0.526   5.441  0.6720  1.0116 -2.4475
 4844SOL     OW25990   1.404   1.120   8.415 -0.3561  0.1908 -0.5018
 4844SOL    HW125991   1.347   1.087   8.345  1.9440 -0.9004 -1.8539
 4844SOL    HW225992   1.452   1.189   8.371 -0.2843  0.5789  0.1783
 4845SOL     OW25993   3.866   0.573  12.017  0.1979  0.6897  0.1704
 4845SOL    HW125994   3.935   0.513  11.989  1.6380  1.4524  2.0755
 4845SOL    HW225995   3.856   0.541  12.107 -0.4894  0.7654  0.1165
 4846SOL     OW25996   2.272   2.082   8.001  0.3240  0.0599  0.6057
 4846SOL    HW125997   2.279   2.166   7.955  0.3894 -0.2189  0.1051
 4846SOL    HW225998   2.181   2.067   7.976  1.5130 -3.2196 -1.7224
 4847SOL     OW25999   2.316   3.275   6.404 -0.4548 -0.1122  0.9012
 4847SOL    HW126000   2.254   3.346   6.423 -1.1711 -0.3877 -0.3904
 4847SOL    HW226001   2.393   3.330   6.413 -2.9073  3.4136  0.5515
 4848SOL     OW26002   2.376   3.983   3.533  0.1817 -0.2546  0.6120
 4848SOL    HW126003   2.383   4.009   3.624 -0.0089  0.7183  0.3557
 4848SOL    HW226004   2.393   3.889   3.533 -0.0577 -0.3218 -1.9242
 4849SOL     OW26005   1.128   2.774   8.325 -0.2149  0.4879  0.4530
 4849SOL    HW126006   1.116   2.799   8.417 -1.5738  1.0068  0.1402
 4849SOL    HW226007   1.144   2.680   8.333 -0.3908  0.3944 -0.2963
 4850SOL     OW26008   0.029   3.897   3.407  0.0886  0.0859  0.5885
 4850SOL    HW126009   4.696   3.914   3.483 -2.8651  1.4030 -1.9186
 4850SOL    HW226010   0.003   3.810   3.376  2.7859 -0.3730 -0.3834
 4851SOL     OW26011   1.932   1.596   2.186 -0.8373 -0.6174  0.5940
 4851SOL    HW126012   1.923   1.506   2.155 -2.2660 -0.3730  0.2771
 4851SOL    HW226013   1.925   1.643   2.103 -1.6055  0.0101  1.0100
 4852SOL     OW26014   3.615   3.891  10.736 -0.0513  0.8136 -0.3202
 4852SOL    HW126015   3.563   3.971  10.733  0.8645  1.3494 -1.8940
 4852SOL    HW226016   3.701   3.911  10.698  1.9052 -1.8884  2.7148
 4853SOL     OW26017   4.709   0.391   1.288  0.1491 -0.2251 -0.2788
 4853SOL    HW126018   0.016   0.384   1.379  1.2309  2.8772 -0.4253
 4853SOL    HW226019   0.056   0.335   1.256  1.2336 -0.1193  1.8823
 4854SOL     OW26020   0.919   3.473  17.127 -0.6891 -0.2983  0.0732
 4854SOL    HW126021   0.920   3.449  17.034  0.3944  2.5819 -0.6576
 4854SOL    HW226022   0.960   3.560  17.125 -0.3386 -0.4868 -1.8958
 4855SOL     OW26023   2.722   2.932   9.798 -0.4056 -0.6984  0.2651
 4855SOL    HW126024   2.665   2.899   9.867  1.8733 -2.5499  1.2870
 4855SOL    HW226025   2.671   2.901   9.723 -0.3988 -0.4122  0.1412
 4856SOL     OW26026   2.670   2.670  16.739  0.3210  0.1535 -0.2951
 4856SOL    HW126027   2.611   2.608  16.697  1.2680 -0.1140 -1.2457
 4856SOL    HW226028   2.610   2.721  16.793  0.0242 -0.8689  0.3547
 4857SOL     OW26029   2.120   4.249   2.729 -0.2507 -0.0234  0.0469
 4857SOL    HW126030   2.035   4.232   2.769 -0.5193 -0.6207 -0.7774
 4857SOL    HW226031   2.176   4.227   2.803  0.9662  2.1926 -0.1809
 4858SOL     OW26032   1.334   4.101  13.080  0.3123  0.1467 -0.3056
 4858SOL    HW126033   1.282   4.141  13.149 -0.4765 -2.0671  0.3816
 4858SOL    HW226034   1.397   4.051  13.131  0.5016  0.4269 -0.2659
 4859SOL     OW26035   3.861   1.974   4.810 -0.2680  0.3485 -0.3974
 4859SOL    HW126036   3.771   1.998   4.788  0.1369  1.2521 -1.0914
 4859SOL    HW226037   3.856   1.936   4.898  2.1780 -1.4005 -1.0181
 4860SOL     OW26038   1.625   2.696  13.436 -0.5242 -0.5861 -0.0696
 4860SOL    HW126039   1.613   2.665  13.346  0.7985 -1.2227 -0.0319
 4860SOL    HW226040   1.563   2.767  13.425 -1.8929 -1.8800 -0.7640
 4861SOL     OW26041   3.796   2.835  10.146 -0.1046  0.1413 -0.4310
 4861SOL    HW126042   3.854   2.895  10.193 -0.2000 -0.1305  0.0291
 4861SOL    HW226043   3.866   2.789  10.100 -1.0666 -1.5527 -0.1754
 4862SOL     OW26044   1.639   0.099  10.126 -0.2438  0.5993 -0.5547
 4862SOL    HW126045   1.718   0.056  10.160 -0.9243  0.6723  1.1079
 4862SOL    HW226046   1.606   0.162  10.190  3.3980  1.4525  0.5047
 4863SOL     OW26047   0.588   1.412  13.825 -0.3582  0.1985  0.1784
 4863SOL    HW126048   0.666   1.467  13.823  0.8156 -1.4158  1.7101
 4863SOL    HW226049   0.517   1.472  13.803 -2.4901 -1.3030  2.9201
 4864SOL     OW26050   4.279   4.066   8.646 -0.2392  0.7459 -0.3825
 4864SOL    HW126051   4.359   4.028   8.610  0.7059  1.1448  1.3403
 4864SOL    HW226052   4.248   3.996   8.704  0.1685  0.3948 -0.5843
 4865SOL     OW26053   3.806   4.383   0.968  0.0828 -0.2606 -0.3043
 4865SOL    HW126054   3.722   4.419   0.996 -0.3367 -0.4318 -1.3407
 4865SOL    HW226055   3.781   4.323   0.898  1.8352  1.0959 -2.0838
 4866SOL     OW26056   3.952   0.188   1.833 -0.3383 -0.0435  0.1855
 4866SOL    HW126057   4.029   0.242   1.852 -0.6976  0.6413 -0.2734
 4866SOL    HW226058   3.885   0.252   1.859 -0.8537 -1.2245  1.7930
 4867SOL     OW26059   3.834   1.369  11.745 -0.2958  0.5601  0.2359
 4867SOL    HW126060   3.905   1.428  11.721 -0.4774  2.0796  3.5530
 4867SOL    HW226061   3.795   1.413  11.820 -0.6515  1.9440 -0.7565
 4868SOL     OW26062   4.142   2.888  16.396  1.0826  0.6749 -0.3697
 4868SOL    HW126063   4.117   2.796  16.401  0.2639  0.8413 -1.5101
 4868SOL    HW226064   4.089   2.938  16.459  2.2102  1.8580 -0.3737
 4869SOL     OW26065   4.117   4.396   6.515 -0.2431 -0.2394 -0.4230
 4869SOL    HW126066   4.035   4.433   6.483 -0.4139  1.4459  1.9124
 4869SOL    HW226067   4.181   4.456   6.477 -0.0942  0.0794  0.3292
 4870SOL     OW26068   2.130   0.591   5.496  0.3241  0.2046 -0.3923
 4870SOL    HW126069   2.193   0.624   5.560  0.5130 -1.2691  0.1902
 4870SOL    HW226070   2.158   0.499   5.491 -0.4982 -0.1290  1.1622
 4871SOL     OW26071   1.314   0.320   3.820  0.2906  0.0375  0.0108
 4871SOL    HW126072   1.315   0.225   3.814 -1.4486 -0.0832  1.5345
 4871SOL    HW226073   1.370   0.336   3.896 -1.1241 -0.5674  1.1835
 4872SOL     OW26074   2.774   4.031   5.422  0.2965 -0.3910 -0.2633
 4872SOL    HW126075   2.759   4.115   5.379  0.0785  0.3339  1.2336
 4872SOL    HW226076   2.701   4.017   5.483 -0.7769  1.1483 -1.1651
 4873SOL     OW26077   4.366   1.376  11.939  1.1871 -0.0134 -0.3461
 4873SOL    HW126078   4.430   1.307  11.956  0.0563 -0.1850  3.1763
 4873SOL    HW226079   4.362   1.370  11.843  0.5973  0.5919 -0.3664
 4874SOL     OW26080   4.463   3.842   9.477 -0.1871 -0.1450 -0.6089
 4874SOL    HW126081   4.498   3.760   9.513  0.5969  0.1002 -0.7998
 4874SOL    HW226082   4.482   3.906   9.546 -0.1361  0.2371 -0.9741
 4875SOL     OW26083   0.691   1.766   9.519  0.0718 -0.6525  0.1455
 4875SOL    HW126084   0.734   1.792   9.438 -0.4462 -3.0666 -0.9000
 4875SOL    HW226085   0.746   1.689   9.536  1.3979  0.2157 -0.1794
 4876SOL     OW26086   4.301   4.259   7.000 -0.6729 -0.0612 -0.3190
 4876SOL    HW126087   4.295   4.306   6.917  0.4905 -0.5813 -0.7021
 4876SOL    HW226088   4.311   4.173   6.959  2.6931  0.4989 -0.6999
 4877SOL     OW26089   3.751   3.306   7.206  0.0757  0.0820 -0.2521
 4877SOL    HW126090   3.663   3.334   7.180 -0.1117 -0.7602 -0.5322
 4877SOL    HW226091   3.741   3.262   7.291 -2.0489  1.1292  0.0540
 4878SOL     OW26092   0.401   2.026   1.590 -0.3898 -0.2976 -0.1575
 4878SOL    HW126093   0.471   2.089   1.609  0.7371 -1.4514 -0.4864
 4878SOL    HW226094   0.360   2.037   1.676 -0.8144 -2.0808 -0.1287
 4879SOL     OW26095   0.124   3.556   6.563  0.1115  0.3541 -0.3155
 4879SOL    HW126096   0.127   3.477   6.508  2.2585  1.2207 -1.4318
 4879SOL    HW226097   0.212   3.588   6.543  0.6230  0.8361  2.6965
 4880SOL     OW26098   0.838   2.056   0.339 -0.1558 -0.4929 -0.1001
 4880SOL    HW126099   0.844   2.043   0.434 -1.7155  0.2634  0.1011
 4880SOL    HW226100   0.877   2.142   0.325  0.4043 -0.2840  2.8482
 4881SOL     OW26101   1.023   0.690   9.025  0.1230 -0.5023  0.1622
 4881SOL    HW126102   0.948   0.631   9.026 -0.5051  0.2702 -1.1691
 4881SOL    HW226103   0.979   0.771   9.049 -0.5206 -0.9385  0.4484
 4882SOL     OW26104   3.042   0.302   2.653 -0.2451  0.0500  0.0466
 4882SOL    HW126105   3.037   0.373   2.588 -3.4156 -1.0217 -0.8543
 4882SOL    HW226106   3.010   0.242   2.586 -0.0179 -0.5235  0.4505
 4883SOL     OW26107   1.450   1.477  13.578 -0.7803  0.5458  0.1761
 4883SOL    HW126108   1.514   1.442  13.516  1.2592 -0.0888  2.6310
 4883SOL    HW226109   1.376   1.507  13.525 -2.1441 -0.5130  1.4791
 4884SOL     OW26110   1.189   0.503  14.837 -0.1132  0.0235  0.1304
 4884SOL    HW126111   1.110   0.504  14.890 -0.9368 -0.2852 -1.1020
 4884SOL    HW226112   1.255   0.494  14.906 -0.4815 -1.1317  0.3302
 4885SOL     OW26113   3.002   1.214  16.659  0.1290 -0.4143 -0.2127
 4885SOL    HW126114   2.976   1.219  16.751 -0.9920  0.1499 -0.5475
 4885SOL    HW226115   3.054   1.293  16.642  1.4712 -1.7124 -2.1461
 4886SOL     OW26116   0.537   3.228   0.632  0.0630  0.0036  0.1121
 4886SOL    HW126117   0.442   3.227   0.615 -0.0319 -0.1269  0.6578
 4886SOL    HW226118   0.542   3.216   0.726  0.2120  0.5472  0.1761
 4887SOL     OW26119   1.531   1.559   3.090 -0.1529 -0.1730  0.1471
 4887SOL    HW126120   1.620   1.562   3.056 -0.2438 -0.8082 -0.1327
 4887SOL    HW226121   1.541   1.524   3.179  0.4304 -1.8076 -0.5622
 4888SOL     OW26122   2.800   2.283   4.953  0.0581 -0.1672 -0.2206
 4888SOL    HW126123   2.732   2.300   4.887 -0.7163  0.4709  0.7447
 4888SOL    HW226124   2.805   2.188   4.951  0.5665 -0.1244 -1.0879
 4889SOL     OW26125   3.358   1.967  15.493 -0.0885 -0.2083  0.8057
 4889SOL    HW126126   3.386   2.000  15.408 -1.9358  0.2285  0.3667
 4889SOL    HW226127   3.263   1.964  15.486  0.0842  0.3582 -1.6673
 4890SOL     OW26128   4.287   0.525   9.206  0.0883 -0.5178 -0.0372
 4890SOL    HW126129   4.263   0.472   9.130  1.8985 -1.1561 -0.1753
 4890SOL    HW226130   4.374   0.489   9.225 -0.4325 -0.2752  2.7569
 4891SOL     OW26131   1.296   1.039   9.062  0.1808  0.5740  0.2248
 4891SOL    HW126132   1.275   1.130   9.082 -1.8370 -0.1066  1.1777
 4891SOL    HW226133   1.315   1.047   8.968 -0.8330 -4.0213 -0.3597
 4892SOL     OW26134   2.926   2.191  15.296  0.2018  0.1797 -0.2907
 4892SOL    HW126135   2.895   2.207  15.207 -0.1741 -0.0125 -0.1937
 4892SOL    HW226136   2.975   2.273  15.304  0.8028 -0.1947 -0.1656
 4893SOL     OW26137   3.716   1.740   2.926  0.2297  0.6382 -0.1112
 4893SOL    HW126138   3.807   1.767   2.925 -0.1946  1.9719 -3.2345
 4893SOL    HW226139   3.683   1.812   2.980 -0.8797  0.9478 -1.1904
 4894SOL     OW26140   3.545   2.607   4.993 -0.0119  0.1843 -0.7034
 4894SOL    HW126141   3.627   2.652   5.012 -1.6138  2.0267  1.8865
 4894SOL    HW226142   3.586   2.522   4.978 -1.2368 -0.2805 -1.4671
 4895SOL     OW26143   1.915   0.651   6.891 -0.1021  0.0939 -0.1524
 4895SOL    HW126144   1.858   0.679   6.963 -0.9261  2.3682 -1.6829
 4895SOL    HW226145   1.892   0.559   6.884 -0.5328  0.0932  1.2566
 4896SOL     OW26146   2.012   3.581  13.181 -0.2291  0.3212 -0.3442
 4896SOL    HW126147   1.981   3.497  13.213  0.2329 -0.0132 -0.7737
 4896SOL    HW226148   2.011   3.568  13.086  0.3722  1.9439 -0.5824
 4897SOL     OW26149   1.581   4.032  17.535 -0.1972 -0.4079 -0.5642
 4897SOL    HW126150   1.621   3.966  17.592  2.3256  0.4890 -1.2615
 4897SOL    HW226151   1.651   4.091  17.505  1.9005 -1.8485  1.4852
 4898SOL     OW26152   1.057   3.986  16.922 -0.0469  0.7755  0.0217
 4898SOL    HW126153   1.025   3.978  16.832 -0.5050  0.3539  0.2227
 4898SOL    HW226154   1.132   4.043  16.905  2.2155 -1.8517  1.3655
 4899SOL     OW26155   2.925   3.314  11.856 -0.3537  0.2814  0.4910
 4899SOL    HW126156   2.891   3.402  11.875 -0.9422  0.4456 -1.3171
 4899SOL    HW226157   2.862   3.257  11.900 -0.9317  0.0744 -0.6280
 4900SOL     OW26158   2.788   2.294   1.797  0.4699 -0.1019  0.4829
 4900SOL    HW126159   2.746   2.220   1.753 -0.8029  1.1928 -0.4783
 4900SOL    HW226160   2.750   2.283   1.885  0.1736 -0.1280  0.3509
 4901SOL     OW26161   0.822   3.421   0.992  0.3457 -0.0452  0.1440
 4901SOL    HW126162   0.806   3.328   0.976  2.1289 -0.1537 -1.0919
 4901SOL    HW226163   0.834   3.422   1.087  1.2616 -0.2234  0.0325
 4902SOL     OW26164   3.386   2.820   4.878 -0.7086  0.2786  0.3467
 4902SOL    HW126165   3.436   2.759   4.932 -1.4027 -0.1588  0.4995
 4902SOL    HW226166   3.319   2.756   4.853 -0.4043  0.1446 -0.1174
 4903SOL     OW26167   0.426   1.438   5.930  0.2717 -0.6073 -0.0968
 4903SOL    HW126168   0.460   1.467   5.846  1.1094 -0.0761  0.4347
 4903SOL    HW226169   0.343   1.485   5.924  0.7753  0.2587 -0.2105
 4904SOL     OW26170   1.890   3.293   5.474  0.0511 -0.3726 -0.5002
 4904SOL    HW126171   1.886   3.243   5.392  1.4168 -1.9155  0.3643
 4904SOL    HW226172   1.809   3.257   5.509  0.8942  1.1214  2.8917
 4905SOL     OW26173   0.911   1.512  16.192  0.6128  0.1389  0.4703
 4905SOL    HW126174   0.902   1.522  16.098 -4.0892  0.1948  0.9244
 4905SOL    HW226175   0.899   1.606  16.210 -1.6439 -0.1773  0.5988
 4906SOL     OW26176   0.778   1.055   6.305  0.4708 -0.1743  0.2118
 4906SOL    HW126177   0.844   1.111   6.264  1.4592  0.4657  2.7130
 4906SOL    HW226178   0.824   0.971   6.306  1.6677  0.4888  0.6555
 4907SOL     OW26179   4.634   1.307   3.916  0.3499  0.7974 -0.3511
 4907SOL    HW126180   4.643   1.330   4.008 -2.4740  1.8690 -0.3583
 4907SOL    HW226181   4.718   1.263   3.903  0.6337  1.1559  0.3003
 4908SOL     OW26182   3.397   3.727  11.827 -0.5606 -0.3234  0.4550
 4908SOL    HW126183   3.399   3.653  11.767  0.6058  1.3928 -1.6485
 4908SOL    HW226184   3.378   3.674  11.904 -1.9754 -0.7845 -0.2168
 4909SOL     OW26185   2.767   2.542  17.384 -0.1910  0.0391  0.2348
 4909SOL    HW126186   2.695   2.595  17.349 -0.9033 -1.1063 -0.0383
 4909SOL    HW226187   2.829   2.540  17.312  1.9402 -0.8047  2.0909
 4910SOL     OW26188   2.375   2.734   2.562  0.2098 -0.4750 -0.1342
 4910SOL    HW126189   2.430   2.782   2.500 -0.0436 -1.1183 -0.8544
 4910SOL    HW226190   2.441   2.685   2.611  0.1420  1.2286  1.6438
 4911SOL     OW26191   2.938   0.147   4.155 -0.0266 -0.2131  0.0824
 4911SOL    HW126192   2.885   0.146   4.234 -0.2909 -1.5594 -0.1151
 4911SOL    HW226193   2.877   0.187   4.092 -1.1143  1.3797  2.1797
 4912SOL     OW26194   3.494   0.669  12.319  0.4141 -0.0458  0.3186
 4912SOL    HW126195   3.494   0.711  12.232  1.1163  0.7287  0.6922
 4912SOL    HW226196   3.588   0.667  12.336  0.1247  0.6107  1.9015
 4913SOL     OW26197   4.452   4.201   0.567 -0.2342 -0.1046  0.6954
 4913SOL    HW126198   4.468   4.234   0.656 -3.4080 -0.5600  1.4425
 4913SOL    HW226199   4.532   4.223   0.518 -0.0621 -3.4577 -0.4763
 4914SOL     OW26200   2.850   2.190  11.900  0.2660 -0.2243  0.4091
 4914SOL    HW126201   2.939   2.223  11.913  0.7040 -1.1825 -0.1889
 4914SOL    HW226202   2.858   2.101  11.934  3.2879 -0.5181 -1.0105
 4915SOL     OW26203   3.171   3.354   7.175  0.0704  0.2664  0.3983
 4915SOL    HW126204   3.158   3.286   7.241  1.3514  0.0831  0.4598
 4915SOL    HW226205   3.136   3.427   7.226  1.0305 -0.3227  1.9033
 4916SOL     OW26206   2.929   4.699  10.083 -0.1692 -0.1483  0.1668
 4916SOL    HW126207   2.996   4.644  10.123 -0.1294  0.2830  0.6958
 4916SOL    HW226208   2.973   4.702   9.998  0.1282  0.3018  0.3386
 4917SOL     OW26209   2.453   3.724   4.078 -0.8567 -0.4090  0.5113
 4917SOL    HW126210   2.400   3.749   4.002  1.1042 -0.3848 -0.8487
 4917SOL    HW226211   2.491   3.639   4.057 -0.6958 -0.4139  0.8182
 4918SOL     OW26212   0.177   2.721  11.663 -0.9053  0.3505  0.6871
 4918SOL    HW126213   0.187   2.628  11.646 -0.1025  0.5378  0.0679
 4918SOL    HW226214   0.204   2.753  11.576  1.2696 -1.9799  0.4942
 4919SOL     OW26215   2.372   3.522   7.791 -0.1401  0.1765  0.2532
 4919SOL    HW126216   2.303   3.464   7.761 -0.5959 -0.2399  2.1158
 4919SOL    HW226217   2.337   3.546   7.877 -0.4567 -1.5079  0.5966
 4920SOL     OW26218   0.151   3.744   5.236  0.7676  0.1906  0.5601
 4920SOL    HW126219   0.074   3.688   5.224  1.6972 -0.4655 -2.2212
 4920SOL    HW226220   0.156   3.791   5.153  0.5779 -1.6801 -0.5121
 4921SOL     OW26221   0.428   3.831   7.229  0.0663  0.0606  0.5562
 4921SOL    HW126222   0.386   3.853   7.312  1.2591 -0.7742  1.3778
 4921SOL    HW226223   0.379   3.890   7.172  1.2621  0.2365 -0.2894
 4922SOL     OW26224   3.976   4.259   7.261 -0.4058 -0.2011 -0.3033
 4922SOL    HW126225   3.981   4.277   7.355 -2.8418 -0.3687 -0.1376
 4922SOL    HW226226   3.966   4.164   7.257  1.2661 -0.3544 -0.8672
 4923SOL     OW26227   1.642   2.244  16.475  0.7022 -0.2514  0.5113
 4923SOL    HW126228   1.661   2.164  16.523  0.2825  0.1547  1.3427
 4923SOL    HW226229   1.558   2.222  16.435  1.0019 -1.1352  0.3707
 4924SOL     OW26230   1.933   4.518   8.168  0.0918  0.5952 -0.0669
 4924SOL    HW126231   2.026   4.520   8.193  0.4769 -1.0804 -1.3552
 4924SOL    HW226232   1.932   4.434   8.122  2.7200 -0.4953  1.8330
 4925SOL     OW26233   3.775   2.161   8.480 -0.0845 -0.2618 -0.1877
 4925SOL    HW126234   3.788   2.114   8.562 -3.8787  1.1193  1.1682
 4925SOL    HW226235   3.774   2.086   8.421  0.4652 -0.7702  0.4615
 4926SOL     OW26236   2.629   3.499  15.489 -0.0360 -0.1161 -0.7052
 4926SOL    HW126237   2.689   3.550  15.435  2.1939 -2.6419 -0.6592
 4926SOL    HW226238   2.669   3.486  15.575 -0.1036 -0.8780 -0.7886
 4927SOL     OW26239   2.385   3.848  11.219 -0.2866 -0.9400 -0.2606
 4927SOL    HW126240   2.372   3.785  11.290  1.8069  0.8214  1.6790
 4927SOL    HW226241   2.329   3.922  11.244 -0.7487 -1.6542  0.8272
 4928SOL     OW26242   1.359   2.005   4.749  0.2559  0.3569  0.1075
 4928SOL    HW126243   1.454   2.000   4.748  0.2688 -0.1817  2.8341
 4928SOL    HW226244   1.336   1.952   4.826  0.5610  1.1717  0.7617
 4929SOL     OW26245   3.422   2.332   9.277 -0.3033 -0.0282 -0.3797
 4929SOL    HW126246   3.440   2.415   9.233 -0.0118 -0.6716 -1.4798
 4929SOL    HW226247   3.402   2.351   9.369  0.0506  1.5570 -0.6366
 4930SOL     OW26248   4.424   2.925  15.828  0.4252 -0.1812 -0.0650
 4930SOL    HW126249   4.361   2.855  15.816 -0.3061  0.0570  2.4394
 4930SOL    HW226250   4.396   2.983  15.758  0.8358  0.3276  0.1881
 4931SOL     OW26251   3.306   2.797  16.494 -0.2389  0.2403  0.4802
 4931SOL    HW126252   3.244   2.735  16.534  0.9807 -1.6938 -0.6377
 4931SOL    HW226253   3.277   2.879  16.534 -0.3427  2.0244 -3.3008
 4932SOL     OW26254   1.215   2.567   5.573  0.1989 -0.3705  0.1666
 4932SOL    HW126255   1.194   2.636   5.509  1.5269 -1.3093 -1.2638
 4932SOL    HW226256   1.288   2.512   5.545 -1.5496 -1.4941 -2.1941
 4933SOL     OW26257   3.252   1.262   3.499  0.2772  0.1093 -0.5280
 4933SOL    HW126258   3.332   1.223   3.534  1.3494  0.6141 -2.4162
 4933SOL    HW226259   3.231   1.203   3.427 -0.3303 -0.3459  0.0267
 4934SOL     OW26260   1.739   3.128   6.876 -0.0148  0.0249  0.5671
 4934SOL    HW126261   1.802   3.157   6.942  0.5869  3.0367 -1.3347
 4934SOL    HW226262   1.676   3.084   6.932  1.2560 -1.1032  1.1021
 4935SOL     OW26263   0.738   2.284   3.333  0.2652  0.1006 -0.0560
 4935SOL    HW126264   0.683   2.351   3.290  0.2111  0.7694  1.0691
 4935SOL    HW226265   0.803   2.341   3.373  0.2703  0.4998 -0.6322
 4936SOL     OW26266   3.736   2.184   4.433 -0.6766  0.1962 -0.0419
 4936SOL    HW126267   3.766   2.095   4.448 -0.3584 -0.4760 -4.6512
 4936SOL    HW226268   3.679   2.165   4.358 -0.1063 -1.0254 -0.1600
 4937SOL     OW26269   0.279   1.751  17.006  0.1522 -0.6766  0.0229
 4937SOL    HW126270   0.360   1.725  16.962  1.8138  2.0230  1.4405
 4937SOL    HW226271   0.296   1.723  17.095  0.7121 -0.0812  0.1039
 4938SOL     OW26272   0.345   3.801   3.348  0.3346 -0.1711  0.0000
 4938SOL    HW126273   0.286   3.775   3.277 -1.2373 -1.1706  1.6673
 4938SOL    HW226274   0.291   3.794   3.426  1.2387 -0.6837  0.5868
 4939SOL     OW26275   4.174   0.324   4.471  0.2504 -0.5827  0.3346
 4939SOL    HW126276   4.221   0.241   4.476 -2.2745 -2.1316 -1.6182
 4939SOL    HW226277   4.204   0.356   4.386 -1.8776 -2.3765 -1.0811
 4940SOL     OW26278   4.103   2.955   3.839 -0.1644 -0.1498  0.6305
 4940SOL    HW126279   4.041   3.027   3.830 -0.8422 -0.5945  1.7334
 4940SOL    HW226280   4.083   2.904   3.760  0.6777  0.0815  0.2637
 4941SOL     OW26281   4.325   0.940   5.765 -0.3562  0.0902 -0.7459
 4941SOL    HW126282   4.268   1.005   5.806  1.0713 -0.2683  1.8292
 4941SOL    HW226283   4.268   0.866   5.746  0.3323 -0.5266 -0.4001
 4942SOL     OW26284   2.784   2.068   3.522 -0.4420 -0.2049 -0.7836
 4942SOL    HW126285   2.808   2.012   3.595  0.3105  0.2002 -0.7298
 4942SOL    HW226286   2.689   2.073   3.537 -0.5654 -0.7075 -1.3696
 4943SOL     OW26287   3.919   3.424   2.382 -0.4057  1.0964 -0.4301
 4943SOL    HW126288   3.966   3.482   2.441  0.5856  0.4586 -0.5917
 4943SOL    HW226289   3.831   3.461   2.391 -0.2094  1.3162  0.5361
 4944SOL     OW26290   3.299   0.691   9.780  0.3511 -0.3346 -0.1718
 4944SOL    HW126291   3.251   0.738   9.711  1.5165  1.3627  0.1961
 4944SOL    HW226292   3.271   0.601   9.758 -1.0918  0.1643 -0.3898
 4945SOL     OW26293   3.842   2.108   0.608 -0.3520 -0.2922  0.3158
 4945SOL    HW126294   3.796   2.030   0.578 -0.9198 -0.1763  0.9092
 4945SOL    HW226295   3.771   2.167   0.631 -1.9692 -1.9206 -0.5137
 4946SOL     OW26296   3.767   1.898   6.987 -0.3284 -0.0178  0.7474
 4946SOL    HW126297   3.779   1.989   6.960 -1.5272 -0.5525 -1.6237
 4946SOL    HW226298   3.837   1.870   6.928 -1.4298 -0.9520 -0.1137
 4947SOL     OW26299   1.070   0.264   8.801  0.2158 -0.5248 -0.5713
 4947SOL    HW126300   1.068   0.358   8.819  0.8309 -0.3496 -1.4561
 4947SOL    HW226301   0.977   0.242   8.804  0.0412  0.1271 -1.1070
 4948SOL     OW26302   2.775   1.137  12.655  0.0639 -0.3278  0.1516
 4948SOL    HW126303   2.851   1.090  12.688 -0.0408 -0.0637  0.7590
 4948SOL    HW226304   2.743   1.059  12.608  1.6146  0.3331 -2.0113
 4949SOL     OW26305   0.904   3.797   8.172 -0.2995  0.1222  0.2480
 4949SOL    HW126306   0.892   3.743   8.250 -1.1929  0.7927  0.5717
 4949SOL    HW226307   0.812   3.795   8.145 -0.5222 -2.2269  1.2239
 4950SOL     OW26308   0.973   4.060   0.083 -0.0629  0.5033  0.3080
 4950SOL    HW126309   0.920   4.018   0.015 -0.1493 -1.1993  1.4280
 4950SOL    HW226310   1.022   4.127   0.035  1.7643 -0.8791  0.2317
 4951SOL     OW26311   4.706   3.730   3.993 -0.1737  1.2112 -0.2876
 4951SOL    HW126312   0.034   3.761   4.068 -3.0271  2.1302  1.3292
 4951SOL    HW226313   0.048   3.708   3.927 -0.2525 -1.8327  0.6289
 4952SOL     OW26314   1.525   2.450  14.551 -0.3442  0.6961  0.0592
 4952SOL    HW126315   1.494   2.515  14.488  1.8692 -1.2505 -3.0262
 4952SOL    HW226316   1.442   2.408  14.574 -0.0160 -0.1562 -0.3065
 4953SOL     OW26317   3.484   1.123   4.379  0.3933 -0.2984 -0.6149
 4953SOL    HW126318   3.396   1.154   4.360 -0.1602 -1.7916 -0.4477
 4953SOL    HW226319   3.530   1.207   4.380  0.5808 -0.4511  2.6391
 4954SOL     OW26320   2.536   3.952  16.241  0.3912  0.3107 -0.0361
 4954SOL    HW126321   2.549   4.047  16.238  2.0924  0.1295  1.5011
 4954SOL    HW226322   2.555   3.941  16.334 -0.7120  1.2592  0.2982
 4955SOL     OW26323   1.118   2.192  15.916 -0.3898  0.4919 -0.1451
 4955SOL    HW126324   1.111   2.099  15.895 -0.0831  0.5830 -0.6552
 4955SOL    HW226325   1.203   2.193  15.960 -0.1488  1.4404 -0.6235
 4956SOL     OW26326   4.473   0.285   1.474 -0.2689  0.5641 -0.5482
 4956SOL    HW126327   4.528   0.214   1.508  0.0839  2.2106  2.3115
 4956SOL    HW226328   4.418   0.234   1.415 -2.3320  1.2181  0.8257
 4957SOL     OW26329   3.041   2.243   7.066 -0.2465 -0.4152 -0.1426
 4957SOL    HW126330   3.104   2.212   7.001 -0.2345 -0.5797 -0.0542
 4957SOL    HW226331   3.039   2.159   7.112 -2.4453 -0.8604 -1.0536
 4958SOL     OW26332   2.605   1.988   2.288 -0.1084  0.1132  0.1978
 4958SOL    HW126333   2.693   2.019   2.307 -0.8881  1.5751  1.4916
 4958SOL    HW226334   2.604   1.911   2.344  2.0482 -2.2455 -3.0128
 4959SOL     OW26335   4.364   2.898   9.278 -0.6479  0.2225 -0.4337
 4959SOL    HW126336   4.382   2.809   9.307 -2.8544  0.0293  0.3422
 4959SOL    HW226337   4.382   2.946   9.359 -0.6421  1.2097 -1.0190
 4960SOL     OW26338   3.069   4.596  10.687 -0.2745 -0.2603  0.1715
 4960SOL    HW126339   3.101   4.594  10.777 -3.3064  2.0299  1.2798
 4960SOL    HW226340   3.125   4.530  10.647 -1.0904 -0.0863 -1.2441
 4961SOL     OW26341   1.264   1.641   7.457  0.3474  0.1125 -0.2167
 4961SOL    HW126342   1.260   1.561   7.511  2.0961 -0.4440 -0.9095
 4961SOL    HW226343   1.286   1.716   7.513  0.0621 -0.7106  1.0164
 4962SOL     OW26344   2.865   2.197  10.476  0.5793  0.1920 -0.1458
 4962SOL    HW126345   2.856   2.195  10.571  1.7188 -0.4934 -0.0473
 4962SOL    HW226346   2.957   2.222  10.472  0.4338  0.5774 -1.3628
 4963SOL     OW26347   2.740   4.274  14.195 -0.0302  0.6170  0.3550
 4963SOL    HW126348   2.731   4.207  14.263  0.1909  0.9386  0.7021
 4963SOL    HW226349   2.690   4.235  14.123  1.0467 -0.2470  0.0722
 4964SOL     OW26350   3.986   1.229   8.089  0.1246 -0.2450 -0.0558
 4964SOL    HW126351   3.924   1.240   8.017 -0.0325 -0.7093  0.0090
 4964SOL    HW226352   4.044   1.159   8.059  0.8908  0.6321 -0.6403
 4965SOL     OW26353   1.516   2.591   7.955  0.3907  0.6275 -0.4719
 4965SOL    HW126354   1.475   2.514   7.993 -2.5645  2.8350  0.8140
 4965SOL    HW226355   1.502   2.658   8.022  1.5678  0.9683 -0.5493
 4966SOL     OW26356   4.490   4.537   3.848  0.7924 -0.2132 -0.2887
 4966SOL    HW126357   4.435   4.616   3.849  2.0178  0.6356  0.4643
 4966SOL    HW226358   4.578   4.568   3.867 -0.3797  2.0951  1.4162
 4967SOL     OW26359   2.524   1.161   0.896  0.1729 -0.3602 -1.1149
 4967SOL    HW126360   2.587   1.178   0.966 -0.3913 -2.2355 -0.1365
 4967SOL    HW226361   2.584   1.145   0.823 -0.0682  2.2585 -1.8787
 4968SOL     OW26362   4.061   0.187  15.244  0.0899  0.1761 -0.4611
 4968SOL    HW126363   4.116   0.257  15.209  0.0586 -0.3041 -1.4567
 4968SOL    HW226364   4.052   0.131  15.167 -2.3325  1.8551 -1.3907
 4969SOL     OW26365   1.487   0.725  15.908  0.0211  0.6958  0.3624
 4969SOL    HW126366   1.532   0.775  15.977  1.9349 -1.3700  0.6015
 4969SOL    HW226367   1.398   0.758  15.900  0.5620  2.2168  0.5106
 4970SOL     OW26368   1.662   0.571   2.589 -0.2260  0.6402 -0.2880
 4970SOL    HW126369   1.641   0.478   2.595 -0.7244  0.7117 -0.9797
 4970SOL    HW226370   1.737   0.572   2.530 -0.4338  1.8989 -0.5287
 4971SOL     OW26371   4.430   2.129   7.308  0.0526  0.4279 -0.1273
 4971SOL    HW126372   4.360   2.068   7.282 -2.3365  2.0723  2.3277
 4971SOL    HW226373   4.440   2.097   7.398  0.2921  1.3348  0.1747
 4972SOL     OW26374   1.453   3.782   3.877  0.4933 -0.2733  0.0380
 4972SOL    HW126375   1.496   3.798   3.793  2.6854 -1.4847  0.9490
 4972SOL    HW226376   1.519   3.725   3.916  0.3192 -2.1970 -2.4277
 4973SOL     OW26377   3.649   0.866  13.881 -0.0453 -0.1535  0.1461
 4973SOL    HW126378   3.737   0.831  13.894  0.3328  1.3084  1.4311
 4973SOL    HW226379   3.628   0.900  13.967  1.8923  0.4842  0.3783
 4974SOL     OW26380   2.604   0.030   9.437 -0.3216 -0.1073 -0.2273
 4974SOL    HW126381   2.610   4.665   9.401  1.5336 -0.3857  0.7345
 4974SOL    HW226382   2.524   0.062   9.397 -1.6109 -2.3470  0.5458
 4975SOL     OW26383   2.816   2.541  17.693  0.2481  0.1657 -0.3407
 4975SOL    HW126384   2.809   2.567   0.088  0.0803  0.5864 -0.4728
 4975SOL    HW226385   2.910   2.534  17.677 -0.1444 -3.1004 -1.2549
 4976SOL     OW26386   4.054   0.111   9.512  0.2607 -0.1849 -0.1274
 4976SOL    HW126387   4.087   0.195   9.542  1.0287 -1.4266  2.4597
 4976SOL    HW226388   4.103   0.056   9.572 -0.9630  0.0592  1.1010
 4977SOL     OW26389   3.597   2.504  16.147 -0.0378  0.0998 -0.1346
 4977SOL    HW126390   3.524   2.565  16.162  1.8995  1.1187  5.3248
 4977SOL    HW226391   3.585   2.453  16.227 -1.2727 -1.3524 -1.2498
 4978SOL     OW26392   3.626   1.518   9.584  0.6373 -0.0596 -0.0312
 4978SOL    HW126393   3.627   1.612   9.565  0.1538 -0.0854 -0.2005
 4978SOL    HW226394   3.539   1.499   9.548 -0.5241 -0.1098  2.8761
 4979SOL     OW26395   3.966   4.367   4.603 -0.1502 -0.0635 -0.7669
 4979SOL    HW126396   3.920   4.289   4.572  0.1016 -0.4734 -0.1123
 4979SOL    HW226397   3.920   4.427   4.545  3.4496  1.5567 -1.9552
 4980SOL     OW26398   2.051   3.671   2.311  0.4798 -0.2069 -0.5867
 4980SOL    HW126399   1.976   3.613   2.297  0.1011  0.3721 -0.9941
 4980SOL    HW226400   2.060   3.718   2.227 -0.2071  1.2400  0.1402
 4981SOL     OW26401   0.328   0.820   8.247 -0.6289  0.0782 -0.1520
 4981SOL    HW126402   0.332   0.886   8.317  0.7384  0.5986 -0.7276
 4981SOL    HW226403   0.422   0.804   8.240 -0.8563 -1.0874 -0.5649
 4982SOL     OW26404   1.620   1.757   8.116 -0.0368  0.0529  0.2865
 4982SOL    HW126405   1.532   1.733   8.088  0.4135  1.6545 -2.5021
 4982SOL    HW226406   1.675   1.722   8.045 -2.4558 -0.1320 -1.4767
 4983SOL     OW26407   0.627   1.102   5.276  0.3898 -0.5474 -0.0471
 4983SOL    HW126408   0.562   1.070   5.214 -0.4056 -0.9101  0.9636
 4983SOL    HW226409   0.624   1.021   5.327  1.3289  0.2456  1.2813
 4984SOL     OW26410   3.902   4.184   3.127  0.5424  0.5696  0.3270
 4984SOL    HW126411   3.834   4.139   3.078 -0.9635  2.7191  0.4486
 4984SOL    HW226412   3.882   4.154   3.216 -1.0305 -0.9351 -0.5349
 4985SOL     OW26413   3.637   2.618  12.795  0.4237 -0.0347  0.0793
 4985SOL    HW126414   3.570   2.677  12.829  1.2612  1.5385 -1.0212
 4985SOL    HW226415   3.696   2.682  12.756  0.3655 -0.1628 -0.2168
 4986SOL     OW26416   0.697   0.998  14.025  0.0780 -0.3535 -0.2643
 4986SOL    HW126417   0.602   1.003  14.031  0.1911 -0.7747  1.6986
 4986SOL    HW226418   0.718   1.083  14.063 -0.8572  0.7883 -2.2875
 4987SOL     OW26419   0.141   1.476  15.414 -0.2610  0.0024  1.3013
 4987SOL    HW126420   0.145   1.437  15.501  0.6140  0.9558  1.6878
 4987SOL    HW226421   0.049   1.461  15.390  0.9705 -2.0806 -2.0774
 4988SOL     OW26422   2.334   1.327   3.086 -0.3467  0.4023 -0.5319
 4988SOL    HW126423   2.302   1.392   3.023 -1.8789  0.8892  0.7586
 4988SOL    HW226424   2.411   1.376   3.115  0.9744 -1.1920 -1.3508
 4989SOL     OW26425   1.044   0.009   5.503  0.5362 -0.1500 -0.3801
 4989SOL    HW126426   1.043   4.692   5.590 -2.0038 -0.8607 -0.7227
 4989SOL    HW226427   0.952   0.024   5.483 -0.1821 -0.8561  2.3737
 4990SOL     OW26428   4.499   0.851   3.269 -0.1232  0.1341 -0.1794
 4990SOL    HW126429   4.495   0.758   3.249  0.5578 -0.2028  1.2668
 4990SOL    HW226430   4.532   0.847   3.359  1.2122 -0.7116 -0.7195
 4991SOL     OW26431   1.877   3.498   8.474 -0.0634  0.6046  0.3695
 4991SOL    HW126432   1.815   3.560   8.510  0.6366  2.5372 -1.7921
 4991SOL    HW226433   1.952   3.555   8.457  0.2168  0.0847 -0.1293
 4992SOL     OW26434   0.727   1.197   9.009  0.5193 -0.2586 -0.1545
 4992SOL    HW126435   0.823   1.201   9.018  0.5133 -1.4032  0.5200
 4992SOL    HW226436   0.707   1.256   8.937  1.0904  0.5633  0.3623
 4993SOL     OW26437   1.625   2.839   5.127 -0.2748 -0.1870  0.3004
 4993SOL    HW126438   1.655   2.895   5.199 -1.1355 -0.4953  0.8956
 4993SOL    HW226439   1.603   2.758   5.173 -2.3610  0.2809  0.1339
 4994SOL     OW26440   1.974   3.981   4.605  0.4587  0.2822  0.0185
 4994SOL    HW126441   1.928   4.007   4.685 -2.0668 -1.0163 -1.0031
 4994SOL    HW226442   1.908   4.006   4.540 -0.1644 -1.9257 -0.2044
 4995SOL     OW26443   0.556   0.566  15.403  0.7719 -0.1939  0.0450
 4995SOL    HW126444   0.480   0.510  15.416  1.8466 -1.2163  1.8328
 4995SOL    HW226445   0.620   0.498  15.420 -1.4588 -2.2152  0.3367
 4996SOL     OW26446   3.744   1.233   4.851 -0.5178  0.3451 -0.3271
 4996SOL    HW126447   3.734   1.317   4.805  0.0450  1.6368  1.9118
 4996SOL    HW226448   3.654   1.200   4.847 -0.4440  0.0891  0.1753
 4997SOL     OW26449   3.335   2.132   5.966  0.0324 -0.1901 -0.1962
 4997SOL    HW126450   3.332   2.222   6.000 -0.7444 -0.2253 -0.1754
 4997SOL    HW226451   3.293   2.140   5.880  0.8229 -0.7591 -0.6378
 4998SOL     OW26452   3.702   2.889  10.757  0.1006  0.1843  0.1399
 4998SOL    HW126453   3.634   2.886  10.825 -2.0097  0.3155 -1.9369
 4998SOL    HW226454   3.672   2.967  10.710 -0.6162 -0.6994 -0.8886
 4999SOL     OW26455   0.036   0.363   7.027  0.1718  0.2318  0.2193
 4999SOL    HW126456   4.683   0.368   7.084  0.1471  1.7842  0.0383
 4999SOL    HW226457   0.018   0.277   6.990  1.7709  0.1052 -0.2886
 5000SOL     OW26458   4.566   3.284   1.950 -0.2386  0.1647  1.2317
 5000SOL    HW126459   4.593   3.358   1.895  1.0014 -1.6439 -0.5894
 5000SOL    HW226460   4.652   3.263   1.987  0.7190  0.1940 -0.9743
 5001SOL     OW26461   4.071   1.305  10.102 -0.0414 -0.4166 -0.1154
 5001SOL    HW126462   4.058   1.398  10.116 -0.6310 -0.5527  0.2506
 5001SOL    HW226463   4.004   1.297  10.034 -1.1386 -3.0113  1.2824
 5002SOL     OW26464   2.800   3.622  14.632 -0.1191 -0.3473 -0.0072
 5002SOL    HW126465   2.881   3.634  14.683  0.0398  1.0382 -0.5876
 5002SOL    HW226466   2.734   3.628  14.702 -1.2568  1.4865 -1.2413
 5003SOL     OW26467   1.335   2.651  15.395  0.0909  0.1566 -0.1017
 5003SOL    HW126468   1.398   2.579  15.388  0.1927  0.0368  1.8570
 5003SOL    HW226469   1.372   2.714  15.333 -0.4223 -1.0735 -1.6508
 5004SOL     OW26470   3.913   3.175   3.857  0.5942 -0.3338  0.0114
 5004SOL    HW126471   3.843   3.142   3.912 -1.9378  0.0032 -2.9950
 5004SOL    HW226472   3.865   3.208   3.781 -0.4060  0.6258  1.0629
 5005SOL     OW26473   0.421   0.034   6.713 -0.1757 -0.2559  0.1123
 5005SOL    HW126474   0.343   0.036   6.769 -1.3449 -2.9517 -1.4640
 5005SOL    HW226475   0.471   4.691   6.760 -1.7351 -0.5871  1.3012
 5006SOL     OW26476   0.558   1.777   7.178  0.0950 -0.3921  0.1145
 5006SOL    HW126477   0.554   1.851   7.238  2.8923  0.0835 -0.3326
 5006SOL    HW226478   0.478   1.727   7.196  1.8633 -2.8839  1.1106
 5007SOL     OW26479   4.359   1.102   2.823 -0.3013  0.1757 -0.0507
 5007SOL    HW126480   4.402   1.019   2.801 -0.1616 -0.2109  1.6715
 5007SOL    HW226481   4.353   1.088   2.918  1.7692 -1.9255 -0.2089
 5008SOL     OW26482   3.992   3.904  10.833  0.3261  0.3909 -0.0611
 5008SOL    HW126483   3.937   3.914  10.756  1.3033  0.8496 -0.6926
 5008SOL    HW226484   4.071   3.874  10.789  0.4079 -0.4547  0.6675
 5009SOL     OW26485   1.657   0.511   3.704 -0.0976  0.0175 -0.1882
 5009SOL    HW126486   1.692   0.582   3.758  0.4804 -0.2546 -0.2007
 5009SOL    HW226487   1.564   0.530   3.700  0.0501  0.9976  1.0855
 5010SOL     OW26488   3.367   3.405   7.442  0.1038  0.2907  1.0514
 5010SOL    HW126489   3.310   3.331   7.422 -2.8135  2.2986  1.9136
 5010SOL    HW226490   3.325   3.457   7.510 -0.0455 -0.4491  1.5275
 5011SOL     OW26491   3.135   1.312  17.382 -0.7340  0.3925 -0.1937
 5011SOL    HW126492   3.114   1.299  17.475  0.0234  0.1300 -0.0557
 5011SOL    HW226493   3.230   1.321  17.392 -0.9592  1.3100  1.1651
 5012SOL     OW26494   2.483   2.480   7.087  0.0265 -0.0004  0.2979
 5012SOL    HW126495   2.569   2.492   7.046  0.4889 -1.7261  0.7287
 5012SOL    HW226496   2.459   2.572   7.088 -1.6918 -0.4143 -4.1250
 5013SOL     OW26497   2.567   4.293   3.453 -0.4286 -0.1627 -0.4008
 5013SOL    HW126498   2.602   4.256   3.535  0.8093  0.6886 -0.5547
 5013SOL    HW226499   2.636   4.353   3.427 -1.9814  0.8577 -2.1377
 5014SOL     OW26500   0.628   1.887  15.392  0.1902 -0.7819  0.3115
 5014SOL    HW126501   0.534   1.882  15.409  0.1435  0.0945  0.3115
 5014SOL    HW226502   0.657   1.858  15.479  0.0955 -0.3834  0.4788
 5015SOL     OW26503   1.394   2.159  10.803 -0.2314 -0.2879 -0.0500
 5015SOL    HW126504   1.406   2.189  10.713 -1.9552  4.9829  1.5267
 5015SOL    HW226505   1.313   2.111  10.790 -0.3334  0.5663 -2.5458
 5016SOL     OW26506   0.578   3.217  13.812  0.1464  0.1480  0.3278
 5016SOL    HW126507   0.653   3.158  13.810  1.8108  2.1985  2.0335
 5016SOL    HW226508   0.581   3.253  13.901 -0.0715  2.7625 -0.7005
 5017SOL     OW26509   0.052   3.279   3.916 -0.4052 -0.0590 -0.4683
 5017SOL    HW126510   0.005   3.349   3.960 -0.9025 -0.3654 -0.5115
 5017SOL    HW226511   0.142   3.311   3.904 -0.4978  0.1232 -0.6791
 5018SOL     OW26512   1.859   0.142   3.202  0.0642  0.2124  0.3318
 5018SOL    HW126513   1.862   0.216   3.263  2.1700 -0.4856  1.0795
 5018SOL    HW226514   1.836   0.184   3.120  0.8663 -0.1698 -0.0881
 5019SOL     OW26515   4.183   0.772   9.141 -0.2131  1.0014  0.0084
 5019SOL    HW126516   4.172   0.751   9.049 -3.3997 -1.1181  0.8784
 5019SOL    HW226517   4.217   0.688   9.173  0.4314  1.2543 -0.0037
 5020SOL     OW26518   1.606   3.082   1.861  0.5646  0.2173 -0.2001
 5020SOL    HW126519   1.549   3.116   1.930  1.5637  2.3916 -0.4662
 5020SOL    HW226520   1.606   3.160   1.805 -0.7099  1.4841  1.5682
 5021SOL     OW26521   3.354   1.487   8.227  0.2791  0.3219  0.3280
 5021SOL    HW126522   3.333   1.528   8.311 -0.9229  0.9485 -0.2688
 5021SOL    HW226523   3.273   1.514   8.182  1.1381 -0.0200 -1.4129
 5022SOL     OW26524   2.346   3.943  14.119  0.6329  0.0023 -0.1865
 5022SOL    HW126525   2.321   3.971  14.207 -1.2570 -2.7165  0.1461
 5022SOL    HW226526   2.277   3.977  14.062  0.6682 -1.8924 -1.3688
 5023SOL     OW26527   1.305   1.937   8.240 -0.1313  0.0727 -0.0306
 5023SOL    HW126528   1.305   1.914   8.333  1.4361  2.4160  0.5451
 5023SOL    HW226529   1.223   1.899   8.209 -1.8355  1.7416  2.4562
 5024SOL     OW26530   3.005   0.377   4.663 -0.6218 -0.4779 -0.1384
 5024SOL    HW126531   3.052   0.299   4.691  2.7523  1.2702 -0.9089
 5024SOL    HW226532   3.013   0.442   4.733 -0.4772  1.0661 -1.5736
 5025SOL     OW26533   4.581   2.187   6.628 -0.0190 -0.2778  0.1028
 5025SOL    HW126534   4.554   2.276   6.650 -0.6177 -0.2150 -0.8714
 5025SOL    HW226535   4.507   2.164   6.572 -0.8179  3.0623 -0.1768
 5026SOL     OW26536   3.432   0.172   7.611  0.2088  0.1585  0.2541
 5026SOL    HW126537   3.484   0.109   7.661 -0.7442 -0.2001  0.7983
 5026SOL    HW226538   3.414   0.120   7.533  0.6972  0.9287 -0.3673
 5027SOL     OW26539   2.914   4.553   3.680  0.1796  0.8321  0.4370
 5027SOL    HW126540   2.949   4.589   3.761  0.9413  0.2696  0.3583
 5027SOL    HW226541   2.843   4.612   3.655 -0.0741  0.7836  1.0410
 5028SOL     OW26542   4.308   2.649   9.987  0.1061 -0.6125 -0.0231
 5028SOL    HW126543   4.256   2.696  10.051 -1.3158 -1.3143 -0.6759
 5028SOL    HW226544   4.273   2.655   9.898  0.4099  1.1626 -0.0206
 5029SOL     OW26545   3.021   1.860   7.492 -0.0521 -0.1949  0.1568
 5029SOL    HW126546   3.032   1.770   7.460  2.1071  1.3092 -3.4245
 5029SOL    HW226547   2.927   1.864   7.511 -0.9287  0.3051 -4.0645
 5030SOL     OW26548   1.434   0.729   7.450  0.0328 -0.3974 -0.4269
 5030SOL    HW126549   1.434   0.819   7.483 -0.9374 -0.3138 -0.6457
 5030SOL    HW226550   1.389   0.678   7.518  1.9262  0.3923  1.4207
 5031SOL     OW26551   2.056   4.268   8.583 -0.4810  0.2529  0.0659
 5031SOL    HW126552   2.023   4.232   8.665 -1.1386  1.1291  0.1865
 5031SOL    HW226553   1.982   4.287   8.525 -2.2885  0.2683  2.3707
 5032SOL     OW26554   3.426   0.447   4.780 -0.0797  0.0840  0.5765
 5032SOL    HW126555   3.404   0.536   4.808  0.2421 -0.5419  2.8154
 5032SOL    HW226556   3.488   0.456   4.707 -1.5112 -1.0675 -0.7778
 5033SOL     OW26557   3.424   1.531   7.822  0.4582 -0.0161  1.0388
 5033SOL    HW126558   3.372   1.557   7.898 -1.1137  1.0861 -0.4214
 5033SOL    HW226559   3.374   1.562   7.746  0.4647 -1.6076  0.3885
 5034SOL     OW26560   3.790   1.560   5.899  0.2450 -0.0452  0.3384
 5034SOL    HW126561   3.877   1.601   5.901  1.1236 -1.9666  1.8761
 5034SOL    HW226562   3.752   1.600   5.977  2.3267  1.5977  0.5137
 5035SOL     OW26563   1.334   3.744  12.484 -0.4076  0.1747  0.1364
 5035SOL    HW126564   1.406   3.807  12.485  0.9960 -1.4199  1.9565
 5035SOL    HW226565   1.317   3.732  12.391 -0.2942  2.0900 -0.1240
 5036SOL     OW26566   0.223   2.479  13.768 -0.3127 -0.0005  0.3605
 5036SOL    HW126567   0.188   2.539  13.834 -2.2924 -0.2217 -0.4910
 5036SOL    HW226568   0.306   2.445  13.800 -0.7811 -0.8648  0.6694
 5037SOL     OW26569   1.978   1.515   4.705  0.1498  0.0148  0.3448
 5037SOL    HW126570   2.069   1.540   4.721 -0.0991  1.0072  0.1776
 5037SOL    HW226571   1.988   1.420   4.698 -0.4776  0.1920 -2.6218
 5038SOL     OW26572   4.562   2.698   3.300 -0.2339 -0.3300  0.2205
 5038SOL    HW126573   4.498   2.629   3.283  0.4445 -0.5650 -1.4296
 5038SOL    HW226574   4.583   2.695   3.393 -1.0910  2.5795  0.4963
 5039SOL     OW26575   2.234   1.497   5.331  0.1658  0.1581 -0.0194
 5039SOL    HW126576   2.283   1.446   5.396 -1.2476 -1.6796 -0.3991
 5039SOL    HW226577   2.157   1.445   5.310  0.0407 -0.3339  1.6361
 5040SOL     OW26578   3.379   2.238   9.814 -0.2680  0.2707  0.7900
 5040SOL    HW126579   3.416   2.218   9.728 -2.0818 -0.2007  0.1276
 5040SOL    HW226580   3.459   2.249   9.865 -0.2469  0.7567  0.6507
 5041SOL     OW26581   3.573   3.923   8.955 -0.2406  0.3775  0.1023
 5041SOL    HW126582   3.520   3.971   9.018 -0.4744 -0.8716  0.8685
 5041SOL    HW226583   3.559   3.832   8.981 -0.6155  0.2502 -0.5240
 5042SOL     OW26584   1.964   1.822   8.226  0.2962 -0.8645  0.0612
 5042SOL    HW126585   1.881   1.868   8.230 -1.2576 -3.7555  0.8839
 5042SOL    HW226586   1.936   1.741   8.268  1.6763 -0.2536  2.1891
 5043SOL     OW26587   2.957   2.406   5.147  0.4396  0.1109  0.0707
 5043SOL    HW126588   2.900   2.363   5.083  0.2165 -2.1026  1.7524
 5043SOL    HW226589   2.998   2.325   5.178 -1.1438 -0.1144  1.5617
 5044SOL     OW26590   0.277   3.600   5.431  0.3039 -0.1696 -0.3707
 5044SOL    HW126591   0.290   3.551   5.349 -0.8016  0.8804 -1.1719
 5044SOL    HW226592   0.267   3.683   5.384  1.8889 -0.4097 -1.1463
 5045SOL     OW26593   0.043   4.421  14.825 -0.2739  0.1178  0.0371
 5045SOL    HW126594   0.030   4.344  14.881  3.1306 -0.7948 -0.4440
 5045SOL    HW226595   0.108   4.476  14.870  0.4403  1.3610 -2.5582
 5046SOL     OW26596   4.037   0.156   6.775 -0.4089 -0.0801 -0.0503
 5046SOL    HW126597   4.092   0.233   6.791 -1.2071  0.1895  1.3982
 5046SOL    HW226598   4.065   0.106   6.852  0.0707  2.0103  1.1245
 5047SOL     OW26599   0.093   3.023   2.702  0.0436 -0.8686  0.6932
 5047SOL    HW126600   0.045   2.980   2.773 -1.3746 -0.6199 -0.1157
 5047SOL    HW226601   0.024   3.073   2.657  0.6049 -0.1090  0.6802
 5048SOL     OW26602   2.154   0.305   4.238  0.1825 -0.7967  0.1574
 5048SOL    HW126603   2.102   0.370   4.192 -0.4715 -1.1087  0.4469
 5048SOL    HW226604   2.245   0.333   4.224 -0.2167  0.6821  0.6062
 5049SOL     OW26605   0.267   4.682   6.949 -0.2792 -0.1535  0.0868
 5049SOL    HW126606   0.261   4.664   7.043  0.4407  1.3940  0.4378
 5049SOL    HW226607   0.279   4.590   6.925  3.0883  0.6809 -1.3997
 5050SOL     OW26608   3.470   3.744  12.937  0.4418 -0.1831  0.2198
 5050SOL    HW126609   3.436   3.663  12.975  0.1360  0.6257  1.6933
 5050SOL    HW226610   3.406   3.811  12.961 -0.8978 -1.2317 -0.4403
 5051SOL     OW26611   3.730   3.985   3.054  0.3558 -1.1178 -0.0519
 5051SOL    HW126612   3.727   3.960   3.146 -0.2370 -2.1425 -0.3448
 5051SOL    HW226613   3.643   3.956   3.024  0.9561 -1.1779 -1.7462
 5052SOL     OW26614   3.020   2.900   5.875 -0.2431  0.2459  0.0199
 5052SOL    HW126615   3.100   2.944   5.901  0.7625 -1.3344 -0.4131
 5052SOL    HW226616   2.997   2.952   5.798  1.1591 -1.2521 -1.4198
 5053SOL     OW26617   2.795   3.215   9.781 -0.1818 -0.1079 -0.1170
 5053SOL    HW126618   2.778   3.237   9.873  1.1380 -0.0501  0.1029
 5053SOL    HW226619   2.772   3.123   9.796 -0.4545 -0.0090  0.0707
 5054SOL     OW26620   2.271   1.415   6.333 -0.5554  0.7193 -0.1121
 5054SOL    HW126621   2.281   1.501   6.374  0.2995  1.7661 -2.5786
 5054SOL    HW226622   2.180   1.421   6.305 -1.6790 -0.0009  3.3896
 5055SOL     OW26623   4.271   3.302   4.525  0.2425  0.3476 -0.2059
 5055SOL    HW126624   4.211   3.343   4.464  0.8176 -0.1456 -1.1174
 5055SOL    HW226625   4.331   3.375   4.543  1.3495 -1.1989  2.5439
 5056SOL     OW26626   4.252   4.337   8.780 -0.0733  0.1370 -0.0907
 5056SOL    HW126627   4.288   4.259   8.737 -1.8086 -0.1280 -1.0643
 5056SOL    HW226628   4.295   4.319   8.863  2.8550  0.2987 -1.5682
 5057SOL     OW26629   0.448   0.489  17.468  0.5256  0.4154  0.2050
 5057SOL    HW126630   0.410   0.555  17.526 -0.6845  0.9010 -1.1203
 5057SOL    HW226631   0.381   0.470  17.402 -0.5491 -0.3175  1.5196
 5058SOL     OW26632   3.836   4.129   9.215  0.0367  0.1250  0.4378
 5058SOL    HW126633   3.860   4.101   9.126 -1.2829  1.7144 -0.4124
 5058SOL    HW226634   3.921   4.150   9.254 -0.0724  1.7805 -0.2272
 5059SOL     OW26635   0.264   4.655   4.907 -0.0554  0.6876 -0.3628
 5059SOL    HW126636   0.225   4.642   4.821 -0.1803  0.9523 -0.3470
 5059SOL    HW226637   0.197   4.692   4.965  0.0132  3.2668 -1.8901
 5060SOL     OW26638   1.483   4.101  17.201 -1.0529  0.4387 -0.1886
 5060SOL    HW126639   1.575   4.125  17.212 -1.0129  0.3270 -0.2741
 5060SOL    HW226640   1.472   4.089  17.106 -3.0473  0.5469  0.0342
 5061SOL     OW26641   0.274   0.155   3.102  0.1221  0.0246  0.7651
 5061SOL    HW126642   0.363   0.162   3.067 -0.4189  0.2744 -0.5929
 5061SOL    HW226643   0.279   0.074   3.151 -0.3058 -0.9114 -0.7215
 5062SOL     OW26644   1.814   1.017   5.626  0.1599 -0.4752 -0.8955
 5062SOL    HW126645   1.800   0.964   5.548 -1.8711 -1.1853 -0.0391
 5062SOL    HW226646   1.747   0.987   5.687 -1.0988  2.6486 -0.7209
 5063SOL     OW26647   4.335   4.482  10.120 -0.1217  0.0494  0.2427
 5063SOL    HW126648   4.243   4.487  10.094 -0.0690  3.0593  0.6709
 5063SOL    HW226649   4.349   4.536  10.197  1.7973 -1.7396  1.1565
 5064SOL     OW26650   1.064   3.052   3.574 -0.1070  0.2237  0.1192
 5064SOL    HW126651   0.980   3.012   3.549  0.2690 -0.8522  0.5855
 5064SOL    HW226652   1.039   3.144   3.579 -1.1600 -0.0565  0.0436
 5065SOL     OW26653   0.201   0.783  16.067 -0.5043 -0.0374 -0.4123
 5065SOL    HW126654   0.200   0.862  16.014  1.6687 -0.2559 -0.7865
 5065SOL    HW226655   0.147   0.718  16.021  2.1477 -1.6705 -1.2352
 5066SOL     OW26656   4.660   2.919  12.716 -0.3144 -0.2885 -0.0689
 5066SOL    HW126657   4.660   2.849  12.650  0.8551 -1.0212  0.7187
 5066SOL    HW226658   0.030   2.938  12.719 -0.3166 -0.2126 -0.4581
 5067SOL     OW26659   3.689   1.380   0.781  0.5311  0.3866 -0.2030
 5067SOL    HW126660   3.752   1.371   0.852  0.4952 -0.0485 -0.2273
 5067SOL    HW226661   3.686   1.475   0.768 -0.8951  0.1912 -1.3411
 5068SOL     OW26662   2.262   0.104   7.297 -0.1809 -0.0285 -0.1273
 5068SOL    HW126663   2.285   0.142   7.212  0.0301  0.4325  0.1369
 5068SOL    HW226664   2.232   0.020   7.260 -0.5842 -0.7985  1.9705
 5069SOL     OW26665   4.153   3.708   9.311  0.4749 -0.1431  0.0486
 5069SOL    HW126666   4.065   3.675   9.290 -0.3501  2.9944 -1.4904
 5069SOL    HW226667   4.126   3.793   9.347  1.0555 -0.1893  0.5720
 5070SOL     OW26668   4.010   4.324  12.504  0.1568 -0.0235 -0.1295
 5070SOL    HW126669   4.055   4.270  12.569  0.1145  0.1223  0.0217
 5070SOL    HW226670   4.064   4.303  12.428  2.7326  1.9414  1.1831
 5071SOL     OW26671   1.504   0.199   7.249  0.0845 -0.1912 -0.0889
 5071SOL    HW126672   1.433   0.263   7.248  0.1818  0.0309  4.6163
 5071SOL    HW226673   1.481   0.142   7.177  1.9942 -1.0224 -0.0459
 5072SOL     OW26674   2.338   0.951  16.521 -0.4485  0.0331  0.4863
 5072SOL    HW126675   2.338   0.899  16.440  0.2242  1.2795 -0.3260
 5072SOL    HW226676   2.262   1.005  16.498 -1.4287 -1.9086 -0.8446
 5073SOL     OW26677   0.879   2.734   7.802  0.3087  0.7880 -0.5145
 5073SOL    HW126678   0.801   2.787   7.821  1.7934  2.4385  0.9303
 5073SOL    HW226679   0.843   2.645   7.803 -0.3865  1.0686 -0.5964
 5074SOL     OW26680   4.045   0.711   4.453  0.4939 -0.1457  0.2455
 5074SOL    HW126681   4.082   0.707   4.365  0.1695 -1.9045  0.1900
 5074SOL    HW226682   4.111   0.754   4.508  0.4165  0.0727  0.1699
 5075SOL     OW26683   2.498   2.258   8.676  0.1311 -0.5613 -0.2633
 5075SOL    HW126684   2.457   2.171   8.676 -0.8192 -0.1159  0.0375
 5075SOL    HW226685   2.477   2.285   8.765  0.6016 -1.0766  0.0056
 5076SOL     OW26686   2.213   4.187   4.316 -0.2119 -0.7307 -0.1738
 5076SOL    HW126687   2.146   4.172   4.382 -0.2349 -3.0232 -0.7225
 5076SOL    HW226688   2.271   4.218   4.385 -0.5897  1.7674 -0.9614
 5077SOL     OW26689   1.739   2.655   8.280 -0.2361  0.0995 -0.3862
 5077SOL    HW126690   1.817   2.689   8.236  0.5034  0.8410  1.4626
 5077SOL    HW226691   1.746   2.697   8.366 -0.8445 -2.0261  0.6955
 5078SOL     OW26692   0.561   2.508   3.254  0.0884  0.3613 -0.1375
 5078SOL    HW126693   0.601   2.583   3.211 -1.5913  1.9813  1.1253
 5078SOL    HW226694   0.476   2.536   3.287  0.2441 -2.7002  2.8678
 5079SOL     OW26695   3.852   3.393   2.865 -0.2308  0.2457 -0.1984
 5079SOL    HW126696   3.775   3.423   2.913  0.3407 -0.1985  1.0216
 5079SOL    HW226697   3.913   3.467   2.872 -0.1931  0.2924 -1.0624
 5080SOL     OW26698   2.219   1.225   3.310 -0.1185 -0.0613 -0.1862
 5080SOL    HW126699   2.256   1.252   3.226 -3.1420 -1.9094 -2.1331
 5080SOL    HW226700   2.265   1.280   3.373  1.5027 -2.7267  0.9425
 5081SOL     OW26701   1.109   4.341   7.095 -0.0778  0.4030  0.5235
 5081SOL    HW126702   1.043   4.283   7.132  2.0487 -1.7441  0.9497
 5081SOL    HW226703   1.080   4.429   7.121 -2.2428 -0.4665  0.9938
 5082SOL     OW26704   0.070   2.202  13.888  0.0246  0.2617  0.0760
 5082SOL    HW126705   4.708   2.224  13.852 -1.5498 -2.8151  1.9012
 5082SOL    HW226706   0.098   2.284  13.927  0.3381  0.3183 -0.2715
 5083SOL     OW26707   0.475   2.037   3.555  0.0303 -0.0506 -0.1225
 5083SOL    HW126708   0.506   2.020   3.644  2.4511 -0.1901 -0.9742
 5083SOL    HW226709   0.394   1.988   3.545 -1.2275  2.1825 -0.8481
 5084SOL     OW26710   2.216   0.750   3.370  0.0744  0.4288 -0.2119
 5084SOL    HW126711   2.245   0.682   3.309  0.5767 -0.8983  1.4941
 5084SOL    HW226712   2.288   0.737   3.432  0.4642 -0.2434 -0.8071
 5085SOL     OW26713   2.733   1.268   5.617 -0.0970 -0.1935 -0.1180
 5085SOL    HW126714   2.779   1.206   5.561 -0.2002 -0.4130  0.0349
 5085SOL    HW226715   2.794   1.340   5.626  0.2942 -0.5110 -0.2358
 5086SOL     OW26716   1.169   3.476   3.965 -0.1526  0.6126 -0.1132
 5086SOL    HW126717   1.195   3.538   4.033 -0.2928 -0.5024  0.9655
 5086SOL    HW226718   1.255   3.437   3.954 -0.5801 -1.0723  2.4396
 5087SOL     OW26719   4.221   0.703   1.379 -0.1863 -0.1188 -0.0182
 5087SOL    HW126720   4.294   0.642   1.367  0.7196  0.9410  0.0068
 5087SOL    HW226721   4.235   0.714   1.473 -0.2131  3.9672 -0.4837
 5088SOL     OW26722   2.143   3.883   8.679  0.3581 -0.1681 -0.0829
 5088SOL    HW126723   2.091   3.881   8.759  1.1113 -0.1646  0.4121
 5088SOL    HW226724   2.137   3.791   8.654  2.5950 -0.8544  1.8025
 5089SOL     OW26725   1.759   2.182   2.068 -0.2545 -0.7247  0.0353
 5089SOL    HW126726   1.834   2.159   2.014 -0.1421 -1.6516  0.5865
 5089SOL    HW226727   1.744   2.106   2.124  0.3565 -0.1298  1.0097
 5090SOL     OW26728   3.214   0.692   9.362  0.6146 -0.8786 -0.2361
 5090SOL    HW126729   3.174   0.695   9.275  0.3133  0.6249 -0.0577
 5090SOL    HW226730   3.305   0.695   9.333  0.0526  0.9932 -1.8349
 5091SOL     OW26731   3.403   1.853  10.656  0.0266 -0.1915 -0.2031
 5091SOL    HW126732   3.439   1.774  10.616 -0.1036 -0.6929  0.6665
 5091SOL    HW226733   3.315   1.822  10.678  0.5562  0.5091  2.9920
 5092SOL     OW26734   0.328   1.678   6.447  0.2377 -0.0225 -0.1796
 5092SOL    HW126735   0.340   1.773   6.446 -0.4149  0.0723  1.4413
 5092SOL    HW226736   0.411   1.643   6.416 -1.0244 -2.0924 -1.2376
 5093SOL     OW26737   0.117   2.709   2.395 -0.3272 -0.4245 -0.1829
 5093SOL    HW126738   0.045   2.658   2.358 -0.4275  0.9883 -1.9283
 5093SOL    HW226739   0.144   2.767   2.324  2.3985  0.0768  1.2505
 5094SOL     OW26740   1.130   1.034   2.902 -0.1417 -0.4380 -0.5869
 5094SOL    HW126741   1.082   0.970   2.954 -0.8995 -0.4213 -1.2834
 5094SOL    HW226742   1.208   0.981   2.887 -0.6817 -1.0456 -1.2296
 5095SOL     OW26743   2.781   2.652   7.704  0.1099 -0.4609 -0.3735
 5095SOL    HW126744   2.868   2.658   7.743  0.3082 -1.1612 -0.6976
 5095SOL    HW226745   2.785   2.589   7.632 -1.6428 -0.7202 -0.2371
 5096SOL     OW26746   2.082   2.472   5.517  1.0962  0.4169 -0.4244
 5096SOL    HW126747   2.013   2.534   5.539 -0.1234 -1.0636 -0.0486
 5096SOL    HW226748   2.150   2.536   5.497  0.8285  1.2184  1.2198
 5097SOL     OW26749   4.036   3.916   1.860  0.6306  0.0207  0.2673
 5097SOL    HW126750   3.969   3.973   1.897  1.3964  1.2256 -0.2175
 5097SOL    HW226751   4.110   3.963   1.898 -2.3519  3.3993  1.8768
 5098SOL     OW26752   1.002   4.683   9.216  0.1412 -0.0067 -0.3763
 5098SOL    HW126753   0.920   4.645   9.183 -1.1668  2.3670  0.1080
 5098SOL    HW226754   1.032   4.622   9.283  0.5206  0.5382 -0.0478
 5099SOL     OW26755   0.156   4.459   9.648 -0.3997  0.0390 -0.1733
 5099SOL    HW126756   0.223   4.464   9.580 -1.4280  1.0267 -1.1244
 5099SOL    HW226757   0.105   4.386   9.612 -1.2265  0.2946  0.4721
 5100SOL     OW26758   1.713   3.743   2.083  0.4600 -0.0451 -0.6581
 5100SOL    HW126759   1.665   3.661   2.092  0.7793  0.1027  2.4581
 5100SOL    HW226760   1.663   3.785   2.014 -0.2191 -1.3032 -0.9232
 5101SOL     OW26761   2.858   1.735   3.696 -0.1475 -0.1978  0.6998
 5101SOL    HW126762   2.898   1.693   3.620 -2.1710  0.8800 -0.9732
 5101SOL    HW226763   2.766   1.732   3.669 -0.1594  0.7935  0.6243
 5102SOL     OW26764   2.264   1.768  13.287  0.1556 -0.0540  0.2516
 5102SOL    HW126765   2.249   1.675  13.274  2.9244 -0.3345 -0.9019
 5102SOL    HW226766   2.274   1.803  13.198 -0.7335 -0.0581  0.1418
 5103SOL     OW26767   3.841   0.182  10.868 -0.1194 -0.4199  0.4712
 5103SOL    HW126768   3.875   0.262  10.909 -0.6061 -0.0197  0.1055
 5103SOL    HW226769   3.784   0.148  10.937  1.5463 -0.9772  1.5551
 5104SOL     OW26770   3.414   0.640   6.603  0.0584 -0.1957  0.2999
 5104SOL    HW126771   3.497   0.686   6.592 -0.4202  0.7455  0.6090
 5104SOL    HW226772   3.448   0.552   6.618 -0.8477 -0.9961 -2.2601
 5105SOL     OW26773   1.832   1.092   2.636  0.0169  0.0484  0.6405
 5105SOL    HW126774   1.790   1.165   2.591 -0.7316 -1.3430 -0.9463
 5105SOL    HW226775   1.891   1.131   2.700 -0.9424 -0.7165  1.9918
 5106SOL     OW26776   0.134   0.319  10.917 -0.0728  0.0714 -0.0456
 5106SOL    HW126777   0.224   0.289  10.904  0.3023  0.8143  0.8584
 5106SOL    HW226778   0.110   0.334  10.825  0.0475  0.9029  0.0588
 5107SOL     OW26779   2.758   2.066   2.710  0.0972 -0.3580  0.1528
 5107SOL    HW126780   2.670   2.060   2.673 -0.8960 -0.6676  2.6236
 5107SOL    HW226781   2.735   2.046   2.801  0.6409  0.9718  0.5877
 5108SOL     OW26782   3.152   3.618  10.312  0.2620  0.1915 -0.0361
 5108SOL    HW126783   3.209   3.661  10.249  0.1396 -2.6158 -2.0535
 5108SOL    HW226784   3.211   3.573  10.373 -0.3021  0.5520  0.7831
 5109SOL     OW26785   0.568   0.954   5.508 -0.0259  0.4468  0.3520
 5109SOL    HW126786   0.626   0.878   5.511 -0.2696  0.1971 -1.3434
 5109SOL    HW226787   0.615   1.010   5.570  0.6348  1.4628 -1.0736
 5110SOL     OW26788   1.231   2.082  12.163 -0.5343 -0.8841  0.1683
 5110SOL    HW126789   1.191   2.023  12.228 -2.4130  0.8040  0.5418
 5110SOL    HW226790   1.194   2.167  12.187  1.5894  0.0211  0.2435
 5111SOL     OW26791   2.091   1.720   1.463 -0.0867 -0.1641 -0.2320
 5111SOL    HW126792   2.045   1.731   1.380 -0.6728 -0.2373  0.0860
 5111SOL    HW226793   2.179   1.714   1.426  0.0116  1.2401 -0.2143
 5112SOL     OW26794   1.902   4.233   2.440  0.2692  0.1087  0.0031
 5112SOL    HW126795   1.959   4.284   2.382 -0.1109 -0.3304 -0.7655
 5112SOL    HW226796   1.845   4.300   2.478  1.6716  0.3104  1.7364
 5113SOL     OW26797   3.564   1.995   6.615  0.0435 -0.4501 -0.4691
 5113SOL    HW126798   3.529   1.943   6.542 -1.1986 -1.0286  0.5307
 5113SOL    HW226799   3.512   1.969   6.691  1.1388 -0.1379  0.3903
 5114SOL     OW26800   1.738   3.617  10.775  0.7806  0.2062  0.1200
 5114SOL    HW126801   1.704   3.696  10.817 -0.1251 -0.0226 -0.1626
 5114SOL    HW226802   1.753   3.569  10.856  0.9195 -0.8495 -0.5240
 5115SOL     OW26803   4.357   3.168   3.496  0.1390  0.2911  0.0485
 5115SOL    HW126804   4.349   3.084   3.451  0.9403  1.4578 -2.2704
 5115SOL    HW226805   4.275   3.212   3.472  0.5083  0.7883 -0.2962
 5116SOL     OW26806   3.941   3.250   8.700 -0.1069 -0.0072  0.3883
 5116SOL    HW126807   3.882   3.260   8.774  0.5548 -0.2888  0.9661
 5116SOL    HW226808   3.969   3.162   8.726 -1.7645  0.3372  3.3263
 5117SOL     OW26809   3.278   0.620  10.071  0.1979 -0.1649  0.0234
 5117SOL    HW126810   3.264   0.529  10.099  0.5278 -0.6534 -1.3808
 5117SOL    HW226811   3.304   0.595   9.982  1.7010  0.9538  0.1709
 5118SOL     OW26812   2.641   1.839   4.660  0.2811  0.4968  0.0954
 5118SOL    HW126813   2.596   1.825   4.577  0.0666 -1.4503  0.5395
 5118SOL    HW226814   2.584   1.785   4.714  0.6250 -0.1227 -0.1668
 5119SOL     OW26815   0.451   3.543  16.825 -0.8272 -0.0249 -0.0413
 5119SOL    HW126816   0.383   3.529  16.759 -0.3493  0.7756 -0.7008
 5119SOL    HW226817   0.458   3.451  16.848 -0.1529 -0.9620 -4.0080
 5120SOL     OW26818   0.965   3.319  17.370  0.0251  0.3608 -0.1470
 5120SOL    HW126819   1.042   3.262  17.367 -0.5308 -0.3592 -0.8464
 5120SOL    HW226820   0.980   3.381  17.299 -0.4156 -0.9596 -1.4087
 5121SOL     OW26821   3.756   0.501   3.393 -0.1310 -0.4751  0.1010
 5121SOL    HW126822   3.811   0.440   3.441  1.7890  1.6077  0.5426
 5121SOL    HW226823   3.665   0.476   3.409 -0.5822  3.4601  3.5319
 5122SOL     OW26824   3.323   0.638   3.558 -0.1527 -0.5211  0.2323
 5122SOL    HW126825   3.254   0.657   3.495 -2.4046  0.1705  2.9062
 5122SOL    HW226826   3.276   0.582   3.619 -0.9145 -1.1408 -0.9265
 5123SOL     OW26827   1.054   3.885   4.639  0.1298  0.0661 -0.0798
 5123SOL    HW126828   1.112   3.922   4.572  1.7541 -0.7943  0.8689
 5123SOL    HW226829   1.027   3.812   4.583  0.5259  0.6273 -1.0127
 5124SOL     OW26830   1.734   2.373  10.913 -0.1174 -0.6402  0.2219
 5124SOL    HW126831   1.722   2.394  10.821 -1.1355 -0.8404  0.3070
 5124SOL    HW226832   1.767   2.284  10.898 -1.3231 -1.1353  0.4690
 5125SOL     OW26833   1.907   0.346   3.354  0.0779 -0.1088  0.1075
 5125SOL    HW126834   1.881   0.331   3.445  0.0140  0.9901  0.2741
 5125SOL    HW226835   1.870   0.434   3.345  1.3036  0.2946 -0.8595
 5126SOL     OW26836   3.935   3.918   2.896 -0.8800 -0.3526  0.3174
 5126SOL    HW126837   3.937   3.999   2.845 -0.3195 -0.9381 -0.5818
 5126SOL    HW226838   3.876   3.941   2.968 -0.5352 -1.0665  0.8385
 5127SOL     OW26839   4.091   0.055   3.970 -0.0993  0.5114 -0.3352
 5127SOL    HW126840   4.156   0.015   3.913  0.7179  3.0310 -1.1685
 5127SOL    HW226841   4.142   0.085   4.044 -2.9022 -1.9075  2.5717
 5128SOL     OW26842   3.396   1.301  14.131  0.0804 -0.2466 -0.4415
 5128SOL    HW126843   3.305   1.332  14.130  0.5454  1.1127 -0.4615
 5128SOL    HW226844   3.427   1.280  14.219 -0.3019  2.2309  0.2932
 5129SOL     OW26845   4.359   0.481   1.643  0.5779 -0.3415  0.1592
 5129SOL    HW126846   4.401   0.422   1.580 -0.0739  0.3257 -0.9067
 5129SOL    HW226847   4.427   0.548   1.637 -0.2456  0.4604 -0.2444
 5130SOL     OW26848   3.310   4.362   2.236 -0.7455 -0.2406  0.4355
 5130SOL    HW126849   3.338   4.401   2.319  1.2653  0.5240 -0.6115
 5130SOL    HW226850   3.250   4.433   2.212 -0.9394 -0.7488 -0.5919
 5131SOL     OW26851   2.535   0.841   2.153 -0.0351 -0.2586  0.1520
 5131SOL    HW126852   2.533   0.925   2.106  3.8189  0.8158  1.8551
 5131SOL    HW226853   2.544   0.776   2.083  2.8407 -0.2231  0.4784
 5132SOL     OW26854   1.282   3.725   0.106  0.0311 -0.0883 -0.0912
 5132SOL    HW126855   1.277   3.686   0.194  0.4269  0.6194  0.2431
 5132SOL    HW226856   1.197   3.703   0.068 -0.6341  1.3989  0.5281
 5133SOL     OW26857   0.734   1.973  12.985  0.1965  0.0645 -0.2938
 5133SOL    HW126858   0.775   2.057  13.005 -1.6431  1.2074 -1.3166
 5133SOL    HW226859   0.770   1.938  12.904 -1.2989 -2.5628  0.1759
 5134SOL     OW26860   3.705   0.362   9.077  0.1531 -0.3535  0.3403
 5134SOL    HW126861   3.738   0.420   9.145 -0.0630 -0.4462  0.5226
 5134SOL    HW226862   3.789   0.348   9.033 -0.6974 -1.2832 -0.9974
 5135SOL     OW26863   0.273   4.257  13.855  0.2964  0.0562  0.3447
 5135SOL    HW126864   0.242   4.340  13.819 -1.0778  0.1518  1.7478
 5135SOL    HW226865   0.282   4.285  13.947 -1.7551 -0.1830  0.6235
 5136SOL     OW26866   4.685   4.235   5.229 -0.5328 -0.4581  1.2086
 5136SOL    HW126867   4.689   4.320   5.274  1.5962 -1.2841  2.5763
 5136SOL    HW226868   4.593   4.244   5.206 -0.0815  2.0333  0.2981
 5137SOL     OW26869   1.758   0.844   5.423  0.3617  0.5332 -0.1237
 5137SOL    HW126870   1.794   0.757   5.405 -1.2890  0.5396 -3.3587
 5137SOL    HW226871   1.747   0.876   5.334  1.1789  1.1722  0.0096
 5138SOL     OW26872   0.143   0.663   8.127 -0.0761 -0.0920  0.0137
 5138SOL    HW126873   0.205   0.730   8.156 -0.0149  0.4589 -1.4067
 5138SOL    HW226874   0.155   0.680   8.033  1.3412 -1.5687 -0.0915
 5139SOL     OW26875   3.869   0.448   2.827  0.4121  0.0178 -0.1764
 5139SOL    HW126876   3.791   0.418   2.779  0.3739  0.2555 -0.2625
 5139SOL    HW226877   3.935   0.385   2.797 -0.2517 -1.5192  1.5431
 5140SOL     OW26878   3.315   3.526   9.675  0.7717 -0.6273 -0.0854
 5140SOL    HW126879   3.239   3.471   9.660  0.1135 -0.3792  2.3279
 5140SOL    HW226880   3.349   3.475   9.749 -0.3416 -1.7072 -0.3356
 5141SOL     OW26881   3.349   1.007   2.129  0.1997 -0.6740  0.4565
 5141SOL    HW126882   3.286   0.999   2.057  0.2846 -1.6877  0.5031
 5141SOL    HW226883   3.397   0.924   2.120  0.4701 -0.4599 -0.1428
 5142SOL     OW26884   4.626   3.845   1.068 -0.2338 -0.2602 -0.5656
 5142SOL    HW126885   4.607   3.939   1.075 -0.1007 -0.3691  1.4539
 5142SOL    HW226886   4.698   3.830   1.007 -0.3197  2.7466 -1.4209
 5143SOL     OW26887   4.254   0.642  12.253 -0.5697 -0.2044  0.0550
 5143SOL    HW126888   4.211   0.556  12.256 -0.0306 -0.5392 -1.6246
 5143SOL    HW226889   4.327   0.620  12.194 -1.2070  0.1235 -0.8604
 5144SOL     OW26890   3.745   0.365   1.853  0.0775 -0.0081  0.0091
 5144SOL    HW126891   3.693   0.356   1.933 -0.3348 -0.6187 -0.3265
 5144SOL    HW226892   3.671   0.363   1.793  1.1554 -0.5035 -1.2899
 5145SOL     OW26893   3.370   1.812   7.098  0.1198  0.0308 -0.0119
 5145SOL    HW126894   3.336   1.848   7.180  1.1850 -0.7685  0.7771
 5145SOL    HW226895   3.305   1.746   7.076  2.6742 -2.7729  0.8165
 5146SOL     OW26896   4.472   2.238   7.064 -0.7898  0.1326  0.7126
 5146SOL    HW126897   4.439   2.216   7.151  1.1617 -0.3814  1.3122
 5146SOL    HW226898   4.397   2.200   7.019 -0.1289  0.8424 -1.0246
 5147SOL     OW26899   2.348   0.339   5.777  0.1585 -0.2450 -0.1089
 5147SOL    HW126900   2.373   0.261   5.826 -2.4979 -1.2143 -0.2814
 5147SOL    HW226901   2.306   0.380   5.853  1.7867  1.0145  0.0920
 5148SOL     OW26902   1.852   4.424   9.186 -0.0840  0.0570 -0.2199
 5148SOL    HW126903   1.804   4.358   9.135 -1.0053  0.2064  0.4486
 5148SOL    HW226904   1.819   4.508   9.155  1.3410  0.8151  0.3433
 5149SOL     OW26905   2.312   1.494   5.744  0.0818  0.3171  0.1369
 5149SOL    HW126906   2.374   1.448   5.688 -1.0654  0.1723 -1.0113
 5149SOL    HW226907   2.236   1.440   5.722 -0.3950  0.6504  0.9624
 5150SOL     OW26908   0.379   0.341   3.406  0.7692 -0.3169  0.1970
 5150SOL    HW126909   0.288   0.315   3.416  0.4543  0.4525 -0.5783
 5150SOL    HW226910   0.428   0.265   3.435  0.6255 -0.3889  0.2473
 5151SOL     OW26911   1.867   1.469  15.596  0.0755 -0.2506 -0.2272
 5151SOL    HW126912   1.936   1.531  15.572  2.2804 -1.9574  1.6387
 5151SOL    HW226913   1.794   1.521  15.563 -1.2293 -2.2010 -0.4145
 5152SOL     OW26914   4.402   3.375  16.901  0.0579  0.6214 -0.0126
 5152SOL    HW126915   4.360   3.291  16.883  1.9632 -0.6250  1.3518
 5152SOL    HW226916   4.382   3.424  16.821 -4.2058 -0.7684  0.1866
 5153SOL     OW26917   0.326   3.164  15.883 -0.0149 -0.1959 -0.4031
 5153SOL    HW126918   0.365   3.152  15.970 -0.0808  2.0415 -0.0642
 5153SOL    HW226919   0.369   3.102  15.824  0.9285 -1.3088  1.4598
 5154SOL     OW26920   1.350   3.452   6.392  0.0256  0.3423 -0.1488
 5154SOL    HW126921   1.305   3.401   6.459  1.1160  0.7867  0.9313
 5154SOL    HW226922   1.425   3.399   6.362 -1.7812 -1.9701 -0.5575
 5155SOL     OW26923   1.761   0.524   7.693 -0.0228  0.1443 -0.4501
 5155SOL    HW126924   1.770   0.581   7.616  0.4206  0.1843 -0.3684
 5155SOL    HW226925   1.810   0.449   7.660 -0.8195 -0.7047  0.2926
 5156SOL     OW26926   3.540   1.536  13.082  0.2648  0.5332  0.2140
 5156SOL    HW126927   3.575   1.548  12.994 -0.4843  3.3234  0.3123
 5156SOL    HW226928   3.447   1.542  13.061  1.0379  1.1684 -3.0750
 5157SOL     OW26929   3.684   1.012   3.253 -0.1118 -0.0655  0.2658
 5157SOL    HW126930   3.621   0.987   3.186  1.4190 -0.6344 -0.9777
 5157SOL    HW226931   3.716   0.928   3.286  0.8948 -0.0829 -0.7185
 5158SOL     OW26932   0.087   3.985  10.985  0.2110 -0.0410 -0.3323
 5158SOL    HW126933   0.180   4.004  10.987  0.1808  0.1169 -0.4153
 5158SOL    HW226934   0.082   3.890  10.998 -1.0589  0.1302  0.4909
 5159SOL     OW26935   1.172   3.331   1.663 -0.0425  0.1734 -0.2410
 5159SOL    HW126936   1.192   3.238   1.676  0.1489  0.2897  0.2728
 5159SOL    HW226937   1.138   3.328   1.573 -1.9296 -1.8517  0.5486
 5160SOL     OW26938   1.827   1.270   2.381  0.2512 -0.1153 -0.0595
 5160SOL    HW126939   1.776   1.300   2.305  2.2197 -1.3681 -1.8716
 5160SOL    HW226940   1.781   1.319   2.449  0.0203 -1.8919  1.0671
 5161SOL     OW26941   4.610   4.408  16.038  0.1313 -0.0334  0.1739
 5161SOL    HW126942   4.638   4.327  15.996 -1.7547 -0.5399 -0.1255
 5161SOL    HW226943   4.584   4.471  15.971  0.1120 -0.0169  0.1969
 5162SOL     OW26944   4.065   4.688   3.385  0.2358 -0.0487 -0.1592
 5162SOL    HW126945   4.154   4.669   3.355  0.3337  0.7351 -0.3868
 5162SOL    HW226946   4.082   0.059   3.382  0.0524 -0.0042  0.3652
 5163SOL     OW26947   1.204   4.126  16.622  0.0399  0.1591  0.2505
 5163SOL    HW126948   1.184   4.172  16.540  2.2211  2.4697  0.9993
 5163SOL    HW226949   1.271   4.069  16.585  0.1287  0.3104  0.1789
 5164SOL     OW26950   3.379   2.590   5.837 -0.2368  0.0409 -0.7150
 5164SOL    HW126951   3.317   2.643   5.888  0.4284 -0.5346  0.6802
 5164SOL    HW226952   3.379   2.653   5.764  2.4238  1.0838  0.2166
 5165SOL     OW26953   3.751   0.853  17.626 -0.3671  0.1759 -0.4108
 5165SOL    HW126954   3.787   0.770  17.595  1.2271  1.4713 -2.0193
 5165SOL    HW226955   3.806   0.860   0.008 -1.8779  0.3795  0.6255
 5166SOL     OW26956   0.328   0.657   2.856 -0.0131  0.3914 -0.0174
 5166SOL    HW126957   0.384   0.733   2.842  1.6302 -0.6358  0.9989
 5166SOL    HW226958   0.263   0.673   2.925 -0.0118  0.1488  0.0389
 5167SOL     OW26959   3.987   4.701   0.571  0.4757 -0.4164 -0.1684
 5167SOL    HW126960   4.006   4.710   0.664  0.7145  0.6639 -0.3168
 5167SOL    HW226961   3.937   0.059   0.563  1.6893  0.3364 -0.0110
 5168SOL     OW26962   4.664   2.476  17.414  0.3718 -0.2654 -0.1905
 5168SOL    HW126963   4.662   2.401  17.474  0.9915  0.8835  1.2727
 5168SOL    HW226964   0.035   2.483  17.400  0.2211 -1.8572 -1.9948
 5169SOL     OW26965   3.142   2.322   7.708  0.3735 -0.6850 -0.2659
 5169SOL    HW126966   3.175   2.411   7.705 -2.3796  0.3391 -0.2226
 5169SOL    HW226967   3.178   2.292   7.792  1.4700  2.1529  0.2807
 5170SOL     OW26968   4.253   2.270   7.948 -0.8573 -0.0606  0.0623
 5170SOL    HW126969   4.249   2.365   7.947 -1.2546 -0.0928 -1.5517
 5170SOL    HW226970   4.338   2.254   7.989  0.1873 -1.0567 -2.5004
 5171SOL     OW26971   2.855   4.597  15.524 -0.1690 -0.5314  0.0918
 5171SOL    HW126972   2.942   4.561  15.507  1.4331  3.4994 -0.2612
 5171SOL    HW226973   2.852   4.691  15.543 -0.5457 -0.6473  0.6396
 5172SOL     OW26974   3.294   4.486   5.585  0.6900 -0.4314  0.0370
 5172SOL    HW126975   3.276   4.539   5.663  0.0829  1.0848 -1.1403
 5172SOL    HW226976   3.332   4.551   5.527 -0.7225  0.3780  0.0406
 5173SOL     OW26977   4.712   0.328   0.976 -0.3988 -0.2395 -0.0489
 5173SOL    HW126978   0.076   0.342   1.010  0.3144 -0.1982 -1.8833
 5173SOL    HW226979   4.668   0.361   1.055  0.3931  1.0877 -0.1667
 5174SOL     OW26980   1.016   1.777   6.816 -0.3117 -0.4123  0.1346
 5174SOL    HW126981   0.946   1.838   6.792 -0.4890 -0.5107  0.4066
 5174SOL    HW226982   0.993   1.695   6.772  2.0442 -0.9775 -0.0454
 5175SOL     OW26983   2.576   2.883   3.077 -0.1571 -0.0107 -0.0771
 5175SOL    HW126984   2.642   2.942   3.040 -0.3907  0.0050 -0.4669
 5175SOL    HW226985   2.633   2.812   3.108 -2.7283 -1.6527  0.8929
 5176SOL     OW26986   1.620   4.128  16.730 -0.1682  0.3008  0.6676
 5176SOL    HW126987   1.698   4.181  16.711 -0.5746  0.4834 -0.5044
 5176SOL    HW226988   1.614   4.066  16.658 -0.9078  1.5547 -0.3461
 5177SOL     OW26989   1.038   1.102   7.985 -0.2089 -0.3329  0.0784
 5177SOL    HW126990   0.995   1.116   7.901 -2.2427 -0.7048  1.0576
 5177SOL    HW226991   1.127   1.095   7.951 -0.1653  0.9919 -0.0757
 5178SOL     OW26992   4.503   4.073  16.109 -0.0494  0.0334  0.3106
 5178SOL    HW126993   4.486   4.005  16.043 -1.2106 -0.1657  0.8080
 5178SOL    HW226994   4.574   4.036  16.161 -0.3805  1.1878  1.5638
 5179SOL     OW26995   0.398   1.810   5.264  0.4175  0.0055 -0.6042
 5179SOL    HW126996   0.448   1.885   5.232 -0.4971  1.1079  0.5439
 5179SOL    HW226997   0.442   1.735   5.225 -0.5503  0.3627 -2.3513
 5180SOL     OW26998   3.191   4.261  15.467  0.3491  0.3713 -0.5139
 5180SOL    HW126999   3.137   4.193  15.426  2.9096 -1.2446 -1.1856
 5180SOL    HW227000   3.268   4.235  15.417  0.9029 -0.4778  0.7769
 5181SOL     OW27001   2.781   4.163   5.040  0.0167 -0.4769 -0.2715
 5181SOL    HW127002   2.861   4.158   5.093  0.5945  1.6427 -0.9221
 5181SOL    HW227003   2.761   4.070   5.030  1.5543 -0.9076  0.7755
 5182SOL     OW27004   2.941   1.052   9.755  0.2576  0.0124  0.0802
 5182SOL    HW127005   3.033   1.072   9.775  0.4648 -1.0303  0.1719
 5182SOL    HW227006   2.931   0.976   9.811 -0.7128  0.5034  0.5831
 5183SOL     OW27007   0.239   0.945  12.201  0.5212  0.0269  0.3862
 5183SOL    HW127008   0.331   0.927  12.187  0.5403  0.3752  0.0767
 5183SOL    HW227009   0.250   0.977  12.291 -1.3846  1.8177 -0.0041
 5184SOL     OW27010   1.368   4.284   5.267 -0.1250 -0.2911 -0.1008
 5184SOL    HW127011   1.331   4.261   5.352  1.2939 -1.8656  0.1024
 5184SOL    HW227012   1.443   4.225   5.261  0.8353  0.7848  1.3063
 5185SOL     OW27013   0.117   4.198   1.407 -0.5026 -0.6093 -0.2479
 5185SOL    HW127014   0.159   4.112   1.396 -0.1920 -0.3698 -0.9638
 5185SOL    HW227015   0.131   4.237   1.321  2.2118  1.9905  1.3515
 5186SOL     OW27016   2.503   3.939   7.433 -0.1586 -0.1488  1.0296
 5186SOL    HW127017   2.480   4.032   7.438 -1.2845 -0.4809  2.0188
 5186SOL    HW227018   2.557   3.925   7.511  0.9201  1.5308  0.6051
 5187SOL     OW27019   2.531   3.479  14.719 -0.1302 -0.4484  0.1742
 5187SOL    HW127020   2.452   3.459  14.768  0.1159 -2.0866 -0.1151
 5187SOL    HW227021   2.551   3.393  14.682 -3.4994 -1.2932  0.2963
 5188SOL     OW27022   0.524   3.370   1.787  0.5463 -0.0011 -0.1087
 5188SOL    HW127023   0.523   3.363   1.692  2.7172 -0.3097 -0.1230
 5188SOL    HW227024   0.612   3.340   1.812 -0.0683 -0.4872  1.4851
 5189SOL     OW27025   2.488   0.043   3.408 -0.5509  0.0278  0.1560
 5189SOL    HW127026   2.476   0.138   3.415  0.5711  0.1052  0.9566
 5189SOL    HW227027   2.397   0.012   3.413 -0.4945 -0.1746 -0.0660
 5190SOL     OW27028   4.580   3.686  14.818 -0.3149  0.1023  0.1436
 5190SOL    HW127029   4.673   3.699  14.836  0.3502 -1.8251 -1.9270
 5190SOL    HW227030   4.558   3.607  14.868 -0.3893  0.4092  0.5935
 5191SOL     OW27031   2.418   1.686   6.187 -0.0512  0.5692  0.5608
 5191SOL    HW127032   2.343   1.668   6.129  1.1913 -0.4237 -0.7423
 5191SOL    HW227033   2.423   1.780   6.169  0.6852  0.2271 -0.9980
 5192SOL     OW27034   3.077   3.878   8.668  0.5768  0.3226 -0.4427
 5192SOL    HW127035   3.076   3.782   8.657  1.0828  0.0827  1.5550
 5192SOL    HW227036   2.984   3.886   8.649  0.5763 -0.9299 -0.9811
 5193SOL     OW27037   2.185   1.984   8.278  0.4058  0.4991 -0.0913
 5193SOL    HW127038   2.114   1.922   8.262  1.1640 -0.1913 -0.7880
 5193SOL    HW227039   2.224   2.003   8.192 -1.4034  0.2742 -0.9734
 5194SOL     OW27040   2.590   2.755   4.796  0.6991 -0.0021 -0.0062
 5194SOL    HW127041   2.548   2.800   4.723  0.2064 -0.1436  0.1928
 5194SOL    HW227042   2.651   2.824   4.824  1.4171 -1.3431  1.7055
 5195SOL     OW27043   2.981   1.494   7.833 -0.3349 -0.3033 -0.4634
 5195SOL    HW127044   2.918   1.428   7.804  0.6448 -0.5647 -1.9991
 5195SOL    HW227045   2.946   1.577   7.801  0.3477  0.3130  0.3937
 5196SOL     OW27046   1.853   2.478   1.134 -0.4451 -0.7226  0.4094
 5196SOL    HW127047   1.913   2.547   1.107 -0.0087 -1.5984 -0.8743
 5196SOL    HW227048   1.846   2.444   1.044 -0.5598 -1.7346  0.7982
 5197SOL     OW27049   4.328   0.426   4.993  0.2057  0.1046 -0.6229
 5197SOL    HW127050   4.272   0.488   5.039 -1.5576 -1.1367 -1.1109
 5197SOL    HW227051   4.262   0.361   4.971  0.5905 -0.5193  0.0464
 5198SOL     OW27052   3.109   3.563   7.304 -0.7145 -0.0516 -0.0650
 5198SOL    HW127053   3.181   3.604   7.351 -2.2683 -0.0714  2.2951
 5198SOL    HW227054   3.036   3.596   7.356  0.6804  1.5669  0.8687
 5199SOL     OW27055   1.756   2.088   8.213 -0.1122 -0.1641 -0.0771
 5199SOL    HW127056   1.790   2.109   8.300 -0.0233  0.7397 -0.3263
 5199SOL    HW227057   1.825   2.117   8.154 -1.0673 -1.7501 -1.9796
 5200SOL     OW27058   1.158   4.140   2.883 -0.2194  0.1633  0.2336
 5200SOL    HW127059   1.201   4.225   2.895 -1.7962  0.7454  1.7248
 5200SOL    HW227060   1.098   4.149   2.957 -0.3944  2.3561 -0.1738
 5201SOL     OW27061   1.665   2.936   3.290  0.3342 -0.0166  0.2417
 5201SOL    HW127062   1.648   2.996   3.362  1.6676 -1.1702  1.5042
 5201SOL    HW227063   1.604   2.864   3.307 -0.4245  0.7707  0.9191
 5202SOL     OW27064   4.234   3.418   9.141 -0.0449 -0.6923 -1.2540
 5202SOL    HW127065   4.239   3.327   9.173  1.4587  0.0933  0.7700
 5202SOL    HW227066   4.225   3.468   9.222 -1.0516 -2.6008 -0.1834
 5203SOL     OW27067   2.058   0.566  16.527  0.5185 -0.4577  0.0737
 5203SOL    HW127068   2.017   0.637  16.576  0.8758 -0.5670  0.5278
 5203SOL    HW227069   2.086   0.615  16.450  0.9173  1.3928  1.4156
 5204SOL     OW27070   2.045   2.609   1.026  0.4560  0.3464 -0.6065
 5204SOL    HW127071   2.125   2.654   1.052  0.5009  0.2998 -0.6659
 5204SOL    HW227072   2.072   2.529   0.981 -0.8646 -0.4679  0.0479
 5205SOL     OW27073   3.810   4.613  10.072  0.1219  0.0787  0.1538
 5205SOL    HW127074   3.862   4.621  10.152  0.8176 -2.3933 -0.0552
 5205SOL    HW227075   3.739   4.665  10.108 -1.3662 -2.3341  0.7401
 5206SOL     OW27076   0.511   4.453   2.527  0.4834  0.1945 -0.5598
 5206SOL    HW127077   0.453   4.502   2.585  0.5524  1.4240 -1.5245
 5206SOL    HW227078   0.456   4.377   2.511  1.7805 -1.1902  1.5598
 5207SOL     OW27079   3.393   3.405   5.886  0.2843  0.0458  0.2575
 5207SOL    HW127080   3.343   3.486   5.873  1.4998  0.6151 -0.9354
 5207SOL    HW227081   3.464   3.424   5.825 -0.2000  0.2800 -0.2354
 5208SOL     OW27082   2.965   2.896   3.236 -0.1807  0.1516 -0.1707
 5208SOL    HW127083   3.032   2.949   3.191 -0.0252  0.6114  0.5894
 5208SOL    HW227084   3.012   2.819   3.267 -0.0688  0.5807  0.7293
 5209SOL     OW27085   2.476   1.730  12.558  0.2995 -0.0681 -0.4068
 5209SOL    HW127086   2.551   1.738  12.499  0.1808  0.5561 -0.4725
 5209SOL    HW227087   2.443   1.643  12.538 -0.0339  0.3704 -1.8223
 5210SOL     OW27088   3.699   2.549   4.096  0.2438 -0.7931 -0.2334
 5210SOL    HW127089   3.686   2.598   4.177 -1.9672  2.0862 -2.2861
 5210SOL    HW227090   3.627   2.487   4.101  1.2261 -1.8686  0.4085
 5211SOL     OW27091   2.484   3.230   6.803 -0.0662  1.3249 -0.2210
 5211SOL    HW127092   2.566   3.204   6.846  0.3669  0.4954 -1.5361
 5211SOL    HW227093   2.509   3.311   6.758 -2.5702  1.2329 -1.7500
 5212SOL     OW27094   4.382   0.150   8.591  0.0332  0.3150 -0.1327
 5212SOL    HW127095   4.375   0.121   8.681  1.1276 -2.9654 -1.1222
 5212SOL    HW227096   4.320   0.223   8.593  2.3351  2.2136  2.2783
 5213SOL     OW27097   2.969   2.294  17.461  0.0185 -0.3417  0.7114
 5213SOL    HW127098   2.986   2.204  17.433  1.3585  0.0783  0.1798
 5213SOL    HW227099   3.019   2.344  17.396  0.9462  0.2298  1.8666
 5214SOL     OW27100   0.377   0.870  12.484 -0.0320 -0.1155  0.4888
 5214SOL    HW127101   0.430   0.924  12.426 -1.9805 -0.4770 -1.6453
 5214SOL    HW227102   0.411   0.876  12.574 -2.6421  0.1060  1.4482
 5215SOL     OW27103   0.992   4.093   0.565 -0.7094  0.1539  0.5596
 5215SOL    HW127104   0.983   4.114   0.472  3.7128 -0.7977 -0.0459
 5215SOL    HW227105   0.929   4.024   0.586  0.3974 -1.6570 -2.0587
 5216SOL     OW27106   1.651   3.439   0.130  0.2795 -0.4247  0.5923
 5216SOL    HW127107   1.639   3.520   0.180 -2.8181 -0.4523 -0.1314
 5216SOL    HW227108   1.561   3.420   0.105 -0.6407  1.5067  2.4350
 5217SOL     OW27109   3.741   2.977   9.477 -0.0893  0.1276 -0.4914
 5217SOL    HW127110   3.718   2.910   9.542  2.0959  0.9161  1.1029
 5217SOL    HW227111   3.837   2.969   9.472  0.1799  1.1055  3.2774
 5218SOL     OW27112   1.859   4.131   1.113  0.1190 -0.0503  0.2544
 5218SOL    HW127113   1.927   4.198   1.114  0.3528 -0.2914  0.5890
 5218SOL    HW227114   1.902   4.045   1.118 -0.2987 -0.3379 -1.0272
 5219SOL     OW27115   0.483   4.469   1.541  0.1917 -0.5917  0.0985
 5219SOL    HW127116   0.423   4.543   1.549  1.4731  0.5631 -1.1446
 5219SOL    HW227117   0.534   4.503   1.468  0.1913 -1.2910 -0.2248
 5220SOL     OW27118   2.473   0.707   7.253 -0.0272  1.0737 -0.2925
 5220SOL    HW127119   2.565   0.687   7.240 -0.3900  1.2677 -3.1785
 5220SOL    HW227120   2.437   0.625   7.218 -0.9832  1.3124  0.1316
 5221SOL     OW27121   0.288   3.294  13.807 -0.0023  0.0018  0.3040
 5221SOL    HW127122   0.225   3.223  13.797 -0.3002  0.4871 -1.1897
 5221SOL    HW227123   0.362   3.233  13.799 -1.7274 -2.3539  2.0196
 5222SOL     OW27124   2.378   2.744   6.626  0.3294  0.4279  0.3973
 5222SOL    HW127125   2.284   2.752   6.645  0.4771 -1.8288  2.1415
 5222SOL    HW227126   2.407   2.812   6.688 -0.5168  3.1341 -2.1832
 5223SOL     OW27127   2.299   2.923   5.428 -0.5994 -0.1795  0.5060
 5223SOL    HW127128   2.383   2.880   5.441 -1.2634 -0.7474  2.9003
 5223SOL    HW227129   2.306   3.002   5.483 -1.8236  0.1235  0.2381
 5224SOL     OW27130   3.572   3.137   4.837  0.0839 -0.2042 -0.2602
 5224SOL    HW127131   3.547   3.046   4.853 -3.4937  1.2770  2.5508
 5224SOL    HW227132   3.647   3.128   4.778  0.5789 -1.1210  0.5002
 5225SOL     OW27133   0.851   3.091   3.840 -0.0612 -0.0546 -0.1918
 5225SOL    HW127134   0.769   3.072   3.885 -0.1276 -2.0857 -1.1444
 5225SOL    HW227135   0.880   3.179   3.861  0.9931 -0.2464 -0.7985
 5226SOL     OW27136   2.783   4.447   2.243 -0.2107  0.1248 -0.0489
 5226SOL    HW127137   2.813   4.525   2.195 -0.3078  0.3191  0.2092
 5226SOL    HW227138   2.841   4.381   2.204 -3.2044 -1.1187 -2.4106
 5227SOL     OW27139   2.256   0.477  15.077 -0.0583  0.3165  0.3137
 5227SOL    HW127140   2.279   0.401  15.024  0.1430  0.6965 -0.1449
 5227SOL    HW227141   2.203   0.429  15.141  0.7037 -1.8678 -0.6944
 5228SOL     OW27142   4.519   2.894   2.660 -0.5308  0.1562  0.1237
 5228SOL    HW127143   4.591   2.846   2.619 -0.7281 -0.5608  0.6203
 5228SOL    HW227144   4.496   2.948   2.584 -0.6574  0.9435  0.7238
 5229SOL     OW27145   0.748   3.083   1.988 -0.0271 -0.1870 -0.0240
 5229SOL    HW127146   0.747   3.178   1.987 -0.4356 -0.1989 -0.7705
 5229SOL    HW227147   0.786   3.051   1.907 -0.8874  0.7979 -0.8060
 5230SOL     OW27148   3.436   0.026   3.442 -0.2673 -0.0109 -0.5339
 5230SOL    HW127149   3.469   4.674   3.393 -0.3182  0.1634 -0.8347
 5230SOL    HW227150   3.380   0.067   3.377 -3.4002 -0.8888  1.5962
 5231SOL     OW27151   2.407   1.416   1.876 -0.2179  0.5815 -0.0947
 5231SOL    HW127152   2.339   1.427   1.942  1.3562 -1.4046  1.8842
 5231SOL    HW227153   2.461   1.353   1.925 -0.7465 -0.0228 -0.2896
 5232SOL     OW27154   0.113   1.488   5.826  0.3617 -0.3872 -0.5508
 5232SOL    HW127155   0.082   1.398   5.814 -0.7637 -0.3490  2.1161
 5232SOL    HW227156   0.175   1.505   5.755  1.5828  0.7747  0.7808
 5233SOL     OW27157   4.352   1.229   3.225 -0.1576  0.0408 -0.2563
 5233SOL    HW127158   4.445   1.250   3.224 -0.2412  0.3686 -1.0206
 5233SOL    HW227159   4.344   1.156   3.163  0.7167  1.5033 -2.0745
 5234SOL     OW27160   3.581   2.226   8.137 -0.2042 -0.1890  0.3142
 5234SOL    HW127161   3.625   2.144   8.115 -0.4055  0.1441 -1.3749
 5234SOL    HW227162   3.649   2.294   8.141 -2.0399  1.6596 -0.0713
 5235SOL     OW27163   0.675   4.199   4.899 -0.6073  0.1423 -0.4535
 5235SOL    HW127164   0.740   4.152   4.848 -1.8849  1.7148 -3.4856
 5235SOL    HW227165   0.679   4.286   4.861  1.0390  0.2524 -0.0044
 5236SOL     OW27166   1.089   2.730   6.498 -0.2180  0.1936  0.4861
 5236SOL    HW127167   1.143   2.684   6.562 -0.8347 -0.6100  0.4284
 5236SOL    HW227168   1.081   2.816   6.540 -1.1057  0.3845 -0.0661
 5237SOL     OW27169   3.070   3.797  10.555  0.0684 -0.0136 -0.1163
 5237SOL    HW127170   3.162   3.788  10.581  0.9172  1.9189 -2.4577
 5237SOL    HW227171   3.059   3.729  10.488 -1.7404 -1.5087  1.6776
 5238SOL     OW27172   4.117   4.126   2.958  0.7226 -0.2200  0.9905
 5238SOL    HW127173   4.062   4.182   3.013 -0.7506 -1.3096  0.6286
 5238SOL    HW227174   4.162   4.205   2.928 -2.1370  1.1126  0.2887
 5239SOL     OW27175   0.906   3.839  12.182 -0.1116 -0.3119 -0.6681
 5239SOL    HW127176   0.982   3.894  12.163 -0.1501 -0.5622 -1.5716
 5239SOL    HW227177   0.947   3.760  12.217 -1.6959  0.6501  3.3737
 5240SOL     OW27178   0.795   0.124   5.912  1.1110 -0.1781  0.0541
 5240SOL    HW127179   0.880   0.155   5.882  1.2377 -1.5530 -0.9960
 5240SOL    HW227180   0.815   0.093   6.000  1.0800  1.4456  0.6338
 5241SOL     OW27181   1.439   0.319   3.017 -0.2135  0.1196  0.7226
 5241SOL    HW127182   1.481   0.404   3.009 -0.4181 -0.2011 -3.4488
 5241SOL    HW227183   1.438   0.288   2.927 -0.3605 -0.1324  0.8111
 5242SOL     OW27184   2.402   1.856   6.863 -0.0267  0.5157  0.0678
 5242SOL    HW127185   2.366   1.888   6.946  0.4129 -2.6468  1.4706
 5242SOL    HW227186   2.470   1.918   6.838  0.3189  1.5879  3.6612
 5243SOL     OW27187   2.119   0.453   4.529  0.1508  0.0226 -0.3667
 5243SOL    HW127188   2.101   0.363   4.558  0.2500 -0.5277 -1.9975
 5243SOL    HW227189   2.160   0.497   4.604  0.9944 -1.7640  0.2246
 5244SOL     OW27190   3.580   3.624  10.484 -0.1979  0.0177 -0.4316
 5244SOL    HW127191   3.518   3.695  10.504 -1.0594 -0.8575 -0.0108
 5244SOL    HW227192   3.507   3.565  10.465  0.5535 -0.7308 -0.9836
 5245SOL     OW27193   1.811   1.535   1.770  0.4606  0.2657  0.1215
 5245SOL    HW127194   1.749   1.551   1.841 -0.1000  0.8434 -0.4908
 5245SOL    HW227195   1.877   1.485   1.818 -1.0168 -2.3254 -0.5389
 5246SOL     OW27196   1.513   0.058   7.013 -0.1805 -0.2354  0.2610
 5246SOL    HW127197   1.591   0.070   6.959  0.4677 -0.7556  1.0731
 5246SOL    HW227198   1.453   0.084   6.944 -0.6385 -0.5117  0.5557
 5247SOL     OW27199   2.485   2.035   7.304 -0.2403  0.6260  0.6025
 5247SOL    HW127200   2.514   2.063   7.217  0.8134  0.3408  0.8642
 5247SOL    HW227201   2.565   2.043   7.356 -0.7221  2.5678  1.0679
 5248SOL     OW27202   2.838   4.125   8.088  0.0121 -0.3478  0.0598
 5248SOL    HW127203   2.899   4.171   8.145  0.8061  1.2403 -2.0818
 5248SOL    HW227204   2.755   4.158   8.123  0.0823  1.3859 -1.4339
 5249SOL     OW27205   3.290   0.539   6.036 -0.3037 -0.1242 -0.1222
 5249SOL    HW127206   3.223   0.588   6.083  2.4717  2.8503  0.8291
 5249SOL    HW227207   3.356   0.539   6.105 -0.3412  0.5442 -0.0823
 5250SOL     OW27208   3.023   2.897   8.449 -0.0178  0.2837 -0.5437
 5250SOL    HW127209   3.003   2.987   8.474  1.6555 -0.2562  2.7395
 5250SOL    HW227210   2.938   2.853   8.444  1.4054 -2.4618 -0.5269
 5251SOL     OW27211   3.714   2.026  10.209 -0.4102  0.0505  0.0117
 5251SOL    HW127212   3.642   2.088  10.197 -0.8189 -0.2450  0.9384
 5251SOL    HW227213   3.709   1.973  10.129  0.7919 -1.1419  0.7371
 5252SOL     OW27214   3.528   3.994  12.119  0.1835 -0.2442  0.0929
 5252SOL    HW127215   3.509   3.927  12.185 -1.7918 -0.0545 -0.2978
 5252SOL    HW227216   3.591   3.950  12.062  0.2059 -0.0486 -0.0334
 5253SOL     OW27217   3.648   2.572   7.918 -0.7640  0.0662  0.7166
 5253SOL    HW127218   3.607   2.495   7.957 -1.9082  0.3668  0.0983
 5253SOL    HW227219   3.694   2.617   7.988 -0.9802  0.0704  0.8550
 5254SOL     OW27220   4.597   0.641   1.608 -0.1269  0.5096 -0.1785
 5254SOL    HW127221   4.680   0.641   1.655  0.0709 -0.7673 -0.5123
 5254SOL    HW227222   4.603   0.724   1.561  1.0992 -0.5030 -1.8089
 5255SOL     OW27223   1.096   1.911  15.118 -0.1429  0.8354 -0.4659
 5255SOL    HW127224   1.120   1.983  15.061  0.5634 -0.1019 -1.3542
 5255SOL    HW227225   1.012   1.933  15.159  0.2270 -0.4940  1.0259
 5256SOL     OW27226   0.051   2.228   5.998  0.6925  0.2944 -0.1841
 5256SOL    HW127227   0.068   2.246   5.905  2.0732 -0.7115 -0.1115
 5256SOL    HW227228   0.027   2.137   5.983  1.1669  0.1980 -0.3565
 5257SOL     OW27229   0.072   0.094   9.729  0.0620  0.3281 -0.5729
 5257SOL    HW127230   0.152   0.043   9.714  0.0501 -0.5874  2.6396
 5257SOL    HW227231   0.082   0.102   9.824 -0.1169 -0.4904 -0.4925
 5258SOL     OW27232   2.422   0.102   9.190  0.6187  0.3876  0.2815
 5258SOL    HW127233   2.372   0.135   9.265  1.6296  2.9543 -0.1715
 5258SOL    HW227234   2.355   0.063   9.135 -0.6764  0.5254  1.7502
 5259SOL     OW27235   0.093   3.510  15.268 -0.4243 -0.2295 -0.4205
 5259SOL    HW127236   0.121   3.583  15.213 -3.1216  1.4381  0.4641
 5259SOL    HW227237   0.164   3.488  15.328  1.9023  1.1945 -2.6499
 5260SOL     OW27238   1.458   3.804  17.401  0.3783  0.2096 -0.1577
 5260SOL    HW127239   1.513   3.765  17.468 -0.1878 -0.8447 -0.3014
 5260SOL    HW227240   1.487   3.895  17.399  0.1625  0.2945  1.1042
 5261SOL     OW27241   4.599   3.431  17.107 -0.2444 -0.4549  0.5113
 5261SOL    HW127242   4.657   3.366  17.068  0.6607  0.7768 -0.1851
 5261SOL    HW227243   4.528   3.417  17.045 -0.3286 -0.7438  0.6714
 5262SOL     OW27244   1.997   3.786  13.350 -0.7576  0.8031 -0.2001
 5262SOL    HW127245   2.008   3.707  13.296  0.9827 -0.1807  1.6324
 5262SOL    HW227246   2.041   3.852  13.297  0.7072  1.3118  1.6772
 5263SOL     OW27247   0.864   2.772  14.004  0.3288  0.3696  0.3905
 5263SOL    HW127248   0.779   2.805  13.975  1.1334 -1.0165 -3.3955
 5263SOL    HW227249   0.915   2.842  14.045  1.4741 -0.3288  0.1476
 5264SOL     OW27250   0.614   4.570   6.768 -0.1678  0.4188 -0.5660
 5264SOL    HW127251   0.554   4.532   6.703 -1.2277  1.5643 -0.2373
 5264SOL    HW227252   0.670   4.628   6.716  3.0399  1.2108  3.7924
 5265SOL     OW27253   0.069   1.117   9.681  0.3445 -0.1610  0.6157
 5265SOL    HW127254   0.047   1.030   9.647  1.5076 -0.1215 -0.2613
 5265SOL    HW227255   0.087   1.101   9.774  2.3992  1.2225  0.4566
 5266SOL     OW27256   3.479   0.579   8.935  0.4857 -0.4359 -0.4068
 5266SOL    HW127257   3.446   0.609   8.850  2.7890 -0.9048 -1.4949
 5266SOL    HW227258   3.485   0.665   8.977 -0.5702 -0.2843 -0.5643
 5267SOL     OW27259   0.152   2.202   8.816 -0.3174 -0.2286 -0.7890
 5267SOL    HW127260   0.222   2.253   8.855 -0.6308 -2.4976  2.7148
 5267SOL    HW227261   0.154   2.116   8.858  1.3249  0.4798  0.5719
 5268SOL     OW27262   4.277   2.638   3.742 -0.4886  0.2052  0.1185
 5268SOL    HW127263   4.298   2.575   3.811  0.2414  1.1256  0.7336
 5268SOL    HW227264   4.345   2.610   3.679 -2.2725 -2.8376 -0.4578
 5269SOL     OW27265   1.957   4.640   3.301 -0.0947  0.3804 -0.2443
 5269SOL    HW127266   1.928   0.003   3.272 -2.3296  0.2945  1.7095
 5269SOL    HW227267   1.918   4.619   3.386 -0.3353  1.0403 -0.1873
 5270SOL     OW27268   4.034   3.685  17.529  0.6574 -0.4419 -0.0410
 5270SOL    HW127269   3.968   3.625  17.565 -0.2287  0.4510 -0.1697
 5270SOL    HW227270   3.989   3.744  17.468  1.9309  1.1946  0.5943
 5271SOL     OW27271   2.571   3.233  15.681 -0.0144  0.4456  0.2061
 5271SOL    HW127272   2.623   3.309  15.708  1.3026 -0.7395  1.0305
 5271SOL    HW227273   2.534   3.213  15.767  2.5944 -0.2572  1.1778
 5272SOL     OW27274   1.992   3.738   2.053  0.4581  0.3886  0.2014
 5272SOL    HW127275   2.020   3.675   1.987 -0.6346  0.5651 -0.4367
 5272SOL    HW227276   1.898   3.740   2.033  0.7116  1.3918 -0.8533
 5273SOL     OW27277   4.617   1.981   9.689  0.4244  0.2323  0.1941
 5273SOL    HW127278   4.549   1.982   9.621  0.6759  0.3706 -0.0521
 5273SOL    HW227279   4.573   2.033   9.757  0.5717 -0.9534  1.2064
 5274SOL     OW27280   3.154   1.704  15.521  0.1534  0.3178  0.3244
 5274SOL    HW127281   3.213   1.713  15.447  1.6582 -1.0552  1.3465
 5274SOL    HW227282   3.196   1.628  15.561 -0.3354  0.5927  1.3639
 5275SOL     OW27283   3.765   0.678  12.316 -0.5572  0.1511 -0.0506
 5275SOL    HW127284   3.826   0.605  12.311  2.6936  2.7710  1.6735
 5275SOL    HW227285   3.818   0.753  12.290 -1.4476  1.5542  2.0847
 5276SOL     OW27286   2.139   2.955  12.568 -0.1712 -0.1350  0.2768
 5276SOL    HW127287   2.219   2.980  12.614  0.6000 -1.4590 -0.3137
 5276SOL    HW227288   2.086   2.928  12.642  0.0543 -1.1404  0.0842
 5277SOL     OW27289   3.870   2.258   5.032  0.0394 -0.5715 -0.0970
 5277SOL    HW127290   3.836   2.328   4.977  0.1134 -0.1123  0.4481
 5277SOL    HW227291   3.937   2.228   4.970  0.7253  1.2116 -0.2109
 5278SOL     OW27292   0.493   2.372   6.599 -0.1944  0.1536  0.2595
 5278SOL    HW127293   0.484   2.289   6.647 -1.3831 -0.7900 -1.5702
 5278SOL    HW227294   0.574   2.411   6.631  0.2872 -0.6822  0.0593
 5279SOL     OW27295   2.713   3.384   8.973  0.4316  0.1881  0.6840
 5279SOL    HW127296   2.788   3.326   8.985  0.4437  0.0831  0.0930
 5279SOL    HW227297   2.746   3.452   8.915 -1.6131  0.9712  0.4229
 5280SOL     OW27298   1.609   2.937  14.421  0.6469  0.3800 -0.3939
 5280SOL    HW127299   1.645   3.008  14.474 -0.8847 -0.9986  2.5005
 5280SOL    HW227300   1.683   2.878  14.435 -1.8447 -2.1809  2.0131
 5281SOL     OW27301   1.905   1.309   4.055 -0.2392 -0.1094  0.1052
 5281SOL    HW127302   1.931   1.217   4.044 -2.0600 -0.4406 -1.4028
 5281SOL    HW227303   1.985   1.343   4.094  0.0615 -0.5558 -0.1219
 5282SOL     OW27304   1.985   4.544  16.959 -0.2748  0.2435  0.7772
 5282SOL    HW127305   1.900   4.587  16.954 -0.1657  0.5003  1.1436
 5282SOL    HW227306   2.019   4.555  17.048 -1.0629  0.9683  0.9863
 5283SOL     OW27307   3.284   1.813   5.327  0.1940  0.1031 -0.2507
 5283SOL    HW127308   3.198   1.772   5.317 -0.4480  0.8110  2.2853
 5283SOL    HW227309   3.334   1.775   5.255  0.1884  1.8089 -1.1469
 5284SOL     OW27310   2.188   4.141   2.441 -0.3834  0.5854 -0.8345
 5284SOL    HW127311   2.176   4.121   2.533  0.5015  1.8562 -0.4399
 5284SOL    HW227312   2.283   4.133   2.444 -0.4811 -0.4866 -0.6778
 5285SOL     OW27313   1.016   4.403   2.662 -0.3929  0.0314 -0.4156
 5285SOL    HW127314   1.095   4.414   2.609 -1.1183  0.7756 -1.3613
 5285SOL    HW227315   1.051   4.408   2.751 -0.0405  0.8040 -0.5939
 5286SOL     OW27316   2.462   4.520   8.164  0.7397 -0.1733  0.4273
 5286SOL    HW127317   2.493   4.603   8.126 -0.9883 -0.1856 -1.0433
 5286SOL    HW227318   2.390   4.502   8.104 -0.5939  2.3352  1.2971
 5287SOL     OW27319   2.176   1.956   6.199 -0.5355 -0.3000  0.0380
 5287SOL    HW127320   2.107   1.947   6.134  0.7269  1.8644 -1.6027
 5287SOL    HW227321   2.139   2.015   6.265  0.4039  2.2186 -1.6547
 5288SOL     OW27322   2.505   2.288  12.230  0.0889 -0.0262 -0.3813
 5288SOL    HW127323   2.513   2.373  12.273 -1.7892  0.2155 -0.5279
 5288SOL    HW227324   2.558   2.296  12.150  0.1146 -1.2470 -0.4742
 5289SOL     OW27325   1.517   3.804   8.063 -0.0578 -0.4843  0.2290
 5289SOL    HW127326   1.612   3.791   8.055 -0.5331 -2.3992 -2.3717
 5289SOL    HW227327   1.508   3.888   8.108  0.2526 -0.8061  0.8809
 5290SOL     OW27328   2.607   2.068   1.926  0.8946  0.0864 -0.1623
 5290SOL    HW127329   2.608   2.013   1.848 -0.7232 -0.8706  0.4794
 5290SOL    HW227330   2.696   2.052   1.958  1.0365 -2.5166 -1.8501
 5291SOL     OW27331   3.539   1.425   5.005  0.1920 -0.0846 -0.7196
 5291SOL    HW127332   3.602   1.400   5.073 -0.5633  0.5913  0.2229
 5291SOL    HW227333   3.474   1.475   5.054  0.4257  1.1695 -1.6923
 5292SOL     OW27334   2.281   2.910   1.957  0.2477  0.0959 -0.3677
 5292SOL    HW127335   2.331   2.852   1.898  0.7056 -0.9190  1.0183
 5292SOL    HW227336   2.232   2.957   1.890  3.2937  2.2768 -1.0587
 5293SOL     OW27337   0.924   4.540   0.794 -0.1886  0.7002 -0.7580
 5293SOL    HW127338   0.855   4.524   0.858 -1.2824  1.1833 -1.8059
 5293SOL    HW227339   0.965   4.620   0.826 -0.2489 -0.0609  1.2426
 5294SOL     OW27340   2.329   1.429   7.644 -0.0822  0.4828  0.3072
 5294SOL    HW127341   2.421   1.440   7.670  0.2176 -1.1754 -0.0134
 5294SOL    HW227342   2.329   1.334   7.652 -0.0513  0.5744  1.3948
 5295SOL     OW27343   4.538   0.340   3.437 -0.9418 -0.1182 -0.6063
 5295SOL    HW127344   4.551   0.411   3.501  0.5479 -1.3319  0.4302
 5295SOL    HW227345   4.456   0.371   3.399 -1.2971 -1.7471 -1.1566
 5296SOL     OW27346   1.775   4.703  16.273  0.1734  0.0928  0.2739
 5296SOL    HW127347   1.718   0.025  16.212  1.8012  0.5901 -0.8718
 5296SOL    HW227348   1.843   4.684  16.209  0.5368  0.5236  0.5288
 5297SOL     OW27349   4.121   1.485  15.717  0.3652 -0.0892 -0.4031
 5297SOL    HW127350   4.187   1.555  15.717  1.3362 -1.0091 -1.3552
 5297SOL    HW227351   4.158   1.419  15.659  0.0309  0.0604 -0.7922
 5298SOL     OW27352   0.300   2.155   4.572 -0.5205  0.0499  0.1913
 5298SOL    HW127353   0.266   2.069   4.597 -1.4741  0.2877 -0.2943
 5298SOL    HW227354   0.377   2.136   4.517 -1.1160 -1.1252 -0.2298
 5299SOL     OW27355   3.961   3.220   4.324 -0.5270  0.0369  0.0266
 5299SOL    HW127356   3.897   3.285   4.350 -0.8011 -0.3975  0.4324
 5299SOL    HW227357   4.009   3.264   4.253 -0.1433 -0.5298 -0.0681
 5300SOL     OW27358   3.862   3.457   7.927 -0.6171  0.2014  0.4455
 5300SOL    HW127359   3.856   3.369   7.888 -0.6256  0.1317  0.6044
 5300SOL    HW227360   3.865   3.435   8.020 -1.0015 -0.4450  0.3080
 5301SOL     OW27361   1.295   1.716  16.816  0.2421 -0.2841  0.2944
 5301SOL    HW127362   1.246   1.649  16.864 -0.4857 -0.7317 -1.0847
 5301SOL    HW227363   1.385   1.689  16.836 -0.2430 -1.4236  0.9667
 5302SOL     OW27364   1.618   1.851   5.283  0.2936  0.2648 -0.5459
 5302SOL    HW127365   1.626   1.761   5.250 -0.1186 -0.3406  0.9629
 5302SOL    HW227366   1.704   1.887   5.261 -0.4785  2.8403  0.6900
 5303SOL     OW27367   1.648   3.327   9.231 -0.1488 -0.2763  0.4911
 5303SOL    HW127368   1.565   3.332   9.278  1.1379 -1.0373  2.7829
 5303SOL    HW227369   1.629   3.248   9.181  1.3291 -0.5759  0.4129
 5304SOL     OW27370   1.054   1.210   2.682 -0.0942 -0.1172 -0.1953
 5304SOL    HW127371   0.964   1.177   2.684 -0.3789  0.7170  0.6148
 5304SOL    HW227372   1.067   1.162   2.764  0.1479  0.2335 -0.0312
 5305SOL     OW27373   2.992   2.047   7.728 -0.1218  0.2218 -0.1381
 5305SOL    HW127374   3.023   2.103   7.799 -0.2684 -1.5608  1.3462
 5305SOL    HW227375   2.933   2.101   7.676  1.6401  1.4887 -0.7930
 5306SOL     OW27376   1.462   1.160   8.087 -0.0622 -0.1358 -0.3428
 5306SOL    HW127377   1.555   1.139   8.077 -0.4506 -1.1311 -1.8685
 5306SOL    HW227378   1.447   1.247   8.050 -2.8408 -0.9723 -1.1690
 5307SOL     OW27379   0.350   0.790   5.304  0.5717 -0.5986 -0.8318
 5307SOL    HW127380   0.274   0.732   5.296 -1.8117  2.4490 -0.1478
 5307SOL    HW227381   0.399   0.735   5.366 -0.1881  0.9062  1.1125
 5308SOL     OW27382   3.976   1.981   8.199 -0.1820 -0.1503  0.2932
 5308SOL    HW127383   3.979   1.951   8.290  1.1949  2.2913  1.0412
 5308SOL    HW227384   3.881   1.982   8.182 -0.3393  0.2474  1.1555
 5309SOL     OW27385   4.428   2.083   2.639 -0.2423 -0.6060  0.2039
 5309SOL    HW127386   4.346   2.131   2.632  0.4966  0.1306 -3.1534
 5309SOL    HW227387   4.410   2.009   2.581  1.5411 -0.1373 -0.9607
 5310SOL     OW27388   3.528   1.000   4.059 -0.1840  0.3985 -0.0533
 5310SOL    HW127389   3.453   0.983   4.116  0.5875 -0.4213  0.7236
 5310SOL    HW227390   3.578   0.923   4.085  0.5783  1.8954  3.0306
 5311SOL     OW27391   3.041   0.089   4.441  0.4164  0.4405 -0.0584
 5311SOL    HW127392   3.125   0.044   4.429 -0.2517 -0.6369 -0.7355
 5311SOL    HW227393   2.986   0.030   4.389 -0.8477  1.9127 -0.3721
 5312SOL     OW27394   0.039   0.838   6.348 -0.0890 -0.3217  0.5524
 5312SOL    HW127395   0.102   0.767   6.339 -3.0257 -2.9086  0.3896
 5312SOL    HW227396   0.073   0.878   6.428 -1.7619  0.0154  1.1144
 5313SOL     OW27397   3.063   2.500  16.951  0.1401 -0.0046  0.0318
 5313SOL    HW127398   3.155   2.519  16.932 -0.9412  2.6979 -2.4111
 5313SOL    HW227399   3.030   2.569  16.894 -0.0726 -0.0988  0.0417
 5314SOL     OW27400   3.056   3.908  15.866  0.2233 -0.7545 -0.7575
 5314SOL    HW127401   3.150   3.893  15.858  0.5030  0.7800 -0.3147
 5314SOL    HW227402   3.062   3.953  15.950  0.6133 -0.0956 -1.1381
 5315SOL     OW27403   0.716   2.364   0.370  0.6064  0.0686 -0.1947
 5315SOL    HW127404   0.807   2.363   0.400 -0.1439  0.6390  2.0919
 5315SOL    HW227405   0.726   2.338   0.278  0.4356  0.7404 -0.4006
 5316SOL     OW27406   3.937   3.361   0.689  0.1733 -0.1894 -0.0026
 5316SOL    HW127407   3.878   3.301   0.644 -0.6852  0.4398  0.2749
 5316SOL    HW227408   4.010   3.366   0.627 -0.6462 -2.1342 -1.1405
 5317SOL     OW27409   3.389   2.082   8.310  0.6677 -0.0705 -0.0086
 5317SOL    HW127410   3.449   2.007   8.303  0.5697 -0.3940  2.7197
 5317SOL    HW227411   3.410   2.122   8.226 -1.2515  0.1837 -0.3585
 5318SOL     OW27412   2.338   1.351   4.972 -0.0636  0.2200  0.2547
 5318SOL    HW127413   2.403   1.362   5.041  0.1226  0.0515  0.1077
 5318SOL    HW227414   2.273   1.302   5.022  0.7620 -0.9100  0.2179
 5319SOL     OW27415   1.911   3.521   1.848 -0.5456  0.7261  0.2129
 5319SOL    HW127416   1.856   3.485   1.918 -1.3478 -0.1930 -0.8971
 5319SOL    HW227417   1.842   3.563   1.797 -2.3435  0.9035  2.7808
 5320SOL     OW27418   0.974   1.678  13.983  0.7460 -0.5479 -0.4763
 5320SOL    HW127419   1.045   1.631  13.938  0.1016 -1.1244 -0.8986
 5320SOL    HW227420   1.011   1.748  14.036  2.4715  1.2320 -4.0148
 5321SOL     OW27421   2.715   3.326  17.040 -0.0284  0.6121  0.6003
 5321SOL    HW127422   2.682   3.240  17.067  0.1974 -0.1301 -1.5575
 5321SOL    HW227423   2.780   3.347  17.108  0.6660  0.8880 -0.1503
 5322SOL     OW27424   0.690   3.872   3.612 -0.0118 -0.7943  0.2448
 5322SOL    HW127425   0.781   3.892   3.588  0.5806 -2.2575  1.2397
 5322SOL    HW227426   0.706   3.866   3.706  0.1036  1.2293  0.3618
 5323SOL     OW27427   4.507   3.378   7.988  0.4764  0.0327 -0.1466
 5323SOL    HW127428   4.552   3.379   7.903 -1.1885  3.2239 -0.9856
 5323SOL    HW227429   4.578   3.390   8.052  1.8004  0.6103 -1.7413
 5324SOL     OW27430   4.531   2.842  16.261 -0.0753 -0.5932 -0.5877
 5324SOL    HW127431   4.451   2.840  16.312  0.8800 -0.8824  0.8826
 5324SOL    HW227432   4.496   2.895  16.189 -0.0591  0.6214  0.3153
 5325SOL     OW27433   1.910   1.175   7.367  0.6446 -0.4127 -0.0279
 5325SOL    HW127434   1.900   1.266   7.338  1.8845 -0.1502  0.3647
 5325SOL    HW227435   1.975   1.185   7.436  0.6762 -1.1592  0.0504
 5326SOL     OW27436   3.309   1.258   2.863  0.6324 -0.0981 -0.1707
 5326SOL    HW127437   3.356   1.292   2.788  0.6120  2.4899  0.9813
 5326SOL    HW227438   3.312   1.328   2.928 -0.1411  0.7716 -1.0579
 5327SOL     OW27439   2.036   0.029  10.020 -0.3132  0.2268 -0.0867
 5327SOL    HW127440   2.034   0.051  10.113  0.9085  4.4256 -1.0511
 5327SOL    HW227441   2.028   0.116   9.981  2.9417  1.3988  1.8437
 5328SOL     OW27442   1.789   4.354  16.650 -0.0136  0.0281  0.5289
 5328SOL    HW127443   1.754   4.430  16.695  0.4727  0.0999  0.7813
 5328SOL    HW227444   1.834   4.398  16.578 -0.5784  2.6986  1.8253
 5329SOL     OW27445   1.757   1.542  16.655  0.2194  0.2922  0.1271
 5329SOL    HW127446   1.736   1.615  16.713  0.6256  1.3487 -1.0465
 5329SOL    HW227447   1.763   1.469  16.717 -0.8452  0.7680  0.7909
 5330SOL     OW27448   3.342   1.838  16.413 -0.3650 -0.3462 -0.4204
 5330SOL    HW127449   3.393   1.842  16.332 -1.4318  2.0183 -0.9817
 5330SOL    HW227450   3.412   1.874  16.468  1.4194 -1.4480 -1.9686
 5331SOL     OW27451   2.832   4.506  13.469 -0.7571  0.3738  0.5978
 5331SOL    HW127452   2.894   4.569  13.506  1.5608 -0.9464 -1.0496
 5331SOL    HW227453   2.866   4.496  13.380  2.6798 -0.4473  1.9827
 5332SOL     OW27454   1.549   0.290   9.023 -0.3009 -0.1188  0.6167
 5332SOL    HW127455   1.556   0.208   9.071  0.3331 -0.8659 -0.7536
 5332SOL    HW227456   1.454   0.302   9.019 -0.4222 -1.1537  0.3680
 5333SOL     OW27457   2.800   0.952  12.263  0.0016 -0.0368  0.4972
 5333SOL    HW127458   2.748   1.031  12.243 -0.6038 -0.0423  2.0616
 5333SOL    HW227459   2.804   0.958  12.358 -1.5611  1.4161  0.4803
 5334SOL     OW27460   3.926   3.016   6.586 -0.1916 -0.2121  0.2970
 5334SOL    HW127461   3.839   2.979   6.569  0.0356 -1.7691  2.6006
 5334SOL    HW227462   3.971   2.931   6.584  0.2059 -0.0355  2.1679
 5335SOL     OW27463   1.686   4.342   7.275 -0.1645  0.2949 -0.4013
 5335SOL    HW127464   1.639   4.415   7.233 -1.1742 -0.2935 -0.2996
 5335SOL    HW227465   1.613   4.280   7.265  0.3629 -0.5071  0.7639
 5336SOL     OW27466   4.119   1.235   4.514  0.4207 -0.0718  0.5735
 5336SOL    HW127467   4.209   1.210   4.531  0.5014 -0.1736 -0.0203
 5336SOL    HW227468   4.071   1.152   4.517  1.3474 -0.5607  1.5677
 5337SOL     OW27469   4.192   2.615   2.482 -0.2897 -0.2327 -0.0494
 5337SOL    HW127470   4.186   2.693   2.537 -0.3348 -2.5400  3.2505
 5337SOL    HW227471   4.152   2.545   2.534  0.5860 -1.8399 -1.5204
 5338SOL     OW27472   4.478   0.847   6.587  0.0323  0.0177  0.0570
 5338SOL    HW127473   4.390   0.851   6.550  1.0662  0.7986 -2.3208
 5338SOL    HW227474   4.528   0.834   6.507  0.8407  4.6140 -0.2086
 5339SOL     OW27475   1.187   4.640  17.556  0.1364  0.2279 -0.5438
 5339SOL    HW127476   1.223   4.719  17.596 -0.2851 -0.3567  0.9934
 5339SOL    HW227477   1.248   4.578  17.597 -0.1866  1.3366  1.5689
 5340SOL     OW27478   3.237   2.972  13.983  0.1344  0.0304 -0.3669
 5340SOL    HW127479   3.250   3.056  14.027 -0.9837  0.1108 -0.1897
 5340SOL    HW227480   3.317   2.961  13.932  0.0228 -2.5009 -0.0146
 5341SOL     OW27481   3.615   1.614  15.335 -0.4508  0.3481  0.6691
 5341SOL    HW127482   3.621   1.597  15.429  0.5654 -0.3440  0.4825
 5341SOL    HW227483   3.665   1.541  15.297 -1.0637  0.8734 -1.1558
 5342SOL     OW27484   3.490   0.669  10.382  0.1658  0.3638  0.3912
 5342SOL    HW127485   3.578   0.683  10.347 -0.0190 -1.4214 -0.7941
 5342SOL    HW227486   3.484   0.748  10.436 -2.6223  1.3885 -1.4453
 5343SOL     OW27487   1.640   0.966  10.610  0.5308 -0.3241  0.3823
 5343SOL    HW127488   1.718   0.911  10.620  0.5829 -0.3506 -0.1627
 5343SOL    HW227489   1.679   1.052  10.621 -1.5941  0.5580  1.0147
 5344SOL     OW27490   1.610   4.491  10.889 -0.1569 -0.8070 -0.3137
 5344SOL    HW127491   1.561   4.463  10.812  0.2245 -1.7321 -0.2159
 5344SOL    HW227492   1.641   4.406  10.920  1.3849 -0.5992 -1.2783
 5345SOL     OW27493   3.191   1.305   5.374 -0.1831  0.2120 -0.5094
 5345SOL    HW127494   3.279   1.336   5.352 -1.1697  3.2370 -0.1526
 5345SOL    HW227495   3.208   1.218   5.337 -1.2512 -0.5089  0.6803
 5346SOL     OW27496   0.400   2.461  11.624 -0.5439  0.7756  0.3767
 5346SOL    HW127497   0.414   2.513  11.702 -2.1066  0.0420  1.1397
 5346SOL    HW227498   0.485   2.467  11.580  0.0571 -0.3682  1.3581
 5347SOL     OW27499   0.735   3.258  11.214 -0.7441  0.0874  0.3302
 5347SOL    HW127500   0.714   3.250  11.307 -0.3583 -0.4715  0.3688
 5347SOL    HW227501   0.652   3.290  11.180 -0.0717  0.2968 -1.1196
 5348SOL     OW27502   3.512   0.432  10.232 -0.2161 -0.4068  0.2445
 5348SOL    HW127503   3.496   0.511  10.284  0.1486  1.0493 -1.8220
 5348SOL    HW227504   3.433   0.433  10.178 -0.9572 -0.0276  1.3257
 5349SOL     OW27505   1.351   0.032   3.443 -0.7192  0.0544  0.5391
 5349SOL    HW127506   1.327   0.028   3.536 -0.8696  0.4933  0.5206
 5349SOL    HW227507   1.435   0.078   3.448  0.1102 -1.3392 -0.9856
 5350SOL     OW27508   2.666   0.259   6.592  0.9818  0.4353  0.8493
 5350SOL    HW127509   2.733   0.316   6.631  0.2443  0.2819  2.3494
 5350SOL    HW227510   2.726   0.186   6.580  2.7836  1.7531  1.8522
 5351SOL     OW27511   1.121   2.604   6.017 -0.6156 -0.1393 -0.1895
 5351SOL    HW127512   1.083   2.520   5.993 -0.3649 -0.0232 -1.0046
 5351SOL    HW227513   1.047   2.646   6.061 -0.7683  1.5108 -2.0403
 5352SOL     OW27514   2.864   0.703  12.628  0.1617 -0.0436  0.3359
 5352SOL    HW127515   2.795   0.753  12.585 -0.0647 -1.3774 -0.8484
 5352SOL    HW227516   2.839   0.696  12.720  0.0786 -0.3651  0.2897
 5353SOL     OW27517   4.242   1.095   2.139 -0.2906  0.7008 -0.1255
 5353SOL    HW127518   4.270   1.132   2.055  0.3338 -0.3839 -0.3963
 5353SOL    HW227519   4.314   1.037   2.161 -0.7290 -0.0399 -0.6327
 5354SOL     OW27520   0.548   2.306   7.360  0.1828 -0.1724 -0.8253
 5354SOL    HW127521   0.496   2.305   7.441  2.0530  3.0989  0.4446
 5354SOL    HW227522   0.562   2.399   7.342  0.6632  0.2305  1.5263
 5355SOL     OW27523   0.881   0.295   1.895 -0.3531  0.4148  0.0623
 5355SOL    HW127524   0.834   0.351   1.957  0.0379  1.3786 -0.5109
 5355SOL    HW227525   0.947   0.274   1.960 -0.1262  0.1478 -0.2570
 5356SOL     OW27526   1.417   3.363   0.032 -0.3285  0.4054  0.3244
 5356SOL    HW127527   1.443   3.272   0.047  0.3871  0.4901 -0.3639
 5356SOL    HW227528   1.328   3.362   0.068 -1.8202 -1.4336 -3.3855
 5357SOL     OW27529   4.352   0.818   0.604  0.4512 -0.4009  0.1460
 5357SOL    HW127530   4.429   0.874   0.592 -0.0831 -0.0457 -1.6258
 5357SOL    HW227531   4.400   0.745   0.643  0.8842 -1.1225 -1.7415
 5358SOL     OW27532   4.317   3.881   0.506  0.0470 -0.9549 -0.1699
 5358SOL    HW127533   4.371   3.901   0.429  1.1570  3.7518  1.8503
 5358SOL    HW227534   4.260   3.957   0.503  0.4374 -0.6309  0.7956
 5359SOL     OW27535   2.771   0.536   3.021 -0.4838  0.2089  0.1378
 5359SOL    HW127536   2.767   0.474   2.948  1.6613  0.8675 -0.5380
 5359SOL    HW227537   2.748   0.612   2.968  0.0219 -0.0748 -0.4821
 5360SOL     OW27538   0.830   1.478   4.135  0.2157 -0.2601 -0.0491
 5360SOL    HW127539   0.917   1.489   4.174  0.4879 -1.2832 -0.3690
 5360SOL    HW227540   0.832   1.383   4.136  1.2545 -0.2333  0.2151
 5361SOL     OW27541   2.202   0.239   9.723 -0.4804  0.1779 -0.2477
 5361SOL    HW127542   2.275   0.296   9.750 -0.9603  0.7446 -0.1401
 5361SOL    HW227543   2.134   0.261   9.787 -0.2730  0.4105 -0.1083
 5362SOL     OW27544   0.605   0.160  12.680  0.3145 -0.2407  0.2023
 5362SOL    HW127545   0.633   0.102  12.750  0.4430 -1.1982 -0.6398
 5362SOL    HW227546   0.526   0.120  12.645 -1.2735  2.9065  0.1787
 5363SOL     OW27547   3.931   3.154   4.768 -0.1862 -0.0435  0.5543
 5363SOL    HW127548   4.025   3.174   4.759 -0.2931 -0.5044 -1.5472
 5363SOL    HW227549   3.894   3.242   4.778  0.3826  0.3319 -0.5392
 5364SOL     OW27550   3.058   2.902   7.920 -0.2248  0.0766  0.1987
 5364SOL    HW127551   3.135   2.847   7.934 -0.8620 -1.6568 -3.2095
 5364SOL    HW227552   3.068   2.982   7.972 -0.9749 -0.7233  1.5662
 5365SOL     OW27553   0.672   2.765   0.270 -0.1464  0.2103 -0.2406
 5365SOL    HW127554   0.691   2.720   0.352  0.2641  0.7455 -0.0507
 5365SOL    HW227555   0.739   2.720   0.218 -1.5520 -1.1987 -0.8480
 5366SOL     OW27556   4.357   4.199  17.594 -0.1730  0.0297 -0.0985
 5366SOL    HW127557   4.289   4.200  17.528  0.9059 -1.0625 -1.2351
 5366SOL    HW227558   4.388   4.108  17.587 -1.1699 -0.3060 -0.1396
 5367SOL     OW27559   3.225   1.859   2.455  0.2289 -0.3687 -0.3968
 5367SOL    HW127560   3.227   1.946   2.497 -1.7528 -0.6455  0.2523
 5367SOL    HW227561   3.274   1.866   2.373  0.7764 -2.8144 -0.2700
 5368SOL     OW27562   3.139   1.923  13.057 -0.0784  0.0860  0.7324
 5368SOL    HW127563   3.230   1.950  13.045  0.0450 -0.1669  1.1149
 5368SOL    HW227564   3.147   1.830  13.036 -0.1157  0.8111 -2.5025
 5369SOL     OW27565   4.608   0.604   3.202 -0.4262 -0.1694 -0.1143
 5369SOL    HW127566   4.660   0.678   3.169 -2.2139  0.8754 -0.5806
 5369SOL    HW227567   4.676   0.538   3.209 -1.1784 -0.8547  0.7318
 5370SOL     OW27568   1.721   3.130  14.584 -0.0108  0.4023 -0.3352
 5370SOL    HW127569   1.693   3.212  14.625 -0.0548  0.7638 -1.0797
 5370SOL    HW227570   1.810   3.157  14.562  0.6787 -0.6287  1.2008
 5371SOL     OW27571   0.421   0.866   3.986  0.2701 -0.3585  0.4923
 5371SOL    HW127572   0.456   0.943   3.940  1.8739  0.1230  2.5131
 5371SOL    HW227573   0.454   0.871   4.076  0.2158  2.0432  0.3940
 5372SOL     OW27574   2.480   0.548  16.992 -0.3620  0.3379 -0.1915
 5372SOL    HW127575   2.385   0.559  16.989 -0.4833 -0.8718 -0.9271
 5372SOL    HW227576   2.498   0.585  17.078 -1.1479  1.9323 -0.7145
 5373SOL     OW27577   2.689   2.826   1.254 -0.6805  0.4694 -0.5865
 5373SOL    HW127578   2.687   2.920   1.237  0.0980  0.7374  0.7748
 5373SOL    HW227579   2.705   2.789   1.167 -2.4142 -2.1733  0.2381
 5374SOL     OW27580   4.500   2.561   9.806  0.2026 -0.0622 -0.0611
 5374SOL    HW127581   4.449   2.560   9.887  0.4331 -0.7439  0.0747
 5374SOL    HW227582   4.529   2.470   9.810  2.0302  0.4892 -0.5072
 5375SOL     OW27583   3.320   0.117  10.266  0.0017 -0.2001  0.1062
 5375SOL    HW127584   3.279   0.082  10.345  1.0667 -2.2297 -0.2610
 5375SOL    HW227585   3.406   0.075  10.263  0.8652  1.7108 -2.0748
 5376SOL     OW27586   0.246   1.611  10.064  1.0888 -0.1356  0.3638
 5376SOL    HW127587   0.207   1.612   9.977  1.1516 -0.8752  0.3266
 5376SOL    HW227588   0.262   1.702  10.088 -1.1276  0.2758  0.3089
 5377SOL     OW27589   3.016   2.636   3.325  0.0056 -0.1178 -0.1532
 5377SOL    HW127590   2.978   2.643   3.413 -1.2461 -0.3644 -0.6768
 5377SOL    HW227591   3.077   2.564   3.342 -0.5701 -1.0311 -1.9737
 5378SOL     OW27592   2.266   3.858   2.385 -0.2936  0.2916  0.1836
 5378SOL    HW127593   2.230   3.774   2.413  0.7977 -1.0211 -2.3930
 5378SOL    HW227594   2.287   3.885   2.475  0.6443  1.0129 -0.2484
 5379SOL     OW27595   3.285   2.823   5.422  0.2670  0.3667  0.4250
 5379SOL    HW127596   3.313   2.765   5.350 -0.6514 -0.5720  0.8272
 5379SOL    HW227597   3.191   2.811   5.414  0.6028 -2.6883  1.0385
 5380SOL     OW27598   2.927   2.974   6.775  0.4322 -0.5035  0.2972
 5380SOL    HW127599   2.982   2.929   6.839 -0.1687  0.3990  1.4343
 5380SOL    HW227600   2.842   2.933   6.789 -0.5586  2.3359  2.5453
 5381SOL     OW27601   0.830   4.152   1.921  0.1308  0.0158  0.4290
 5381SOL    HW127602   0.880   4.109   1.852  0.0775  2.1992 -0.9645
 5381SOL    HW227603   0.766   4.090   1.956 -1.7277  1.4564 -0.4051
 5382SOL     OW27604   4.368   4.379   1.650  0.6604  0.0333 -0.1263
 5382SOL    HW127605   4.415   4.421   1.578 -1.6185 -1.7625 -2.6393
 5382SOL    HW227606   4.405   4.425   1.726  0.7735 -0.4576  0.1155
 5383SOL     OW27607   1.630   2.870   2.613  0.0236  0.3538 -0.6175
 5383SOL    HW127608   1.694   2.855   2.683 -1.3231 -5.8307 -0.7200
 5383SOL    HW227609   1.691   2.856   2.541  0.3403 -0.5414 -0.1783
 5384SOL     OW27610   3.862   1.083   1.957 -0.0427  0.3140  0.5077
 5384SOL    HW127611   3.908   1.165   1.938 -0.4347  0.9514  2.2682
 5384SOL    HW227612   3.930   1.016   1.970 -1.0111 -0.4522  1.5817
 5385SOL     OW27613   4.633   0.039   1.570 -0.8666 -0.1662 -0.3434
 5385SOL    HW127614   4.576   0.066   1.642  0.6608  1.2278  0.3491
 5385SOL    HW227615   4.707   0.100   1.573 -1.1450  0.0684  1.6198
 5386SOL     OW27616   3.458   3.951   3.529  0.0611 -0.0092  0.4839
 5386SOL    HW127617   3.415   4.031   3.560 -1.0987 -1.0587  1.5611
 5386SOL    HW227618   3.468   3.906   3.612  1.2161 -0.6920 -0.0204
 5387SOL     OW27619   1.702   3.096   3.529 -0.0382  0.3032 -0.1496
 5387SOL    HW127620   1.731   3.089   3.620 -1.8504  0.1478  0.4188
 5387SOL    HW227621   1.666   3.184   3.520  0.6230  0.6498  0.6702
 5388SOL     OW27622   2.855   1.535   4.153 -0.1780  0.2858  0.2199
 5388SOL    HW127623   2.869   1.592   4.078 -2.0132  0.3007 -0.1148
 5388SOL    HW227624   2.935   1.523   4.204 -0.6813 -0.7685  0.7819
 5389SOL     OW27625   4.451   2.897   8.641 -0.6039 -0.0004 -0.0213
 5389SOL    HW127626   4.447   2.916   8.547 -0.5585 -0.2829 -0.0780
 5389SOL    HW227627   4.543   2.870   8.644 -0.9119 -1.0515 -0.3537
 5390SOL     OW27628   0.481   3.934   0.080 -0.3941  0.0944  0.6714
 5390SOL    HW127629   0.481   3.839   0.085  0.6033 -0.0384 -1.7880
 5390SOL    HW227630   0.572   3.943   0.107 -0.4261  1.5411  0.2939
 5391SOL     OW27631   3.473   4.676   4.232 -0.4350 -0.1237  0.2660
 5391SOL    HW127632   3.500   0.037   4.196 -0.0016 -0.2164  0.3768
 5391SOL    HW227633   3.523   4.666   4.312  0.3590  0.0212 -0.2096
 5392SOL     OW27634   4.161   4.341   4.809  0.0741 -0.0783  0.2253
 5392SOL    HW127635   4.141   4.431   4.835  0.3155 -0.6967  2.4864
 5392SOL    HW227636   4.117   4.327   4.725 -2.3772  1.0951  1.3037
 5393SOL     OW27637   3.323   0.968  10.366  0.2148  0.1965 -0.9628
 5393SOL    HW127638   3.390   0.935  10.306  0.3930 -0.7276 -0.2580
 5393SOL    HW227639   3.291   0.887  10.406  0.4914 -0.0463 -1.2294
 5394SOL     OW27640   1.370   2.138   4.083  0.5435  0.1040 -0.1156
 5394SOL    HW127641   1.432   2.199   4.044  0.0274 -1.0525 -2.7590
 5394SOL    HW227642   1.292   2.177   4.043  0.7787  0.1935 -0.4864
 5395SOL     OW27643   1.457   3.303  16.438 -0.2716 -0.1244  0.6914
 5395SOL    HW127644   1.389   3.302  16.505 -0.4351  1.2267  0.5419
 5395SOL    HW227645   1.454   3.208  16.426  0.4555 -0.0807  0.1534
 5396SOL     OW27646   0.064   3.957   2.039  0.1350  0.1732 -0.1790
 5396SOL    HW127647   0.031   4.046   2.051 -0.6920 -0.3556  1.4394
 5396SOL    HW227648   0.005   3.920   1.973 -1.3416  1.9218  0.1654
 5397SOL     OW27649   2.384   3.646   6.223  0.1232 -0.3716 -0.2625
 5397SOL    HW127650   2.340   3.644   6.138 -0.0802  1.1177 -0.1882
 5397SOL    HW227651   2.471   3.618   6.196  0.6061  0.1406  0.7590
 5398SOL     OW27652   0.357   0.753   7.624  0.0924 -0.2384 -0.7330
 5398SOL    HW127653   0.430   0.691   7.617  1.3155  1.2273 -0.9833
 5398SOL    HW227654   0.287   0.707   7.579 -2.4351  0.3259  2.5873
 5399SOL     OW27655   3.418   2.091   3.466  0.0379  0.3692  0.2660
 5399SOL    HW127656   3.395   2.003   3.435 -1.5633  1.8789 -2.7470
 5399SOL    HW227657   3.373   2.149   3.405  0.2782  0.6034  0.3129
 5400SOL     OW27658   0.061   1.382  16.498 -0.7195  0.2269 -0.0535
 5400SOL    HW127659   0.141   1.413  16.540  0.7507 -2.0151 -1.1931
 5400SOL    HW227660   0.046   1.317  16.567  2.8953 -0.0546  0.4573
 5401SOL     OW27661   3.921   1.269   3.013  0.4324  0.1255 -0.7534
 5401SOL    HW127662   4.001   1.317   2.993 -0.0470  0.5338 -1.7068
 5401SOL    HW227663   3.955   1.181   3.027 -0.2512 -0.2511 -1.4727
 5402SOL     OW27664   4.496   4.695   8.028 -0.0170 -0.8651 -0.8320
 5402SOL    HW127665   4.592   4.705   8.028  0.1157 -2.1039  0.8219
 5402SOL    HW227666   4.476   0.033   7.958  0.7761 -1.2230 -1.3783
 5403SOL     OW27667   4.666   4.551  10.463  0.1446 -0.5176 -0.0784
 5403SOL    HW127668   4.708   4.560  10.548  1.5576 -2.3751 -0.5925
 5403SOL    HW227669   0.016   4.578  10.408 -0.9611 -0.7019 -1.6786
 5404SOL     OW27670   2.385   2.495  12.589  0.1380 -0.0197 -0.0496
 5404SOL    HW127671   2.348   2.538  12.666 -3.3408 -2.1362 -0.5309
 5404SOL    HW227672   2.418   2.567  12.535 -0.6313 -1.2242 -2.1501
 5405SOL     OW27673   1.123   2.157   8.699  0.4147 -0.1491  0.5757
 5405SOL    HW127674   1.089   2.070   8.717  0.6361 -0.3678 -0.0593
 5405SOL    HW227675   1.047   2.197   8.657 -0.0568 -2.2111 -0.5164
 5406SOL     OW27676   3.447   2.414  12.770  0.4252 -0.4319 -0.5485
 5406SOL    HW127677   3.380   2.467  12.727  0.1370  0.7166  1.2961
 5406SOL    HW227678   3.513   2.484  12.775  1.0397 -0.8914 -2.2890
 5407SOL     OW27679   2.465   2.812  12.701  0.6832  0.3635 -0.9452
 5407SOL    HW127680   2.423   2.878  12.756 -1.5816 -2.1772  0.3744
 5407SOL    HW227681   2.463   2.846  12.612 -0.3923  0.0367 -1.0396
 5408SOL     OW27682   4.648   1.134   2.251  0.3026  0.3830  0.1545
 5408SOL    HW127683   4.571   1.115   2.304  0.3790 -0.3836 -0.0085
 5408SOL    HW227684   4.635   1.218   2.205 -0.8698 -0.6177 -1.3391
 5409SOL     OW27685   1.105   4.430  17.367  0.0442  0.7787  0.1511
 5409SOL    HW127686   1.128   4.498  17.430  0.4589  1.0291 -0.2719
 5409SOL    HW227687   1.155   4.465  17.294 -3.0577  2.4185 -1.1702
 5410SOL     OW27688   2.786   4.047  16.023  0.1030 -0.0539 -0.4125
 5410SOL    HW127689   2.880   4.036  16.036 -0.3886 -2.1782  1.2995
 5410SOL    HW227690   2.752   3.959  16.042  1.3287 -1.0205 -2.6316
 5411SOL     OW27691   2.829   0.303  11.084 -0.2187 -0.1610 -0.1586
 5411SOL    HW127692   2.889   0.298  11.009 -2.6219  3.1887 -2.2464
 5411SOL    HW227693   2.784   0.219  11.082 -0.1475 -0.1979 -0.2214
 5412SOL     OW27694   4.135   1.482   6.153  0.3073 -0.5764  0.3396
 5412SOL    HW127695   4.131   1.447   6.242 -2.3619 -1.3459 -0.0661
 5412SOL    HW227696   4.054   1.533   6.148  0.1879 -1.0093 -2.2044
 5413SOL     OW27697   2.153   1.083   5.456 -0.4408 -0.2622 -1.0942
 5413SOL    HW127698   2.188   0.994   5.444  0.3133  0.2924 -3.1386
 5413SOL    HW227699   2.071   1.081   5.407 -0.3065 -3.1272 -1.2309
 5414SOL     OW27700   2.141   1.745   9.113 -0.0009 -0.3345  0.1837
 5414SOL    HW127701   2.214   1.805   9.131 -1.5601  1.2447  1.1572
 5414SOL    HW227702   2.120   1.771   9.023  1.7732 -0.2649 -0.2133
 5415SOL     OW27703   0.856   2.842  13.241 -0.3535  0.2357 -0.7266
 5415SOL    HW127704   0.770   2.810  13.211 -1.6787  3.4718 -0.3951
 5415SOL    HW227705   0.829   2.927  13.277  1.1914  0.0402  0.8479
 5416SOL     OW27706   3.925   3.630   5.785  0.4615 -0.8026  0.3576
 5416SOL    HW127707   3.896   3.718   5.763  1.7457 -0.6874 -0.8775
 5416SOL    HW227708   3.845   3.598   5.826 -0.7663 -1.7701 -2.8040
 5417SOL     OW27709   3.824   3.349  15.818  1.0688 -0.2262  0.0626
 5417SOL    HW127710   3.749   3.385  15.769  1.3967 -0.2201 -0.4355
 5417SOL    HW227711   3.882   3.335  15.744  0.3365  1.0770 -0.7639
 5418SOL     OW27712   4.188   1.038   5.378  0.7695 -0.5806  0.5761
 5418SOL    HW127713   4.176   1.036   5.283  0.9266  1.4258  0.5161
 5418SOL    HW227714   4.259   0.974   5.382 -1.1603 -2.6328  2.0684
 5419SOL     OW27715   3.647   0.902   4.929 -0.5846  0.8986 -0.4537
 5419SOL    HW127716   3.626   0.847   5.005  0.6434  0.3371 -0.5127
 5419SOL    HW227717   3.706   0.857   4.868 -0.0152  2.0764 -0.7752
 5420SOL     OW27718   0.800   1.380   5.968  0.3028 -0.9279 -0.1850
 5420SOL    HW127719   0.833   1.469   5.978  0.2816 -0.7760 -1.5207
 5420SOL    HW227720   0.718   1.406   5.926  0.5619 -0.3989 -0.3586
 5421SOL     OW27721   0.506   4.560  15.643 -0.0883 -0.1430  0.0034
 5421SOL    HW127722   0.507   4.656  15.653  0.2551 -0.0562 -0.8444
 5421SOL    HW227723   0.482   4.557  15.550 -0.3162 -2.8537  0.1504
 5422SOL     OW27724   1.420   3.369   3.074 -0.1107 -0.0220  0.5585
 5422SOL    HW127725   1.355   3.363   3.145  0.9809  0.9605  1.6310
 5422SOL    HW227726   1.456   3.281   3.088  0.8863  0.4333  0.8016
 5423SOL     OW27727   1.200   1.458   5.793 -0.3449 -0.4466 -0.1166
 5423SOL    HW127728   1.189   1.404   5.715  0.6413 -2.0767  0.8842
 5423SOL    HW227729   1.220   1.543   5.754  1.1086 -0.8719 -0.2615
 5424SOL     OW27730   0.113   4.290   1.160  0.0677  0.6422 -0.2460
 5424SOL    HW127731   0.072   4.346   1.094  0.1647  0.1568 -0.7186
 5424SOL    HW227732   0.140   4.214   1.109 -0.9668  1.5157 -2.0979
 5425SOL     OW27733   1.993   3.818   3.192  0.2499  0.2264 -0.1887
 5425SOL    HW127734   2.069   3.858   3.149  0.2427 -0.6590 -1.0172
 5425SOL    HW227735   1.968   3.762   3.118 -0.9555  1.6983 -0.8855
 5426SOL     OW27736   4.508   3.427   8.591 -0.6539  0.4975 -0.0091
 5426SOL    HW127737   4.450   3.359   8.625  1.9422 -1.2809  0.9011
 5426SOL    HW227738   4.584   3.441   8.649  0.7276 -2.0637 -1.1758
 5427SOL     OW27739   2.020   2.042   4.348  0.2854  0.1239 -0.2672
 5427SOL    HW127740   1.937   2.035   4.301 -0.5629  0.5058  1.1697
 5427SOL    HW227741   1.994   2.052   4.439 -0.9795 -0.2611 -0.5840
 5428SOL     OW27742   3.567   0.391  13.722  0.7639 -1.1772 -0.4578
 5428SOL    HW127743   3.594   0.453  13.655  0.1784 -0.0963  0.3127
 5428SOL    HW227744   3.631   0.409  13.790  0.2415  1.9679 -0.8153
 5429SOL     OW27745   2.505   1.978   7.976  0.2985  0.1280  0.5055
 5429SOL    HW127746   2.516   2.011   8.065  0.7451 -0.8182  0.8009
 5429SOL    HW227747   2.423   2.021   7.951  0.1757 -1.3180 -1.6095
 5430SOL     OW27748   3.432   0.554   4.053  0.5143  0.1489 -0.0620
 5430SOL    HW127749   3.340   0.530   4.049  1.2582 -2.8665  1.3206
 5430SOL    HW227750   3.482   0.488   4.005  0.2732 -1.3106  1.6984
 5431SOL     OW27751   2.365   4.165  17.516 -0.7029 -0.1819 -0.2312
 5431SOL    HW127752   2.361   4.114  17.435 -0.0737  2.2717 -1.8204
 5431SOL    HW227753   2.458   4.186  17.516 -0.6389 -0.4598 -0.9507
 5432SOL     OW27754   3.139   0.383   9.439 -0.6802  0.0513 -0.1058
 5432SOL    HW127755   3.131   0.474   9.466  1.3032 -0.5042  2.4569
 5432SOL    HW227756   3.192   0.398   9.361  0.5112  0.7602  0.8377
 5433SOL     OW27757   4.653   3.260   9.369  0.0574  0.0975  0.0794
 5433SOL    HW127758   4.675   3.322   9.439  0.5358  0.9638 -0.8356
 5433SOL    HW227759   4.667   3.314   9.291 -1.3976  0.3715  0.0205
 5434SOL     OW27760   3.487   2.108   9.597 -0.4735 -0.6400  0.0578
 5434SOL    HW127761   3.445   2.032   9.556 -0.1866  0.5683 -2.4767
 5434SOL    HW227762   3.580   2.089   9.584 -0.3171 -0.8727  1.4621
 5435SOL     OW27763   2.880   1.240  15.582  0.1269 -0.1908 -0.1885
 5435SOL    HW127764   2.810   1.220  15.520  0.1519 -0.7118 -0.0484
 5435SOL    HW227765   2.835   1.280  15.656 -0.1713  0.6639 -0.8294
 5436SOL     OW27766   3.340   0.926   5.848  0.7212  0.2039 -0.3135
 5436SOL    HW127767   3.349   0.881   5.932 -0.5670  0.2786 -0.1255
 5436SOL    HW227768   3.291   0.863   5.796  1.1627 -1.5415  1.3881
 5437SOL     OW27769   4.149   3.119  16.099 -0.2352 -0.0156  0.2945
 5437SOL    HW127770   4.058   3.134  16.075 -0.0728  0.8094  0.2047
 5437SOL    HW227771   4.190   3.202  16.079  0.2372 -0.4652 -0.5815
 5438SOL     OW27772   1.416   0.598  14.495 -0.2746 -0.0492  0.0933
 5438SOL    HW127773   1.345   0.656  14.466 -0.7466 -0.3211  0.6847
 5438SOL    HW227774   1.489   0.659  14.485 -0.3624  0.3879  2.0197
 5439SOL     OW27775   3.361   1.144   7.299  0.4763 -0.2687 -0.2911
 5439SOL    HW127776   3.403   1.230   7.304 -1.7365  0.7203  1.2512
 5439SOL    HW227777   3.361   1.122   7.392 -0.0623  1.1572  0.0519
 5440SOL     OW27778   4.621   3.664   9.630  0.0784  0.6291  0.1218
 5440SOL    HW127779   4.700   3.718   9.621 -0.2854  1.2871  0.8424
 5440SOL    HW227780   4.653   3.579   9.600 -0.0566  0.2480  1.0572
 5441SOL     OW27781   1.888   2.591   9.405  0.4471 -0.3052 -0.0439
 5441SOL    HW127782   1.846   2.653   9.464  0.4623 -0.8918  0.5883
 5441SOL    HW227783   1.827   2.517   9.399  2.9846 -2.3895 -0.5297
 5442SOL     OW27784   1.408   4.606  11.242 -0.6493 -0.2158  0.2396
 5442SOL    HW127785   1.486   4.660  11.234 -0.4746 -0.2311  1.7567
 5442SOL    HW227786   1.407   4.621  11.337  1.3547  0.0080  0.2256
 5443SOL     OW27787   2.919   3.572  11.958  0.1381 -0.1110 -0.5309
 5443SOL    HW127788   2.942   3.616  11.876 -2.9649 -0.3743 -1.5189
 5443SOL    HW227789   2.831   3.610  11.964  0.3964  0.6885 -1.9635
 5444SOL     OW27790   0.558   1.910  16.894 -0.0197  0.0471 -0.1159
 5444SOL    HW127791   0.516   1.988  16.932  0.5569  0.3489 -0.0933
 5444SOL    HW227792   0.542   1.919  16.800 -0.4781 -0.0022 -0.0431
 5445SOL     OW27793   0.080   2.078   6.468 -0.4726 -0.0581 -0.0357
 5445SOL    HW127794   0.036   2.038   6.393 -0.2285 -0.4295  0.0209
 5445SOL    HW227795   0.007   2.088   6.529 -1.2893  0.1511 -1.0403
 5446SOL     OW27796   0.203   3.212  16.658 -0.3040  0.1246  0.2048
 5446SOL    HW127797   0.237   3.301  16.650  0.2325 -0.1028 -0.0335
 5446SOL    HW227798   0.177   3.220  16.750  0.2863 -2.5338  0.5815
 5447SOL     OW27799   2.431   4.563   7.341  0.1479  0.1882 -0.3029
 5447SOL    HW127800   2.395   4.474   7.339 -0.3028  0.3400  1.0101
 5447SOL    HW227801   2.413   4.588   7.432 -2.4582  0.9001 -1.0173
 5448SOL     OW27802   3.620   4.027   4.481 -0.5685 -0.7060 -0.2999
 5448SOL    HW127803   3.577   4.043   4.565  0.9866 -1.0233  0.5708
 5448SOL    HW227804   3.587   3.938   4.466  0.7884 -0.7950 -2.8317
 5449SOL     OW27805   0.609   3.886   9.399  0.1697 -0.3401  0.1452
 5449SOL    HW127806   0.521   3.922   9.399 -0.0464 -0.8666 -0.4033
 5449SOL    HW227807   0.591   3.792   9.397 -0.1448 -0.2999  1.3501
 5450SOL     OW27808   1.756   0.282   8.835 -0.0780  0.1277  0.3344
 5450SOL    HW127809   1.785   0.353   8.893  0.8175  0.5841 -0.6594
 5450SOL    HW227810   1.661   0.288   8.846 -0.0046  0.6589  0.6495
 5451SOL     OW27811   3.437   1.254   0.797 -0.3669 -0.3844 -0.0323
 5451SOL    HW127812   3.522   1.299   0.790 -1.4952  1.5452 -1.3708
 5451SOL    HW227813   3.378   1.326   0.818  1.4394 -0.1042  4.1188
 5452SOL     OW27814   0.483   1.283   8.377  0.2642 -0.0836 -0.6913
 5452SOL    HW127815   0.568   1.319   8.400  0.5756 -1.7349  0.7844
 5452SOL    HW227816   0.486   1.270   8.282 -1.7319  1.4664 -0.9625
 5453SOL     OW27817   1.692   4.447   5.098  0.1013  0.4659 -0.1891
 5453SOL    HW127818   1.731   4.406   5.021  1.5037  0.0802  0.7366
 5453SOL    HW227819   1.737   4.405   5.171  1.5494  1.4187 -0.5450
 5454SOL     OW27820   0.792   2.534   8.563 -0.4311  0.1614  0.2174
 5454SOL    HW127821   0.798   2.604   8.498 -1.2728  2.1399  2.3013
 5454SOL    HW227822   0.707   2.554   8.601  0.1556 -0.2507  1.7360
 5455SOL     OW27823   0.914   1.004   7.716 -0.0050  0.0777 -0.3500
 5455SOL    HW127824   0.964   0.923   7.723 -1.2126 -0.8102 -1.7267
 5455SOL    HW227825   0.826   0.967   7.703 -0.1407  1.2267 -2.6508
 5456SOL     OW27826   2.664   1.335   1.120  0.4868 -0.8652  0.0793
 5456SOL    HW127827   2.694   1.293   1.200  0.1942 -0.9395  0.1511
 5456SOL    HW227828   2.720   1.412   1.129  0.3206 -1.0715  3.0758
 5457SOL     OW27829   0.734   0.610   4.250 -0.3218 -0.3674 -0.2469
 5457SOL    HW127830   0.706   0.552   4.178 -1.2332  1.2884 -1.2221
 5457SOL    HW227831   0.807   0.641   4.196 -0.4427 -0.8226 -0.6757
 5458SOL     OW27832   0.709   2.643   3.933  0.1036 -0.4964 -0.2980
 5458SOL    HW127833   0.692   2.561   3.887  1.0560  1.3777 -3.9948
 5458SOL    HW227834   0.709   2.698   3.854 -2.6918 -1.7919 -1.2072
 5459SOL     OW27835   1.063   1.648   3.581 -0.4347  0.0260  0.3723
 5459SOL    HW127836   1.121   1.677   3.511 -0.2355  0.3089  0.6551
 5459SOL    HW227837   1.062   1.554   3.562  2.3818  0.4828 -2.0862
 5460SOL     OW27838   0.167   0.299   4.985 -0.0548 -0.3352  0.2753
 5460SOL    HW127839   0.247   0.249   5.002  0.8621  0.7969 -0.6812
 5460SOL    HW227840   0.200   0.389   4.977 -0.2491 -0.2665  0.2459
 5461SOL     OW27841   2.035   1.791   0.322  0.4612 -0.5355 -0.2905
 5461SOL    HW127842   2.009   1.699   0.322 -0.1527 -0.3650 -0.5698
 5461SOL    HW227843   2.060   1.790   0.229 -0.1529 -0.1622 -0.4587
 5462SOL     OW27844   4.579   4.367  12.393 -0.0451  0.3653 -0.2682
 5462SOL    HW127845   4.506   4.395  12.449  0.5953  1.3780  0.0565
 5462SOL    HW227846   4.530   4.331  12.319 -1.3495 -1.2423  1.3789
 5463SOL     OW27847   0.325   1.833  14.101  0.7518 -0.0898  0.4236
 5463SOL    HW127848   0.386   1.763  14.080  0.5901  0.0076 -0.3874
 5463SOL    HW227849   0.382   1.900  14.139  1.0969 -1.1411  1.7461
 5464SOL     OW27850   2.395   0.560   4.480  1.0755 -0.0742  0.1713
 5464SOL    HW127851   2.458   0.571   4.409  0.2818  1.3242 -0.3147
 5464SOL    HW227852   2.311   0.572   4.436  1.1985  2.5023  0.6370
 5465SOL     OW27853   3.579   1.988   6.054  0.5260 -0.3846  0.0756
 5465SOL    HW127854   3.657   2.027   6.013  1.1734  0.2292  1.9032
 5465SOL    HW227855   3.525   2.065   6.071  2.3334  1.5551 -2.8135
 5466SOL     OW27856   3.877   1.470   2.826 -0.0781  0.1639 -0.2158
 5466SOL    HW127857   3.803   1.495   2.883 -0.5540  0.3957 -0.9368
 5466SOL    HW227858   3.879   1.375   2.836  1.2575  0.2316  0.1851
 5467SOL     OW27859   0.756   0.610  12.643 -0.3169  0.0696  0.0209
 5467SOL    HW127860   0.785   0.603  12.552  1.1976 -0.2655  0.5193
 5467SOL    HW227861   0.763   0.523  12.682 -2.9626 -1.1315 -2.2042
 5468SOL     OW27862   0.782   0.989  12.247  0.1188  0.0421  0.1733
 5468SOL    HW127863   0.832   1.055  12.294  0.6823  0.2716 -0.7556
 5468SOL    HW227864   0.840   0.938  12.191 -0.8024 -0.2591 -0.5074
 5469SOL     OW27865   4.263   1.228   8.387  0.2122  0.2995  0.2163
 5469SOL    HW127866   4.224   1.300   8.337  3.1194  0.7925 -1.3321
 5469SOL    HW227867   4.251   1.252   8.478  3.1954 -1.6029  1.1235
 5470SOL     OW27868   1.210   3.066   6.208 -0.0893  0.4737  0.3249
 5470SOL    HW127869   1.123   3.105   6.214  0.1204  0.6717  1.9077
 5470SOL    HW227870   1.193   2.975   6.234 -0.5908  0.7452  0.9507
 5471SOL     OW27871   3.152   0.773   5.716  0.0044 -0.5240 -0.0122
 5471SOL    HW127872   3.101   0.750   5.639  2.2752  1.3954 -2.1102
 5471SOL    HW227873   3.087   0.751   5.783  2.2138  2.0886  3.0128
 5472SOL     OW27874   3.568   4.362   6.418  0.2761 -0.2378  0.2214
 5472SOL    HW127875   3.573   4.328   6.507 -1.4847 -2.1370 -0.3985
 5472SOL    HW227876   3.580   4.279   6.371 -1.8672 -0.1331 -0.5348
 5473SOL     OW27877   1.454   1.373   5.357 -0.1295 -0.3718  0.1477
 5473SOL    HW127878   1.447   1.314   5.281 -0.7440  0.4867 -0.4584
 5473SOL    HW227879   1.491   1.443   5.304  0.0575  0.3161  1.1879
 5474SOL     OW27880   0.042   1.300   4.146 -0.0397  0.1480 -0.3465
 5474SOL    HW127881   0.110   1.360   4.174  1.8816 -1.7926 -0.8363
 5474SOL    HW227882   0.084   1.255   4.072  0.3754  0.2967 -0.2001
 5475SOL     OW27883   4.704   4.232   1.703 -0.1642 -0.1732 -0.0639
 5475SOL    HW127884   0.001   4.325   1.701 -2.3305  0.3169 -0.4271
 5475SOL    HW227885   4.716   4.221   1.608  0.5401 -2.5312  0.2954
 5476SOL     OW27886   3.855   3.000   3.553 -0.4525  0.0591 -0.0058
 5476SOL    HW127887   3.801   2.980   3.630 -0.2789 -2.6114 -0.5650
 5476SOL    HW227888   3.870   2.911   3.521 -0.7954  0.9397 -2.5756
 5477SOL     OW27889   2.178   3.926   6.002  0.0242 -0.0669  0.0518
 5477SOL    HW127890   2.212   3.837   5.992 -2.3242 -0.8474 -1.0517
 5477SOL    HW227891   2.092   3.930   5.962  0.4000 -0.1912 -0.7727
 5478SOL     OW27892   0.010   0.376   8.736  0.1944 -0.0992 -0.0674
 5478SOL    HW127893   4.685   0.457   8.751  0.1396 -0.3005  0.8609
 5478SOL    HW227894   0.097   0.404   8.763  0.7988 -0.3679 -1.7707
 5479SOL     OW27895   3.554   1.775   5.374 -0.2589  0.3284  0.4906
 5479SOL    HW127896   3.585   1.839   5.310 -3.1214  2.7697  1.5163
 5479SOL    HW227897   3.464   1.806   5.385 -0.0814  0.4349  1.6752
 5480SOL     OW27898   4.277   0.557   4.613  0.4161 -0.0674 -0.0730
 5480SOL    HW127899   4.269   0.506   4.533 -0.4147  1.1964 -0.8053
 5480SOL    HW227900   4.311   0.637   4.573 -2.1599  0.9005 -0.3412
 5481SOL     OW27901   2.116   3.714   3.717  0.5428 -0.1602  0.1840
 5481SOL    HW127902   2.144   3.743   3.630 -1.3252 -1.6340 -0.9047
 5481SOL    HW227903   2.153   3.625   3.722  1.9151  0.2875 -1.8736
 5482SOL     OW27904   3.308   0.371   0.361 -0.5790 -0.5175 -0.2718
 5482SOL    HW127905   3.329   0.331   0.277 -1.7234  2.1042 -1.8207
 5482SOL    HW227906   3.241   0.432   0.331 -0.9693 -1.4557 -1.2899
 5483SOL     OW27907   1.322   4.545   1.837  0.2482  0.2516  0.0375
 5483SOL    HW127908   1.361   4.511   1.757  1.2682 -1.7079  1.3720
 5483SOL    HW227909   1.390   4.609   1.862  1.4770 -1.2953  0.6546
 5484SOL     OW27910   0.678   0.490   4.494 -0.2528 -0.2575 -0.2219
 5484SOL    HW127911   0.699   0.397   4.489 -0.9582 -0.3855 -0.7949
 5484SOL    HW227912   0.677   0.525   4.405  0.4464 -0.4418 -0.3002
 5485SOL     OW27913   2.664   1.731   5.042  0.4295 -0.0347  0.0711
 5485SOL    HW127914   2.679   1.679   5.121  2.4965 -1.6984 -1.4063
 5485SOL    HW227915   2.569   1.740   5.045  0.6192  1.5641  0.9377
 5486SOL     OW27916   0.170   0.808   4.930  0.0496  0.0166 -0.3490
 5486SOL    HW127917   0.242   0.753   4.961  1.4641  1.9363 -0.2996
 5486SOL    HW227918   0.097   0.761   4.973  1.9268  0.6653  3.5811
 5487SOL     OW27919   2.250   2.238   3.038 -0.2016 -0.3755  0.0510
 5487SOL    HW127920   2.263   2.332   3.022 -0.0433 -0.1866  1.2921
 5487SOL    HW227921   2.161   2.222   3.008 -0.5096 -0.2319  0.8817
 5488SOL     OW27922   1.373   1.843  13.319 -0.7522  0.4161 -0.6926
 5488SOL    HW127923   1.458   1.886  13.315 -0.1954 -0.5427  1.1175
 5488SOL    HW227924   1.372   1.812  13.409  2.6142  1.5337 -0.2601
 5489SOL     OW27925   4.103   2.744   3.248  0.0466  0.0158  0.0121
 5489SOL    HW127926   4.163   2.810   3.283 -1.8387  1.5480  0.3278
 5489SOL    HW227927   4.140   2.661   3.280  3.0350  1.0057 -0.9040
 5490SOL     OW27928   2.764   3.169   6.886 -0.0402  1.1208 -0.0576
 5490SOL    HW127929   2.834   3.103   6.883  0.4160  1.6917 -2.1148
 5490SOL    HW227930   2.777   3.233   6.815  3.6850 -1.4407 -1.7104
 5491SOL     OW27931   3.819   4.516  14.323  0.0494 -0.8229  0.1810
 5491SOL    HW127932   3.809   4.583  14.256  0.7849 -1.4628 -0.5653
 5491SOL    HW227933   3.856   4.445  14.270  0.5031 -1.6529  1.6107
 5492SOL     OW27934   2.715   3.165   8.270  0.0067 -0.4481 -0.4954
 5492SOL    HW127935   2.771   3.110   8.214 -0.4620 -0.8244 -0.5898
 5492SOL    HW227936   2.775   3.198   8.337 -1.4290  0.8472  0.1386
 5493SOL     OW27937   1.961   0.591  17.692  0.0953  0.4311  0.1297
 5493SOL    HW127938   2.002   0.505  17.680 -1.0274 -0.0460 -0.3017
 5493SOL    HW227939   2.026   0.628   0.054  2.6827  0.1603 -2.5794
 5494SOL     OW27940   3.829   2.386   6.112  0.7067  0.3920 -0.1987
 5494SOL    HW127941   3.898   2.406   6.049  1.1084  0.4970  0.2799
 5494SOL    HW227942   3.884   2.389   6.189 -2.1785  0.6379  1.8436
 5495SOL     OW27943   0.565   0.081   3.082 -0.3553 -0.4396 -0.1167
 5495SOL    HW127944   0.588   0.084   3.175  0.9359 -0.4967 -0.4356
 5495SOL    HW227945   0.616   0.005   3.054  1.2750 -0.1696  2.1150
 5496SOL     OW27946   3.295   4.673   7.932 -0.2946 -0.6326  0.6823
 5496SOL    HW127947   3.363   4.720   7.883 -1.2327 -0.4511 -0.4408
 5496SOL    HW227948   3.296   0.007   8.008 -0.2221  2.2105 -1.5225
 5497SOL     OW27949   3.610   1.937   3.104  0.5591 -0.1115  0.9111
 5497SOL    HW127950   3.677   2.006   3.099  0.7137 -0.2471  1.1104
 5497SOL    HW227951   3.528   1.986   3.097 -0.9297 -2.6458  0.9224
 5498SOL     OW27952   1.796   2.836   8.483  0.5748 -0.6544 -0.2478
 5498SOL    HW127953   1.819   2.910   8.426 -1.6401  0.5761  0.4727
 5498SOL    HW227954   1.883   2.831   8.523  1.2759 -0.3728 -1.7294
 5499SOL     OW27955   1.475   0.440   9.483 -0.0789 -0.2173  0.2290
 5499SOL    HW127956   1.527   0.391   9.546  0.1159  0.8675  0.9185
 5499SOL    HW227957   1.479   0.531   9.514  0.0090 -1.0750  2.7167
 5500SOL     OW27958   0.083   0.848   3.852 -0.3506  0.2667  0.0395
 5500SOL    HW127959   0.043   0.913   3.795  0.9735  0.0028 -1.2013
 5500SOL    HW227960   0.160   0.891   3.888 -0.8791  1.6204 -0.4835
 5501SOL     OW27961   4.481   2.992  10.133  0.1929  0.4146  0.0338
 5501SOL    HW127962   4.530   3.071  10.111 -0.4305  0.4771 -1.1253
 5501SOL    HW227963   4.469   2.955  10.046 -0.3963 -0.5527  0.5137
 5502SOL     OW27964   4.337   3.499   8.883 -0.2704 -0.1818 -0.0908
 5502SOL    HW127965   4.292   3.430   8.834  1.0597 -1.5475  0.5905
 5502SOL    HW227966   4.328   3.479   8.976  0.0425 -0.8567 -0.2008
 5503SOL     OW27967   3.148   0.550  15.160 -0.6547 -0.7565  0.0369
 5503SOL    HW127968   3.161   0.609  15.234 -0.0245 -0.9257  0.0589
 5503SOL    HW227969   3.113   0.473  15.205  0.9565 -1.8277 -0.5596
 5504SOL     OW27970   4.463   3.969   4.831 -0.5898  0.5863  0.4155
 5504SOL    HW127971   4.544   4.016   4.812 -1.1707  1.3136 -0.2473
 5504SOL    HW227972   4.417   4.035   4.883 -2.2039  1.0862 -1.6339
 5505SOL     OW27973   1.207   4.439   5.154 -0.9148 -0.5906 -0.1512
 5505SOL    HW127974   1.183   4.381   5.081  1.0963 -3.3340  1.3617
 5505SOL    HW227975   1.258   4.372   5.199  2.6426  0.9165 -1.9675
 5506SOL     OW27976   4.565   2.142   8.006  0.7946  0.1042  0.1727
 5506SOL    HW127977   4.543   2.103   7.922 -1.3695  0.5749  0.5345
 5506SOL    HW227978   4.649   2.186   7.992  0.3772  0.9038  0.1559
 5507SOL     OW27979   0.178   1.192   3.936 -0.3527  0.2580 -0.1992
 5507SOL    HW127980   0.266   1.219   3.965 -0.4407 -0.1733  0.4626
 5507SOL    HW227981   0.202   1.158   3.850 -0.2458  0.3978 -0.2253
 5508SOL     OW27982   3.467   3.955   2.744  0.6242 -0.3097  0.1895
 5508SOL    HW127983   3.456   4.011   2.668 -0.4043  0.4976  0.9360
 5508SOL    HW227984   3.380   3.917   2.759  1.1837 -1.4655  0.5356
 5509SOL     OW27985   1.673   1.881   9.449 -0.2912 -0.6306 -0.3666
 5509SOL    HW127986   1.717   1.799   9.472 -3.0864 -2.0790 -0.3114
 5509SOL    HW227987   1.735   1.945   9.484 -0.2495 -1.3262  0.8443
 5510SOL     OW27988   3.467   3.200  12.257 -0.1549  0.2060  0.0668
 5510SOL    HW127989   3.421   3.284  12.248 -1.6958 -0.8317 -1.8233
 5510SOL    HW227990   3.555   3.232  12.275  0.2596 -2.3745  2.5931
 5511SOL     OW27991   1.252   2.648   4.500 -0.0475 -0.3227 -0.0955
 5511SOL    HW127992   1.264   2.672   4.408  0.5602 -1.3341 -0.2734
 5511SOL    HW227993   1.294   2.723   4.543  0.5114 -1.6994  1.7510
 5512SOL     OW27994   1.963   1.512  10.612 -0.6937  0.0108 -0.1248
 5512SOL    HW127995   1.893   1.576  10.603  0.7393  1.4199 -1.1393
 5512SOL    HW227996   2.004   1.537  10.694 -0.0535 -0.6603 -0.2338
 5513SOL     OW27997   1.066   0.706   1.030  0.2774  0.4255 -0.0835
 5513SOL    HW127998   1.057   0.781   0.971 -1.7602  1.5092  1.5840
 5513SOL    HW227999   1.012   0.732   1.105 -2.0724 -1.2373 -1.2035
 5514SOL     OW28000   0.620   1.223   7.629 -0.0541 -0.3028 -0.2761
 5514SOL    HW128001   0.537   1.207   7.585  0.7984 -1.1554 -1.5557
 5514SOL    HW228002   0.612   1.297   7.689 -0.6562 -1.0129  0.5128
 5515SOL     OW28003   1.018   1.807   1.342 -0.3471  0.1531  0.4969
 5515SOL    HW128004   1.101   1.822   1.388  1.6744  0.2141 -3.2423
 5515SOL    HW228005   0.961   1.769   1.410 -1.3041  0.0775 -0.3538
 5516SOL     OW28006   4.593   0.374  11.271 -0.1611  0.1638  0.1160
 5516SOL    HW128007   4.627   0.296  11.317  0.1248 -0.2903 -0.8577
 5516SOL    HW228008   4.509   0.392  11.312  0.1129  1.0490  0.2862
 5517SOL     OW28009   0.300   1.289   4.422 -0.3128  0.0492 -0.9344
 5517SOL    HW128010   0.259   1.205   4.404 -1.3948  0.8147 -2.0471
 5517SOL    HW228011   0.333   1.275   4.511 -1.2705 -1.8260 -0.8944
 5518SOL     OW28012   1.696   3.111   2.788 -0.0650 -0.0392 -0.0141
 5518SOL    HW128013   1.746   3.047   2.839 -0.3652 -0.2166  0.0569
 5518SOL    HW228014   1.611   3.086   2.823  0.5600  0.6148  1.9452
 5519SOL     OW28015   2.689   1.023   4.808  0.1192 -0.0443  0.1792
 5519SOL    HW128016   2.699   0.930   4.829  1.2442  0.1715  0.6094
 5519SOL    HW228017   2.617   1.013   4.745  0.8729 -1.5145 -0.4505
 5520SOL     OW28018   4.447   4.352   5.198  0.1696  0.3427  0.1000
 5520SOL    HW128019   4.425   4.309   5.281  1.2042  0.4067  0.4077
 5520SOL    HW228020   4.397   4.433   5.202 -1.1455 -0.5329  1.4335
 5521SOL     OW28021   0.114   3.652  16.440 -0.0110  0.0656 -0.5098
 5521SOL    HW128022   0.141   3.725  16.496 -0.6783 -1.1450  1.3772
 5521SOL    HW228023   0.092   3.711  16.368  0.1368  0.0088 -0.6033
 5522SOL     OW28024   0.994   3.446   1.844  1.0830  0.6473  0.0224
 5522SOL    HW128025   0.988   3.540   1.829  0.4686  0.6946  0.5491
 5522SOL    HW228026   1.030   3.418   1.760 -0.7656  0.4364 -0.6959
 5523SOL     OW28027   3.303   4.404   8.013  0.2797 -0.7247 -0.3404
 5523SOL    HW128028   3.300   4.497   7.989 -2.4281 -0.6191  0.3987
 5523SOL    HW228029   3.397   4.388   8.026  0.0675 -1.5282  0.1998
 5524SOL     OW28030   4.187   2.663  10.816 -0.1283  0.3116 -1.0547
 5524SOL    HW128031   4.266   2.711  10.793  0.4389  0.2770  0.8742
 5524SOL    HW228032   4.149   2.731  10.871  1.4927  1.6559 -1.6002
 5525SOL     OW28033   2.567   3.939   8.244 -0.2908 -0.0149 -0.3157
 5525SOL    HW128034   2.602   3.852   8.226 -1.1116 -0.1430 -1.3205
 5525SOL    HW228035   2.620   3.970   8.317 -2.2337 -0.9713  1.4925
 5526SOL     OW28036   1.032   0.359  15.540 -0.3053  0.0471  0.1357
 5526SOL    HW128037   1.113   0.374  15.491 -1.4686 -0.0617 -1.8149
 5526SOL    HW228038   1.046   0.282  15.595 -0.3369 -0.7071 -0.9109
 5527SOL     OW28039   2.151   3.413  15.382 -0.0126 -0.2644 -0.3893
 5527SOL    HW128040   2.197   3.361  15.316 -1.2531  0.5392 -1.8869
 5527SOL    HW228041   2.082   3.459  15.335  1.3319  1.6732 -0.5110
 5528SOL     OW28042   4.638   2.015   5.344  0.0746 -0.0899 -0.2261
 5528SOL    HW128043   4.600   1.935   5.381 -0.8495 -0.8598 -2.8422
 5528SOL    HW228044   4.573   2.048   5.282 -0.2366  2.5699  1.5090
 5529SOL     OW28045   0.798   3.789   1.365  0.3107 -0.0971 -0.0800
 5529SOL    HW128046   0.778   3.697   1.349 -0.9626  0.1772 -0.1301
 5529SOL    HW228047   0.720   3.814   1.416  2.0510 -1.4620  3.2438
 5530SOL     OW28048   2.898   3.558   4.716  0.3509 -0.0251  0.8029
 5530SOL    HW128049   2.948   3.508   4.781  0.1966  1.5568  2.1640
 5530SOL    HW228050   2.862   3.491   4.659  1.4399  0.5035 -0.4961
 5531SOL     OW28051   3.614   2.828  13.100 -0.6124  0.1981  0.3872
 5531SOL    HW128052   3.685   2.838  13.036  1.3671  2.1571  2.9288
 5531SOL    HW228053   3.558   2.774  13.044  1.2764 -0.1380 -1.1952
 5532SOL     OW28054   0.918   3.985   1.229 -0.2557 -0.1082  0.2554
 5532SOL    HW128055   0.863   3.994   1.151 -0.3294  0.0447  0.3265
 5532SOL    HW228056   0.877   3.911   1.273  1.3899 -0.7284  0.7815
 5533SOL     OW28057   1.329   2.694   1.856  0.2279  0.5257  0.1706
 5533SOL    HW128058   1.413   2.676   1.898  0.5396 -2.0751 -1.6225
 5533SOL    HW228059   1.363   2.745   1.783 -1.8383 -0.9783 -1.8166
 5534SOL     OW28060   2.260   2.691   5.767 -0.1236 -0.2764  0.4190
 5534SOL    HW128061   2.233   2.690   5.675  0.2301  1.5794  0.3055
 5534SOL    HW228062   2.256   2.785   5.782  0.2541 -0.5536  2.2578
 5535SOL     OW28063   3.903   0.854   8.068  0.4006  0.1480  0.7938
 5535SOL    HW128064   3.856   0.802   8.003 -0.2778  1.9316 -0.1530
 5535SOL    HW228065   3.841   0.855   8.141 -2.3463 -0.7272 -1.5329
 5536SOL     OW28066   4.282   0.279  12.615  0.4821 -0.3227  0.1760
 5536SOL    HW128067   4.348   0.294  12.548 -0.2985  2.3384 -0.0045
 5536SOL    HW228068   4.293   0.186  12.637 -1.4629 -0.1300  1.9590
 5537SOL     OW28069   1.200   0.248  17.327 -0.3549 -0.4720 -0.2203
 5537SOL    HW128070   1.264   0.186  17.291 -0.3289  0.3948 -1.6488
 5537SOL    HW228071   1.134   0.227  17.261 -0.9135  0.7070 -0.0260
 5538SOL     OW28072   3.845   1.460   2.431  0.0772 -0.0533 -0.9776
 5538SOL    HW128073   3.813   1.382   2.386  0.1549 -0.3550 -0.5131
 5538SOL    HW228074   3.764   1.481   2.477  0.9149  2.1191 -0.5239
 5539SOL     OW28075   1.958   3.936   9.184  0.6234  0.3033 -0.2702
 5539SOL    HW128076   1.878   3.973   9.221 -0.1227  0.9931 -2.5589
 5539SOL    HW228077   2.026   3.997   9.212  0.7506  0.2944 -0.5532
 5540SOL     OW28078   0.866   1.989   6.705 -0.3177 -0.1251  0.4698
 5540SOL    HW128079   0.776   2.019   6.695 -0.1374  0.1824 -0.2278
 5540SOL    HW228080   0.918   2.066   6.683  0.8563 -0.8101  0.8456
 5541SOL     OW28081   4.318   4.693  14.629  0.0931  0.0432 -0.1490
 5541SOL    HW128082   4.313   0.023  14.708  2.7832  2.1176 -1.3877
 5541SOL    HW228083   4.400   4.645  14.641  1.0465  2.0551  1.2572
 5542SOL     OW28084   4.204   3.949   2.154  0.0308 -0.2398 -0.2059
 5542SOL    HW128085   4.231   4.008   2.224 -1.1870 -0.2113  0.2433
 5542SOL    HW228086   4.166   4.013   2.092  2.7293  0.7466 -0.8407
 5543SOL     OW28087   2.196   0.372   2.128 -0.1274  0.0790 -0.8504
 5543SOL    HW128088   2.273   0.322   2.101  0.8860 -0.1769  2.5139
 5543SOL    HW228089   2.137   0.303   2.098 -2.5330  0.8767  2.0145
 5544SOL     OW28090   4.724   3.136   5.972  0.1517 -0.0052 -0.4082
 5544SOL    HW128091   4.683   3.121   5.887  0.8335 -0.4405 -0.6590
 5544SOL    HW228092   4.656   3.183   6.022 -0.1298 -1.4293  0.5627
 5545SOL     OW28093   0.868   3.293   1.594  0.5250  0.0829 -0.2921
 5545SOL    HW128094   0.833   3.381   1.606 -1.3140 -0.4278 -2.0536
 5545SOL    HW228095   0.938   3.306   1.530 -1.6486  0.1421 -2.6435
 5546SOL     OW28096   3.968   3.833   3.183  0.7118 -0.4885 -0.3561
 5546SOL    HW128097   3.941   3.742   3.169  0.5000 -0.5486  0.4417
 5546SOL    HW228098   3.974   3.846   3.277 -0.9661 -0.6334 -0.2152
 5547SOL     OW28099   2.906   3.526   9.719  0.6691  0.4389 -0.0652
 5547SOL    HW128100   2.813   3.549   9.722  0.6093  0.3143 -1.0980
 5547SOL    HW228101   2.909   3.457   9.653  0.9998  0.0951  0.3068
 5548SOL     OW28102   1.780   3.227   2.213  0.1481 -0.0645 -0.1430
 5548SOL    HW128103   1.835   3.149   2.215 -0.1766 -0.3007 -0.6805
 5548SOL    HW228104   1.732   3.205   2.293 -0.5550  2.0077  0.0052
 5549SOL     OW28105   1.232   1.810   7.091  0.5004  0.0741  0.3109
 5549SOL    HW128106   1.228   1.897   7.130  1.4777  0.5966 -0.7770
 5549SOL    HW228107   1.143   1.806   7.055  0.7601  4.3845 -0.7780
 5550SOL     OW28108   4.370   2.278  13.352 -0.6806 -0.0035 -0.1881
 5550SOL    HW128109   4.347   2.291  13.260 -0.7645  0.2735 -0.1288
 5550SOL    HW228110   4.448   2.222  13.348 -0.3471  0.4702 -0.4581
 5551SOL     OW28111   3.393   0.975   4.817 -0.4754  0.2373 -0.2863
 5551SOL    HW128112   3.480   0.939   4.837 -0.5397  2.1377  3.4727
 5551SOL    HW228113   3.346   0.892   4.815  0.0349 -0.0457 -0.6420
 5552SOL     OW28114   4.164   0.016   5.447 -0.5773  0.0643  0.0817
 5552SOL    HW128115   4.135   4.717   5.535 -2.3020  0.0942 -0.4783
 5552SOL    HW228116   4.188   0.104   5.473 -1.1932 -0.2048  1.5136
 5553SOL     OW28117   1.726   3.409   5.931 -0.7998 -0.1261 -0.1672
 5553SOL    HW128118   1.682   3.333   5.894  0.5185 -0.7100 -0.5253
 5553SOL    HW228119   1.690   3.422   6.019 -1.6450  1.3081 -0.7244
 5554SOL     OW28120   0.337   0.741  14.712 -0.7408  0.5344  0.5253
 5554SOL    HW128121   0.401   0.686  14.667  0.9025  0.6244  2.7724
 5554SOL    HW228122   0.285   0.686  14.771 -0.3062  2.6257  2.8213
 5555SOL     OW28123   0.498   3.693   0.303 -0.2996  0.1884  0.1433
 5555SOL    HW128124   0.511   3.608   0.346  0.9580  0.5525  0.4724
 5555SOL    HW228125   0.423   3.731   0.349 -0.6450  2.1325 -2.0104
 5556SOL     OW28126   1.028   3.491   7.681  0.3985 -0.5183 -0.4415
 5556SOL    HW128127   1.009   3.405   7.719  1.0864 -0.2744  0.4617
 5556SOL    HW228128   1.047   3.471   7.590  1.3736 -1.7703  0.0416
 5557SOL     OW28129   3.637   2.911   5.644  0.3428 -0.0945 -0.3513
 5557SOL    HW128130   3.626   2.942   5.734 -1.7666  0.2611 -0.7343
 5557SOL    HW228131   3.732   2.914   5.636  0.5266 -1.1558  1.3427
 5558SOL     OW28132   0.497   2.898  15.065  0.4090 -0.3473 -0.2054
 5558SOL    HW128133   0.494   2.870  15.156  0.0860  0.4970  0.0445
 5558SOL    HW228134   0.477   2.817  15.017 -1.9462  0.1881 -0.1664
 5559SOL     OW28135   0.176   0.620   3.111  0.1145  0.1963  0.1381
 5559SOL    HW128136   0.225   0.638   3.191 -0.4340 -0.5486  0.6480
 5559SOL    HW228137   0.178   0.524   3.117  0.2223  0.1458 -0.7250
 5560SOL     OW28138   0.396   2.140   6.735 -0.0275 -0.3635 -1.2772
 5560SOL    HW128139   0.393   2.115   6.828 -0.1622 -0.1252 -1.2169
 5560SOL    HW228140   0.304   2.121   6.718  0.0677  0.0776 -2.2948
 5561SOL     OW28141   0.355   2.095   1.863 -0.4221  0.2353  0.1823
 5561SOL    HW128142   0.439   2.107   1.908 -0.6623 -1.4690  1.0972
 5561SOL    HW228143   0.286   2.136   1.916 -1.2427  0.2225 -0.8859
 5562SOL     OW28144   2.903   1.391   3.081  0.1910  0.5319 -0.3598
 5562SOL    HW128145   2.817   1.355   3.057  0.9647 -1.4042 -0.1980
 5562SOL    HW228146   2.940   1.317   3.128 -0.9042 -0.2645 -0.7408
 5563SOL     OW28147   0.735   3.721   4.962 -0.1916 -0.3486  0.1567
 5563SOL    HW128148   0.653   3.700   4.916  0.7057  0.6377 -1.8793
 5563SOL    HW228149   0.708   3.730   5.053  0.3715 -0.5812  0.3436
 5564SOL     OW28150   3.307   0.127  12.720 -0.1181 -0.3498  0.6915
 5564SOL    HW128151   3.221   0.148  12.756 -0.5055 -0.2339 -0.2874
 5564SOL    HW228152   3.338   0.215  12.701  0.4409 -0.5349  0.7567
 5565SOL     OW28153   0.181   0.458   7.812 -0.1600 -0.6072  0.1932
 5565SOL    HW128154   0.176   0.428   7.902  0.8357 -2.0301 -0.2309
 5565SOL    HW228155   0.190   0.372   7.772  0.2220 -1.6589  2.5322
 5566SOL     OW28156   3.244   0.769  10.522 -0.1571 -0.7697  0.1263
 5566SOL    HW128157   3.161   0.803  10.557  0.6415  1.8969 -0.5275
 5566SOL    HW228158   3.228   0.675  10.530 -2.3813 -0.2018  2.3220
 5567SOL     OW28159   1.118   1.068   7.427 -0.5216 -0.3925  0.6697
 5567SOL    HW128160   1.092   1.126   7.498 -3.4970 -0.9405  0.0243
 5567SOL    HW228161   1.132   0.988   7.476  1.4285 -0.7462 -0.4469
 5568SOL     OW28162   1.680   4.450   9.420 -0.2550 -0.2683  0.1334
 5568SOL    HW128163   1.709   4.373   9.468  2.9216  2.0937  2.0066
 5568SOL    HW228164   1.738   4.464   9.346 -1.2766 -2.7537 -1.1351
 5569SOL     OW28165   0.103   3.683  10.966 -0.6279  0.4144 -0.0886
 5569SOL    HW128166   0.133   3.593  10.957  1.3150  1.0092  0.3192
 5569SOL    HW228167   0.054   3.673  11.048  1.6883 -1.7810  1.0118
 5570SOL     OW28168   1.032   1.960  12.322  0.6483 -0.1232 -0.3666
 5570SOL    HW128169   0.999   2.041  12.360 -3.2814 -1.3667 -1.1871
 5570SOL    HW228170   0.951   1.934  12.278 -1.1711  0.5159  2.5978
 5571SOL     OW28171   3.017   1.185   8.872  0.5137  0.5241 -0.1815
 5571SOL    HW128172   3.004   1.276   8.899 -0.3493  0.1441  0.7294
 5571SOL    HW228173   2.936   1.157   8.830 -0.2275  1.1139  0.8402
 5572SOL     OW28174   1.166   0.637   2.593  0.8911  0.2668  0.4160
 5572SOL    HW128175   1.238   0.580   2.618 -0.6034 -1.0204  1.7828
 5572SOL    HW228176   1.096   0.572   2.585  1.0323  0.1095  0.4787
 5573SOL     OW28177   0.765   2.743   6.707 -0.0070  0.1173 -0.0463
 5573SOL    HW128178   0.695   2.752   6.772 -0.4479 -0.8381 -0.4001
 5573SOL    HW228179   0.833   2.692   6.752  2.1435  1.2910 -1.9353
 5574SOL     OW28180   3.473   1.416   5.319  0.3511  1.0954  0.1968
 5574SOL    HW128181   3.560   1.382   5.340  0.9108  1.4410 -1.6118
 5574SOL    HW228182   3.468   1.471   5.397  0.6613 -1.2930  1.9131
 5575SOL     OW28183   3.278   2.843   8.444 -0.3268  0.4797 -0.3967
 5575SOL    HW128184   3.193   2.861   8.485 -0.4108 -0.3991 -0.1775
 5575SOL    HW228185   3.298   2.933   8.418  0.1569  0.9495  1.6445
 5576SOL     OW28186   4.240   1.164  13.448 -0.3020  0.1140  0.5002
 5576SOL    HW128187   4.268   1.171  13.356 -2.1253 -0.1206 -0.0737
 5576SOL    HW228188   4.319   1.178  13.500 -0.3266  1.5518  0.1329
 5577SOL     OW28189   0.455   3.960  10.290 -0.3970 -0.3594  0.4435
 5577SOL    HW128190   0.388   3.976  10.356 -2.7548  0.2341 -2.1050
 5577SOL    HW228191   0.521   3.906  10.334  2.0837 -0.0524 -2.8833
 5578SOL     OW28192   2.393   1.391   8.115 -0.4354 -0.1426 -0.3899
 5578SOL    HW128193   2.311   1.413   8.161  0.5057  0.2444  1.0906
 5578SOL    HW228194   2.339   1.384   8.036 -1.7266  1.0708  0.3769
 5579SOL     OW28195   0.966   2.368   3.808 -0.6927  0.2690  0.3425
 5579SOL    HW128196   1.014   2.287   3.822 -0.7101  0.0259 -1.0550
 5579SOL    HW228197   0.903   2.356   3.880  0.9561  0.7089  1.8488
 5580SOL     OW28198   0.137   3.230   1.692  0.2115  0.0354  0.0312
 5580SOL    HW128199   0.137   3.229   1.787  1.0060 -1.3390  0.0192
 5580SOL    HW228200   0.155   3.137   1.677  1.2666  0.4786 -1.4612
 5581SOL     OW28201   3.618   1.361   4.398 -0.0120  0.7647 -0.6986
 5581SOL    HW128202   3.564   1.438   4.414 -0.9035 -0.0410  0.1797
 5581SOL    HW228203   3.700   1.363   4.448  0.1067 -0.6274 -0.8384
 5582SOL     OW28204   0.581   4.434   3.953 -0.0827 -0.3165  0.8069
 5582SOL    HW128205   0.580   4.358   4.011  0.7846 -0.4328  0.6778
 5582SOL    HW228206   0.674   4.453   3.965 -0.1360  1.6736 -1.9028
 5583SOL     OW28207   4.348   3.233   8.231 -0.5142  0.3189  0.5517
 5583SOL    HW128208   4.418   3.253   8.169 -2.6611 -2.1376 -2.7267
 5583SOL    HW228209   4.281   3.284   8.184 -0.4353 -0.5428 -0.5007
 5584SOL     OW28210   3.863   4.679   1.957  0.0377  0.2176  0.4733
 5584SOL    HW128211   3.886   0.027   1.899  2.6538 -1.3966 -0.5036
 5584SOL    HW228212   3.927   4.703   2.024 -0.2397  0.7302  0.5482
 5585SOL     OW28213   3.923   1.714  17.247  1.0667 -0.0384 -0.2501
 5585SOL    HW128214   3.893   1.782  17.307  2.0756 -1.9044  2.3984
 5585SOL    HW228215   3.889   1.741  17.162 -0.6424 -0.9600  0.1524
 5586SOL     OW28216   1.209   4.699   5.901  0.1668  0.0111  0.2762
 5586SOL    HW128217   1.253   0.049   5.944 -0.0529  1.2016 -1.5877
 5586SOL    HW228218   1.277   4.656   5.849 -1.0710  0.8269 -1.9985
 5587SOL     OW28219   0.780   3.136   5.286 -0.4047  0.0679 -0.0347
 5587SOL    HW128220   0.869   3.159   5.261 -0.1462  0.3329  1.1116
 5587SOL    HW228221   0.762   3.057   5.235 -0.4798  0.7781 -1.1091
 5588SOL     OW28222   3.336   1.835   6.286  0.5460  0.7034  0.0177
 5588SOL    HW128223   3.241   1.833   6.278  0.5203 -0.9593  0.6938
 5588SOL    HW228224   3.350   1.744   6.258 -0.2421  0.2416  1.1193
 5589SOL     OW28225   0.499   2.949   2.220  0.5443 -0.8274  0.2460
 5589SOL    HW128226   0.425   2.902   2.181  1.8118 -1.3212 -1.5690
 5589SOL    HW228227   0.567   2.911   2.164  2.7066  0.9082  1.7114
 5590SOL     OW28228   0.988   2.869   4.339  0.2473  0.2658 -0.0483
 5590SOL    HW128229   1.002   2.778   4.312 -0.2337  0.7405 -1.8870
 5590SOL    HW228230   0.988   2.920   4.258 -0.9629 -1.0568 -0.8831
 5591SOL     OW28231   1.171   3.446  11.628 -0.4306  0.0339  0.4471
 5591SOL    HW128232   1.119   3.527  11.628  2.2170  1.7284 -1.5483
 5591SOL    HW228233   1.242   3.458  11.691 -1.9830  1.3405  1.9519
 5592SOL     OW28234   1.220   1.217   3.730  0.2140  0.5265 -0.1361
 5592SOL    HW128235   1.304   1.172   3.739 -0.2373 -0.4988 -1.0180
 5592SOL    HW228236   1.254   1.306   3.728  1.0376  0.1381 -3.2761
 5593SOL     OW28237   3.591   3.542   3.661 -0.0424 -0.7667 -0.5887
 5593SOL    HW128238   3.630   3.462   3.697  1.2518  0.1979  0.1365
 5593SOL    HW228239   3.556   3.512   3.578  1.1941 -1.4391 -0.8712
 5594SOL     OW28240   1.557   1.910   1.908  0.1789 -0.1915 -0.4898
 5594SOL    HW128241   1.631   1.947   1.860  0.0459 -0.8941 -1.2530
 5594SOL    HW228242   1.593   1.869   1.986 -1.0550 -0.5671 -0.1186
 5595SOL     OW28243   0.613   3.794   6.157  0.7399  0.2931 -0.7985
 5595SOL    HW128244   0.681   3.842   6.204 -0.6828  1.9061 -0.3966
 5595SOL    HW228245   0.548   3.863   6.143  0.0804 -0.2001 -0.1004
 5596SOL     OW28246   1.330   1.644   6.126 -0.5918  0.4116  0.2530
 5596SOL    HW128247   1.274   1.704   6.078  0.9723  2.6297  1.2029
 5596SOL    HW228248   1.355   1.582   6.057  0.4424  2.0909 -0.8855
 5597SOL     OW28249   2.699   3.001   4.835  0.0391 -0.0780 -0.5372
 5597SOL    HW128250   2.661   3.082   4.801 -1.5706 -1.3852 -1.8089
 5597SOL    HW228251   2.671   2.997   4.926 -2.1320  1.5045 -1.1451
 5598SOL     OW28252   4.694   3.496   8.776  0.2956  0.5649 -0.2409
 5598SOL    HW128253   0.049   3.476   8.826  1.4053  0.2828 -2.1102
 5598SOL    HW228254   4.631   3.489   8.848 -1.2285 -3.1369 -1.9428
 5599SOL     OW28255   2.026   4.197   5.092  0.2926 -1.0484 -0.4903
 5599SOL    HW128256   1.941   4.197   5.136  0.3982 -0.5926 -0.2846
 5599SOL    HW228257   2.047   4.290   5.104 -0.5431 -0.6421 -2.0822
 5600SOL     OW28258   3.305   2.693   7.204  0.0748  0.0584 -0.0523
 5600SOL    HW128259   3.331   2.760   7.267 -2.5829  1.2889 -0.2405
 5600SOL    HW228260   3.251   2.643   7.265 -2.0913  1.7257 -0.6085
 5601SOL     OW28261   4.399   0.741   1.965 -0.5498 -0.1843 -0.0805
 5601SOL    HW128262   4.438   0.816   2.010  1.2633  0.5408 -2.8695
 5601SOL    HW228263   4.399   0.775   1.876  0.1338 -0.9365 -0.3715
 5602SOL     OW28264   3.483   4.082  10.514 -0.8289  0.1010 -0.1665
 5602SOL    HW128265   3.467   4.086  10.608  1.4936 -1.4077  0.2950
 5602SOL    HW228266   3.507   4.173  10.494 -3.1076  0.3605 -1.7864
 5603SOL     OW28267   0.847   4.393   0.501 -0.4857  0.0926  0.2103
 5603SOL    HW128268   0.795   4.364   0.577 -0.2312 -0.6605  0.0949
 5603SOL    HW228269   0.869   4.310   0.458  1.4444  1.1167 -0.7642
 5604SOL     OW28270   3.806   4.303   4.856  0.3542  0.2941  0.1073
 5604SOL    HW128271   3.750   4.381   4.854  0.5866  0.3444 -2.9970
 5604SOL    HW228272   3.854   4.316   4.775  2.3492  2.1099  1.5769
 5605SOL     OW28273   1.708   0.496   9.774  0.3902 -0.0802 -0.1630
 5605SOL    HW128274   1.757   0.553   9.715 -1.8739 -0.0834 -2.0329
 5605SOL    HW228275   1.679   0.424   9.719 -1.3396 -0.0477  0.6893
 5606SOL     OW28276   0.470   0.060   0.398  0.0992 -0.1164 -0.1123
 5606SOL    HW128277   0.407   0.132   0.406 -0.2923 -0.4774  0.0866
 5606SOL    HW228278   0.534   0.093   0.336  3.5285 -2.2727  2.2723
 5607SOL     OW28279   3.787   0.063   3.181  0.3305  0.5779 -0.6190
 5607SOL    HW128280   3.767   0.152   3.210 -1.3197  0.2420 -0.7721
 5607SOL    HW228281   3.879   0.058   3.208  0.6570 -1.9116 -2.1999
 5608SOL     OW28282   0.667   3.640  10.661  0.3396 -0.3843  0.4628
 5608SOL    HW128283   0.749   3.623  10.614 -0.2508 -1.1731 -0.2717
 5608SOL    HW228284   0.636   3.722  10.624  0.5340 -0.5917 -0.1616
 5609SOL     OW28285   1.284   2.222   8.275 -0.2001  0.6862 -0.5555
 5609SOL    HW128286   1.285   2.130   8.248  0.5977  1.1218 -2.0047
 5609SOL    HW228287   1.306   2.207   8.367  1.1355  3.8983 -0.3484
 5610SOL     OW28288   2.808   3.269  14.704 -0.1330 -0.0473  0.8401
 5610SOL    HW128289   2.868   3.311  14.766 -0.3811  0.5009  0.7089
 5610SOL    HW228290   2.799   3.326  14.628  0.9164 -0.0046  0.7434
 5611SOL     OW28291   2.078   0.848   5.886  0.3578  0.5010  0.1983
 5611SOL    HW128292   2.040   0.782   5.828  2.2014 -1.0217  0.7377
 5611SOL    HW228293   2.055   0.930   5.842 -0.4962  1.6655  2.7736
 5612SOL     OW28294   1.403   4.631  16.633  0.3480  0.1492  0.0431
 5612SOL    HW128295   1.396   4.538  16.654 -3.2811  1.0260  2.5523
 5612SOL    HW228296   1.357   4.642  16.550 -1.2923 -2.0982  0.6587
 5613SOL     OW28297   1.118   2.273   4.061  0.2516  0.6808 -0.1298
 5613SOL    HW128298   1.032   2.287   4.103  0.5872  2.2566  0.0006
 5613SOL    HW228299   1.096   2.210   3.993  0.0630  2.3921 -1.6369
 5614SOL     OW28300   2.642   0.744   4.013  0.1873  0.4900 -0.1986
 5614SOL    HW128301   2.634   0.666   3.959  0.4902 -0.2143  0.7721
 5614SOL    HW228302   2.738   0.744   4.018  0.1143 -1.3491  1.1333
 5615SOL     OW28303   3.156   2.413  10.701  0.2742 -0.3503  0.4046
 5615SOL    HW128304   3.155   2.459  10.785 -1.0236  1.8205 -0.8435
 5615SOL    HW228305   3.229   2.459  10.661  0.9627 -0.9727  0.9223
 5616SOL     OW28306   1.452   1.546  11.009 -0.1522 -0.6476 -0.0541
 5616SOL    HW128307   1.450   1.478  11.076  0.2574  0.7104  1.3206
 5616SOL    HW228308   1.535   1.524  10.967 -0.0576  0.4908 -0.4643
 5617SOL     OW28309   3.220   2.978   6.227 -0.0647 -0.2109 -0.1749
 5617SOL    HW128310   3.294   2.946   6.278  0.5531  1.0689 -0.2574
 5617SOL    HW228311   3.223   3.074   6.229 -4.1192 -0.0646 -1.4043
 5618SOL     OW28312   4.321   3.331  16.094  0.2386 -0.2230  0.0919
 5618SOL    HW128313   4.402   3.314  16.045  0.3661  0.6556  0.0102
 5618SOL    HW228314   4.363   3.367  16.171 -1.3183 -0.6618  1.1478
 5619SOL     OW28315   2.220   2.530  15.431 -0.4142 -0.4513 -0.0016
 5619SOL    HW128316   2.139   2.498  15.391 -0.2982  2.1065 -2.3245
 5619SOL    HW228317   2.193   2.617  15.460  2.0775  0.4711 -0.4729
 5620SOL     OW28318   1.795   1.674  17.403  0.3403  0.0591  0.0766
 5620SOL    HW128319   1.734   1.709  17.469 -1.3942  0.6130 -1.8163
 5620SOL    HW228320   1.833   1.601  17.451  1.5083  1.3533  1.1031
 5621SOL     OW28321   2.196   2.566   3.663 -0.6579  0.3918  0.1341
 5621SOL    HW128322   2.251   2.642   3.644  2.1296 -1.4441  0.8231
 5621SOL    HW228323   2.127   2.607   3.715 -2.1529 -1.3259 -0.4966
 5622SOL     OW28324   1.148   4.463  16.499  0.1694  0.0067  0.4142
 5622SOL    HW128325   1.208   4.487  16.428 -1.3155  4.0504  0.5659
 5622SOL    HW228326   1.110   4.386  16.455 -1.4515 -0.1652  2.1054
 5623SOL     OW28327   0.942   3.671   1.615 -0.4239 -0.6882 -0.4477
 5623SOL    HW128328   0.873   3.707   1.560  0.4192  0.5685 -0.6901
 5623SOL    HW228329   1.021   3.673   1.562  0.7955 -0.1946  1.3838
 5624SOL     OW28330   3.192   2.595  13.341  0.5017 -0.2758 -0.0405
 5624SOL    HW128331   3.111   2.620  13.386  0.2968 -0.9890 -0.0076
 5624SOL    HW228332   3.169   2.522  13.283 -2.5830 -0.4264  1.4040
 5625SOL     OW28333   3.441   3.808   7.365  0.0619  0.3753  0.1813
 5625SOL    HW128334   3.361   3.776   7.405 -0.6916 -0.4108 -1.9255
 5625SOL    HW228335   3.398   3.858   7.296  1.7757 -1.5398 -2.3059
 5626SOL     OW28336   2.650   4.319   8.226 -0.5112  0.5707 -0.4865
 5626SOL    HW128337   2.588   4.391   8.214 -0.1522  0.9977  0.2279
 5626SOL    HW228338   2.731   4.369   8.224  0.5116 -1.0219  1.4226
 5627SOL     OW28339   4.101   1.456   5.432  0.1253  0.4427  0.1383
 5627SOL    HW128340   4.185   1.425   5.465  0.2610 -0.0019 -0.6226
 5627SOL    HW228341   4.078   1.512   5.506 -0.2041 -1.2672  1.3188
 5628SOL     OW28342   1.278   1.269   6.592 -0.9278  0.1021 -0.2014
 5628SOL    HW128343   1.297   1.231   6.678 -2.5602 -0.3830 -0.0608
 5628SOL    HW228344   1.292   1.357   6.625  2.0962 -0.2599 -0.5238
 5629SOL     OW28345   2.909   4.453   7.410 -0.4240 -0.2448 -0.0743
 5629SOL    HW128346   2.976   4.520   7.394 -0.1414 -0.2977  0.8790
 5629SOL    HW228347   2.861   4.509   7.472 -0.0496  2.1435 -1.9329
 5630SOL     OW28348   4.116   1.005  10.781  0.1242 -0.0422  0.4557
 5630SOL    HW128349   4.031   0.984  10.742 -0.5744 -0.8366  2.3773
 5630SOL    HW228350   4.154   1.067  10.719  1.2252 -0.1858  0.9922
 5631SOL     OW28351   0.753   0.644   2.519 -0.2753 -0.0590 -0.1147
 5631SOL    HW128352   0.739   0.564   2.468  0.3054 -2.0513  2.8503
 5631SOL    HW228353   0.685   0.709   2.503 -0.4127  0.3473  2.0764
 5632SOL     OW28354   2.058   0.776   3.757  0.0700  0.1995 -0.0579
 5632SOL    HW128355   2.142   0.802   3.793 -0.6091 -0.2561  1.8461
 5632SOL    HW228356   2.006   0.792   3.836  0.0278 -0.9789  0.1525
 5633SOL     OW28357   4.300   0.233   6.627  0.1148  0.3350 -0.0714
 5633SOL    HW128358   4.310   0.216   6.721 -0.4717 -0.7134 -0.1945
 5633SOL    HW228359   4.330   0.148   6.595 -0.2285  0.3792 -0.5090
 5634SOL     OW28360   0.108   0.811   9.009  0.5917  0.7600  0.1802
 5634SOL    HW128361   0.096   0.739   8.947 -0.8812 -0.9631  2.4564
 5634SOL    HW228362   0.171   0.772   9.070 -0.2266 -1.0960 -0.1615
 5635SOL     OW28363   0.252   0.257   5.821 -0.2262 -0.1238  0.0120
 5635SOL    HW128364   0.186   0.199   5.860  1.2832 -2.2057 -0.5285
 5635SOL    HW228365   0.290   0.192   5.762 -1.8822 -0.7293 -0.3882
 5636SOL     OW28366   0.840   2.420   8.277  0.0496  0.1328  0.1422
 5636SOL    HW128367   0.884   2.480   8.216  0.9831 -0.7639 -0.0575
 5636SOL    HW228368   0.885   2.457   8.353  1.4295 -0.0713 -0.5635
 5637SOL     OW28369   1.086   2.882   5.165  0.0186  0.0977 -0.2393
 5637SOL    HW128370   1.148   2.953   5.147 -2.8833  2.8490  0.6058
 5637SOL    HW228371   1.133   2.815   5.114  2.3166  1.7001 -0.2432
 5638SOL     OW28372   4.574   2.563   8.007 -0.3140 -0.3555 -1.0656
 5638SOL    HW128373   4.480   2.547   7.997 -1.1714  3.3606  0.9382
 5638SOL    HW228374   4.575   2.658   7.990 -1.5856 -0.2653 -0.6470
 5639SOL     OW28375   3.774   3.196   7.859  0.3971  0.1654 -0.2431
 5639SOL    HW128376   3.754   3.111   7.822  0.5103 -1.0184  2.4246
 5639SOL    HW228377   3.709   3.205   7.928  0.9997 -1.2657  0.5113
 5640SOL     OW28378   2.642   3.440   5.758  0.2892 -0.2749  0.2810
 5640SOL    HW128379   2.565   3.389   5.781  0.3080 -0.7645 -0.7549
 5640SOL    HW228380   2.679   3.386   5.688  1.9401  0.0118  0.9307
 5641SOL     OW28381   1.024   3.746  17.048 -0.0650  0.1162 -0.0001
 5641SOL    HW128382   0.979   3.794  16.978  0.5245  1.1416  0.3425
 5641SOL    HW228383   1.099   3.802  17.067 -0.2214  0.5362 -0.6237
 5642SOL     OW28384   4.415   0.601   7.221  0.0367 -0.7699  0.9624
 5642SOL    HW128385   4.398   0.663   7.150  1.5423 -2.0167 -0.4807
 5642SOL    HW228386   4.504   0.629   7.242 -1.1313  2.1832  2.0595
 5643SOL     OW28387   2.707   4.401   2.746 -0.2316  0.3971  0.4413
 5643SOL    HW128388   2.616   4.418   2.719  0.4583 -1.2921 -2.9573
 5643SOL    HW228389   2.720   4.468   2.813  2.4362  1.5742 -1.2824
 5644SOL     OW28390   1.565   3.107   0.865 -0.0915 -0.1163  0.2901
 5644SOL    HW128391   1.649   3.064   0.849  1.7107  3.0684  1.3773
 5644SOL    HW228392   1.605   3.191   0.887 -2.0518  1.4296 -2.0013
 5645SOL     OW28393   2.613   3.723   1.737  0.2036  0.0297  0.0120
 5645SOL    HW128394   2.630   3.679   1.820 -1.0038  1.6159  1.0944
 5645SOL    HW228395   2.545   3.787   1.755 -0.4266 -0.7513  0.3614
 5646SOL     OW28396   0.194   1.333  12.675 -0.3498  0.1955 -0.5846
 5646SOL    HW128397   0.188   1.395  12.603  3.0165  2.8600  1.4102
 5646SOL    HW228398   0.169   1.258  12.620  0.0790 -0.1784 -0.2684
 5647SOL     OW28399   3.644   3.409   5.708 -0.1575  0.3216 -0.2745
 5647SOL    HW128400   3.717   3.353   5.686  0.4337 -0.0156  2.5241
 5647SOL    HW228401   3.590   3.395   5.630 -2.8347 -2.2356  2.0425
 5648SOL     OW28402   3.531   2.433   2.178  0.0321  0.0857  0.2184
 5648SOL    HW128403   3.484   2.392   2.106 -0.6101  1.0903  0.0665
 5648SOL    HW228404   3.595   2.485   2.131  1.5102 -0.9239  1.1001
 5649SOL     OW28405   3.198   0.834   9.588  0.0348  0.3695  0.2648
 5649SOL    HW128406   3.215   0.924   9.559 -0.4510 -0.3776 -2.3479
 5649SOL    HW228407   3.196   0.789   9.503  3.8685  0.8083 -0.0860
 5650SOL     OW28408   1.411   4.312   6.544  0.0663  0.8810 -0.0737
 5650SOL    HW128409   1.380   4.272   6.625 -0.4485 -2.0150 -1.6907
 5650SOL    HW228410   1.498   4.273   6.540  0.0032  0.6960  0.4593
 5651SOL     OW28411   3.097   0.671  13.066  0.5258  0.1935 -0.1328
 5651SOL    HW128412   3.127   0.647  13.154 -2.0100  0.6288  0.8380
 5651SOL    HW228413   3.160   0.622  13.012  1.4290  0.6034  0.5465
 5652SOL     OW28414   3.112   3.408  11.266  0.2154 -0.1809  0.5754
 5652SOL    HW128415   3.081   3.383  11.178 -0.1203  3.7315 -0.4294
 5652SOL    HW228416   3.109   3.503  11.258 -0.5151 -0.2988 -0.5361
 5653SOL     OW28417   1.617   2.125  12.630  0.1162  0.2062  0.2820
 5653SOL    HW128418   1.690   2.069  12.605 -0.2773  1.3287 -3.4462
 5653SOL    HW228419   1.545   2.075  12.593 -0.9812  2.2797 -0.4003
 5654SOL     OW28420   1.453   1.419   8.871 -0.3448 -0.1107 -0.5752
 5654SOL    HW128421   1.450   1.374   8.787 -0.9536 -1.5150  0.1759
 5654SOL    HW228422   1.397   1.495   8.857 -0.0591 -0.1261 -1.7812
 5655SOL     OW28423   2.624   1.790   2.623 -0.4323 -0.1590 -0.1381
 5655SOL    HW128424   2.588   1.878   2.630 -1.6103 -0.9174  2.9328
 5655SOL    HW228425   2.603   1.750   2.707  2.7127  1.6678  1.5033
 5656SOL     OW28426   3.874   3.833   8.190  0.1275 -0.0510 -0.3595
 5656SOL    HW128427   3.919   3.903   8.239 -1.7691  2.5226 -2.3426
 5656SOL    HW228428   3.827   3.804   8.268  0.7185 -0.4677 -0.1568
 5657SOL     OW28429   2.066   2.298   5.916 -0.4374 -0.0377  0.1570
 5657SOL    HW128430   2.040   2.221   5.864  0.4345  0.0540 -0.4295
 5657SOL    HW228431   2.030   2.275   6.001 -2.0878 -1.2043 -0.8456
 5658SOL     OW28432   1.916   1.743   4.565  0.0200  0.0879 -0.6330
 5658SOL    HW128433   1.939   1.674   4.627 -0.6815  0.8385  0.4606
 5658SOL    HW228434   1.947   1.701   4.485 -0.8693 -0.6739 -0.5820
 5659SOL     OW28435   1.996   0.774   9.764 -0.0829 -0.2569 -0.2357
 5659SOL    HW128436   1.988   0.678   9.762  2.2774 -0.4484 -0.7705
 5659SOL    HW228437   1.912   0.806   9.732 -1.3564 -0.8820  2.5209
 5660SOL     OW28438   3.766   3.134   7.468  0.3391  0.2995 -0.0108
 5660SOL    HW128439   3.782   3.077   7.543 -3.4288 -0.6511  0.1121
 5660SOL    HW228440   3.684   3.174   7.496 -0.4639 -0.9178 -0.6262
 5661SOL     OW28441   4.664   3.846   5.904 -0.1741  0.2912  0.4233
 5661SOL    HW128442   4.600   3.897   5.953  0.2838 -0.9320  2.2592
 5661SOL    HW228443   4.673   3.892   5.820  2.7941  2.2707  1.7926
 5662SOL     OW28444   0.130   3.497   9.768 -0.8746  0.1655 -0.2380
 5662SOL    HW128445   0.061   3.442   9.806 -0.1794  0.4266  1.4119
 5662SOL    HW228446   0.119   3.578   9.818  0.0096 -0.1091  0.4148
 5663SOL     OW28447   1.680   1.169   3.027 -0.2548  0.1266  0.8228
 5663SOL    HW128448   1.618   1.124   2.970 -0.9013  1.7770  0.2173
 5663SOL    HW228449   1.762   1.172   2.978 -0.3015 -0.4322  0.7104
 5664SOL     OW28450   1.705   0.123  13.575  0.8526  0.3403  0.5518
 5664SOL    HW128451   1.674   0.036  13.599  1.9041 -0.2473 -0.2117
 5664SOL    HW228452   1.635   0.147  13.514 -0.9575 -1.8400  1.7990
 5665SOL     OW28453   3.835   1.620   7.105 -0.1398 -0.4153  0.5874
 5665SOL    HW128454   3.797   1.706   7.085 -0.0370 -0.6539 -0.6428
 5665SOL    HW228455   3.860   1.641   7.195 -0.3960  2.2967  0.0174
 5666SOL     OW28456   3.475   0.587   9.265  0.4847  0.5018 -0.1689
 5666SOL    HW128457   3.536   0.525   9.306 -2.7023 -2.0201  0.7746
 5666SOL    HW228458   3.500   0.579   9.173 -1.6467  2.0509 -0.8746
 5667SOL     OW28459   3.809   0.126   8.507  0.1284 -0.2104  0.2505
 5667SOL    HW128460   3.845   0.201   8.554  0.1302  0.8657 -1.4820
 5667SOL    HW228461   3.806   0.080   8.591  2.7117 -1.1249 -0.1912
 5668SOL     OW28462   0.671   2.543   7.319  0.6306 -0.3257  0.4941
 5668SOL    HW128463   0.714   2.587   7.392  0.4809 -1.4184  1.2309
 5668SOL    HW228464   0.696   2.601   7.247  1.1248  0.2954  1.1621
 5669SOL     OW28465   3.669   4.636   9.270  0.1561  0.3695 -0.2186
 5669SOL    HW128466   3.758   4.655   9.302  0.7182 -0.0306 -1.5727
 5669SOL    HW228467   3.684   4.543   9.257  0.9175  0.5599 -0.7198
 5670SOL     OW28468   0.170   3.424  10.891 -0.2997  0.1251  0.1268
 5670SOL    HW128469   0.183   3.361  10.961 -0.7177  0.3273  0.3847
 5670SOL    HW228470   0.087   3.398  10.850 -0.0669  0.4716 -0.5780
 5671SOL     OW28471   1.038   2.204   6.646 -0.2947 -0.2620  0.5800
 5671SOL    HW128472   1.052   2.298   6.634 -1.8086 -0.0604  0.3688
 5671SOL    HW228473   1.101   2.159   6.590 -1.4506 -0.0434 -0.8987
 5672SOL     OW28474   1.913   2.266   6.162 -0.6798  0.1174  0.3390
 5672SOL    HW128475   1.899   2.172   6.169  3.0929 -0.3763  1.4534
 5672SOL    HW228476   1.930   2.286   6.254  2.3655 -0.1588 -0.1809
 5673SOL     OW28477   3.176   0.916   7.487  0.2705  0.3036 -0.4675
 5673SOL    HW128478   3.134   0.881   7.566  0.8690  1.9289  0.5560
 5673SOL    HW228479   3.200   1.001   7.524 -1.0877  0.4946 -0.0322
 5674SOL     OW28480   0.319   0.384   6.102  0.2494 -1.0155 -0.4209
 5674SOL    HW128481   0.308   0.474   6.072  1.4633 -0.3470  1.1364
 5674SOL    HW228482   0.263   0.333   6.043 -0.3877 -0.4587 -0.2902
 5675SOL     OW28483   0.079   1.928   7.504 -0.1503 -0.2701 -0.3072
 5675SOL    HW128484   4.707   1.934   7.509 -0.2291  0.1446 -2.3187
 5675SOL    HW228485   0.090   1.841   7.467  1.0571  0.7336 -2.3045
 5676SOL     OW28486   1.129   3.524   5.215  0.0238 -0.1688 -0.0517
 5676SOL    HW128487   1.098   3.608   5.182 -0.5600 -0.3841 -0.0417
 5676SOL    HW228488   1.155   3.472   5.139 -0.7988  0.7929 -0.9914
 5677SOL     OW28489   3.584   2.923   4.236 -0.5832 -0.2680  0.1626
 5677SOL    HW128490   3.516   2.971   4.284 -0.3659  0.3440 -0.1285
 5677SOL    HW228491   3.595   2.845   4.289  2.1625  0.4028  0.5489
 5678SOL     OW28492   0.879   1.557   9.559 -0.0043 -0.0085  0.7417
 5678SOL    HW128493   0.941   1.627   9.577  0.5003 -0.8337  2.1571
 5678SOL    HW228494   0.932   1.477   9.565 -1.6300 -1.2439 -1.2391
 5679SOL     OW28495   2.762   2.251   5.726 -0.3504  1.0250 -0.0419
 5679SOL    HW128496   2.709   2.327   5.751 -1.0286  1.1971 -2.0406
 5679SOL    HW228497   2.693   2.189   5.703  2.2544 -2.1829  0.7774
 5680SOL     OW28498   0.022   4.156   4.498 -0.4808 -0.2384 -0.1198
 5680SOL    HW128499   4.672   4.161   4.437 -1.0733 -3.8970  0.3035
 5680SOL    HW228500   0.066   4.240   4.485  1.2566 -1.3209 -1.0900
 5681SOL     OW28501   1.215   4.694   4.640  0.8392 -0.1264 -1.0950
 5681SOL    HW128502   1.229   4.600   4.656 -1.6257 -0.1238  1.0715
 5681SOL    HW228503   1.298   4.723   4.678 -0.7601  2.6446  0.2591
 5682SOL     OW28504   0.740   2.354   5.396  0.6408  0.3010  0.0496
 5682SOL    HW128505   0.715   2.399   5.315 -0.1188 -3.0969 -1.5854
 5682SOL    HW228506   0.834   2.342   5.380  0.7829 -0.3500  1.3631
 5683SOL     OW28507   1.037   3.064   4.131  0.2957  0.1182  0.2283
 5683SOL    HW128508   0.969   3.112   4.084  2.5331  1.1447 -1.9994
 5683SOL    HW228509   1.060   3.119   4.206  0.7561 -0.5367  0.5687
 5684SOL     OW28510   0.812   4.274  16.196 -0.0253  0.4284 -1.0115
 5684SOL    HW128511   0.741   4.294  16.135 -1.0281 -1.3940 -0.4385
 5684SOL    HW228512   0.888   4.318  16.156 -0.4849  0.6682 -1.6099
 5685SOL     OW28513   1.980   2.319  17.453 -0.7266 -0.0019  0.0819
 5685SOL    HW128514   1.898   2.368  17.463 -1.0861 -0.7006  0.4906
 5685SOL    HW228515   2.043   2.372  17.502  2.2020 -1.4915 -2.0809
 5686SOL     OW28516   2.811   4.495   5.464  0.3927  0.3363  0.1090
 5686SOL    HW128517   2.866   4.434   5.415  1.2187  0.4433  0.9193
 5686SOL    HW228518   2.869   4.516   5.537  1.9885  0.2418 -1.1573
 5687SOL     OW28519   4.108   1.836  12.009 -0.6293 -0.1812  0.0199
 5687SOL    HW128520   4.167   1.814  12.081 -0.5858 -1.1228 -0.3088
 5687SOL    HW228521   4.077   1.753  11.973  1.1727 -0.1613 -1.5782
 5688SOL     OW28522   0.772   3.824   7.810 -0.4446 -0.6505 -0.3429
 5688SOL    HW128523   0.715   3.866   7.746 -1.1881 -0.0086  0.7417
 5688SOL    HW228524   0.823   3.772   7.748  1.0824 -1.9263  1.9882
 5689SOL     OW28525   1.049   3.641  12.266 -0.3735  0.1741 -0.4571
 5689SOL    HW128526   1.074   3.619  12.356 -0.0225 -1.4297 -0.9525
 5689SOL    HW228527   1.080   3.561  12.223 -1.6563 -1.1224  1.0069
 5690SOL     OW28528   0.629   1.688  16.213 -0.2247  0.4956  0.1657
 5690SOL    HW128529   0.538   1.678  16.183 -1.2079 -1.6741  3.7784
 5690SOL    HW228530   0.678   1.639  16.147 -1.7039  0.2106 -0.7162
 5691SOL     OW28531   4.051   0.305  12.477  0.6227  0.2726 -0.1039
 5691SOL    HW128532   4.098   0.229  12.444  1.7509  1.1436 -0.5191
 5691SOL    HW228533   4.115   0.332  12.543  0.5038 -2.0550  0.9582
 5692SOL     OW28534   4.268   0.262   2.137 -0.1190 -0.3006 -0.4715
 5692SOL    HW128535   4.357   0.292   2.155 -0.4183 -0.1167  0.7172
 5692SOL    HW228536   4.225   0.343   2.110  1.3615 -0.0611 -2.0423
 5693SOL     OW28537   0.097   0.654  12.000  0.6710  0.0757 -0.0535
 5693SOL    HW128538   0.143   0.737  12.008  0.1959  0.3312 -0.0141
 5693SOL    HW228539   0.127   0.627  11.914  2.1824  2.2004 -0.1863
 5694SOL     OW28540   1.898   1.447  13.371  0.2545  0.6179  0.0634
 5694SOL    HW128541   1.960   1.489  13.431 -1.6978  0.6423  2.0334
 5694SOL    HW228542   1.824   1.505  13.387  0.1456  0.5969 -0.3488
 5695SOL     OW28543   1.450   0.681   3.680 -0.2701 -0.0410  0.0529
 5695SOL    HW128544   1.392   0.611   3.650 -0.1310 -0.1975  0.1495
 5695SOL    HW228545   1.392   0.758   3.678 -1.4801 -0.9521  0.1129
 5696SOL     OW28546   0.841   3.094  11.596 -0.1879 -0.4166 -0.5516
 5696SOL    HW128547   0.885   3.092  11.510 -0.4814  0.9951 -0.7247
 5696SOL    HW228548   0.907   3.137  11.649  0.0854  0.3197 -1.4904
 5697SOL     OW28549   1.063   0.820   8.706  0.4117 -0.1474  0.4415
 5697SOL    HW128550   0.992   0.832   8.769 -0.2267 -0.4472 -0.2158
 5697SOL    HW228551   1.062   0.898   8.651  0.7045  0.6678  1.5978
 5698SOL     OW28552   0.355   1.257   8.612  0.3252 -0.7453 -0.0350
 5698SOL    HW128553   0.271   1.259   8.565  1.0047  0.6954 -1.1916
 5698SOL    HW228554   0.410   1.266   8.534 -0.3507  0.2509 -0.4076
 5699SOL     OW28555   2.071   0.274   7.393  0.2453  0.2390  0.0871
 5699SOL    HW128556   2.048   0.318   7.311  1.1914  1.2227  0.3454
 5699SOL    HW228557   2.148   0.225   7.364 -0.2861  0.1449 -1.1851
 5700SOL     OW28558   1.002   0.181   2.121 -0.6733  0.4251 -0.3329
 5700SOL    HW128559   0.937   0.113   2.105 -0.5987  0.1359  0.5717
 5700SOL    HW228560   1.043   0.146   2.200  2.2923  0.9954 -1.6337
 5701SOL     OW28561   2.580   3.578   7.596  0.5071  0.5495 -0.9106
 5701SOL    HW128562   2.513   3.592   7.662  1.7173 -0.2311  0.4787
 5701SOL    HW228563   2.655   3.632   7.622  0.3346  0.5488 -0.4255
 5702SOL     OW28564   1.911   1.930   3.358 -0.0351 -0.8216 -0.0024
 5702SOL    HW128565   1.999   1.965   3.347 -1.2771  3.0980  2.5220
 5702SOL    HW228566   1.859   1.991   3.304  1.6877  0.1717 -0.5218
 5703SOL     OW28567   0.232   2.552   8.607 -0.8875  0.2171 -0.4646
 5703SOL    HW128568   0.208   2.460   8.617 -0.4969  0.1717  0.0469
 5703SOL    HW228569   0.168   2.596   8.662 -0.0893 -4.0163  3.7334
 5704SOL     OW28570   2.435   1.813   7.673  0.1490  0.4304 -0.0553
 5704SOL    HW128571   2.389   1.779   7.750  0.8101  0.0636  0.1789
 5704SOL    HW228572   2.502   1.744   7.668  0.4333  0.8256 -1.6070
 5705SOL     OW28573   1.808   3.932   3.572 -0.1140 -0.1348 -0.2973
 5705SOL    HW128574   1.862   3.974   3.638 -0.3156 -0.9952  0.4209
 5705SOL    HW228575   1.876   3.890   3.521  1.1380  1.3897  0.1375
 5706SOL     OW28576   0.518   0.341   8.729  0.5824 -0.6017  0.2366
 5706SOL    HW128577   0.570   0.422   8.727  1.9347 -1.4358  1.4323
 5706SOL    HW228578   0.459   0.359   8.656  1.5483  0.2865 -0.3288
 5707SOL     OW28579   1.940   2.717   5.581  0.8696 -0.0803  0.1528
 5707SOL    HW128580   1.845   2.713   5.592  0.8737  0.1074  0.2474
 5707SOL    HW228581   1.963   2.791   5.525 -0.7036  1.0707  1.0385
 5708SOL     OW28582   1.466   1.757  10.678  0.2776  0.4182  0.2946
 5708SOL    HW128583   1.400   1.797  10.621  0.4833 -0.6057 -0.6824
 5708SOL    HW228584   1.410   1.703  10.735  1.1419 -1.9446 -1.0867
 5709SOL     OW28585   3.339   1.217  13.561  0.2071 -0.7017 -0.0857
 5709SOL    HW128586   3.390   1.147  13.602  1.3546 -0.5332 -1.2196
 5709SOL    HW228587   3.408   1.282  13.550 -1.4160  0.4853 -3.0387
 5710SOL     OW28588   1.538   1.763   7.729  0.5087  0.8072  0.4874
 5710SOL    HW128589   1.590   1.842   7.714  2.1988 -0.1809  1.1143
 5710SOL    HW228590   1.451   1.789   7.697  1.0497 -0.1055 -1.7249
 5711SOL     OW28591   1.069   2.249   5.683 -0.5886 -0.2560  0.5499
 5711SOL    HW128592   1.001   2.285   5.625 -0.2481  0.0664  0.3492
 5711SOL    HW228593   1.045   2.277   5.771  1.1687 -0.0924  0.9764
 5712SOL     OW28594   2.218   1.355   7.904  0.1020 -0.0795  0.0151
 5712SOL    HW128595   2.236   1.397   7.820 -1.0389  2.6083  1.1005
 5712SOL    HW228596   2.126   1.383   7.910  0.3928  0.3952  2.3578
 5713SOL     OW28597   0.816   3.455  11.697 -0.2927  0.6594  0.4697
 5713SOL    HW128598   0.861   3.391  11.753 -1.8734 -0.2793  0.6674
 5713SOL    HW228599   0.726   3.431  11.719 -0.2851  0.6227  0.4614
 5714SOL     OW28600   2.410   0.935   1.002 -0.8160 -0.6500 -0.4484
 5714SOL    HW128601   2.354   0.929   0.924 -2.0853  1.0844  0.3444
 5714SOL    HW228602   2.476   0.991   0.962 -0.3721 -1.3474 -0.6938
 5715SOL     OW28603   2.011   2.140   8.776  0.5229 -0.2542  0.0951
 5715SOL    HW128604   2.013   2.214   8.838 -1.9342  0.6200 -0.8409
 5715SOL    HW228605   2.000   2.191   8.696  3.7472  2.4773  1.3863
 5716SOL     OW28606   1.085   2.788   7.043  0.1141  0.2781  0.4004
 5716SOL    HW128607   1.109   2.858   6.983 -0.1784 -0.6929 -0.8605
 5716SOL    HW228608   1.175   2.759   7.060  0.0509  0.6316  1.3456
 5717SOL     OW28609   0.029   1.678   7.713  0.1112 -0.4185 -0.5922
 5717SOL    HW128610   4.665   1.643   7.702  0.5791 -1.2271 -1.7386
 5717SOL    HW228611   0.079   1.605   7.676 -2.4000 -2.3772 -0.1067
 5718SOL     OW28612   1.714   3.443   9.535 -0.3267  0.4270 -0.0130
 5718SOL    HW128613   1.723   3.538   9.525 -1.0206  0.3319 -1.6239
 5718SOL    HW228614   1.706   3.413   9.444 -1.5004  0.2257  0.1488
 5719SOL     OW28615   0.231   1.453  13.824  0.5156 -0.3917  0.3008
 5719SOL    HW128616   0.274   1.433  13.906  2.7835 -3.2571 -1.5898
 5719SOL    HW228617   0.167   1.521  13.844 -0.6701 -0.5379 -2.8599
 5720SOL     OW28618   1.050   3.987  17.302  0.5133  0.7823  0.1477
 5720SOL    HW128619   1.104   4.006  17.378 -1.6748 -0.0876  1.9056
 5720SOL    HW228620   0.996   4.065  17.289 -1.6270 -0.8693 -0.9525
 5721SOL     OW28621   3.941   1.397   5.047  0.4160 -0.3881  0.0519
 5721SOL    HW128622   4.013   1.354   5.000  1.1093  0.9474 -0.1233
 5721SOL    HW228623   3.908   1.457   4.980 -0.1749  1.5858  2.0975
 5722SOL     OW28624   1.765   4.077   8.257  0.0504 -0.3757 -0.5379
 5722SOL    HW128625   1.749   3.991   8.295  0.0619 -0.3985 -0.5852
 5722SOL    HW228626   1.686   4.066   8.205 -0.2417 -0.6837 -0.0288
 5723SOL     OW28627   2.780   0.993   8.578  0.8118 -0.0128  0.1713
 5723SOL    HW128628   2.847   0.928   8.557 -1.1782 -1.9342 -0.1413
 5723SOL    HW228629   2.821   1.074   8.546 -1.2831  0.6885 -0.7626
 5724SOL     OW28630   1.550   0.894   7.741  0.1539 -0.2019  0.0981
 5724SOL    HW128631   1.610   0.961   7.710 -1.4743  0.8929 -0.6817
 5724SOL    HW228632   1.477   0.909   7.682  0.6843 -1.3825 -0.8538
 5725SOL     OW28633   3.898   0.234   6.532  0.1125  0.2230 -0.0087
 5725SOL    HW128634   3.958   0.227   6.607  0.4137  0.6241 -0.2100
 5725SOL    HW228635   3.830   0.172   6.558 -1.3168  1.4555 -0.7917
 5726SOL     OW28636   1.011   1.895   4.019  0.8126 -0.7170 -0.0849
 5726SOL    HW128637   1.047   1.860   4.101 -1.6876 -0.1581  1.2322
 5726SOL    HW228638   0.939   1.833   4.014 -0.7247  1.0644 -0.0542
 5727SOL     OW28639   0.776   0.421   0.964 -0.4263  0.0914  0.6306
 5727SOL    HW128640   0.816   0.357   1.024 -1.8328 -2.0122 -0.6850
 5727SOL    HW228641   0.848   0.469   0.922  0.4630 -1.6187  0.2031
 5728SOL     OW28642   0.399   1.608   7.730  0.0395 -0.0954 -0.1584
 5728SOL    HW128643   0.378   1.552   7.656 -1.7402  1.2317 -0.6467
 5728SOL    HW228644   0.407   1.693   7.687  0.6100 -0.8447 -1.5088
 5729SOL     OW28645   0.035   1.855  17.135  0.0876 -0.1880  0.7178
 5729SOL    HW128646   0.024   1.888  17.046  1.3276 -2.3823 -0.2481
 5729SOL    HW228647   0.113   1.801  17.132  0.4499  0.4204 -0.9195
 5730SOL     OW28648   0.286   3.736   9.128 -0.1216 -0.2799  0.0100
 5730SOL    HW128649   0.365   3.740   9.182 -1.4602  0.0052  1.9664
 5730SOL    HW228650   0.223   3.721   9.199 -0.4957 -0.7740 -0.4252
 5731SOL     OW28651   0.095   2.913   3.328 -0.0067 -0.0328 -0.0259
 5731SOL    HW128652   0.006   2.949   3.326 -0.0490 -0.1765 -0.7533
 5731SOL    HW228653   0.093   2.839   3.268  0.8506  0.0093 -0.1007
 5732SOL     OW28654   4.596   3.630  17.285 -0.3190  0.1890 -0.0780
 5732SOL    HW128655   4.559   3.700  17.233  1.0005  1.9251  1.3301
 5732SOL    HW228656   4.609   3.562  17.218 -1.9492 -0.9486  0.7593
 5733SOL     OW28657   0.017   0.479   0.707  0.2151 -0.1341 -0.0100
 5733SOL    HW128658   0.010   0.470   0.802  0.2171  1.1179  0.1172
 5733SOL    HW228659   0.067   0.402   0.680  0.2941 -0.0886  0.0060
 5734SOL     OW28660   3.838   3.879   5.752 -0.6389  0.6264  0.6777
 5734SOL    HW128661   3.799   3.927   5.678 -0.1929 -2.7234 -1.7322
 5734SOL    HW228662   3.891   3.943   5.800  0.8028  0.3882 -0.5839
 5735SOL     OW28663   3.153   4.127   3.394 -0.4862  0.0044  0.2842
 5735SOL    HW128664   3.197   4.153   3.313 -0.8738  3.0511  1.0551
 5735SOL    HW228665   3.092   4.199   3.413 -0.6133 -0.5327  1.8648
 5736SOL     OW28666   3.096   2.364   4.841  0.3103  0.4802 -0.0614
 5736SOL    HW128667   3.171   2.305   4.846  0.2139  0.3612 -0.0281
 5736SOL    HW228668   3.030   2.306   4.802  1.9349 -1.3366 -0.1441
 5737SOL     OW28669   2.719   0.036   5.463 -0.5303 -0.0471  0.2511
 5737SOL    HW128670   2.762   4.674   5.460  0.7236  0.6524 -1.4050
 5737SOL    HW228671   2.709   0.056   5.370  1.6760  3.0753  0.7149
 5738SOL     OW28672   3.804   1.118   8.713  0.3627  0.5190 -0.2511
 5738SOL    HW128673   3.844   1.047   8.664 -2.1113  0.1462 -1.7385
 5738SOL    HW228674   3.710   1.102   8.707  0.1479  0.6863  2.4275
 5739SOL     OW28675   3.810   3.101  15.137 -0.1965  0.0379  0.4879
 5739SOL    HW128676   3.821   3.189  15.101 -0.3649 -0.0609  0.1956
 5739SOL    HW228677   3.842   3.124  15.224 -0.1409  0.9648  0.2251
 5740SOL     OW28678   0.991   4.633   7.877 -0.5608  0.0676 -0.1566
 5740SOL    HW128679   0.920   4.686   7.841  0.3636  1.0197 -0.6006
 5740SOL    HW228680   0.962   4.635   7.968  0.9245 -0.2394  0.3317
 5741SOL     OW28681   1.607   2.283   7.572 -0.0779  0.0225 -0.4743
 5741SOL    HW128682   1.615   2.238   7.657 -1.2274 -1.0273 -0.9282
 5741SOL    HW228683   1.559   2.362   7.597  0.0243 -0.8148  2.4005
 5742SOL     OW28684   1.102   3.836   6.761  0.3432 -0.0088  0.1436
 5742SOL    HW128685   1.169   3.785   6.715 -0.4517 -3.4902  2.8550
 5742SOL    HW228686   1.057   3.768   6.811  1.7823 -0.1734  1.2140
 5743SOL     OW28687   1.219   2.478  12.516 -0.0271 -0.0289 -0.2210
 5743SOL    HW128688   1.244   2.428  12.438 -0.4511  1.4876 -1.3158
 5743SOL    HW228689   1.300   2.476  12.566 -0.3597 -1.2684  0.2631
 5744SOL     OW28690   4.206   1.777   2.676  0.6460 -0.5287  0.0063
 5744SOL    HW128691   4.279   1.789   2.615  0.9641  1.1751  0.7410
 5744SOL    HW228692   4.141   1.781   2.607 -1.0563 -0.9692  1.5889
 5745SOL     OW28693   3.121   1.879   1.746 -0.1853 -0.6787 -0.1820
 5745SOL    HW128694   3.048   1.835   1.790  0.3527 -0.4293  0.9660
 5745SOL    HW228695   3.122   1.971   1.772  2.3654 -0.7832  0.1199
 5746SOL     OW28696   4.636   2.576   8.677 -0.3490 -0.2064  0.2939
 5746SOL    HW128697   4.577   2.626   8.734 -0.4246 -1.3855  1.2535
 5746SOL    HW228698   4.618   2.617   8.593 -1.4046 -3.0926 -0.9151
 5747SOL     OW28699   2.849   1.528   1.157  0.4468  0.2178 -0.5703
 5747SOL    HW128700   2.945   1.533   1.158  0.5052 -0.2246 -2.4224
 5747SOL    HW228701   2.829   1.575   1.238  0.8297  0.7412 -0.7756
 5748SOL     OW28702   3.808   2.172   6.932 -0.2645  0.2839 -0.3325
 5748SOL    HW128703   3.806   2.157   6.838 -1.6160 -1.5611 -0.0015
 5748SOL    HW228704   3.762   2.254   6.947 -1.1266 -0.4189  0.8865
 5749SOL     OW28705   3.378   1.092   7.859 -0.4960  0.3434  0.2378
 5749SOL    HW128706   3.421   1.133   7.935  0.9514  1.0953 -0.9802
 5749SOL    HW228707   3.300   1.148   7.854 -0.2545  0.8162  1.5723
 5750SOL     OW28708   0.936   0.667   8.261  0.0260 -0.0810 -0.1273
 5750SOL    HW128709   0.909   0.587   8.306  0.3292 -0.0824  0.0464
 5750SOL    HW228710   1.027   0.686   8.283 -0.5334  3.1885 -0.5913
 5751SOL     OW28711   4.414   1.771   6.488  0.1125  0.0468 -0.2112
 5751SOL    HW128712   4.320   1.789   6.485 -0.0848 -1.3138 -1.8708
 5751SOL    HW228713   4.443   1.773   6.579  1.0258  0.1762 -0.5010
 5752SOL     OW28714   3.798   4.260   1.233 -0.1510  0.0839  0.3243
 5752SOL    HW128715   3.725   4.198   1.235  0.6393 -0.8565 -0.1951
 5752SOL    HW228716   3.773   4.286   1.144 -2.6547  0.1229  1.0374
 5753SOL     OW28717   2.578   4.389   2.069 -0.9714  0.6185 -0.0180
 5753SOL    HW128718   2.521   4.336   2.125 -0.5970  0.1124 -0.1150
 5753SOL    HW228719   2.639   4.419   2.136 -2.8568  1.2894  1.3988
 5754SOL     OW28720   4.146   1.747  11.581  0.1003 -0.0662 -0.3033
 5754SOL    HW128721   4.139   1.710  11.493 -0.4927 -0.1709 -0.2116
 5754SOL    HW228722   4.115   1.672  11.632  0.5265 -0.1229 -0.1266
 5755SOL     OW28723   4.684   2.205   4.495 -0.0755  0.1702  0.0792
 5755SOL    HW128724   0.015   2.174   4.423 -0.9436  1.4056 -1.1214
 5755SOL    HW228725   4.625   2.252   4.436  0.3245 -0.1918 -0.6107
 5756SOL     OW28726   3.276   0.341   4.173  0.1661  0.0518 -0.1262
 5756SOL    HW128727   3.219   0.371   4.243  0.4412  0.5632 -0.1242
 5756SOL    HW228728   3.244   0.398   4.103 -1.2418 -0.2930  0.2408
 5757SOL     OW28729   1.879   1.706   0.066 -0.4941 -0.1364 -0.8808
 5757SOL    HW128730   1.900   1.670   0.152 -0.8917 -1.6150 -1.3984
 5757SOL    HW228731   1.943   1.775   0.047 -1.1857  0.6655 -0.2981
 5758SOL     OW28732   3.468   2.016   2.202 -0.4904  0.1297  0.1709
 5758SOL    HW128733   3.501   1.954   2.137  0.4601  0.2934  0.4969
 5758SOL    HW228734   3.431   2.087   2.150  2.4357 -0.1527 -2.3354
 5759SOL     OW28735   4.271   0.679   2.633 -0.1785 -0.1846  0.5372
 5759SOL    HW128736   4.198   0.699   2.692 -0.9178 -0.9161 -0.1279
 5759SOL    HW228737   4.327   0.621   2.684  0.1737 -0.7361 -0.4937
 5760SOL     OW28738   3.658   2.625   2.003  0.2452 -0.3692  0.0514
 5760SOL    HW128739   3.701   2.709   2.016 -3.1157  1.4916 -0.7674
 5760SOL    HW228740   3.694   2.602   1.917 -0.5394 -1.4864  0.0193
 5761SOL     OW28741   4.628   3.780  10.825  0.2536 -0.5812 -0.3489
 5761SOL    HW128742   4.692   3.730  10.875  0.8680  2.1107  1.5717
 5761SOL    HW228743   4.540   3.741  10.826  0.5578 -1.2313  0.4102
 5762SOL     OW28744   3.634   4.197  11.272  0.2858 -0.0601  0.0057
 5762SOL    HW128745   3.650   4.200  11.178  2.4071 -0.9296  0.3530
 5762SOL    HW228746   3.692   4.271  11.287 -0.2277 -0.1404  2.3337
 5763SOL     OW28747   0.530   3.851   4.628 -0.2645  0.4440  0.2128
 5763SOL    HW128748   0.494   3.840   4.540  0.9763 -1.4774 -0.0425
 5763SOL    HW228749   0.593   3.922   4.615 -0.0830  0.4977  1.3890
 5764SOL     OW28750   0.544   2.033   5.202  0.0495  0.6168  0.6436
 5764SOL    HW128751   0.514   2.079   5.123 -2.5469 -0.3289  1.0875
 5764SOL    HW228752   0.499   2.083   5.271 -0.4389  1.5503 -0.3432
 5765SOL     OW28753   4.657   4.382  13.951 -0.1198  0.0459 -0.2803
 5765SOL    HW128754   4.684   4.471  13.972 -2.2950  0.3373  1.2777
 5765SOL    HW228755   4.610   4.397  13.868  2.5351  2.9320 -1.2694
 5766SOL     OW28756   2.567   3.863   7.181 -0.0647  0.4856 -0.0541
 5766SOL    HW128757   2.549   3.943   7.131  0.5560  0.2614 -0.6395
 5766SOL    HW228758   2.550   3.893   7.270  0.3615 -0.6412  0.4021
 5767SOL     OW28759   0.097   4.011  16.479  0.5141  0.6437  0.2453
 5767SOL    HW128760   0.179   4.057  16.463  0.2542  1.0085 -0.0136
 5767SOL    HW228761   0.076   4.019  16.572  1.3303 -0.2416  0.5107
 5768SOL     OW28762   1.823   1.427   5.985 -0.2428 -1.0211  0.0983
 5768SOL    HW128763   1.853   1.340   5.961 -0.1635 -1.1762  0.7584
 5768SOL    HW228764   1.853   1.439   6.076  1.6058 -1.3286 -0.4692
 5769SOL     OW28765   3.045   4.703   7.360 -0.4927  0.0165  0.0795
 5769SOL    HW128766   2.997   0.054   7.325  1.0553  0.8191 -0.3277
 5769SOL    HW228767   3.127   4.718   7.314  0.6662 -0.8368  1.8895
 5770SOL     OW28768   2.680   4.101   4.141  0.1093 -0.0369 -0.5030
 5770SOL    HW128769   2.764   4.104   4.096  0.7321 -0.0988  0.6528
 5770SOL    HW228770   2.716   4.088   4.229 -0.9346  0.8914  0.0629
 5771SOL     OW28771   0.623   0.020   5.727  0.6414 -0.1899  0.1724
 5771SOL    HW128772   0.687   0.055   5.788  0.4337  0.7110 -0.1296
 5771SOL    HW228773   0.674   4.675   5.684 -0.6951 -0.4208 -1.0540
 5772SOL     OW28774   0.506   0.997  12.258  0.3611 -0.5073 -0.0588
 5772SOL    HW128775   0.487   1.091  12.269 -0.1087 -0.7561  1.2427
 5772SOL    HW228776   0.601   0.987  12.264  0.2355 -0.9467  1.1760
 5773SOL     OW28777   2.912   1.341   4.509  0.5043 -0.5907  0.1468
 5773SOL    HW128778   2.925   1.328   4.415  0.9293 -0.4909  0.1948
 5773SOL    HW228779   2.919   1.437   4.515 -4.3712 -0.2480  1.1305
 5774SOL     OW28780   3.754   3.423   4.441 -0.2161 -0.7137  0.2168
 5774SOL    HW128781   3.797   3.348   4.482  1.4682 -0.3167 -0.8309
 5774SOL    HW228782   3.702   3.468   4.508  0.2434 -0.1232  0.1778
 5775SOL     OW28783   0.411   2.781   8.808 -0.3939 -0.1399  0.0070
 5775SOL    HW128784   0.324   2.769   8.848 -0.4602  1.3784  0.3360
 5775SOL    HW228785   0.382   2.824   8.727 -0.4749 -0.0827  0.0663
 5776SOL     OW28786   3.316   4.294   8.425 -0.4168  0.5440  0.0214
 5776SOL    HW128787   3.351   4.229   8.486  0.6076 -0.4763 -1.6425
 5776SOL    HW228788   3.263   4.346   8.486 -0.4979  1.0039 -0.4450
 5777SOL     OW28789   1.393   3.772  14.862  0.2632 -0.0218 -0.1769
 5777SOL    HW128790   1.378   3.866  14.878  0.9172 -0.1831  1.3819
 5777SOL    HW228791   1.476   3.790  14.818  0.5276  0.2119  0.4238
 5778SOL     OW28792   2.232   4.635   6.607  0.6072  0.1251  0.1016
 5778SOL    HW128793   2.157   4.693   6.595  0.6937  0.2877  0.3267
 5778SOL    HW228794   2.204   4.554   6.565 -0.9600  0.2520  0.8817
 5779SOL     OW28795   4.222   4.403  17.142 -0.3003  0.4687 -0.2451
 5779SOL    HW128796   4.148   4.449  17.184 -0.8227  0.4145 -1.1077
 5779SOL    HW228797   4.244   4.465  17.073  1.2443  1.7326  1.3722
 5780SOL     OW28798   1.658   4.569   6.199 -0.8713 -0.2326  0.9030
 5780SOL    HW128799   1.674   4.559   6.293 -0.5054 -0.3872  0.8237
 5780SOL    HW228800   1.645   4.477   6.177 -0.2561 -0.2021  0.4342
 5781SOL     OW28801   3.962   0.111   7.168 -0.1139  0.3799 -0.0709
 5781SOL    HW128802   4.042   0.089   7.216 -1.2949  1.0035  2.1884
 5781SOL    HW228803   3.975   0.204   7.148  1.2554 -0.4194 -2.8519
 5782SOL     OW28804   2.407   1.317   2.567  0.5421  1.1331  0.5108
 5782SOL    HW128805   2.317   1.317   2.537  0.7150 -0.1528 -0.0296
 5782SOL    HW228806   2.448   1.287   2.485  0.5906  4.0129 -0.5119
 5783SOL     OW28807   1.718   1.119   1.713 -0.4341 -0.0455 -0.2076
 5783SOL    HW128808   1.795   1.077   1.674 -0.7176  0.8581 -1.7177
 5783SOL    HW228809   1.644   1.084   1.663 -1.0751  1.4955 -0.3122
 5784SOL     OW28810   1.104   0.054  16.824  0.1703  0.8054 -0.1764
 5784SOL    HW128811   1.134   0.142  16.848 -2.2601  1.5786  0.1039
 5784SOL    HW228812   1.057   0.013  16.896 -0.2721  1.2030 -0.2337
 5785SOL     OW28813   4.475   3.831  15.963 -0.2320 -0.3081  0.7931
 5785SOL    HW128814   4.425   3.852  15.884 -0.7715  0.2413  1.2809
 5785SOL    HW228815   4.558   3.809  15.920 -0.1354  0.9203  0.3522
 5786SOL     OW28816   3.518   0.435   1.192  0.1817 -0.0777  0.2185
 5786SOL    HW128817   3.460   0.359   1.184  0.8643 -0.5095 -0.6156
 5786SOL    HW228818   3.558   0.404   1.274 -2.3049 -0.7195  1.1841
 5787SOL     OW28819   3.322   0.252   1.245 -0.0436 -0.0818 -0.7747
 5787SOL    HW128820   3.267   0.327   1.269 -0.8737 -1.5960  2.0522
 5787SOL    HW228821   3.288   0.178   1.295 -0.2615  2.4867  2.9241
 5788SOL     OW28822   4.115   3.273   3.475 -0.2424 -0.0952  0.7423
 5788SOL    HW128823   4.057   3.314   3.539 -0.1111  0.8750  0.2496
 5788SOL    HW228824   4.065   3.196   3.450  0.8254 -0.3165 -0.7680
 5789SOL     OW28825   2.698   0.654   1.283  0.7656  1.2320  0.1617
 5789SOL    HW128826   2.708   0.677   1.376  0.5277  0.1331  0.4519
 5789SOL    HW228827   2.668   0.565   1.301  0.7278  1.2473  0.1743
 5790SOL     OW28828   2.305   4.722  16.463  0.1029  0.3615 -0.2950
 5790SOL    HW128829   2.221   0.044  16.468 -0.7262 -0.9145 -2.6956
 5790SOL    HW228830   2.364   0.073  16.477 -0.5271  0.9608 -0.8346
 5791SOL     OW28831   1.834   3.738   4.569  0.4089 -0.0993  0.7087
 5791SOL    HW128832   1.847   3.672   4.637 -0.4230 -0.2109  0.7528
 5791SOL    HW228833   1.882   3.811   4.608  3.9155 -2.4411  0.8270
 5792SOL     OW28834   4.419   3.376   4.210  0.2263  0.4325 -0.1450
 5792SOL    HW128835   4.370   3.456   4.227  0.9852  0.8047  0.2625
 5792SOL    HW228836   4.472   3.413   4.139 -0.2930  1.6696  0.1242
 5793SOL     OW28837   1.130   2.312   3.230 -0.0982 -0.8248 -0.7161
 5793SOL    HW128838   1.159   2.221   3.220  1.2107 -0.3049 -1.5425
 5793SOL    HW228839   1.151   2.353   3.147  0.2901  1.3294  0.4419
 5794SOL     OW28840   3.235   3.736   7.525  0.0556 -0.1543 -0.2273
 5794SOL    HW128841   3.255   3.654   7.571  0.9357 -0.9314 -1.9733
 5794SOL    HW228842   3.247   3.800   7.595  0.9661 -0.6532  0.0731
 5795SOL     OW28843   0.017   0.289   5.489  0.5898  0.6707  0.3282
 5795SOL    HW128844   0.015   0.275   5.394 -1.7722  0.7886  0.3708
 5795SOL    HW228845   0.096   0.343   5.492  0.6762  0.6288 -1.0706
 5796SOL     OW28846   1.151   3.207   5.708  0.0371 -0.6764 -0.8212
 5796SOL    HW128847   1.152   3.293   5.667  2.7085 -0.5636 -0.4933
 5796SOL    HW228848   1.073   3.212   5.763 -0.5738 -2.7171 -1.4751
 5797SOL     OW28849   3.109   0.749  12.482  0.5636  0.2008  0.5422
 5797SOL    HW128850   3.044   0.731  12.550 -1.4072 -0.1581 -1.4571
 5797SOL    HW228851   3.157   0.829  12.506  2.2122  0.2291 -2.8160
 5798SOL     OW28852   3.872   2.983   8.334 -0.7622  0.6228  0.0593
 5798SOL    HW128853   3.915   3.067   8.349 -1.4901  0.7414  1.5347
 5798SOL    HW228854   3.779   3.002   8.324 -1.1498 -0.8447  0.7793
 5799SOL     OW28855   0.763   4.387   1.476  0.2837  0.0740 -0.2664
 5799SOL    HW128856   0.766   4.299   1.512  1.6607  0.0152 -0.5267
 5799SOL    HW228857   0.747   4.442   1.553  0.1823  1.2453 -1.1197
 5800SOL     OW28858   3.179   2.096   3.704  0.6387  0.1852  0.1390
 5800SOL    HW128859   3.166   2.006   3.732  1.1246 -0.9357 -3.1900
 5800SOL    HW228860   3.128   2.103   3.624  1.8142  2.3790 -0.4334
 5801SOL     OW28861   1.984   1.794   3.930  0.5084  0.4067  0.3758
 5801SOL    HW128862   1.955   1.703   3.940 -0.7285  0.6555 -0.9831
 5801SOL    HW228863   2.039   1.798   4.009 -0.0006 -1.8513  0.8529
 5802SOL     OW28864   4.434   3.943   7.369  0.6257 -0.4656 -0.4898
 5802SOL    HW128865   4.375   3.909   7.436  0.6380  0.5327  0.0160
 5802SOL    HW228866   4.466   3.857   7.343 -1.4830 -0.9047 -1.6897
 5803SOL     OW28867   0.256   3.865   7.744  0.2458  0.2421 -0.0893
 5803SOL    HW128868   0.252   3.958   7.764  0.9187  0.6851 -2.0201
 5803SOL    HW228869   0.162   3.847   7.748  0.2164  0.3922 -0.1359
 5804SOL     OW28870   0.362   3.974   9.375  0.9511 -0.0162 -0.2641
 5804SOL    HW128871   0.288   3.983   9.435  1.5610  1.1280  0.3266
 5804SOL    HW228872   0.333   4.029   9.303 -2.1840 -0.6441  0.5426
 5805SOL     OW28873   2.169   3.965  13.235  0.3349  0.5959 -0.3895
 5805SOL    HW128874   2.264   3.957  13.225  0.4695  0.7159  0.9115
 5805SOL    HW228875   2.149   4.046  13.187  1.9330 -0.1493 -2.3107
 5806SOL     OW28876   2.971   1.350  14.700 -0.3789 -0.7200 -0.0798
 5806SOL    HW128877   2.912   1.299  14.756 -0.7677  1.9235  1.8980
 5806SOL    HW228878   3.051   1.343  14.753 -0.6069 -1.5477  0.1619
 5807SOL     OW28879   3.396   2.747  15.029  0.0476  0.6381 -0.2628
 5807SOL    HW128880   3.319   2.740  15.086 -0.0334  2.1816 -0.1932
 5807SOL    HW228881   3.350   2.733  14.946 -0.1953  0.6295 -0.1280
 5808SOL     OW28882   3.580   0.388   3.890  0.2655  0.0277  0.4010
 5808SOL    HW128883   3.648   0.456   3.891  1.7986 -1.5256  0.3385
 5808SOL    HW228884   3.588   0.357   3.800  0.9061 -0.1865  0.5337
 5809SOL     OW28885   4.706   4.257   2.027 -0.2851  0.1219 -0.2278
 5809SOL    HW128886   4.660   4.340   2.012 -0.8084  0.0527  1.0048
 5809SOL    HW228887   0.059   4.288   1.980 -1.6807  2.1070 -1.2402
 5810SOL     OW28888   0.378   0.246   8.217 -0.0385  0.0248 -0.1524
 5810SOL    HW128889   0.393   0.242   8.123  1.6327 -1.9353  0.1994
 5810SOL    HW228890   0.458   0.295   8.233 -0.0067  0.1911 -0.8484
 5811SOL     OW28891   2.456   3.991   3.820  0.3997 -0.5021 -0.5715
 5811SOL    HW128892   2.550   3.998   3.800  0.5332 -1.3261 -0.2234
 5811SOL    HW228893   2.446   3.898   3.797  0.3706 -0.1259 -2.0701
 5812SOL     OW28894   2.979   0.593  10.404 -0.7443  0.5040  0.3350
 5812SOL    HW128895   2.958   0.504  10.375 -0.1096  0.5021 -0.1032
 5812SOL    HW228896   2.999   0.631  10.319  0.0660 -0.0486  0.2772
 5813SOL     OW28897   2.328   4.307   9.288 -0.4810  0.0159 -0.0801
 5813SOL    HW128898   2.388   4.279   9.219 -1.5431 -0.6785 -0.7203
 5813SOL    HW228899   2.383   4.374   9.329 -1.2928 -0.8846  2.4699
 5814SOL     OW28900   0.033   2.336  11.003 -0.2823  0.1529 -0.3272
 5814SOL    HW128901   0.087   2.271  10.958 -0.0839  1.2649 -1.6624
 5814SOL    HW228902   4.681   2.335  10.945  0.0670 -0.6551 -0.7720
 5815SOL     OW28903   0.502   2.353   1.844 -0.3816  0.4279  0.0210
 5815SOL    HW128904   0.517   2.268   1.802  0.1106 -0.1736  1.4438
 5815SOL    HW228905   0.549   2.413   1.786  1.2669 -2.9782 -2.1608
 5816SOL     OW28906   3.053   4.193  14.033  0.1159  0.2389 -0.1436
 5816SOL    HW128907   2.989   4.228  13.971 -0.6943 -4.1037 -1.7814
 5816SOL    HW228908   3.010   4.111  14.058  1.1311  0.0440  0.9380
 5817SOL     OW28909   0.309   1.694   2.408 -0.4704 -0.7376  0.2662
 5817SOL    HW128910   0.385   1.636   2.406 -0.3484 -0.5811  0.3282
 5817SOL    HW228911   0.325   1.741   2.326  2.7608  0.3235  1.5272
 5818SOL     OW28912   3.963   4.339  14.100  0.3083 -0.4453 -0.3121
 5818SOL    HW128913   3.983   4.418  14.050  0.5150 -1.1207 -1.3005
 5818SOL    HW228914   3.893   4.300  14.048 -0.7591  2.0005 -0.6982
 5819SOL     OW28915   3.489   0.759   7.670  0.1625 -0.3009  0.1429
 5819SOL    HW128916   3.530   0.687   7.622  0.3196  0.7219 -1.2475
 5819SOL    HW228917   3.422   0.796   7.612 -0.0952 -4.4807 -2.2271
 5820SOL     OW28918   0.626   3.386  17.045 -0.1573 -0.0275 -0.1480
 5820SOL    HW128919   0.559   3.336  16.998 -1.3788  1.8838 -0.4439
 5820SOL    HW228920   0.682   3.399  16.968  0.5080 -0.5713  0.2387
 5821SOL     OW28921   1.181   4.389  13.039 -0.2886 -0.3890  0.3031
 5821SOL    HW128922   1.174   4.432  13.124 -0.7230  3.1375 -1.5245
 5821SOL    HW228923   1.108   4.416  12.984 -0.2482  0.2190  0.5474
 5822SOL     OW28924   1.868   2.504   6.921  0.2055  0.2056 -0.3574
 5822SOL    HW128925   1.897   2.438   6.983  1.5563  0.6599 -0.4994
 5822SOL    HW228926   1.818   2.556   6.983 -0.5303 -0.7326 -0.1641
 5823SOL     OW28927   2.301   3.104  15.234  0.0185 -0.1389  0.5193
 5823SOL    HW128928   2.351   3.175  15.274 -1.5305  0.0982  2.0344
 5823SOL    HW228929   2.279   3.149  15.153  0.3007  0.7685  0.9483
 5824SOL     OW28930   4.706   1.474   6.665  0.0509  0.3510 -0.5292
 5824SOL    HW128931   4.650   1.396   6.666 -0.8485  1.0284  1.5325
 5824SOL    HW228932   4.654   1.548   6.633  0.9058  1.6953  1.1837
 5825SOL     OW28933   2.426   2.148   2.113 -0.2415 -0.1679  0.3180
 5825SOL    HW128934   2.484   2.118   2.043 -3.4484 -4.2421 -0.5985
 5825SOL    HW228935   2.459   2.091   2.182  0.1129 -0.8454 -0.4090
 5826SOL     OW28936   3.403   2.553   4.087 -0.1657  0.0066  0.1046
 5826SOL    HW128937   3.389   2.588   3.999  2.0668 -1.6298 -0.9032
 5826SOL    HW228938   3.391   2.630   4.142 -2.6478 -0.0449 -0.3510
 5827SOL     OW28939   0.794   1.140   7.392  0.0248 -0.0113 -0.1011
 5827SOL    HW128940   0.874   1.187   7.367  0.8815 -1.0857  0.6095
 5827SOL    HW228941   0.760   1.195   7.462 -1.1717 -2.0846  0.9602
 5828SOL     OW28942   4.175   3.970  17.695 -0.0106  0.1539  0.2794
 5828SOL    HW128943   4.244   3.953   0.062  0.5214  0.1726 -0.2895
 5828SOL    HW228944   4.160   3.879  17.670  0.5243  0.1931 -0.1798
 5829SOL     OW28945   2.303   4.171   6.088  0.6092 -0.0087  0.6871
 5829SOL    HW128946   2.385   4.133   6.118  1.3292  0.1053 -1.1000
 5829SOL    HW228947   2.278   4.116   6.013 -1.3581  0.8581  0.6982
 5830SOL     OW28948   3.298   3.602   3.963  0.3684  0.4429  0.1585
 5830SOL    HW128949   3.364   3.534   3.949 -1.3419 -1.6470  2.3510
 5830SOL    HW228950   3.232   3.561   4.018  0.1893 -0.7221 -0.9377
 5831SOL     OW28951   2.081   2.344   0.934 -0.0500  0.0604  0.1902
 5831SOL    HW128952   2.090   2.292   0.855  0.3556 -0.7649  0.7742
 5831SOL    HW228953   1.987   2.348   0.917  0.0305  1.0074 -0.0383
 5832SOL     OW28954   2.669   0.413  15.797  0.3268  0.2272  0.5205
 5832SOL    HW128955   2.655   0.493  15.747  0.0099  0.1277  0.4482
 5832SOL    HW228956   2.763   0.418  15.810 -0.0653  2.8693  2.1374
 5833SOL     OW28957   3.849   1.716   7.360  0.3478 -0.6750  0.0799
 5833SOL    HW128958   3.860   1.801   7.403  2.3018 -1.2783  0.7828
 5833SOL    HW228959   3.900   1.656   7.415  0.0810 -2.4460 -1.5832
 5834SOL     OW28960   2.076   4.401   5.859 -0.1291  0.3547 -1.2397
 5834SOL    HW128961   2.000   4.416   5.916  0.8644  0.8024 -0.0191
 5834SOL    HW228962   2.066   4.461   5.785 -0.1392  0.2506 -1.3234
 5835SOL     OW28963   3.486   3.093   8.633  0.0734  0.1792 -0.0100
 5835SOL    HW128964   3.422   3.088   8.562  1.2895  0.3383 -1.1174
 5835SOL    HW228965   3.514   3.185   8.635  3.7927 -0.9774  0.9120
 5836SOL     OW28966   0.861   1.103   6.805 -0.2196  0.1162  0.1178
 5836SOL    HW128967   0.795   1.162   6.839 -0.1512 -1.0049  2.1760
 5836SOL    HW228968   0.883   1.051   6.883 -2.3427  0.6668  1.0778
 5837SOL     OW28969   2.222   2.002   4.945  0.0413  0.0393 -0.3947
 5837SOL    HW128970   2.300   2.035   4.989 -1.0639 -1.1785  2.5025
 5837SOL    HW228971   2.234   2.015   4.851  0.4239 -0.5662 -0.4315
 5838SOL     OW28972   0.798   2.640   8.924 -0.0686 -0.4336  0.4121
 5838SOL    HW128973   0.814   2.660   9.016  1.1211  1.1395 -0.1511
 5838SOL    HW228974   0.883   2.635   8.882 -0.0281 -1.5955  0.6398
 5839SOL     OW28975   0.661   3.009   3.552  0.3966  0.2532  0.1235
 5839SOL    HW128976   0.662   3.101   3.579 -1.3898  0.3605 -0.1856
 5839SOL    HW228977   0.629   3.015   3.462 -0.8149 -2.0170  0.4001
 5840SOL     OW28978   3.651   3.685  10.168  0.2503  0.1996  0.0213
 5840SOL    HW128979   3.646   3.595  10.139 -1.5801 -0.1203  1.2955
 5840SOL    HW228980   3.666   3.676  10.262  1.5731  2.1958  0.0071
 5841SOL     OW28981   2.559   3.773  14.094 -0.6452 -0.1252 -0.7483
 5841SOL    HW128982   2.643   3.817  14.080  0.3620 -0.7834  3.1633
 5841SOL    HW228983   2.504   3.852  14.088  0.7900  0.9838  0.7267
 5842SOL     OW28984   4.285   1.701  15.661  0.2392  0.2461  0.1143
 5842SOL    HW128985   4.289   1.786  15.704  2.5786  0.0544  0.2936
 5842SOL    HW228986   4.376   1.686  15.634  0.5768 -0.8334  1.8868
 5843SOL     OW28987   1.131   0.244   3.511 -0.4874  0.5167  0.2358
 5843SOL    HW128988   1.135   0.163   3.460  0.2877 -0.2841  1.5530
 5843SOL    HW228989   1.044   0.235   3.550 -0.5343  0.1623  0.0552
 5844SOL     OW28990   0.671   2.291   5.649  0.1509  0.3860 -0.3789
 5844SOL    HW128991   0.685   2.341   5.569 -1.0277 -0.6772 -1.2442
 5844SOL    HW228992   0.610   2.225   5.617 -0.1006 -0.4914  1.8767
 5845SOL     OW28993   3.461   1.863   4.146  0.0526  0.3065  0.1333
 5845SOL    HW128994   3.383   1.887   4.095 -0.6179 -1.5106  0.3203
 5845SOL    HW228995   3.411   1.853   4.227  1.4606 -2.0572  0.6956
 5846SOL     OW28996   0.425   0.094   2.843 -0.2859  0.6777  0.0792
 5846SOL    HW128997   0.490   0.102   2.913  3.2734 -2.2515 -2.9498
 5846SOL    HW228998   0.462   0.152   2.777 -2.5518  1.5291 -0.4686
 5847SOL     OW28999   1.781   0.765   7.448  0.2172  0.2268 -0.7313
 5847SOL    HW129000   1.757   0.790   7.359  0.1989 -0.7167 -0.9856
 5847SOL    HW229001   1.790   0.671   7.431 -1.9452  0.0616 -0.9060
 5848SOL     OW29002   3.673   4.718  15.781  0.2100  0.1363  0.4522
 5848SOL    HW129003   3.740   0.060  15.796 -0.4138  0.6589  0.9536
 5848SOL    HW229004   3.600   0.054  15.763  0.8626  0.3194 -1.5265
 5849SOL     OW29005   3.751   2.050   2.230  0.1260 -0.5858  0.1462
 5849SOL    HW129006   3.660   2.061   2.205  0.4011  0.4259 -0.3810
 5849SOL    HW229007   3.744   2.030   2.324  1.5632  0.8516  0.5685
 5850SOL     OW29008   1.306   2.136  11.564 -0.1630  0.3753 -0.2279
 5850SOL    HW129009   1.225   2.183  11.546 -1.4703 -1.8684 -0.1952
 5850SOL    HW229010   1.371   2.164  11.499 -0.8600  0.3135 -0.9506
 5851SOL     OW29011   1.573   2.178   5.130  0.0929  0.1844  0.4055
 5851SOL    HW129012   1.603   2.202   5.218 -0.3598  0.5375  0.4660
 5851SOL    HW229013   1.569   2.084   5.146 -0.5399  0.5200  2.2400
 5852SOL     OW29014   0.891   1.881   2.772 -0.2323  0.1836 -0.3147
 5852SOL    HW129015   0.976   1.925   2.782 -0.3709  0.0194  1.7405
 5852SOL    HW229016   0.920   1.792   2.756  0.2827  0.1102  1.0304
 5853SOL     OW29017   3.918   2.059   3.312 -0.3639 -0.2669  0.0165
 5853SOL    HW129018   3.883   2.087   3.396  0.3597  1.2574 -0.1920
 5853SOL    HW229019   3.939   1.967   3.330 -1.0554  0.0182  2.3174
 5854SOL     OW29020   2.829   0.108  16.858 -0.2660 -0.3315 -0.4692
 5854SOL    HW129021   2.909   0.157  16.873 -0.1249 -0.9063  0.6361
 5854SOL    HW229022   2.771   0.149  16.922 -0.6985  0.0760 -1.1197
 5855SOL     OW29023   1.192   1.702  11.328 -0.1545 -0.6581  0.6594
 5855SOL    HW129024   1.141   1.622  11.315 -1.3526  0.4291 -1.4694
 5855SOL    HW229025   1.275   1.656  11.341 -0.0918 -1.1462 -1.4088
 5856SOL     OW29026   3.463   3.070   7.169  0.3942 -0.3333  0.1136
 5856SOL    HW129027   3.505   2.993   7.132  1.7234  1.6006 -2.3702
 5856SOL    HW229028   3.405   3.098   7.098  0.6263 -2.3288 -0.8441
 5857SOL     OW29029   2.260   3.175   5.534  0.0481 -0.0921  0.2476
 5857SOL    HW129030   2.189   3.195   5.473  0.6600  0.1361 -0.3889
 5857SOL    HW229031   2.329   3.236   5.507 -0.2595  1.0096  1.9222
 5858SOL     OW29032   2.377   0.871   7.049  0.4447  0.0200 -0.1703
 5858SOL    HW129033   2.285   0.850   7.064 -0.3554  0.8757 -3.8463
 5858SOL    HW229034   2.417   0.811   7.112  0.3682 -0.5602 -0.6765
 5859SOL     OW29035   3.308   4.115   2.154 -0.0139 -0.5362 -0.2601
 5859SOL    HW129036   3.308   4.204   2.189  0.4694 -0.9477  0.7864
 5859SOL    HW229037   3.399   4.112   2.125  0.0283  0.7287 -0.2572
 5860SOL     OW29038   4.460   3.639  13.569 -0.5969  0.1803 -0.1173
 5860SOL    HW129039   4.555   3.645  13.567 -0.3959 -3.1483 -0.9201
 5860SOL    HW229040   4.450   3.721  13.521 -1.2740 -0.0562 -0.3887
 5861SOL     OW29041   0.657   0.334  12.486  0.5584  0.3870 -0.2422
 5861SOL    HW129042   0.629   0.267  12.549 -2.4482  0.9965 -0.9367
 5861SOL    HW229043   0.586   0.398  12.488  1.2738  1.1740  0.4213
 5862SOL     OW29044   4.129   1.117   5.841  0.0064  0.3778  0.7598
 5862SOL    HW129045   4.136   1.213   5.845  1.6836  0.3957 -2.4569
 5862SOL    HW229046   4.034   1.112   5.850  0.0994 -0.4988  1.1766
 5863SOL     OW29047   3.342   3.872   0.722  0.5135 -0.2463 -0.6280
 5863SOL    HW129048   3.284   3.864   0.797 -0.5732  2.1648 -1.1814
 5863SOL    HW229049   3.318   3.958   0.685  1.2654  0.9847  1.7533
 5864SOL     OW29050   2.823   2.511   7.458  0.2072 -0.0001  0.4786
 5864SOL    HW129051   2.879   2.509   7.380 -2.6677 -0.8556 -1.5841
 5864SOL    HW229052   2.744   2.468   7.423  0.6183  0.2592 -0.7580
 5865SOL     OW29053   1.513   3.400   8.640  0.5257 -0.1361 -0.2191
 5865SOL    HW129054   1.558   3.483   8.657  0.4567  0.2465 -1.8881
 5865SOL    HW229055   1.462   3.396   8.721 -0.1591 -0.0417 -0.6443
 5866SOL     OW29056   2.404   4.647  12.424  0.7337 -0.4114  0.1827
 5866SOL    HW129057   2.340   4.630  12.355 -0.9018 -1.3220  1.9440
 5866SOL    HW229058   2.349   4.703  12.478  2.3033  0.7399  0.5688
 5867SOL     OW29059   3.047   1.381   1.800 -0.2078 -0.0689 -0.5113
 5867SOL    HW129060   3.066   1.325   1.875 -0.4373  0.8957  0.2750
 5867SOL    HW229061   3.112   1.451   1.803 -1.4495  1.1015 -0.8885
 5868SOL     OW29062   0.807   1.999  16.036 -0.4547 -0.0730 -0.9727
 5868SOL    HW129063   0.714   2.020  16.034 -0.2074  1.1177  0.0878
 5868SOL    HW229064   0.835   2.085  16.005 -0.6558  1.0558  1.9953
 5869SOL     OW29065   3.453   1.397  11.989 -0.2854 -0.1109  0.1928
 5869SOL    HW129066   3.538   1.433  12.016 -1.7151  0.4416  3.9439
 5869SOL    HW229067   3.487   1.323  11.939  2.2726  0.3340  1.2403
 5870SOL     OW29068   3.496   3.212   8.009  0.5870 -0.2013  0.4152
 5870SOL    HW129069   3.489   3.305   8.030 -1.6741 -0.5954  1.3915
 5870SOL    HW229070   3.421   3.215   7.950 -0.9832 -1.7398  2.3368
 5871SOL     OW29071   2.025   3.257   8.533 -0.3986 -0.0995 -0.0417
 5871SOL    HW129072   1.975   3.332   8.564 -0.9598 -0.4502 -0.1145
 5871SOL    HW229073   2.011   3.255   8.438 -0.6318  1.2842 -0.0343
 5872SOL     OW29074   3.083   0.112   3.466  0.2104 -0.2322 -0.6214
 5872SOL    HW129075   3.078   0.140   3.558 -1.1745 -1.5225 -0.3125
 5872SOL    HW229076   3.148   0.042   3.474 -1.4234 -1.5185  1.3397
 5873SOL     OW29077   1.941   2.605   7.535  0.2079 -0.4092 -0.2890
 5873SOL    HW129078   1.850   2.594   7.507  0.0628 -0.5912  0.2720
 5873SOL    HW229079   1.949   2.555   7.616  0.6753  0.9767  0.5187
 5874SOL     OW29080   4.539   4.056  10.842 -0.7148 -0.1284  0.0024
 5874SOL    HW129081   4.531   3.965  10.814 -0.5932  0.0244 -0.5404
 5874SOL    HW229082   4.611   4.053  10.905 -0.6355  1.3695 -0.0122
 5875SOL     OW29083   4.018   2.470   8.743 -0.1595  0.0249 -0.1580
 5875SOL    HW129084   3.937   2.421   8.757  0.4981 -0.4392  2.0528
 5875SOL    HW229085   4.082   2.415   8.789  0.2805  0.6488 -0.0355
 5876SOL     OW29086   2.842   0.878   7.087  0.8633 -0.6089  0.7432
 5876SOL    HW129087   2.935   0.869   7.105  1.6546  3.2646 -1.2986
 5876SOL    HW229088   2.841   0.862   6.992 -1.2384  0.4803  0.5787
 5877SOL     OW29089   3.727   4.136   8.447  0.1527 -0.0950 -0.0319
 5877SOL    HW129090   3.772   4.080   8.510 -0.3205 -0.1493  0.2597
 5877SOL    HW229091   3.719   4.215   8.500  0.6896 -2.2216  3.2233
 5878SOL     OW29092   3.578   2.759   1.539 -0.2763 -0.0730 -0.1921
 5878SOL    HW129093   3.579   2.698   1.465  0.1610 -1.0006  0.5715
 5878SOL    HW229094   3.483   2.770   1.544 -0.3999 -1.4268  0.4697
 5879SOL     OW29095   1.567   2.649   5.295 -0.6118  0.2945 -0.0605
 5879SOL    HW129096   1.476   2.678   5.299 -0.5427  0.5890 -0.6415
 5879SOL    HW229097   1.550   2.567   5.341 -2.3354 -0.2921 -1.7694
 5880SOL     OW29098   3.587   0.403   7.742 -0.2467  0.1585  0.1423
 5880SOL    HW129099   3.523   0.341   7.705 -0.2291 -0.1241  0.5879
 5880SOL    HW229100   3.567   0.472   7.679 -1.2823  1.7066  2.1628
 5881SOL     OW29101   0.782   0.697   1.614  0.1674  0.0838 -0.1678
 5881SOL    HW129102   0.808   0.663   1.699 -0.0231  0.3769  0.0055
 5881SOL    HW229103   0.689   0.700   1.632  0.1439  1.0851 -0.4719
 5882SOL     OW29104   0.322   2.782   3.452  0.3106  0.0327  0.3148
 5882SOL    HW129105   0.245   2.835   3.432  0.1029  0.8254  3.1432
 5882SOL    HW229106   0.387   2.839   3.410  0.7387  0.1013  1.0642
 5883SOL     OW29107   4.071   2.782   5.916  0.2826  0.1419  0.4810
 5883SOL    HW129108   4.028   2.862   5.948  0.1721  1.1228 -2.1025
 5883SOL    HW229109   4.159   2.812   5.893  1.1785 -1.5059  1.7735
 5884SOL     OW29110   3.494   1.417   6.964  0.2452 -0.3353 -0.8173
 5884SOL    HW129111   3.449   1.470   7.030  4.2812  1.9168  0.1694
 5884SOL    HW229112   3.431   1.404   6.894  0.3237  0.8733 -1.1079
 5885SOL     OW29113   2.517   0.215   4.027 -0.7568  0.3961  0.7005
 5885SOL    HW129114   2.446   0.197   3.965 -1.2902 -0.5012  1.5767
 5885SOL    HW229115   2.480   0.293   4.068  1.6577  1.6858  0.4356
 5886SOL     OW29116   2.920   1.584  15.450 -0.1497  0.3611 -0.5616
 5886SOL    HW129117   2.998   1.637  15.472 -1.9845  1.7438  2.6651
 5886SOL    HW229118   2.868   1.598  15.530 -0.5958 -1.5599 -0.5125
 5887SOL     OW29119   2.866   3.230   1.771 -0.2233  0.6478  0.5892
 5887SOL    HW129120   2.827   3.145   1.791  0.1452  0.6006  1.1026
 5887SOL    HW229121   2.953   3.205   1.800 -1.0322 -1.3485  1.3057
 5888SOL     OW29122   3.622   0.376   5.740 -0.1234  0.3396  0.3076
 5888SOL    HW129123   3.655   0.372   5.650  2.0689  1.2622  1.0896
 5888SOL    HW229124   3.552   0.313   5.720 -0.2001  0.3238  0.6319
 5889SOL     OW29125   4.497   4.196   2.451 -0.6896  0.1555  0.7428
 5889SOL    HW129126   4.475   4.222   2.541 -0.6491 -1.6618  1.2886
 5889SOL    HW229127   4.551   4.120   2.474  1.2329  0.9160 -1.3523
 5890SOL     OW29128   1.346   1.732   5.257 -0.7973 -0.2438 -0.3661
 5890SOL    HW129129   1.392   1.706   5.177  0.6354 -0.6119  0.5669
 5890SOL    HW229130   1.420   1.769   5.306 -1.4049  0.7019 -0.1730
 5891SOL     OW29131   2.680   1.678   8.574 -0.2294  0.0036  0.6175
 5891SOL    HW129132   2.589   1.650   8.565 -0.2546 -0.1344  1.2585
 5891SOL    HW229133   2.709   1.677   8.483  2.3447  1.1484  1.4352
 5892SOL     OW29134   2.617   3.349   8.089 -0.7788  0.4409 -0.1809
 5892SOL    HW129135   2.632   3.285   8.158 -0.0008  0.6440 -0.1591
 5892SOL    HW229136   2.527   3.333   8.061 -1.1300  1.4423  0.4057
 5893SOL     OW29137   0.240   4.020   7.103  0.0493 -0.1081  0.5676
 5893SOL    HW129138   0.197   3.998   7.021  2.3592  1.2248 -1.0026
 5893SOL    HW229139   0.285   4.100   7.077  1.4205 -0.9248  0.4029
 5894SOL     OW29140   2.393   2.954   5.906 -0.0915  0.2802 -0.3324
 5894SOL    HW129141   2.328   2.958   5.836  1.2365 -3.9825 -1.8323
 5894SOL    HW229142   2.458   3.023   5.890  1.5368 -0.7695  1.8399
 5895SOL     OW29143   3.005   3.767   8.292  0.3495 -0.1671  0.0519
 5895SOL    HW129144   3.087   3.759   8.339  1.1667 -2.7517 -1.8429
 5895SOL    HW229145   3.035   3.797   8.206  1.1368 -0.5095  0.2106
 5896SOL     OW29146   1.839   0.969   8.418 -0.6574  0.1195  0.2801
 5896SOL    HW129147   1.753   0.955   8.378 -0.9185  0.0556  0.8672
 5896SOL    HW229148   1.845   0.902   8.485 -0.7421 -0.9490 -0.7828
 5897SOL     OW29149   2.871   3.439   8.188  0.1698 -0.2051  0.1540
 5897SOL    HW129150   2.776   3.443   8.180  0.2753  3.3943  0.9604
 5897SOL    HW229151   2.890   3.531   8.173  0.7386  0.0667  2.5822
 5898SOL     OW29152   1.974   2.952  13.872 -0.5023 -0.0399 -0.0882
 5898SOL    HW129153   2.065   2.968  13.897 -0.7902  0.9895  0.3045
 5898SOL    HW229154   1.972   2.959  13.776 -0.6551 -1.0168 -0.1516
 5899SOL     OW29155   0.805   3.763   5.281  0.3503  0.0600  0.2665
 5899SOL    HW129156   0.838   3.811   5.357 -0.7683 -0.4486  1.0677
 5899SOL    HW229157   0.869   3.774   5.211  0.0314  0.2293  0.0001
 5900SOL     OW29158   4.448   0.541   2.796 -0.1653  0.7832 -0.2265
 5900SOL    HW129159   4.536   0.548   2.833 -0.9916  0.3238  1.8093
 5900SOL    HW229160   4.406   0.469   2.841  1.4282 -1.2872 -2.0268
 5901SOL     OW29161   3.149   1.283   2.020 -0.5951  0.1524  0.2561
 5901SOL    HW129162   3.238   1.304   2.048 -0.4998  0.2720 -0.1330
 5901SOL    HW229163   3.109   1.258   2.103 -1.1765  3.2106  0.8918
 5902SOL     OW29164   0.577   3.449   4.713  0.0321  0.0063 -0.4794
 5902SOL    HW129165   0.665   3.468   4.680  0.3345 -0.5187  0.0081
 5902SOL    HW229166   0.542   3.388   4.648 -3.8394  1.0707  0.6102
 5903SOL     OW29167   2.158   3.826   4.908 -0.2776 -0.2525 -0.4388
 5903SOL    HW129168   2.165   3.746   4.959 -3.2082 -0.7764 -0.8936
 5903SOL    HW229169   2.242   3.828   4.862 -0.6218 -2.0884 -1.1342
 5904SOL     OW29170   1.275   0.386   2.682 -0.6688  0.3475  0.5965
 5904SOL    HW129171   1.212   0.327   2.723  0.3387 -1.5832 -0.6281
 5904SOL    HW229172   1.305   0.336   2.607  1.2028  0.3802  1.3282
 5905SOL     OW29173   3.477   1.602  10.557  0.0818  0.5684 -0.2854
 5905SOL    HW129174   3.521   1.616  10.474  2.0357  0.6773  0.7677
 5905SOL    HW229175   3.408   1.539  10.536  0.1242  0.4498 -0.0770
 5906SOL     OW29176   4.516   1.115  13.480 -0.1243  0.0718  0.1532
 5906SOL    HW129177   4.585   1.181  13.486 -1.4446  1.2597  2.1444
 5906SOL    HW229178   4.494   1.117  13.387 -1.4472 -1.6734  0.4195
 5907SOL     OW29179   3.996   3.277  13.245  0.1376  0.2830 -0.0813
 5907SOL    HW129180   4.057   3.257  13.173  0.9168  0.7447  0.4590
 5907SOL    HW229181   3.945   3.347  13.204 -2.2876 -0.6895  1.2640
 5908SOL     OW29182   1.417   0.054  17.293 -0.3384 -0.4725  0.0547
 5908SOL    HW129183   1.405   4.702  17.351  0.4852 -0.6624 -0.0265
 5908SOL    HW229184   1.511   0.071  17.292  0.2837 -3.8973 -0.7573
 5909SOL     OW29185   2.885   2.018   2.243  0.6893 -0.6294 -0.1575
 5909SOL    HW129186   2.899   2.110   2.266 -1.1490  0.0873 -1.9307
 5909SOL    HW229187   2.889   2.021   2.147 -1.6268 -0.2902 -0.2478
 5910SOL     OW29188   0.645   1.257  12.482  0.5096 -0.6141 -0.2612
 5910SOL    HW129189   0.669   1.171  12.519 -2.8292 -1.4856 -0.1283
 5910SOL    HW229190   0.559   1.238  12.445  0.3529 -0.9335  0.2543
 5911SOL     OW29191   0.370   3.699  11.455 -0.3222 -0.3966  0.0480
 5911SOL    HW129192   0.413   3.635  11.512 -1.2493 -0.0134  1.1860
 5911SOL    HW229193   0.331   3.746  11.529 -0.1985 -0.2681  0.0307
 5912SOL     OW29194   1.269   0.512   2.317  0.2848 -0.7120  0.5611
 5912SOL    HW129195   1.242   0.590   2.366  0.0612  2.1401 -4.0256
 5912SOL    HW229196   1.188   0.461   2.318 -0.0111 -0.3143 -2.1829
 5913SOL     OW29197   0.792   3.358   1.998 -0.4435 -0.5030 -0.6814
 5913SOL    HW129198   0.748   3.439   2.022  0.8714 -0.0631  0.2899
 5913SOL    HW229199   0.876   3.383   1.959 -0.3489  2.0302  1.1790
 5914SOL     OW29200   4.648   2.793   0.896 -0.0552  0.4897 -0.5369
 5914SOL    HW129201   4.593   2.805   0.818  1.3721 -1.1089 -1.7860
 5914SOL    HW229202   0.004   2.838   0.870  2.1708 -2.1453  1.7948
 5915SOL     OW29203   4.224   1.709  14.936 -0.4815 -0.3128  0.4393
 5915SOL    HW129204   4.212   1.627  14.887 -0.1741  0.2726 -0.6126
 5915SOL    HW229205   4.173   1.694  15.016 -0.3241 -0.8228  0.4435
 5916SOL     OW29206   4.457   3.842  16.473 -0.3206  0.0377  0.8169
 5916SOL    HW129207   4.400   3.874  16.403  0.7800 -2.9582 -1.3996
 5916SOL    HW229208   4.537   3.841  16.421 -0.2694 -1.6298  0.9410
 5917SOL     OW29209   4.713   0.742   2.973  0.1604  0.1713 -0.4549
 5917SOL    HW129210   0.037   0.818   3.007 -1.5556  2.0031 -2.1408
 5917SOL    HW229211   0.045   0.676   3.014 -0.2064  0.2920  0.2368
 5918SOL     OW29212   3.915   2.431   2.910  0.5601  0.6415  0.2412
 5918SOL    HW129213   3.914   2.354   2.967  0.6814 -0.7254 -1.6182
 5918SOL    HW229214   3.862   2.489   2.964  0.6550  1.1756 -0.2390
 5919SOL     OW29215   3.410   3.326   6.357  0.1854  0.5079  0.2534
 5919SOL    HW129216   3.381   3.258   6.418 -0.4467  0.7999  0.2858
 5919SOL    HW229217   3.347   3.313   6.286  0.2953 -2.1134  0.6305
 5920SOL     OW29218   0.214   4.655   1.724  0.1830  0.0984  0.1386
 5920SOL    HW129219   0.292   4.671   1.777  0.9368  0.5948 -1.1402
 5920SOL    HW229220   0.246   4.657   1.634  2.8115 -0.0702  1.0562
 5921SOL     OW29221   0.990   2.789   9.262  0.0717  0.7372 -0.3039
 5921SOL    HW129222   0.919   2.730   9.237 -1.7947  2.3286  1.2670
 5921SOL    HW229223   1.053   2.761   9.196 -1.7778  0.1730 -1.8344
 5922SOL     OW29224   2.863   0.282   9.432 -0.2798 -0.9452 -0.6673
 5922SOL    HW129225   2.796   0.308   9.494 -0.0866 -2.0525  0.0163
 5922SOL    HW229226   2.941   0.326   9.465 -1.1810  0.6226 -0.6405
 5923SOL     OW29227   4.011   1.933   4.189 -0.3512 -0.6789 -0.1997
 5923SOL    HW129228   3.919   1.908   4.200 -0.3959  0.5913  2.2526
 5923SOL    HW229229   4.052   1.866   4.244 -2.1619 -2.1663 -0.6590
 5924SOL     OW29230   3.198   4.657   5.779 -0.6452  0.0195 -0.1019
 5924SOL    HW129231   3.173   4.651   5.871  3.1279 -0.1508  0.8919
 5924SOL    HW229232   3.186   0.028   5.777 -0.5501  0.0485  0.6687
 5925SOL     OW29233   1.849   3.916   4.172  0.2047 -0.2268 -0.2894
 5925SOL    HW129234   1.855   3.956   4.259  2.6526 -0.0652 -0.5242
 5925SOL    HW229235   1.939   3.934   4.147  0.2558 -1.8805 -1.3035
 5926SOL     OW29236   0.986   2.156   9.969  0.5413  0.8754  0.1543
 5926SOL    HW129237   0.965   2.125   9.881  2.2351 -1.3283  0.5009
 5926SOL    HW229238   0.973   2.072  10.012  1.0641  0.4161 -0.5704
 5927SOL     OW29239   0.898   4.713   6.856  0.8922  0.3986 -0.2827
 5927SOL    HW129240   0.838   0.063   6.869  1.4327  1.2660 -2.7406
 5927SOL    HW229241   0.885   4.694   6.763 -1.3316  2.2088 -0.3552
 5928SOL     OW29242   2.581   0.297  16.887  0.5306  0.4090  0.3844
 5928SOL    HW129243   2.581   0.308  16.982  0.5934 -2.1582  0.6884
 5928SOL    HW229244   2.544   0.385  16.874 -0.3798  0.1683  1.3585
 5929SOL     OW29245   0.349   0.408  13.583 -0.0657  0.5234  0.0065
 5929SOL    HW129246   0.353   0.414  13.488  0.4696 -1.8909 -0.1408
 5929SOL    HW229247   0.443   0.401  13.601 -0.3629 -0.5064  1.1888
 5930SOL     OW29248   0.491   1.499   3.656  0.0617  0.9275  0.4997
 5930SOL    HW129249   0.412   1.553   3.666 -0.1075  0.8511 -0.5024
 5930SOL    HW229250   0.462   1.439   3.587 -2.0428 -1.4401  3.4364
 5931SOL     OW29251   3.847   2.522  16.046  0.5271 -0.2715 -0.2796
 5931SOL    HW129252   3.752   2.509  16.052  0.3919  0.9732  0.4452
 5931SOL    HW229253   3.871   2.566  16.128  0.0818 -2.1524  0.8618
 5932SOL     OW29254   0.982   0.150   5.183  0.3222  0.0890 -0.3525
 5932SOL    HW129255   0.919   0.203   5.136 -0.2051  0.1964  0.4684
 5932SOL    HW229256   0.979   0.189   5.270  1.9209 -1.3055  0.3411
 5933SOL     OW29257   1.622   0.524   2.981  0.2584 -0.5507 -0.4596
 5933SOL    HW129258   1.547   0.546   2.925  0.4837  1.5510  0.0436
 5933SOL    HW229259   1.594   0.576   3.057  1.4165 -0.1285 -0.3278
 5934SOL     OW29260   2.921   1.837  16.752  0.3317 -0.1848 -0.1626
 5934SOL    HW129261   2.918   1.894  16.829 -3.5634  0.6412 -0.9174
 5934SOL    HW229262   3.013   1.841  16.724  0.8191 -1.8800  1.1954
 5935SOL     OW29263   2.997   0.831   4.320  0.0864  0.3747 -0.3134
 5935SOL    HW129264   3.061   0.891   4.357  0.1835  0.5668 -0.7847
 5935SOL    HW229265   2.965   0.785   4.397  1.1648  0.8617  0.4377
 5936SOL     OW29266   4.426   1.777  17.424  0.7166 -0.1588 -0.3034
 5936SOL    HW129267   4.376   1.800  17.502 -0.4418 -1.6033 -0.6008
 5936SOL    HW229268   4.414   1.683  17.409 -1.7670 -0.1115  1.2975
 5937SOL     OW29269   2.698   0.778   4.874  0.3057 -0.3169 -0.0822
 5937SOL    HW129270   2.758   0.730   4.931  1.4579 -1.7787 -2.5304
 5937SOL    HW229271   2.645   0.712   4.830  0.1162 -0.4905  0.4091
 5938SOL     OW29272   0.421   4.122   8.153  0.3709 -0.6004  0.1646
 5938SOL    HW129273   0.406   4.059   8.223  1.7600 -1.5840 -0.4279
 5938SOL    HW229274   0.413   4.067   8.075 -0.0978  1.6937 -1.4085
 5939SOL     OW29275   1.932   4.017  16.420  0.0356 -0.6252  0.2124
 5939SOL    HW129276   1.867   4.008  16.351 -0.3679  0.0115  0.5068
 5939SOL    HW229277   1.951   4.111  16.422  0.4583 -0.6982 -0.4379
 5940SOL     OW29278   3.966   4.306  16.792 -0.4838 -0.8752  0.1073
 5940SOL    HW129279   3.902   4.303  16.721 -1.4586 -2.7982  1.0395
 5940SOL    HW229280   3.983   4.399  16.785  1.9637 -1.4453 -1.4927
 5941SOL     OW29281   3.124   1.000   4.508  0.0496 -0.3463  0.1932
 5941SOL    HW129282   3.126   0.922   4.563  0.0666  0.4945  1.3962
 5941SOL    HW229283   3.079   1.062   4.565  0.3818  0.4337 -0.3985
 5942SOL     OW29284   2.842   1.279  10.832  0.1094 -0.0881 -0.1372
 5942SOL    HW129285   2.918   1.243  10.878  0.6415  0.3522 -0.6636
 5942SOL    HW229286   2.831   1.237  10.746 -1.1059 -1.7764  0.8493
 5943SOL     OW29287   1.685   2.440   4.732  0.0835  0.2431 -0.0362
 5943SOL    HW129288   1.703   2.478   4.818  0.8665 -0.1261 -0.0316
 5943SOL    HW229289   1.599   2.402   4.752 -1.1874  2.7747 -0.7611
 5944SOL     OW29290   4.238   2.955  11.611 -0.7830  0.5166 -0.2327
 5944SOL    HW129291   4.244   2.942  11.516  2.5281 -3.1861  0.4760
 5944SOL    HW229292   4.283   3.038  11.618  0.8146 -0.4290  0.6334
 5945SOL     OW29293   4.256   0.538   6.637 -0.4200 -0.0439  0.1534
 5945SOL    HW129294   4.321   0.576   6.696 -0.3902 -0.3606  0.3279
 5945SOL    HW229295   4.285   0.447   6.641  0.7158  0.3001 -0.2793
 5946SOL     OW29296   1.922   4.218   0.857 -0.0868  0.0821 -0.3884
 5946SOL    HW129297   1.909   4.145   0.917 -0.7428  1.3847  1.0505
 5946SOL    HW229298   1.863   4.277   0.903 -1.7282 -0.3080 -2.0295
 5947SOL     OW29299   0.055   1.143   6.490  0.0874 -0.6143 -0.2510
 5947SOL    HW129300   4.701   1.159   6.544  0.0160  0.7023 -0.7450
 5947SOL    HW229301   0.079   1.232   6.463  0.9922 -1.2753 -1.6029
 5948SOL     OW29302   2.272   1.124   6.893 -0.4954 -0.4532 -0.1936
 5948SOL    HW129303   2.286   1.218   6.883 -1.6513 -0.3829 -1.1023
 5948SOL    HW229304   2.211   1.102   6.823 -0.0112 -1.5838 -0.2646
 5949SOL     OW29305   2.829   3.436  17.287 -0.6068  0.5487 -0.1274
 5949SOL    HW129306   2.892   3.483  17.342 -0.1316  0.3144 -0.4632
 5949SOL    HW229307   2.758   3.423  17.349 -0.3206  3.3284  0.7762
 5950SOL     OW29308   2.449   2.875   4.584 -0.5735 -0.5281  0.1208
 5950SOL    HW129309   2.403   2.858   4.501  2.0126  0.8852 -1.5982
 5950SOL    HW229310   2.490   2.959   4.561 -1.0342 -0.3223  0.0480
 5951SOL     OW29311   4.636   4.107   6.912 -0.3679  0.4823  0.4290
 5951SOL    HW129312   4.616   4.123   7.004 -1.3621 -3.8922  0.9618
 5951SOL    HW229313   4.598   4.020   6.905 -0.0941  0.5251 -1.4854
 5952SOL     OW29314   1.456   0.858   1.972  0.4639  0.5836  0.3038
 5952SOL    HW129315   1.485   0.949   1.982 -0.3129  0.6180  2.3025
 5952SOL    HW229316   1.485   0.846   1.881 -2.4911  0.9888 -0.6703
 5953SOL     OW29317   3.835   2.253   5.771  0.0016 -0.6899 -0.0637
 5953SOL    HW129318   3.924   2.280   5.793 -0.2809  0.7828 -0.7457
 5953SOL    HW229319   3.798   2.316   5.709 -0.3192 -0.5311  0.2866
 5954SOL     OW29320   0.689   1.877   6.421 -0.0495  0.5000  0.0479
 5954SOL    HW129321   0.617   1.910   6.367  0.5823  2.0376  0.1408
 5954SOL    HW229322   0.677   1.944   6.488 -0.1859  0.4188  0.1053
 5955SOL     OW29323   1.968   3.697  17.515  0.1302  0.3933  0.4438
 5955SOL    HW129324   2.063   3.703  17.503 -0.1291 -1.1483 -2.3320
 5955SOL    HW229325   1.954   3.604  17.534 -0.6508  0.2046 -1.1275
 5956SOL     OW29326   1.506   0.393   5.837 -0.9727  0.5916 -0.4674
 5956SOL    HW129327   1.504   0.476   5.788 -0.8445  2.1921  2.2793
 5956SOL    HW229328   1.475   0.428   5.920 -1.1448 -2.2374  0.6602
 5957SOL     OW29329   0.500   4.574   7.753  0.4025 -0.2251 -0.2318
 5957SOL    HW129330   0.556   4.651   7.756 -0.7191  0.5978 -0.6922
 5957SOL    HW229331   0.539   4.529   7.678  2.6634  0.4260  0.5407
 5958SOL     OW29332   0.246   0.222   4.698  0.7572  0.1499 -0.0398
 5958SOL    HW129333   0.305   0.245   4.770  1.3140  1.5552 -0.9350
 5958SOL    HW229334   0.210   0.137   4.723 -1.8790  1.0399 -0.8739
 5959SOL     OW29335   0.596   1.331   4.541  0.0646  0.5089  0.4966
 5959SOL    HW129336   0.543   1.402   4.506 -0.7506 -0.8754 -1.0407
 5959SOL    HW229337   0.546   1.305   4.619 -2.8309 -0.2721 -1.6498
 5960SOL     OW29338   1.828   1.839  14.563  0.4352  0.6746  0.8374
 5960SOL    HW129339   1.781   1.878  14.489  0.5723  1.5432  1.2105
 5960SOL    HW229340   1.764   1.773  14.588 -1.2155  1.8145 -0.3818
 5961SOL     OW29341   3.883   1.038   7.111 -0.3663  0.3459  0.1750
 5961SOL    HW129342   3.912   1.096   7.041 -1.2232  0.5506 -0.0116
 5961SOL    HW229343   3.787   1.036   7.103 -0.3067 -0.2934 -0.4500
 5962SOL     OW29344   1.985   2.220   2.963  0.5579 -0.1815 -0.1378
 5962SOL    HW129345   1.913   2.283   2.967 -0.1987 -0.8392 -3.1537
 5962SOL    HW229346   1.958   2.142   3.012 -0.8285  0.5853  0.3131
 5963SOL     OW29347   1.428   1.237   3.281  0.7754 -0.1401 -0.5341
 5963SOL    HW129348   1.400   1.290   3.356 -0.2163  0.8025 -1.5769
 5963SOL    HW229349   1.523   1.247   3.289  0.5861 -0.3940  1.9645
 5964SOL     OW29350   0.028   0.146   6.622 -0.5607  0.3213  0.7698
 5964SOL    HW129351   0.086   0.142   6.545  2.2804 -1.2016  3.0240
 5964SOL    HW229352   4.702   0.065   6.610 -0.5365  0.3717  0.3179
 5965SOL     OW29353   4.219   4.585   7.822 -0.6513 -0.1843  0.1361
 5965SOL    HW129354   4.138   4.634   7.834  0.2705  1.0269  1.4435
 5965SOL    HW229355   4.235   4.592   7.728 -0.5310  0.2789  0.1919
 5966SOL     OW29356   1.898   3.209  17.690  0.2597  0.2518 -0.0414
 5966SOL    HW129357   1.952   3.149  17.638  1.8680  1.1883  0.5383
 5966SOL    HW229358   1.911   3.175   0.081  0.7788 -0.2179 -0.2942
 5967SOL     OW29359   3.310   2.757   3.612 -0.1731  0.5649 -0.2254
 5967SOL    HW129360   3.403   2.767   3.595 -0.1986 -1.1998 -1.3776
 5967SOL    HW229361   3.298   2.681   3.554  0.6729  1.2981 -1.3653
 5968SOL     OW29362   1.357   4.278   0.550 -0.3052 -0.4170  0.3023
 5968SOL    HW129363   1.426   4.299   0.613  0.1419  0.7314 -0.5597
 5968SOL    HW229364   1.276   4.311   0.589  1.2023  1.8950  1.4878
 5969SOL     OW29365   4.030   0.114  14.971  0.7180 -0.0770  0.8377
 5969SOL    HW129366   4.088   0.043  14.945  0.5833  0.1748 -0.1427
 5969SOL    HW229367   4.080   0.184  14.930  0.5038 -0.3626  0.0926
 5970SOL     OW29368   2.841   0.621   5.052 -0.0753 -0.2360  0.0306
 5970SOL    HW129369   2.832   0.651   5.142  2.0318 -0.5347  0.3469
 5970SOL    HW229370   2.764   0.565   5.046 -2.1588  2.8990 -2.6856
 5971SOL     OW29371   0.134   2.194  13.587  0.0661 -0.1066 -0.0899
 5971SOL    HW129372   0.144   2.265  13.650 -3.1497  1.1331 -1.0135
 5971SOL    HW229373   0.207   2.208  13.526  1.0845 -0.0178  1.1449
 5972SOL     OW29374   0.646   3.215   8.780  0.3680  0.0879  0.4137
 5972SOL    HW129375   0.644   3.189   8.872  0.7851  1.9738  0.9660
 5972SOL    HW229376   0.636   3.310   8.792  1.7653  0.4701 -1.4517
 5973SOL     OW29377   2.527   0.485   1.577  0.6136  0.5862  0.3960
 5973SOL    HW129378   2.526   0.414   1.514 -0.7827  1.5904 -0.7255
 5973SOL    HW229379   2.596   0.475   1.642 -0.8356 -1.4819  1.6555
 5974SOL     OW29380   2.855   1.495   6.510 -0.6631 -0.2646  0.0568
 5974SOL    HW129381   2.785   1.544   6.555  0.9037  0.3568  1.8118
 5974SOL    HW229382   2.827   1.406   6.533 -0.6490 -0.1602  0.4843
 5975SOL     OW29383   3.779   0.776   7.756 -0.3568  0.4446  0.2736
 5975SOL    HW129384   3.779   0.709   7.687  0.2292  0.7161  0.0064
 5975SOL    HW229385   3.684   0.791   7.750 -0.4104 -0.6468 -1.7243
 5976SOL     OW29386   3.483   1.979  16.745 -0.3497 -0.0881 -0.1412
 5976SOL    HW129387   3.535   2.024  16.810 -3.0117  1.4654  0.8903
 5976SOL    HW229388   3.398   1.976  16.789  0.1439 -0.1258  0.7928
 5977SOL     OW29389   1.446   0.430  15.916  0.1225 -0.5312 -0.1635
 5977SOL    HW129390   1.495   0.511  15.929  0.7586 -1.1759  1.5845
 5977SOL    HW229391   1.355   0.453  15.895  0.6077  2.2240  0.7711
 5978SOL     OW29392   3.855   2.395   6.603  0.0352 -0.6794 -0.0401
 5978SOL    HW129393   3.779   2.377   6.547  1.3538  0.7674 -2.3063
 5978SOL    HW229394   3.878   2.304   6.622  3.4419  0.3978  0.9115
 5979SOL     OW29395   2.713   2.335   3.357  0.4957  0.4396  0.1885
 5979SOL    HW129396   2.793   2.292   3.327 -0.9137 -1.9997 -0.0704
 5979SOL    HW229397   2.740   2.348   3.447 -0.0285 -0.6272  0.5086
 5980SOL     OW29398   3.489   4.259   4.962  0.0295  0.9017 -0.3111
 5980SOL    HW129399   3.541   4.252   5.042  0.2651  1.5091 -0.4087
 5980SOL    HW229400   3.429   4.326   4.994 -0.4967  0.0341  0.4989
 5981SOL     OW29401   4.648   4.636   4.903  0.4741  0.3929 -0.6310
 5981SOL    HW129402   4.562   4.671   4.927  0.8800 -0.5553  2.2705
 5981SOL    HW229403   4.711   4.659   4.971 -0.0235  2.0861 -0.7478
 5982SOL     OW29404   1.128   4.285   4.318 -0.0879 -0.0112 -0.4917
 5982SOL    HW129405   1.136   4.256   4.409 -0.4612 -0.3283 -0.5593
 5982SOL    HW229406   1.200   4.243   4.271 -2.2977 -1.5587 -2.5000
 5983SOL     OW29407   4.536   2.496   1.914 -0.0224 -0.6664  0.4692
 5983SOL    HW129408   4.453   2.529   1.947  0.3856  1.0726 -0.2526
 5983SOL    HW229409   4.603   2.554   1.948 -0.9947  0.9569 -0.4000
 5984SOL     OW29410   3.080   3.620   8.624  0.5756  0.1541 -0.2742
 5984SOL    HW129411   3.131   3.553   8.669  1.3174  0.0689 -1.2568
 5984SOL    HW229412   3.011   3.571   8.579 -0.2798  0.5285  0.6127
 5985SOL     OW29413   0.240   0.748   6.026  0.1137 -0.2372  0.7843
 5985SOL    HW129414   0.171   0.683   6.013 -0.7553  1.0254 -0.9714
 5985SOL    HW229415   0.188   0.827   6.010 -1.3576 -1.2759  0.3989
 5986SOL     OW29416   3.786   0.034  11.115  0.2463  0.1008 -0.7729
 5986SOL    HW129417   3.835   4.699  11.173  0.9362  1.5679  0.1344
 5986SOL    HW229418   3.706   4.706  11.103  1.6114 -1.9425 -1.0068
 5987SOL     OW29419   4.413   2.075   3.386 -0.5613 -0.0811 -0.3066
 5987SOL    HW129420   4.359   2.096   3.462 -1.9447 -1.9841 -0.7891
 5987SOL    HW229421   4.380   1.991   3.354 -1.7738  0.1939  0.2353
 5988SOL     OW29422   4.143   0.785   3.017 -0.1303 -0.2018  0.0864
 5988SOL    HW129423   4.105   0.827   3.094 -0.7372  0.0068 -0.3175
 5988SOL    HW229424   4.199   0.720   3.059  1.6299  2.9922  2.6494
 5989SOL     OW29425   3.949   2.265  12.138  0.3252  0.1552 -0.1763
 5989SOL    HW129426   4.015   2.283  12.205 -1.2511 -1.5762  1.8618
 5989SOL    HW229427   3.893   2.341  12.125  0.7736  0.5452  0.1975
 5990SOL     OW29428   3.441   1.243   1.994  0.3065 -0.4883 -0.6241
 5990SOL    HW129429   3.503   1.202   1.934 -1.8281 -1.3064 -2.2521
 5990SOL    HW229430   3.417   1.166   2.045  0.4784  0.0134  0.2109
 5991SOL     OW29431   1.463   0.649   5.294 -0.0621  0.1122  0.1299
 5991SOL    HW129432   1.418   0.587   5.351 -0.5408  0.3163 -0.0313
 5991SOL    HW229433   1.399   0.691   5.237 -2.0222  0.7790  2.8055
 5992SOL     OW29434   1.195   4.232  15.322 -0.4536  0.2735  0.4327
 5992SOL    HW129435   1.225   4.166  15.384 -1.0347  1.4563  1.9741
 5992SOL    HW229436   1.161   4.166  15.261  1.6250  1.5021 -2.0397
 5993SOL     OW29437   2.660   1.562   6.780 -0.3584  0.2538 -0.3869
 5993SOL    HW129438   2.633   1.503   6.850 -0.1750 -1.4847 -1.7724
 5993SOL    HW229439   2.573   1.603   6.778  0.3576  1.8265  0.3270
 5994SOL     OW29440   2.741   1.513   5.234  0.6738  0.0603  0.6194
 5994SOL    HW129441   2.779   1.584   5.286  0.4498  1.9326 -1.7343
 5994SOL    HW229442   2.805   1.443   5.242 -0.5380 -1.3701 -2.2787
 5995SOL     OW29443   3.798   1.963   7.470 -0.0426 -0.2910  0.1060
 5995SOL    HW129444   3.788   2.034   7.534  2.2599 -0.2203  0.4155
 5995SOL    HW229445   3.707   1.950   7.445 -0.5933  1.2589  1.2648
 5996SOL     OW29446   4.239   1.904   3.288  0.0177 -0.4622 -0.8926
 5996SOL    HW129447   4.166   1.841   3.281 -0.3406 -0.1422 -0.0246
 5996SOL    HW229448   4.234   1.952   3.205  0.6644 -1.0718 -1.2876
 5997SOL     OW29449   1.423   2.190  15.483  0.3817  0.4612  0.1834
 5997SOL    HW129450   1.417   2.277  15.522 -1.2319  0.8052 -0.8723
 5997SOL    HW229451   1.511   2.197  15.446  0.1130  1.7715 -0.1869
 5998SOL     OW29452   2.617   0.247   9.620 -0.1987 -0.1850 -0.4459
 5998SOL    HW129453   2.587   0.317   9.562 -1.1532  0.9951  1.4382
 5998SOL    HW229454   2.633   0.174   9.561 -1.9092  0.1200 -1.2750
 5999SOL     OW29455   0.374   0.240   0.668  0.3088  0.2202  0.2704
 5999SOL    HW129456   0.412   0.310   0.616  1.4003 -1.2231 -0.8642
 5999SOL    HW229457   0.281   0.245   0.646 -0.2454 -0.4999  2.3994
 6000SOL     OW29458   2.008   0.486  13.179  0.4128 -0.2162 -0.8322
 6000SOL    HW129459   2.091   0.479  13.227  0.2388 -0.0803 -0.5144
 6000SOL    HW229460   1.950   0.509  13.252 -0.1002 -1.7378 -0.7516
 6001SOL     OW29461   3.273   4.177  14.724  0.3446  0.6118 -0.1167
 6001SOL    HW129462   3.273   4.120  14.647 -2.7794  0.4891 -0.0495
 6001SOL    HW229463   3.367   4.183  14.736 -0.0376  1.1964  2.6542
 6002SOL     OW29464   4.578   3.642  13.272  0.0062  0.9404 -0.3851
 6002SOL    HW129465   4.605   3.552  13.252 -0.2277  0.8605 -0.3429
 6002SOL    HW229466   4.663   3.677  13.299 -0.3114 -0.2620  2.1758
 6003SOL     OW29467   0.143   3.571   1.843 -0.1297 -0.2689 -0.6991
 6003SOL    HW129468   0.176   3.656   1.814 -2.6163  0.5599 -1.1121
 6003SOL    HW229469   0.215   3.548   1.902 -0.1371  0.6570 -0.3237
 6004SOL     OW29470   3.983   3.358   0.979  0.4968 -0.8269 -0.2192
 6004SOL    HW129471   3.899   3.332   1.017  1.1325 -2.9112 -0.2947
 6004SOL    HW229472   3.966   3.357   0.885  2.4301  0.2189 -0.5870
 6005SOL     OW29473   3.800   3.820   3.719 -0.1729  0.0942 -0.1607
 6005SOL    HW129474   3.746   3.743   3.708  0.9516 -0.5904 -0.9382
 6005SOL    HW229475   3.761   3.865   3.794  1.6185  1.1034  0.1863
 6006SOL     OW29476   4.140   4.254   4.411  0.5659  0.0737  0.0477
 6006SOL    HW129477   4.072   4.303   4.458 -1.2297 -2.3409 -0.0407
 6006SOL    HW229478   4.085   4.195   4.360 -0.2499 -0.1032  1.1248
 6007SOL     OW29479   2.583   2.843   6.421  0.1327  0.4473 -0.2524
 6007SOL    HW129480   2.550   2.754   6.423  1.4466 -0.1184 -3.5614
 6007SOL    HW229481   2.506   2.900   6.427  0.8787  1.2104  1.9871
 6008SOL     OW29482   3.851   4.540   6.989  0.3477  0.2497  0.3933
 6008SOL    HW129483   3.885   4.458   6.952  0.4420  0.0850  0.8534
 6008SOL    HW229484   3.916   4.575   7.049 -0.5570 -0.2629  1.6838
 6009SOL     OW29485   3.961   2.101   5.348  0.5092 -0.4234  0.3413
 6009SOL    HW129486   3.958   2.006   5.338  0.5546 -0.2560 -1.2255
 6009SOL    HW229487   3.880   2.127   5.392 -0.5542 -0.3957 -1.6070
 6010SOL     OW29488   1.395   2.886   3.205 -0.1395  0.1528 -0.1150
 6010SOL    HW129489   1.345   2.945   3.261  0.6974 -0.6699  1.5157
 6010SOL    HW229490   1.352   2.803   3.224 -1.6506  1.3322  1.6659
 6011SOL     OW29491   4.508   1.575   7.195 -0.0277 -0.2385 -0.0947
 6011SOL    HW129492   4.533   1.525   7.272 -2.6234 -0.0437  0.8807
 6011SOL    HW229493   4.415   1.552   7.189 -0.0374  0.1645 -1.4766
 6012SOL     OW29494   2.233   0.877   8.565 -0.2777 -0.2218  0.4741
 6012SOL    HW129495   2.239   0.969   8.542 -0.2888  0.1735  2.0241
 6012SOL    HW229496   2.235   0.846   8.475  3.0489 -0.0675  0.4989
 6013SOL     OW29497   2.724   2.995   7.792  0.3859 -0.3830  0.2614
 6013SOL    HW129498   2.810   3.036   7.800 -1.0567  2.2952  2.2252
 6013SOL    HW229499   2.663   3.065   7.770 -0.0335 -1.9864 -3.5999
 6014SOL     OW29500   0.497   2.060   2.598 -0.6289  0.2791  0.6174
 6014SOL    HW129501   0.412   2.022   2.620 -0.3497 -1.3629 -1.0970
 6014SOL    HW229502   0.551   1.986   2.625 -0.6215 -0.0459 -0.2789
 6015SOL     OW29503   4.589   4.342   2.983  0.0244 -0.5741  0.4225
 6015SOL    HW129504   4.525   4.272   2.975  0.4934 -1.0970  1.2425
 6015SOL    HW229505   4.661   4.298   3.029  0.5673  0.9964  1.0947
 6016SOL     OW29506   1.257   0.020   3.180  0.2189  0.4997 -0.1945
 6016SOL    HW129507   1.312   0.054   3.251 -0.1193  1.1406 -0.2377
 6016SOL    HW229508   1.195   4.697   3.235 -0.4663  0.4938 -0.9714
 6017SOL     OW29509   0.920   1.482  14.484  0.3323 -0.2386  0.7590
 6017SOL    HW129510   0.864   1.405  14.480  0.1084 -0.0654  0.5226
 6017SOL    HW229511   0.966   1.485  14.400 -1.1314 -1.3179 -0.0647
 6018SOL     OW29512   4.187   2.842  10.135  0.3417  0.3822  0.2227
 6018SOL    HW129513   4.217   2.903  10.202 -0.1253  0.7483  0.1033
 6018SOL    HW229514   4.148   2.897  10.067  0.7509  2.7937  1.9438
 6019SOL     OW29515   1.199   4.333   7.377  0.0323 -0.3460 -0.2091
 6019SOL    HW129516   1.270   4.310   7.437 -0.6641  3.2858  2.0207
 6019SOL    HW229517   1.126   4.277   7.404 -0.5927  0.4743 -0.1778
 6020SOL     OW29518   3.398   1.655   8.472  0.1263  0.3478 -0.4792
 6020SOL    HW129519   3.328   1.694   8.524  1.7306 -1.3709  2.9445
 6020SOL    HW229520   3.452   1.601   8.530  0.4550 -1.1138 -2.1492
 6021SOL     OW29521   2.014   3.200  11.089  0.0282 -0.4685  0.0700
 6021SOL    HW129522   2.099   3.223  11.127 -0.9216  0.6776  1.5158
 6021SOL    HW229523   2.027   3.209  10.994  1.1971 -2.8708  0.0185
 6022SOL     OW29524   0.296   0.174   5.404  0.9674 -0.5678 -0.2764
 6022SOL    HW129525   0.283   0.267   5.386 -1.2775 -0.6675  0.9127
 6022SOL    HW229526   0.301   0.134   5.317 -0.9394  1.5038 -1.3512
 6023SOL     OW29527   0.189   0.950   7.270 -0.1259  0.2266 -0.0553
 6023SOL    HW129528   0.247   0.890   7.223  1.4275  2.5518 -1.1127
 6023SOL    HW229529   0.169   1.002   7.193  3.1537 -0.0111 -1.0828
 6024SOL     OW29530   3.224   0.353   7.696 -0.0004 -0.6788 -0.0491
 6024SOL    HW129531   3.174   0.374   7.617  0.2963 -1.6263 -0.4898
 6024SOL    HW229532   3.304   0.313   7.662 -0.1035 -0.6308 -0.3486
 6025SOL     OW29533   0.602   0.981   2.795  0.5582 -0.0726  0.1691
 6025SOL    HW129534   0.652   1.038   2.738  0.3761 -1.4089 -1.3131
 6025SOL    HW229535   0.539   1.048   2.824 -0.7576 -0.4710 -1.7450
 6026SOL     OW29536   2.501   2.034   2.633 -0.2602  0.0530  0.0133
 6026SOL    HW129537   2.467   2.034   2.722  0.4005  1.7861  0.2714
 6026SOL    HW229538   2.422   2.058   2.585  0.7979 -0.8203 -2.1506
 6027SOL     OW29539   1.455   0.915  10.911 -0.5632  0.5770  0.4211
 6027SOL    HW129540   1.519   0.981  10.884 -1.8348  2.1924  1.3309
 6027SOL    HW229541   1.509   0.866  10.972 -1.7738 -1.4442 -0.1167
 6028SOL     OW29542   0.439   2.841   7.661 -0.3570 -0.3854 -0.1332
 6028SOL    HW129543   0.353   2.805   7.684 -0.2903  0.1966  1.0008
 6028SOL    HW229544   0.488   2.823   7.741 -0.4127 -0.6693 -0.1616
 6029SOL     OW29545   3.257   0.545   1.660  0.5464  0.5705  0.0117
 6029SOL    HW129546   3.333   0.559   1.603  0.9975 -1.9026  0.0317
 6029SOL    HW229547   3.252   0.636   1.690  0.2921  0.8018 -0.7295
 6030SOL     OW29548   0.413   3.364   2.925 -0.2064  0.2337 -0.4463
 6030SOL    HW129549   0.355   3.432   2.959  1.6274  1.0857  0.9737
 6030SOL    HW229550   0.385   3.367   2.833  0.8835  0.1386 -0.7847
 6031SOL     OW29551   0.858   3.549   4.642 -0.5665 -0.0762 -0.0807
 6031SOL    HW129552   0.877   3.614   4.574 -0.2019  0.8640  0.9251
 6031SOL    HW229553   0.912   3.475   4.614  0.9658  1.0258  0.0028
 6032SOL     OW29554   2.662   2.196  10.743 -0.0892  0.0897 -0.1012
 6032SOL    HW129555   2.645   2.256  10.816  1.5835 -0.0122  0.3710
 6032SOL    HW229556   2.756   2.206  10.732  0.2280 -1.0241  1.5634
 6033SOL     OW29557   2.197   0.452   5.203  0.1187 -0.1714 -0.0886
 6033SOL    HW129558   2.197   0.432   5.297  1.8321 -0.8110 -0.2138
 6033SOL    HW229559   2.112   0.420   5.174  0.7995  1.0940 -3.4993
 6034SOL     OW29560   0.463   1.559   3.996  0.5234  0.3607  0.5774
 6034SOL    HW129561   0.373   1.571   3.965  0.8816  1.3312 -0.0895
 6034SOL    HW229562   0.491   1.650   4.007  0.9742  0.3179 -0.2574
 6035SOL     OW29563   1.548   3.630  12.180  0.2440 -0.5445  0.2597
 6035SOL    HW129564   1.494   3.709  12.182  0.2419 -0.5086 -1.5331
 6035SOL    HW229565   1.601   3.661  12.106 -0.0030  1.7098  1.0306
 6036SOL     OW29566   3.873   3.507   1.506 -0.5155  0.4096  0.0576
 6036SOL    HW129567   3.902   3.425   1.467  1.7168  0.3149  1.9185
 6036SOL    HW229568   3.949   3.539   1.554 -1.6117  2.1231  0.6414
 6037SOL     OW29569   0.509   0.108  13.552 -0.2080  0.5316 -0.1444
 6037SOL    HW129570   0.536   0.199  13.548 -0.2539  0.4655 -1.7313
 6037SOL    HW229571   0.427   0.109  13.503  0.3788  0.2873 -1.1243
 6038SOL     OW29572   2.796   0.620  11.495  0.1579 -0.3854 -0.2972
 6038SOL    HW129573   2.792   0.571  11.413  0.5285 -3.1896  1.3554
 6038SOL    HW229574   2.705   0.649  11.495  0.7389  1.4667  0.2207
 6039SOL     OW29575   0.441   3.452  14.752  0.2229 -0.1230  0.4609
 6039SOL    HW129576   0.395   3.482  14.830 -1.2821  0.1748 -0.5270
 6039SOL    HW229577   0.367   3.444  14.691  0.7499  0.0142 -0.1973
 6040SOL     OW29578   1.058   0.190   3.082  0.5007  0.0280  0.3855
 6040SOL    HW129579   1.119   0.154   3.147  1.2014  1.5145  0.5440
 6040SOL    HW229580   1.019   0.266   3.125  0.1627 -0.4756  0.9804
 6041SOL     OW29581   3.895   0.316   4.434 -0.2948 -0.8232 -0.4907
 6041SOL    HW129582   3.984   0.351   4.434 -0.7674  0.4181  1.5921
 6041SOL    HW229583   3.901   0.248   4.367 -0.3728  0.0020 -1.3306
 6042SOL     OW29584   1.385   4.406  13.905 -0.0756 -0.1243  0.3682
 6042SOL    HW129585   1.413   4.444  13.989  1.2658  0.3220 -0.2845
 6042SOL    HW229586   1.374   4.313  13.920  0.5818 -0.2152  0.2986
 6043SOL     OW29587   3.645   4.210  11.015 -0.0056  0.1716  0.0243
 6043SOL    HW129588   3.718   4.236  10.959  1.2170 -0.9265  1.1273
 6043SOL    HW229589   3.580   4.189  10.948 -0.6188  0.7499  0.4336
 6044SOL     OW29590   0.898   1.771  16.205 -0.5218 -0.5528 -0.8138
 6044SOL    HW129591   0.839   1.781  16.280  0.1641 -1.9917 -0.0839
 6044SOL    HW229592   0.890   1.858  16.166 -2.5845  0.1015  1.0186
 6045SOL     OW29593   0.729   0.564  17.656 -0.7569 -0.0484  0.0077
 6045SOL    HW129594   0.720   0.624  17.582 -0.1378  0.3027  0.2127
 6045SOL    HW229595   0.686   0.620   0.023  0.8213  1.1802 -0.0021
 6046SOL     OW29596   3.580   1.937   7.311  0.2099 -0.1911  0.6682
 6046SOL    HW129597   3.552   1.873   7.245 -0.9903 -0.2143  1.1893
 6046SOL    HW229598   3.576   2.015   7.256  1.2526 -1.7437 -1.6228
 6047SOL     OW29599   0.183   1.469  16.120  0.6345  0.5556  0.0398
 6047SOL    HW129600   0.246   1.540  16.107  0.7308  0.7858  1.6862
 6047SOL    HW229601   0.099   1.514  16.130  1.4534  2.0208  0.3763
 6048SOL     OW29602   1.715   3.393   1.978 -0.2111 -0.3419 -0.6801
 6048SOL    HW129603   1.641   3.440   2.015 -1.7195 -3.4293  0.2535
 6048SOL    HW229604   1.729   3.313   2.028 -3.2196 -0.0644  0.5843
 6049SOL     OW29605   2.447   4.451   6.437  0.0458 -0.3991 -0.1265
 6049SOL    HW129606   2.401   4.515   6.382  0.5778  2.3325  2.5951
 6049SOL    HW229607   2.373   4.403   6.472 -0.0723 -1.6667 -2.1023
 6050SOL     OW29608   0.688   3.524   5.460 -0.1325  0.1602 -0.2647
 6050SOL    HW129609   0.634   3.600   5.439  0.4976  0.2353 -1.6086
 6050SOL    HW229610   0.667   3.504   5.551 -0.9195  1.2673 -0.1985
 6051SOL     OW29611   2.479   1.020   4.623 -0.0098  1.0869 -0.0096
 6051SOL    HW129612   2.405   1.061   4.668 -1.7958 -1.8034 -0.3004
 6051SOL    HW229613   2.531   1.095   4.594 -0.2955  1.5788  0.7740
 6052SOL     OW29614   2.919   2.778  12.817  0.1724  0.1993 -0.5586
 6052SOL    HW129615   2.844   2.727  12.786 -1.5222  2.0526  0.4540
 6052SOL    HW229616   2.898   2.871  12.815 -1.3219 -0.1242 -0.2058
 6053SOL     OW29617   1.636   2.502  16.610  0.3138 -0.6815  0.6154
 6053SOL    HW129618   1.565   2.496  16.675 -0.3925  1.5098  0.0433
 6053SOL    HW229619   1.653   2.408  16.601 -0.7701 -1.0248  2.2078
 6054SOL     OW29620   2.711   3.537   8.495 -0.4797 -0.3476  0.0056
 6054SOL    HW129621   2.618   3.514   8.499 -1.3283  2.8546 -1.6325
 6054SOL    HW229622   2.721   3.602   8.565  0.0010  0.3967 -0.7618
 6055SOL     OW29623   4.607   0.613   8.757 -0.2403  0.2632  0.0606
 6055SOL    HW129624   4.611   0.672   8.681 -0.8453  0.6632  0.3419
 6055SOL    HW229625   4.578   0.685   8.812 -0.2813  0.6706 -0.4867
 6056SOL     OW29626   1.133   2.645   2.453 -0.0859 -0.9723 -0.3347
 6056SOL    HW129627   1.072   2.704   2.498  0.2802  0.1644 -1.3270
 6056SOL    HW229628   1.197   2.710   2.426  0.7486 -1.1736  1.2074
 6057SOL     OW29629   1.798   1.503   9.433  0.1979 -0.1514  0.0228
 6057SOL    HW129630   1.720   1.447   9.442 -0.1859  0.5509  1.1338
 6057SOL    HW229631   1.779   1.557   9.510  0.7407 -0.1417  0.1473
 6058SOL     OW29632   2.424   3.025   3.279 -0.0376  0.3154 -0.8442
 6058SOL    HW129633   2.486   2.994   3.212 -2.4304 -0.8337 -2.5273
 6058SOL    HW229634   2.473   3.083   3.336 -0.6078 -0.9248  0.9003
 6059SOL     OW29635   3.019   3.488   1.982  0.0415 -0.2939  0.3187
 6059SOL    HW129636   2.995   3.557   1.920 -2.0748 -0.2550  1.1716
 6059SOL    HW229637   3.109   3.511   2.005  1.3031 -3.2285 -1.7146
 6060SOL     OW29638   0.853   4.011   4.800  0.4240 -0.2232  0.0282
 6060SOL    HW129639   0.921   3.992   4.734 -0.9401 -0.9943 -1.1555
 6060SOL    HW229640   0.853   3.925   4.842 -0.3066  0.0024  0.4874
 6061SOL     OW29641   4.592   2.917   7.145  0.1937 -0.7309 -0.6417
 6061SOL    HW129642   4.504   2.933   7.113  1.1355  1.8514 -1.9714
 6061SOL    HW229643   4.581   2.944   7.237  1.7760 -0.7073 -0.4577
 6062SOL     OW29644   4.559   1.538   8.796 -0.1757 -0.1065 -0.3808
 6062SOL    HW129645   4.542   1.456   8.843 -2.3174 -0.7737 -2.3426
 6062SOL    HW229646   4.547   1.525   8.703  1.6986 -0.8030 -0.5310
 6063SOL     OW29647   2.673   1.006   9.857  0.2019  0.0933 -0.3521
 6063SOL    HW129648   2.754   1.020   9.907 -0.2662 -2.4734  1.1324
 6063SOL    HW229649   2.681   1.091   9.814 -1.9747  0.1837 -0.5389
 6064SOL     OW29650   3.734   4.087   5.586  0.1605 -0.3544  0.4844
 6064SOL    HW129651   3.669   4.098   5.517  0.9225  1.0537 -0.0056
 6064SOL    HW229652   3.768   4.175   5.598  0.2210 -0.2579 -0.4090
 6065SOL     OW29653   2.041   1.737   6.300 -0.2950  0.3360 -0.4781
 6065SOL    HW129654   1.985   1.791   6.356 -0.8763 -1.4228  0.6373
 6065SOL    HW229655   2.099   1.799   6.256  1.1645 -0.4259  0.3625
 6066SOL     OW29656   1.494   4.117   8.685 -0.4952 -0.0173  0.2125
 6066SOL    HW129657   1.404   4.123   8.654 -0.2786  1.5669 -0.1182
 6066SOL    HW229658   1.535   4.189   8.636  0.6964 -0.6526  0.2719
 6067SOL     OW29659   4.474   2.675   8.871 -0.1902  0.0839 -0.6974
 6067SOL    HW129660   4.486   2.766   8.898  0.2283  0.0888 -0.8909
 6067SOL    HW229661   4.514   2.619   8.937 -2.2705  2.6444  2.7289
 6068SOL     OW29662   2.434   3.917  13.269 -0.3170  0.0920 -0.0906
 6068SOL    HW129663   2.496   3.853  13.306  1.9361  1.6973 -1.0686
 6068SOL    HW229664   2.457   3.996  13.318 -1.0537 -0.8247  1.7336
 6069SOL     OW29665   0.224   2.680   6.281 -0.1032 -0.3360 -0.0473
 6069SOL    HW129666   0.129   2.691   6.284 -0.3234 -2.4660  1.1398
 6069SOL    HW229667   0.253   2.675   6.372  1.9084 -1.3828 -0.7618
 6070SOL     OW29668   0.248   4.225   3.775  0.3324 -0.0236  0.4018
 6070SOL    HW129669   0.322   4.263   3.727  0.5608  0.5214  1.1941
 6070SOL    HW229670   0.269   4.132   3.779 -1.7494 -0.4654  1.1103
 6071SOL     OW29671   3.997   1.655  15.443  0.2250  0.7485  0.2935
 6071SOL    HW129672   3.946   1.583  15.478 -0.0783  0.7179 -0.2022
 6071SOL    HW229673   4.081   1.610  15.434  0.0018 -0.1226  2.7609
 6072SOL     OW29674   0.803   0.663   3.348  0.0151  0.4395  0.1085
 6072SOL    HW129675   0.850   0.745   3.330 -1.9083  1.3306 -0.7877
 6072SOL    HW229676   0.795   0.667   3.443 -1.3230 -0.0253  0.0132
 6073SOL     OW29677   3.915   4.185   3.422 -0.3035  0.1491 -0.2152
 6073SOL    HW129678   3.846   4.185   3.489  0.9691  0.6856  1.1100
 6073SOL    HW229679   3.920   4.279   3.405  1.1081  0.0941 -0.1272
 6074SOL     OW29680   0.086   2.765   7.112  0.4563 -0.0508  0.3824
 6074SOL    HW129681   0.000   2.808   7.116  0.6014  0.3353 -0.7697
 6074SOL    HW229682   0.098   2.754   7.207  1.2486 -0.3545  0.2467
 6075SOL     OW29683   3.092   1.295   4.971 -0.4053 -0.4755 -0.4939
 6075SOL    HW129684   3.175   1.247   4.963  0.4127  0.7030  0.7881
 6075SOL    HW229685   3.052   1.283   4.885 -1.2533  2.1367 -0.4862
 6076SOL     OW29686   4.003   2.055   2.405 -0.1430 -0.1085 -0.0679
 6076SOL    HW129687   4.021   1.962   2.416 -1.8600 -0.7237 -2.5506
 6076SOL    HW229688   3.940   2.058   2.333 -0.0511  0.9167 -0.1159
 6077SOL     OW29689   1.452   3.380  13.789 -0.3035 -0.0063  0.1765
 6077SOL    HW129690   1.482   3.290  13.790  1.1857  0.5008  1.6254
 6077SOL    HW229691   1.541   3.414  13.794 -0.5053  0.7250 -1.3703
 6078SOL     OW29692   0.253   2.878  10.152  0.4271  0.0536  0.6870
 6078SOL    HW129693   0.343   2.903  10.168  0.1323  0.5737  1.4886
 6078SOL    HW229694   0.264   2.806  10.089 -3.8504  1.0425 -1.1903
 6079SOL     OW29695   4.645   0.142   0.365  0.0788  0.4849 -0.6968
 6079SOL    HW129696   4.594   0.222   0.350 -0.3216 -0.0369 -2.1055
 6079SOL    HW229697   4.567   0.087   0.369 -0.5852  1.4166 -0.9691
 6080SOL     OW29698   2.402   4.723   2.456 -0.0473 -0.2242  0.3198
 6080SOL    HW129699   2.453   0.027   2.380  1.4792 -1.7037  0.8048
 6080SOL    HW229700   2.326   4.676   2.420  1.3054 -2.0720 -0.1190
 6081SOL     OW29701   0.116   2.526  10.737  0.1969 -0.6022 -0.0624
 6081SOL    HW129702   0.177   2.475  10.683  0.1654 -0.8962  0.1792
 6081SOL    HW229703   0.132   2.484  10.822 -0.0625  0.2377  0.4005
 6082SOL     OW29704   0.461   2.006   6.331 -0.3626 -0.0546 -0.3512
 6082SOL    HW129705   0.422   2.060   6.262 -1.2709 -0.6793 -0.3263
 6082SOL    HW229706   0.390   2.010   6.396 -2.0385 -0.2944 -2.1469
 6083SOL     OW29707   2.182   1.782   1.204 -0.2023 -0.1084 -0.5969
 6083SOL    HW129708   2.094   1.744   1.207 -1.0113  1.6350 -1.7080
 6083SOL    HW229709   2.155   1.865   1.164  0.6485  1.1675  1.4752
 6084SOL     OW29710   0.625   4.269   1.177  0.1745  0.5147  0.8604
 6084SOL    HW129711   0.664   4.268   1.264 -0.0608  0.0926  0.9607
 6084SOL    HW229712   0.585   4.181   1.176 -0.1781  0.6830 -0.9182
 6085SOL     OW29713   2.912   4.483   6.664  0.7834 -0.2250 -0.4397
 6085SOL    HW129714   2.852   4.487   6.738  0.7670 -3.0818 -0.2791
 6085SOL    HW229715   2.951   4.395   6.669  0.8102 -0.1217  1.3106
 6086SOL     OW29716   4.536   3.258   1.544  0.2104 -0.1677 -0.2820
 6086SOL    HW129717   4.546   3.282   1.637  0.8403 -0.1607 -0.3535
 6086SOL    HW229718   4.586   3.314   1.486  1.1536 -1.0571 -0.3179
 6087SOL     OW29719   0.919   1.189  17.368 -0.3305  0.6998  0.0728
 6087SOL    HW129720   0.872   1.174  17.450  1.3777  0.5269  1.0233
 6087SOL    HW229721   0.969   1.263  17.402 -0.6277  0.9525 -0.0413
 6088SOL     OW29722   0.958   1.585   5.343  0.4420 -0.0569 -0.4634
 6088SOL    HW129723   0.925   1.653   5.284 -0.9904  1.9190  2.6200
 6088SOL    HW229724   1.033   1.636   5.376  0.5783 -0.8576  0.4803
 6089SOL     OW29725   3.077   0.660  14.930 -0.5492  0.1404  0.0723
 6089SOL    HW129726   3.098   0.608  15.008 -1.8581 -2.1009 -1.0648
 6089SOL    HW229727   3.168   0.686  14.913 -0.8452 -1.1098 -3.4612
 6090SOL     OW29728   4.178   4.247   5.694 -0.1415  0.0360 -0.4612
 6090SOL    HW129729   4.271   4.226   5.697 -0.1493  0.0478 -0.1840
 6090SOL    HW229730   4.166   4.317   5.758 -2.4478 -0.3558 -0.4858
 6091SOL     OW29731   1.879   3.681   6.482  0.1592 -0.4191  0.8634
 6091SOL    HW129732   1.869   3.741   6.556 -0.1751 -1.4168  1.6356
 6091SOL    HW229733   1.934   3.734   6.425 -0.6748 -2.3728 -1.7376
 6092SOL     OW29734   4.384   4.616  10.367  0.8009  0.1853  0.2758
 6092SOL    HW129735   4.477   4.596  10.374  1.1821  2.0153  0.4378
 6092SOL    HW229736   4.347   4.556  10.432  1.1810  0.3948  0.6834
 6093SOL     OW29737   3.308   3.285  16.460 -0.4926  0.3519  0.2490
 6093SOL    HW129738   3.327   3.228  16.385 -2.9274  0.8742 -0.7864
 6093SOL    HW229739   3.270   3.364  16.421  2.1783  1.7978  0.6135
 6094SOL     OW29740   1.066   1.260   3.084 -0.6462 -0.0199  0.2690
 6094SOL    HW129741   1.157   1.288   3.077 -0.7967 -0.0222 -1.6671
 6094SOL    HW229742   1.065   1.182   3.029  1.5718 -0.4958  0.8864
 6095SOL     OW29743   3.499   4.496   2.061 -0.3507 -0.1256 -0.8070
 6095SOL    HW129744   3.436   4.475   2.131 -3.1074 -0.4977 -3.3888
 6095SOL    HW229745   3.551   4.418   2.081 -1.4655 -1.1205 -1.7875
 6096SOL     OW29746   4.554   4.536   0.472  0.2577 -0.0106 -0.5442
 6096SOL    HW129747   4.594   4.449   0.460  0.1835 -0.3512  1.6832
 6096SOL    HW229748   4.506   4.520   0.553  0.0009 -0.4663 -0.7841
 6097SOL     OW29749   2.950   4.029   3.684  0.0642 -0.5550 -0.5889
 6097SOL    HW129750   3.023   4.029   3.746 -0.6647 -0.5239  0.2736
 6097SOL    HW229751   2.935   4.124   3.685  1.8088 -0.3148  1.5097
 6098SOL     OW29752   0.793   1.658   4.634 -0.1139  0.4328  0.3568
 6098SOL    HW129753   0.873   1.670   4.584 -0.3512  0.7614  0.0535
 6098SOL    HW229754   0.833   1.649   4.721  1.7991 -1.9996 -0.7664
 6099SOL     OW29755   1.481   4.708   8.032  0.1540  0.0376  0.3062
 6099SOL    HW129756   1.573   4.683   8.041 -0.0047 -0.0083  1.7826
 6099SOL    HW229757   1.453   4.679   7.945  1.8283 -0.3834 -0.0934
 6100SOL     OW29758   2.094   3.580   7.090 -0.5019 -0.2531 -0.3359
 6100SOL    HW129759   2.107   3.486   7.102 -1.8022 -0.4080 -0.0908
 6100SOL    HW229760   2.063   3.587   7.000  0.8453 -0.5019 -0.8084
 6101SOL     OW29761   0.595   4.131  10.554 -0.1510  0.1853 -0.8326
 6101SOL    HW129762   0.573   4.189  10.627  2.9454 -0.3415  0.5212
 6101SOL    HW229763   0.513   4.091  10.526 -0.1498  0.4050 -1.1431
 6102SOL     OW29764   0.167   4.518   5.696 -0.4216 -0.0442 -0.1575
 6102SOL    HW129765   0.198   4.605   5.671 -1.4091  0.2718 -0.2866
 6102SOL    HW229766   0.206   4.460   5.631  0.9382  0.8953 -0.1867
 6103SOL     OW29767   4.667   2.495   6.669 -0.6642  0.0680  0.1010
 6103SOL    HW129768   4.588   2.465   6.716 -0.0137 -2.4271 -0.4123
 6103SOL    HW229769   4.707   2.546   6.739  2.9031 -1.4894 -0.8516
 6104SOL     OW29770   3.490   1.543   4.624  0.0561 -0.3876 -0.1714
 6104SOL    HW129771   3.565   1.600   4.606 -0.8375  0.2893 -1.7819
 6104SOL    HW229772   3.437   1.599   4.681 -0.6455 -0.0061 -1.2020
 6105SOL     OW29773   0.212   3.275   0.940  0.2321 -0.1885  0.3335
 6105SOL    HW129774   0.183   3.241   0.856  1.9341  0.7332 -0.6169
 6105SOL    HW229775   0.144   3.238   0.996  0.5057  0.5831  1.1761
 6106SOL     OW29776   2.307   1.172   9.126 -0.5540 -0.2509  0.1856
 6106SOL    HW129777   2.223   1.129   9.140 -1.0796  0.9221  0.6155
 6106SOL    HW229778   2.290   1.237   9.058 -0.7727  1.2563  1.6663
 6107SOL     OW29779   4.029   0.397   9.268 -0.1267  0.8309  0.5326
 6107SOL    HW129780   3.962   0.465   9.263 -2.2673 -1.2260  1.1575
 6107SOL    HW229781   4.095   0.439   9.324  2.1471 -0.3921 -1.2640
 6108SOL     OW29782   1.497   1.280   2.264  0.5633 -0.2246  0.0179
 6108SOL    HW129783   1.437   1.271   2.190 -0.0925  0.1506  0.5099
 6108SOL    HW229784   1.525   1.370   2.247 -0.2939  0.5081  2.5532
 6109SOL     OW29785   4.106   0.815   6.667 -0.2482  0.1554  0.7638
 6109SOL    HW129786   4.015   0.815   6.696 -0.4932  0.5413 -0.0103
 6109SOL    HW229787   4.143   0.732   6.698  0.6470  0.8417  1.5537
 6110SOL     OW29788   4.032   2.917  16.866  0.0792  0.7784  0.3671
 6110SOL    HW129789   3.950   2.883  16.901  0.4571 -0.1775  0.3180
 6110SOL    HW229790   4.098   2.882  16.926  1.1407  0.5725 -0.9282
 6111SOL     OW29791   1.855   2.560   2.250  0.1198 -0.5301 -0.0138
 6111SOL    HW129792   1.914   2.587   2.180  0.2868  1.4761  0.8969
 6111SOL    HW229793   1.784   2.509   2.210 -1.8092 -0.4830  3.3375
 6112SOL     OW29794   3.983   0.377   0.571 -0.2297  0.4141  0.6415
 6112SOL    HW129795   3.931   0.428   0.633 -0.0612  1.0159  0.2832
 6112SOL    HW229796   3.923   0.306   0.548 -1.6667  1.2513  1.8229
 6113SOL     OW29797   0.453   2.982   4.609  0.1790 -0.0125 -0.1115
 6113SOL    HW129798   0.412   3.003   4.693  1.1835 -0.7993  0.5703
 6113SOL    HW229799   0.545   3.006   4.623 -0.2056  1.8941 -0.8645
 6114SOL     OW29800   3.038   4.358  16.043 -0.3411  0.0046  0.0293
 6114SOL    HW129801   3.018   4.370  15.950 -0.2039 -1.1891 -0.1591
 6114SOL    HW229802   2.972   4.412  16.086 -1.2932 -0.9720 -0.1966
 6115SOL     OW29803   0.301   4.509  11.711  0.1025  0.2744 -0.4412
 6115SOL    HW129804   0.253   4.543  11.636  0.6402  2.0915  0.0408
 6115SOL    HW229805   0.311   4.591  11.759 -0.4934  1.7918 -2.8877
 6116SOL     OW29806   1.666   3.776   1.159 -0.1051 -0.4502  0.2210
 6116SOL    HW129807   1.662   3.687   1.193  0.8339 -1.0360 -1.1864
 6116SOL    HW229808   1.578   3.794   1.125  0.6396  2.6322 -0.1061
 6117SOL     OW29809   0.218   4.156   7.366 -0.1583 -0.1683  0.1916
 6117SOL    HW129810   0.234   4.144   7.272  1.2496  1.2064  0.2540
 6117SOL    HW229811   0.237   4.070   7.404  1.9221  0.1138 -0.1998
 6118SOL     OW29812   2.389   3.096  11.373  0.4930  0.0286  0.2817
 6118SOL    HW129813   2.363   3.004  11.379 -1.0617  0.6053  2.1414
 6118SOL    HW229814   2.475   3.095  11.417  1.1322 -1.1863 -0.9766
 6119SOL     OW29815   3.251   0.782   1.781  0.1782  1.0418  0.4664
 6119SOL    HW129816   3.257   0.864   1.733  3.9502 -0.1043 -1.0333
 6119SOL    HW229817   3.209   0.816   1.860  2.6922  0.2238  2.1660
 6120SOL     OW29818   4.576   1.619   2.460  0.3386 -0.0794  0.3480
 6120SOL    HW129819   4.610   1.682   2.523 -1.3604  1.5280 -0.3248
 6120SOL    HW229820   4.512   1.580   2.519  0.6575 -1.5356 -0.2650
 6121SOL     OW29821   0.597   1.394   6.605 -0.4218  0.0496  0.2145
 6121SOL    HW129822   0.635   1.411   6.519  2.3498 -0.8939  1.2496
 6121SOL    HW229823   0.590   1.300   6.587 -1.7668  0.3535 -0.8258
 6122SOL     OW29824   2.922   2.666  16.787 -0.8075  0.3047  0.3517
 6122SOL    HW129825   2.945   2.759  16.785 -1.5462  0.4617 -0.7373
 6122SOL    HW229826   2.828   2.659  16.774 -0.5536 -2.8558  0.2907
 6123SOL     OW29827   3.083   0.338   6.000 -0.2021 -0.1071 -0.0116
 6123SOL    HW129828   3.142   0.331   6.075  2.5366 -0.5774 -2.1746
 6123SOL    HW229829   3.121   0.409   5.948  1.1942 -0.2698  0.7873
 6124SOL     OW29830   1.738   0.379  13.658 -0.0293  0.4950  0.3293
 6124SOL    HW129831   1.735   0.293  13.616 -0.5917 -0.3003  1.9853
 6124SOL    HW229832   1.798   0.355  13.728  0.1649  2.4459  0.8273
 6125SOL     OW29833   3.313   1.210   3.841  0.8662  0.5359 -0.3320
 6125SOL    HW129834   3.382   1.276   3.848  0.0178  1.2885  1.1426
 6125SOL    HW229835   3.238   1.248   3.795  0.3413 -1.0047 -0.7521
 6126SOL     OW29836   4.014   3.883  14.222 -0.1221  0.9865  0.0251
 6126SOL    HW129837   3.965   3.964  14.212 -1.7987  0.2420  2.1427
 6126SOL    HW229838   3.941   3.827  14.197  0.2330  0.1032  0.9470
 6127SOL     OW29839   1.564   2.343   1.022 -0.7241  0.1413  0.3868
 6127SOL    HW129840   1.473   2.326   0.996 -0.3865  1.2872 -1.5238
 6127SOL    HW229841   1.567   2.438   1.013  2.4993  0.2000  1.9290
 6128SOL     OW29842   4.707   1.766   2.644 -0.4473 -0.4237  0.6112
 6128SOL    HW129843   4.722   1.711   2.721 -0.2013 -0.8215  0.2855
 6128SOL    HW229844   4.685   1.852   2.679  0.6048 -0.2085  0.7389
 6129SOL     OW29845   4.699   1.532   2.966 -0.2321 -0.2787 -0.2893
 6129SOL    HW129846   0.027   1.559   3.042 -0.1412 -3.0001  0.6061
 6129SOL    HW229847   0.042   1.536   2.897 -0.7528  0.5118 -0.7438
 6130SOL     OW29848   0.282   0.798   5.594  0.5173  0.0985  0.2695
 6130SOL    HW129849   0.344   0.729   5.571 -1.1110 -1.3709  0.2855
 6130SOL    HW229850   0.301   0.865   5.529 -0.6680 -0.6621 -0.8516
 6131SOL     OW29851   4.064   1.927  10.424 -0.5827  0.2031 -0.0484
 6131SOL    HW129852   4.060   2.000  10.486  1.2936  0.4814 -0.2766
 6131SOL    HW229853   3.984   1.881  10.450 -0.3734 -1.1376 -1.7118
 6132SOL     OW29854   4.298   1.106   4.263  0.8696 -0.9439  0.7697
 6132SOL    HW129855   4.314   1.167   4.191 -3.2057 -0.4618  0.2925
 6132SOL    HW229856   4.354   1.144   4.330  1.2066  1.8690 -1.1019
 6133SOL     OW29857   0.936   2.853   1.539  0.3732 -0.2948  0.0438
 6133SOL    HW129858   0.877   2.841   1.465  3.6441 -0.8268 -2.4999
 6133SOL    HW229859   1.004   2.907   1.498  0.8654  0.6916  2.1483
 6134SOL     OW29860   3.669   0.365   9.699 -0.4052  0.0166  0.2545
 6134SOL    HW129861   3.714   0.314   9.767 -1.7293  1.0118  1.8742
 6134SOL    HW229862   3.716   0.448   9.700  1.5350 -1.0642 -0.2011
 6135SOL     OW29863   0.103   0.236   1.540 -0.2860 -0.1421 -0.0028
 6135SOL    HW129864   0.079   0.268   1.627 -1.8409  1.0136 -0.8488
 6135SOL    HW229865   0.161   0.301   1.500  0.3165 -0.6549  0.0495
 6136SOL     OW29866   3.989   3.892   4.580  0.1469  0.5604  0.3788
 6136SOL    HW129867   4.032   3.895   4.665 -0.7024  0.0599  0.8224
 6136SOL    HW229868   3.968   3.985   4.570 -0.0672  0.5201  0.4588
 6137SOL     OW29869   2.827   0.304   7.995  0.0852 -0.7153  0.5179
 6137SOL    HW129870   2.905   0.334   7.950 -1.0721  1.5732  0.0640
 6137SOL    HW229871   2.769   0.380   7.996  0.4299 -0.4412 -1.0651
 6138SOL     OW29872   3.886   1.493   3.297  0.1650 -0.1999  0.3797
 6138SOL    HW129873   3.942   1.434   3.248 -1.4710  0.5428 -2.3683
 6138SOL    HW229874   3.865   1.436   3.370 -0.3338 -1.4733 -0.7744
 6139SOL     OW29875   3.543   2.537   7.175  0.2881 -0.1393  0.3362
 6139SOL    HW129876   3.582   2.569   7.257  0.1334 -0.9039  0.7122
 6139SOL    HW229877   3.457   2.577   7.178  0.6525  0.6172  0.7165
 6140SOL     OW29878   2.976   1.514  10.003 -0.9728 -0.7355  0.0699
 6140SOL    HW129879   3.039   1.523  10.075 -0.1017  0.0425 -0.7810
 6140SOL    HW229880   2.928   1.597  10.003  0.3413  0.0346  0.5182
 6141SOL     OW29881   1.410   0.892   6.020 -0.6163  0.1977 -0.3146
 6141SOL    HW129882   1.372   0.979   6.024 -3.3251 -0.9517 -1.1267
 6141SOL    HW229883   1.445   0.875   6.108  0.8573 -0.7177 -1.0758
 6142SOL     OW29884   1.246   1.580  13.425  0.1710  0.5759 -0.4068
 6142SOL    HW129885   1.158   1.545  13.440  1.2250 -1.3096  1.4082
 6142SOL    HW229886   1.249   1.640  13.350  0.0425  1.1537  0.0506
 6143SOL     OW29887   2.105   0.458   7.876 -0.7118  0.4085 -0.4719
 6143SOL    HW129888   2.102   0.377   7.825  0.4266 -0.2772  0.5376
 6143SOL    HW229889   2.197   0.453   7.902 -1.0177  1.2736  0.7706
 6144SOL     OW29890   4.100   2.839   9.072 -0.1553 -0.2196 -0.0128
 6144SOL    HW129891   4.193   2.818   9.062 -0.4565 -1.0332 -1.2164
 6144SOL    HW229892   4.055   2.821   8.989 -0.2943  1.9858 -0.4146
 6145SOL     OW29893   1.971   0.784   3.510 -0.8174 -0.4109  0.1474
 6145SOL    HW129894   2.047   0.754   3.460 -0.7699 -1.5914  0.9408
 6145SOL    HW229895   2.005   0.805   3.597 -0.5296  0.3291 -0.1350
 6146SOL     OW29896   0.546   2.717   9.973 -0.1943  0.2512  0.5530
 6146SOL    HW129897   0.603   2.744  10.044  2.3550  0.3108 -1.5079
 6146SOL    HW229898   0.509   2.632   9.998 -0.0923 -0.2246 -0.8907
 6147SOL     OW29899   4.261   2.986   1.908 -0.3869 -0.3700  0.6222
 6147SOL    HW129900   4.323   2.947   1.847 -0.9911  0.9601 -0.8606
 6147SOL    HW229901   4.218   3.054   1.856 -0.2931 -1.1259 -0.4327
 6148SOL     OW29902   4.383   1.410   5.414 -0.2486  0.1613  0.6604
 6148SOL    HW129903   4.447   1.479   5.430  1.7781 -0.6747 -3.7317
 6148SOL    HW229904   4.402   1.343   5.479 -1.4868  1.1419  2.0337
 6149SOL     OW29905   4.011   1.869   4.612 -0.3488 -0.5120  0.4341
 6149SOL    HW129906   3.959   1.924   4.670 -0.6288 -2.3395  1.9443
 6149SOL    HW229907   4.040   1.797   4.670  0.3544 -1.1436 -0.6989
 6150SOL     OW29908   3.240   3.324  10.064 -0.1081  0.1652  0.1679
 6150SOL    HW129909   3.203   3.237  10.049  2.1301 -1.1393  2.0366
 6150SOL    HW229910   3.178   3.368  10.006 -0.5724  1.9913  2.0496
 6151SOL     OW29911   2.634   0.379   1.269  0.1367  0.3397  0.3174
 6151SOL    HW129912   2.583   0.338   1.339 -1.0811 -0.6398 -1.1143
 6151SOL    HW229913   2.623   0.307   1.207 -1.6092  1.2112 -0.3822
 6152SOL     OW29914   0.051   1.735  15.451 -0.0437  0.2205 -0.0171
 6152SOL    HW129915   0.095   1.650  15.453 -1.0782 -0.3498 -1.5438
 6152SOL    HW229916   0.081   1.769  15.367 -0.2782  1.7749  0.5268
 6153SOL     OW29917   3.356   3.135  13.621 -0.0724 -0.3296 -0.0579
 6153SOL    HW129918   3.278   3.175  13.581  1.5870  1.2856 -1.6567
 6153SOL    HW229919   3.363   3.184  13.703 -0.0690  0.5169 -0.5604
 6154SOL     OW29920   0.345   2.029   7.325  0.0595 -0.2948 -0.0612
 6154SOL    HW129921   0.270   2.037   7.384  0.7687  0.9382  0.6924
 6154SOL    HW229922   0.316   2.055   7.238 -0.2639  1.0875  0.4515
 6155SOL     OW29923   0.008   3.635   2.593 -0.3117 -0.1192  0.2399
 6155SOL    HW129924   0.002   3.707   2.655 -0.1761  1.2580 -1.3310
 6155SOL    HW229925   0.079   3.663   2.536 -0.0899  1.8740  1.4866
 6156SOL     OW29926   0.483   3.290   3.233  0.2582 -0.0227 -0.3174
 6156SOL    HW129927   0.432   3.210   3.222  0.3117 -0.4811  2.6043
 6156SOL    HW229928   0.455   3.337   3.155  2.5393  1.7996 -0.0523
 6157SOL     OW29929   3.909   2.362   3.372 -0.2061  0.3108 -0.0013
 6157SOL    HW129930   3.825   2.364   3.418  0.9532  2.6038  2.0246
 6157SOL    HW229931   3.966   2.328   3.441 -0.3564 -0.7257 -0.3843
 6158SOL     OW29932   3.002   3.273   8.002 -0.4719 -1.2839 -0.3107
 6158SOL    HW129933   2.922   3.298   8.047  0.8082  1.4020  0.4846
 6158SOL    HW229934   2.979   3.220   7.926 -0.0612 -2.1025  0.1287
 6159SOL     OW29935   3.633   2.231   7.229 -0.4269 -0.6231  0.6620
 6159SOL    HW129936   3.655   2.268   7.143 -3.6290  0.9915  0.5326
 6159SOL    HW229937   3.653   2.306   7.285  0.2984  1.2263 -2.0063
 6160SOL     OW29938   4.299   3.960   3.824 -0.1648  0.1628  0.3709
 6160SOL    HW129939   4.236   3.891   3.845 -0.3723 -0.3311 -1.9036
 6160SOL    HW229940   4.370   3.943   3.887 -1.6914 -1.2223  1.7180
 6161SOL     OW29941   1.476   4.372   1.084  0.2141 -0.1833 -0.1015
 6161SOL    HW129942   1.427   4.434   1.030 -0.5032  0.9706  1.8608
 6161SOL    HW229943   1.447   4.286   1.055 -0.9242  0.1569 -0.0117
 6162SOL     OW29944   1.808   1.986   3.872  0.5268  0.1021  0.2127
 6162SOL    HW129945   1.764   1.967   3.955 -1.5011  1.2196 -0.5918
 6162SOL    HW229946   1.876   1.919   3.874  0.1240 -0.4136 -2.7857
 6163SOL     OW29947   1.099   4.326   5.753 -0.1136  0.3318  0.1534
 6163SOL    HW129948   1.043   4.396   5.717  0.3822  0.6105 -0.0778
 6163SOL    HW229949   1.062   4.311   5.840 -1.5214 -1.3455 -0.7223
 6164SOL     OW29950   2.626   1.753   3.526 -0.2724 -0.0622  0.7941
 6164SOL    HW129951   2.658   1.770   3.438 -1.7211 -0.4946  0.1858
 6164SOL    HW229952   2.569   1.828   3.545  1.0759  0.4812  2.7138
 6165SOL     OW29953   3.170   4.532   6.060  0.2208  0.3115  0.2496
 6165SOL    HW129954   3.202   4.442   6.053 -1.3901 -0.3898  1.7640
 6165SOL    HW229955   3.136   4.534   6.149  0.0750  1.0362  0.1754
 6166SOL     OW29956   4.127   3.028   5.359 -0.1035  0.4295 -0.4824
 6166SOL    HW129957   4.110   3.039   5.452 -2.7487  1.3462 -1.0728
 6166SOL    HW229958   4.178   3.107   5.344 -0.7245  0.7218 -1.0696
 6167SOL     OW29959   1.227   4.142   8.612  0.7156  0.9304 -0.5462
 6167SOL    HW129960   1.203   4.230   8.585 -1.0202  0.1654 -1.4820
 6167SOL    HW229961   1.210   4.092   8.532 -0.1293 -0.6449  0.5987
 6168SOL     OW29962   2.404   0.412   9.738  0.3667  0.1896  0.2972
 6168SOL    HW129963   2.466   0.483   9.723 -0.1986  0.9628  1.5750
 6168SOL    HW229964   2.462   0.339   9.760  1.5301  0.9228 -0.3454
 6169SOL     OW29965   0.914   3.399   3.906  0.8687 -0.3071  0.2618
 6169SOL    HW129966   0.921   3.423   3.813  2.0469 -1.3784  0.0844
 6169SOL    HW229967   0.990   3.446   3.940  1.9563 -1.3274 -0.7868
 6170SOL     OW29968   2.225   2.291   5.348 -0.0867 -0.2723 -0.5143
 6170SOL    HW129969   2.160   2.329   5.408 -0.5416  1.4701 -2.1060
 6170SOL    HW229970   2.168   2.248   5.283  0.5316  0.0403 -1.2622
 6171SOL     OW29971   2.876   4.623   4.350 -0.6567  0.2386 -0.2437
 6171SOL    HW129972   2.850   4.541   4.391  2.5680 -0.4380  0.3750
 6171SOL    HW229973   2.836   4.605   4.265  0.5378 -2.8025 -0.1304
 6172SOL     OW29974   1.017   2.977  14.956  0.0900 -0.1140 -0.1609
 6172SOL    HW129975   1.066   2.988  14.874 -1.5289 -0.2867 -1.1545
 6172SOL    HW229976   0.948   3.040  14.937 -0.8131 -0.7343  1.0942
 6173SOL     OW29977   2.927   2.384   8.640  0.2712 -0.1024 -0.7271
 6173SOL    HW129978   2.959   2.451   8.580  1.9120 -0.7902 -0.5991
 6173SOL    HW229979   3.003   2.337   8.674  0.8929  1.0682 -0.4958
 6174SOL     OW29980   2.189   3.459   2.446 -0.2187  0.2679 -0.2887
 6174SOL    HW129981   2.129   3.517   2.400 -2.0328 -1.3514  0.0551
 6174SOL    HW229982   2.218   3.410   2.370 -1.9204 -0.1345 -0.6816
 6175SOL     OW29983   2.185   4.692   9.764 -0.3488 -0.6603 -0.4702
 6175SOL    HW129984   2.127   4.690   9.839 -0.9035  0.8826 -0.8650
 6175SOL    HW229985   2.172   0.056   9.728  1.4496 -0.8883 -1.6836
 6176SOL     OW29986   4.231   1.539   4.410 -0.4250  0.1153 -0.0812
 6176SOL    HW129987   4.199   1.448   4.406  3.0357 -1.0925  0.0210
 6176SOL    HW229988   4.324   1.521   4.400 -0.8833 -0.8398 -2.6990
 6177SOL     OW29989   2.866   4.025  14.147 -0.1991 -0.3092 -0.7307
 6177SOL    HW129990   2.786   4.067  14.178  1.2728  2.6076 -0.9218
 6177SOL    HW229991   2.826   3.958  14.091  0.2711 -0.3884 -0.9763
 6178SOL     OW29992   3.153   4.129   7.732 -0.6586 -0.3935  0.1899
 6178SOL    HW129993   3.158   4.207   7.678  1.4911  0.2533  1.3568
 6178SOL    HW229994   3.238   4.135   7.774  1.3645 -1.0535 -3.7794
 6179SOL     OW29995   2.467   1.279   5.676 -0.2367  0.4678 -0.0059
 6179SOL    HW129996   2.555   1.271   5.637 -0.5416 -0.7874 -0.4179
 6179SOL    HW229997   2.490   1.229   5.754  1.6236 -0.8356 -1.3668
 6180SOL     OW29998   2.400   3.194   2.904  0.7282 -0.3017 -0.2030
 6180SOL    HW129999   2.366   3.250   2.834  0.7672  0.5430  0.4484
 6180SOL    HW230000   2.326   3.176   2.961 -0.2724 -0.5720 -1.5793
 6181SOL     OW30001   0.922   0.350   7.965  0.4793  0.4051 -0.1524
 6181SOL    HW130002   0.896   0.441   7.951 -1.4748  0.1501  1.8110
 6181SOL    HW230003   1.010   0.369   7.998  1.3347  0.0302 -2.2039
 6182SOL     OW30004   1.015   0.251   7.465  0.2702  0.4839 -0.0987
 6182SOL    HW130005   1.095   0.303   7.467 -1.4692  3.2138 -0.7766
 6182SOL    HW230006   0.996   0.247   7.371 -1.3377  1.7646  0.1589
 6183SOL     OW30007   3.218   2.191   4.625  0.6682 -0.4009 -0.1320
 6183SOL    HW130008   3.129   2.219   4.606 -0.3700 -3.1999  0.6894
 6183SOL    HW230009   3.183   2.115   4.670 -0.9107  0.8893  0.8301
 6184SOL     OW30010   4.591   3.681  17.559  0.2279  0.0096 -0.1728
 6184SOL    HW130011   4.621   3.652  17.473 -1.3335  1.7564 -1.2994
 6184SOL    HW230012   4.673   3.704  17.604  0.6690 -0.6598 -0.6307
 6185SOL     OW30013   4.448   1.725   3.796  0.2058  0.1331 -0.1026
 6185SOL    HW130014   4.398   1.669   3.854  0.2607  0.2134  0.0218
 6185SOL    HW230015   4.397   1.725   3.715  1.3799 -1.5102 -0.8509
 6186SOL     OW30016   3.920   3.560   7.117 -0.1247  0.3687  0.3424
 6186SOL    HW130017   3.872   3.557   7.034 -1.6955  1.4458  1.1980
 6186SOL    HW230018   3.964   3.475   7.119 -2.4622 -0.8932 -0.9485
 6187SOL     OW30019   0.284   1.939   6.550  0.6346  0.0605 -0.3483
 6187SOL    HW130020   0.215   2.004   6.536 -1.2344 -1.7733  0.5184
 6187SOL    HW230021   0.274   1.924   6.644  1.5828  0.0435 -0.2506
 6188SOL     OW30022   4.213   1.801   1.059  0.4403  0.5718 -0.3954
 6188SOL    HW130023   4.174   1.867   1.116 -0.0871  1.1164 -1.3990
 6188SOL    HW230024   4.272   1.859   1.011  0.5462  0.6099 -0.2186
 6189SOL     OW30025   3.916   1.078   9.878 -0.1286 -0.2847 -0.0786
 6189SOL    HW130026   3.931   1.171   9.897  3.3537 -0.9910  0.5960
 6189SOL    HW230027   3.978   1.061   9.807 -2.2655  0.8869 -2.2078
 6190SOL     OW30028   0.282   2.503   8.217  0.0393  0.2120 -0.9202
 6190SOL    HW130029   0.289   2.408   8.228  2.5307  0.3179 -1.7803
 6190SOL    HW230030   0.352   2.545   8.267 -2.0268  1.4513  0.9271
 6191SOL     OW30031   4.347   3.919   3.529 -0.2885 -0.4519  0.2265
 6191SOL    HW130032   4.440   3.921   3.551 -0.3221  0.6879  0.2727
 6191SOL    HW230033   4.312   3.950   3.613  2.7874 -0.8582  1.6228
 6192SOL     OW30034   3.270   2.675  14.806  0.2310 -0.0016 -0.4434
 6192SOL    HW130035   3.330   2.611  14.768  0.4939  0.5775 -0.9982
 6192SOL    HW230036   3.221   2.697  14.727  0.0942 -0.1414 -0.3967
 6193SOL     OW30037   0.859   0.733   0.192  0.0864  0.1261  0.1752
 6193SOL    HW130038   0.865   0.637   0.196 -1.1221  0.0319 -0.2344
 6193SOL    HW230039   0.768   0.743   0.165  0.2915  2.7774  0.4547
 6194SOL     OW30040   3.325   0.444  16.514  0.1086  0.4883  0.5653
 6194SOL    HW130041   3.291   0.367  16.468  1.5233  0.6461 -0.7451
 6194SOL    HW230042   3.255   0.507  16.497  0.6020  1.0137  0.4874
 6195SOL     OW30043   2.794   4.550  10.655  0.1450 -0.0175 -0.9057
 6195SOL    HW130044   2.887   4.558  10.674  0.2992  2.9329 -2.9021
 6195SOL    HW230045   2.788   4.455  10.660  2.0225 -0.1801 -1.7648
 6196SOL     OW30046   0.861   0.183   4.019  0.3003 -0.0420 -0.4684
 6196SOL    HW130047   0.888   0.252   3.958  0.1776  0.7162  0.3371
 6196SOL    HW230048   0.786   0.149   3.970 -0.7806 -0.4925  1.5141
 6197SOL     OW30049   1.470   4.079   2.581  0.1755  0.2307  0.0275
 6197SOL    HW130050   1.511   4.065   2.496  0.5367 -1.6732  0.5123
 6197SOL    HW230051   1.460   4.174   2.572  1.2379  0.3709  0.2864
 6198SOL     OW30052   0.063   2.499   5.924 -0.4937 -0.1703  0.2150
 6198SOL    HW130053   0.056   2.462   5.836  1.9151  0.8705 -0.4219
 6198SOL    HW230054   0.112   2.428   5.965 -1.4048 -1.5402 -1.0855
 6199SOL     OW30055   1.990   1.425   1.938 -0.5015 -0.3337  0.5027
 6199SOL    HW130056   2.019   1.363   1.871  0.8018  0.6656  0.1348
 6199SOL    HW230057   2.059   1.414   2.004 -1.2401  0.4505  1.4023
 6200SOL     OW30058   3.847   4.314   1.617  0.4328  0.3700 -0.0168
 6200SOL    HW130059   3.887   4.328   1.703  1.7131 -1.0924 -0.3768
 6200SOL    HW230060   3.762   4.358   1.619 -0.1626 -0.7840  0.5789
 6201SOL     OW30061   0.533   2.981   7.405  0.4690  0.2698  0.5073
 6201SOL    HW130062   0.498   2.944   7.486  0.1609 -0.5586 -0.0081
 6201SOL    HW230063   0.477   3.058   7.394  0.6690  0.2528 -0.5837
 6202SOL     OW30064   2.902   0.727   8.132 -0.4362 -0.3098 -0.1128
 6202SOL    HW130065   2.927   0.786   8.203 -1.5544  0.2876 -0.2243
 6202SOL    HW230066   2.816   0.698   8.161 -1.2277  1.6169 -0.4938
 6203SOL     OW30067   3.885   2.501  13.655 -0.1222  0.3744 -0.2414
 6203SOL    HW130068   3.842   2.428  13.698  1.4364 -0.9421 -0.9218
 6203SOL    HW230069   3.822   2.572  13.667  0.3336  0.1437  3.4948
 6204SOL     OW30070   2.749   3.712   5.759  0.3536  0.5427  0.1704
 6204SOL    HW130071   2.664   3.755   5.746 -0.1526 -0.3762  0.4800
 6204SOL    HW230072   2.720   3.621   5.763 -0.0802  0.7127  0.9532
 6205SOL     OW30073   0.278   1.333   6.237  0.7963 -0.0279 -0.5536
 6205SOL    HW130074   0.215   1.268   6.206  1.7934 -1.0553 -0.4523
 6205SOL    HW230075   0.262   1.324   6.331  1.3036  0.7992 -0.3842
 6206SOL     OW30076   2.837   0.948   5.599 -0.4439  0.2200 -0.7340
 6206SOL    HW130077   2.896   0.873   5.596 -2.6709 -1.4573 -2.1514
 6206SOL    HW230078   2.875   1.005   5.532  1.3357  0.6439  0.6285
 6207SOL     OW30079   2.323   2.123   6.683 -0.0830 -0.3873  0.2189
 6207SOL    HW130080   2.339   2.217   6.682  0.6442 -0.5208 -1.2071
 6207SOL    HW230081   2.414   2.092   6.689  0.3931  0.8553 -0.6881
 6208SOL     OW30082   2.638   1.674  13.233  0.1937  0.1579  0.4863
 6208SOL    HW130083   2.549   1.640  13.223  0.4324  0.2124 -1.8227
 6208SOL    HW230084   2.641   1.651  13.326 -0.5419 -1.0310  0.2146
 6209SOL     OW30085   1.010   3.265  11.764 -0.0085  0.2172  0.0531
 6209SOL    HW130086   1.063   3.332  11.721  1.8563 -0.5152  1.1625
 6209SOL    HW230087   1.080   3.216  11.808  1.4921  2.6911  0.4266
 6210SOL     OW30088   2.216   3.788   3.965 -0.5751  0.6971  0.1831
 6210SOL    HW130089   2.239   3.873   3.926  0.9842 -0.3434 -1.1704
 6210SOL    HW230090   2.165   3.745   3.896 -0.7550 -2.7385  2.4944
 6211SOL     OW30091   3.118   2.205   5.306 -0.1104 -1.0817 -0.0685
 6211SOL    HW130092   3.209   2.220   5.334 -0.4576 -0.8729  0.9346
 6211SOL    HW230093   3.072   2.242   5.381  0.3524 -0.5597 -0.0436
 6212SOL     OW30094   3.931   3.150  15.382 -0.0742  0.3746 -0.3700
 6212SOL    HW130095   3.997   3.204  15.425  0.0833 -1.0711  1.2025
 6212SOL    HW230096   3.912   3.085  15.450  0.8913  0.8546  0.3573
 6213SOL     OW30097   0.028   2.010   1.794 -0.1766  0.2622  0.0053
 6213SOL    HW130098   4.705   2.089   1.823 -0.1348  0.4759 -0.5092
 6213SOL    HW230099   0.060   2.044   1.711 -1.0982 -0.0913 -0.4913
 6214SOL     OW30100   2.221   3.021   6.125  0.7798 -0.1292 -0.4301
 6214SOL    HW130101   2.139   3.064   6.101  1.8045  0.6839 -2.5347
 6214SOL    HW230102   2.255   3.008   6.036 -3.3075 -2.0860 -1.7097
 6215SOL     OW30103   0.991   4.125   5.936 -0.2530  0.3232 -0.3266
 6215SOL    HW130104   0.960   4.187   6.002 -0.3441  0.9891 -0.9909
 6215SOL    HW230105   0.958   4.046   5.979  0.4197  0.7071  0.9165
 6216SOL     OW30106   2.663   2.395  10.969  0.1965  0.3228 -0.3818
 6216SOL    HW130107   2.711   2.371  11.048 -0.0383  1.3397  0.0644
 6216SOL    HW230108   2.726   2.446  10.917  2.1740  1.0403  2.6837
 6217SOL     OW30109   1.128   3.643   6.200 -0.2562  0.0859 -0.6593
 6217SOL    HW130110   1.169   3.609   6.279 -1.3665 -0.8405 -0.4850
 6217SOL    HW230111   1.166   3.731   6.203 -0.1808  0.1218 -2.7726
 6218SOL     OW30112   1.338   1.908   5.580  0.2184  0.2506  0.3709
 6218SOL    HW130113   1.432   1.918   5.571  0.1178 -0.4474 -1.4813
 6218SOL    HW230114   1.318   2.001   5.575 -0.5590  0.0549 -0.1991
 6219SOL     OW30115   0.718   3.209   5.541  0.0213 -0.5060  0.4132
 6219SOL    HW130116   0.749   3.187   5.453  0.8422 -1.9249  1.0527
 6219SOL    HW230117   0.643   3.263   5.516  1.1702  0.2231 -1.4625
 6220SOL     OW30118   2.484   3.813  17.478 -0.2147  0.2427  0.1551
 6220SOL    HW130119   2.414   3.866  17.441 -1.4594 -1.5494 -0.0567
 6220SOL    HW230120   2.516   3.766  17.401  0.8526  2.0257 -0.4952
 6221SOL     OW30121   1.119   1.926   5.175  0.7823 -0.1289 -0.1230
 6221SOL    HW130122   1.076   1.870   5.240  1.6092  0.0548  0.5883
 6221SOL    HW230123   1.063   2.004   5.180  1.8797  0.7029 -0.7412
 6222SOL     OW30124   4.615   0.059   5.284 -0.1701 -0.3695 -0.2338
 6222SOL    HW130125   4.656   0.144   5.270  0.2844 -0.8454 -1.7752
 6222SOL    HW230126   4.523   0.079   5.267  0.9244  2.5308 -2.8002
 6223SOL     OW30127   1.292   3.224   2.749  0.0297  0.5062 -0.1645
 6223SOL    HW130128   1.200   3.196   2.744  0.0190  0.1527  2.2183
 6223SOL    HW230129   1.332   3.144   2.713 -2.9215  0.1635 -2.6846
 6224SOL     OW30130   2.518   1.640   1.205  0.1125  0.2612  0.1849
 6224SOL    HW130131   2.486   1.612   1.291  1.6718  1.0703  1.0376
 6224SOL    HW230132   2.554   1.724   1.232  1.0509  0.3213 -1.2571
 6225SOL     OW30133   0.979   4.217   0.320  0.1639 -0.1764  0.0998
 6225SOL    HW130134   0.915   4.185   0.256  0.4091 -1.1881  0.3599
 6225SOL    HW230135   1.050   4.231   0.257  0.5094 -0.4189  0.4394
 6226SOL     OW30136   4.616   4.103  13.247 -1.0929  0.4952 -0.3298
 6226SOL    HW130137   4.672   4.119  13.323  0.0832 -0.3977 -1.0062
 6226SOL    HW230138   4.545   4.065  13.299 -0.0736  0.5473  1.0842
 6227SOL     OW30139   2.819   0.877   7.532  0.1401 -0.0028 -0.2199
 6227SOL    HW130140   2.748   0.816   7.552 -0.8077  1.1446 -0.0630
 6227SOL    HW230141   2.788   0.900   7.444 -1.8941 -0.0402  0.4890
 6228SOL     OW30142   2.226   2.290   7.829 -0.1313  0.0502  0.2005
 6228SOL    HW130143   2.301   2.344   7.807 -1.3769  2.3831  1.7381
 6228SOL    HW230144   2.148   2.343   7.810 -1.7220 -1.5630  2.2162
 6229SOL     OW30145   4.413   2.952   0.339 -0.4771  0.5011 -0.1487
 6229SOL    HW130146   4.416   3.007   0.418 -0.0165  1.4925 -0.8612
 6229SOL    HW230147   4.488   2.993   0.295 -0.1905 -1.8583 -1.8422
 6230SOL     OW30148   3.223   0.231   6.443 -0.0962 -0.2516 -0.2796
 6230SOL    HW130149   3.228   0.194   6.355  0.0831  0.0469 -0.3911
 6230SOL    HW230150   3.312   0.264   6.454 -1.3113  1.5458  4.0148
 6231SOL     OW30151   0.510   2.764  16.149 -0.0845 -0.2399 -0.3161
 6231SOL    HW130152   0.568   2.689  16.165 -0.1693 -0.0973  0.6405
 6231SOL    HW230153   0.575   2.831  16.130  1.5295 -1.7895 -0.2723
 6232SOL     OW30154   3.674   1.827  13.507  0.0779  0.0411  0.8620
 6232SOL    HW130155   3.728   1.801  13.432 -0.1697  1.3147  0.2407
 6232SOL    HW230156   3.666   1.747  13.559  0.8604 -2.0116 -2.1867
 6233SOL     OW30157   2.115   3.146   1.513  0.4041 -0.0793 -0.6670
 6233SOL    HW130158   2.120   3.140   1.608 -0.8971 -1.5673 -0.6901
 6233SOL    HW230159   2.024   3.123   1.493 -0.8235  2.4165  2.1660
 6234SOL     OW30160   1.538   4.021   4.028  0.3317  0.3206  0.2457
 6234SOL    HW130161   1.505   3.936   3.998 -3.6443  2.1387 -0.3804
 6234SOL    HW230162   1.626   3.999   4.059  0.3213 -0.6235 -0.3842
 6235SOL     OW30163   4.502   2.289   9.833 -0.5700  0.2840 -0.2504
 6235SOL    HW130164   4.512   2.201   9.871 -1.3686  0.4526  0.3646
 6235SOL    HW230165   4.417   2.304   9.875  0.7037  1.6024  1.8716
 6236SOL     OW30166   4.031   4.003  10.002 -0.8720  0.3683 -0.7869
 6236SOL    HW130167   4.051   3.920  10.046 -1.6265  1.3926  1.4420
 6236SOL    HW230168   3.944   3.987   9.968 -0.6367  0.2813 -1.3517
 6237SOL     OW30169   2.992   1.892  11.646  0.2590  0.7075  0.6734
 6237SOL    HW130170   2.996   1.808  11.600 -0.7899  0.4957  0.9665
 6237SOL    HW230171   2.941   1.943  11.583  1.3009  2.4225  1.2130
 6238SOL     OW30172   1.293   2.273   7.741 -0.4794 -0.3950  0.5951
 6238SOL    HW130173   1.284   2.366   7.720 -1.8123 -0.4443  0.9722
 6238SOL    HW230174   1.238   2.268   7.819 -2.3072  1.9488 -0.5459
 6239SOL     OW30175   3.181   1.515   5.962 -0.0201 -0.6753 -0.0206
 6239SOL    HW130176   3.218   1.468   5.887 -2.5733 -1.8409 -0.5560
 6239SOL    HW230177   3.090   1.485   5.970 -0.2836  0.3283  0.6405
 6240SOL     OW30178   3.066   2.222   6.364 -0.0029  0.0695 -0.0649
 6240SOL    HW130179   3.056   2.164   6.289  0.0187  0.1981 -0.1683
 6240SOL    HW230180   3.147   2.191   6.404  0.2921  0.4005 -0.4025
 6241SOL     OW30181   1.035   4.150   7.770  0.3962  0.4099  0.7110
 6241SOL    HW130182   0.981   4.220   7.806 -0.9891 -0.0372 -0.5193
 6241SOL    HW230183   1.063   4.186   7.686  0.2375  0.1315  0.5379
 6242SOL     OW30184   0.536   3.225   2.268 -0.1131 -0.0619  0.1538
 6242SOL    HW130185   0.477   3.219   2.193  1.5250 -1.4822 -1.0192
 6242SOL    HW230186   0.569   3.136   2.271  1.1461  0.5216  3.8563
 6243SOL     OW30187   0.652   2.511   1.693 -0.1901 -0.2182  0.2561
 6243SOL    HW130188   0.700   2.574   1.640 -0.6685  1.1623  1.4747
 6243SOL    HW230189   0.732   2.469   1.722 -0.6440 -0.4841  1.1160
 6244SOL     OW30190   4.393   2.119   5.135  0.3998 -0.3780 -0.3054
 6244SOL    HW130191   4.338   2.146   5.062  0.6474  1.4982  0.1807
 6244SOL    HW230192   4.340   2.162   5.202 -1.4425 -0.4006 -1.7775
 6245SOL     OW30193   1.790   3.764  13.111 -0.4415 -0.1694  0.0140
 6245SOL    HW130194   1.885   3.775  13.122 -0.6092 -1.0109  2.1577
 6245SOL    HW230195   1.765   3.812  13.032  0.1542  3.0685  1.7886
 6246SOL     OW30196   1.136   3.430  12.052  0.1612 -0.7173  0.5857
 6246SOL    HW130197   1.165   3.439  11.961  1.6705 -0.3626  1.1022
 6246SOL    HW230198   1.214   3.391  12.092  0.6532  0.6392  0.9436
 6247SOL     OW30199   1.521   1.250   7.018  0.1049 -0.3739  0.2565
 6247SOL    HW130200   1.523   1.345   7.031  0.8301 -0.6288  2.0228
 6247SOL    HW230201   1.443   1.235   6.964  0.5181  3.1021 -1.2989
 6248SOL     OW30202   0.747   0.172   0.448  0.5343 -0.0729 -0.0322
 6248SOL    HW130203   0.800   0.117   0.506 -2.6216  0.4513  3.3437
 6248SOL    HW230204   0.750   0.256   0.494  1.0953 -0.6823  1.0482
 6249SOL     OW30205   3.803   1.632  10.308  0.3055  0.2763  0.3589
 6249SOL    HW130206   3.707   1.630  10.298  0.2171  1.3305  0.9776
 6249SOL    HW230207   3.821   1.553  10.358 -1.0190  1.0792  2.1045
 6250SOL     OW30208   1.403   1.994   6.942  0.2029 -0.6748 -0.5804
 6250SOL    HW130209   1.375   2.071   6.890 -0.1823  0.5421  1.4404
 6250SOL    HW230210   1.433   2.047   7.016  0.3573 -1.0520 -0.3753
 6251SOL     OW30211   3.745   4.528   8.074  0.3284 -0.8424  0.2065
 6251SOL    HW130212   3.819   4.524   8.135  0.0624 -1.7292  0.4693
 6251SOL    HW230213   3.690   4.596   8.114 -0.9983 -0.3813 -2.4247
 6252SOL     OW30214   1.383   2.176  16.511 -0.0980  0.2598  0.5397
 6252SOL    HW130215   1.297   2.139  16.528  1.4939 -1.9509  3.8304
 6252SOL    HW230216   1.394   2.242  16.580 -2.2773 -0.9151  1.9940
 6253SOL     OW30217   1.388   4.371   5.754 -0.8835  0.2212  0.2365
 6253SOL    HW130218   1.451   4.304   5.779 -0.1879  1.4820  1.8854
 6253SOL    HW230219   1.304   4.341   5.791 -0.5176 -3.3555 -1.8924
 6254SOL     OW30220   3.917   3.946   0.370 -0.3406  0.5494  0.0302
 6254SOL    HW130221   3.926   4.039   0.352 -0.0452  0.2863 -1.2304
 6254SOL    HW230222   3.822   3.941   0.363 -0.2951 -1.1766  0.6812
 6255SOL     OW30223   4.608   0.066  12.910 -0.3443 -0.2847 -0.3781
 6255SOL    HW130224   4.532   0.008  12.902 -0.8004  0.1808  0.5656
 6255SOL    HW230225   4.567   0.151  12.893  1.1488  0.3678 -0.7227
 6256SOL     OW30226   0.133   3.831   4.928  0.0357  0.6986  0.4401
 6256SOL    HW130227   0.093   3.907   4.970 -0.3805  0.2780  0.7977
 6256SOL    HW230228   0.223   3.859   4.913 -0.5984  1.7078 -1.4370
 6257SOL     OW30229   0.667   3.873  14.859  0.3071  0.0668  0.2014
 6257SOL    HW130230   0.643   3.962  14.833  0.2859  0.0972  0.3244
 6257SOL    HW230231   0.651   3.828  14.776  0.5150  0.9681 -0.3272
 6258SOL     OW30232   3.850   4.130   1.886  0.1523 -0.3971 -0.1029
 6258SOL    HW130233   3.907   4.206   1.896 -3.6905  2.5550 -0.5003
 6258SOL    HW230234   3.771   4.178   1.861 -0.8371 -0.1577  3.4673
 6259SOL     OW30235   1.729   4.185  17.195  0.0145 -0.2544  0.1025
 6259SOL    HW130236   1.769   4.202  17.280  0.6233 -1.9183  0.1427
 6259SOL    HW230237   1.789   4.243  17.147 -0.0734  1.1790  1.7326
 6260SOL     OW30238   4.315   1.196   5.579 -0.4609  0.0127 -0.1734
 6260SOL    HW130239   4.280   1.143   5.507  0.0856 -0.2481 -0.2468
 6260SOL    HW230240   4.274   1.147   5.651 -1.9309 -0.1996 -1.1532
 6261SOL     OW30241   1.401   3.797   2.229 -0.5510 -0.2286 -0.9132
 6261SOL    HW130242   1.373   3.804   2.321 -0.0048  0.1302 -0.7740
 6261SOL    HW230243   1.322   3.783   2.177 -0.1083 -2.2279 -1.0428
 6262SOL     OW30244   0.012   2.635   3.555  0.0854  0.2137  0.4027
 6262SOL    HW130245   0.059   2.718   3.561 -0.8050  0.7174  0.4025
 6262SOL    HW230246   4.709   2.616   3.645 -0.3069  1.4666  0.5504
 6263SOL     OW30247   3.766   0.037  14.462  0.2708 -0.4407 -0.6291
 6263SOL    HW130248   3.787   4.669  14.447 -3.4999 -1.4154 -0.1532
 6263SOL    HW230249   3.722   0.025  14.547 -1.1156  0.8840 -1.1579
 6264SOL     OW30250   2.830   0.483  17.001  0.1473 -0.0088 -0.6421
 6264SOL    HW130251   2.755   0.538  16.983  0.4042  0.4621 -0.2869
 6264SOL    HW230252   2.807   0.390  16.993 -2.3784  0.3899  2.2887
 6265SOL     OW30253   2.197   4.493  11.997 -0.2659 -0.4908 -0.4277
 6265SOL    HW130254   2.168   4.402  12.004 -0.5050 -0.5235 -1.7977
 6265SOL    HW230255   2.121   4.534  11.955 -1.3058  0.0269  1.9553
 6266SOL     OW30256   3.067   1.629   7.400  0.3705  0.3112 -0.5371
 6266SOL    HW130257   2.977   1.600   7.386  0.3920  0.0048 -0.0600
 6266SOL    HW230258   3.116   1.546   7.397  0.0311  0.0491  0.9778
 6267SOL     OW30259   4.574   0.645   9.047 -0.2219  0.4198 -0.0882
 6267SOL    HW130260   4.539   0.589   9.116 -0.5170  3.1721  2.0224
 6267SOL    HW230261   4.622   0.719   9.086  0.2375 -0.4920  1.0742
 6268SOL     OW30262   2.882   1.216   4.183 -0.1695 -0.3995 -0.0000
 6268SOL    HW130263   2.975   1.235   4.177  0.1776 -2.0403  0.0716
 6268SOL    HW230264   2.843   1.302   4.168  2.3638  0.3568 -2.1406
 6269SOL     OW30265   3.325   1.964   5.574 -0.1234  0.3254  0.0008
 6269SOL    HW130266   3.275   1.904   5.520  0.2445 -1.1628  1.3184
 6269SOL    HW230267   3.378   2.012   5.510  3.4337  0.5803  3.1515
 6270SOL     OW30268   0.654   0.929   7.626 -0.6714  0.0998  0.4836
 6270SOL    HW130269   0.561   0.905   7.621 -0.2510 -1.2334 -0.9598
 6270SOL    HW230270   0.681   0.981   7.551  1.5833 -1.3736  0.2675
 6271SOL     OW30271   2.017   4.591  14.739 -0.2652  0.7938  0.0669
 6271SOL    HW130272   2.063   4.607  14.657 -2.5615  0.5230 -1.2507
 6271SOL    HW230273   2.061   4.653  14.798  2.9156  0.6711 -2.1846
 6272SOL     OW30274   3.041   4.647  16.795  0.1493  0.8062  0.0041
 6272SOL    HW130275   2.974   4.713  16.814 -0.1758 -0.6253  4.0095
 6272SOL    HW230276   3.088   4.644  16.879  0.6361 -0.1398 -0.3027
 6273SOL     OW30277   1.252   1.852   4.944  0.7428  0.3788  0.3118
 6273SOL    HW130278   1.226   1.893   5.026 -1.9625  2.4410 -1.5771
 6273SOL    HW230279   1.264   1.761   4.971  1.1532 -0.3492 -2.2853
 6274SOL     OW30280   0.432   3.691   3.735 -0.3801  0.4139  0.1356
 6274SOL    HW130281   0.520   3.702   3.771 -0.3585 -1.7628  0.7602
 6274SOL    HW230282   0.456   3.662   3.647 -1.1952  1.0199 -0.2868
 6275SOL     OW30283   4.663   0.959   0.575 -0.1909 -0.9000 -0.6237
 6275SOL    HW130284   4.712   0.883   0.544  1.8360  0.9199 -1.9568
 6275SOL    HW230285   0.013   1.020   0.570  1.5261 -3.0091 -0.7412
 6276SOL     OW30286   2.339   4.480   6.087  0.3530 -0.3535  0.1430
 6276SOL    HW130287   2.353   4.386   6.076  0.4887 -0.5681  2.3037
 6276SOL    HW230288   2.245   4.475   6.104  0.0480  2.0224 -0.8171
 6277SOL     OW30289   2.117   2.805   2.496  0.6349 -0.4485 -0.0641
 6277SOL    HW130290   2.133   2.812   2.402  2.5666  1.6409  0.4229
 6277SOL    HW230291   2.205   2.785   2.529  1.2977  2.1254 -0.2662
 6278SOL     OW30292   3.966   0.870  11.159  0.0267  0.0640 -0.1265
 6278SOL    HW130293   3.932   0.798  11.106 -2.0744 -0.0843  1.4039
 6278SOL    HW230294   4.050   0.888  11.116 -0.5688  0.9935 -0.9137
 6279SOL     OW30295   2.448   3.321   8.990  0.4793 -0.6901 -0.4178
 6279SOL    HW130296   2.532   3.314   8.945  0.8655 -2.0737  0.5347
 6279SOL    HW230297   2.484   3.340   9.077 -0.2124  0.7200 -0.4368
 6280SOL     OW30298   0.444   0.646   3.813 -0.2622 -0.2158  0.1780
 6280SOL    HW130299   0.480   0.715   3.759 -0.0990  0.5064  1.2031
 6280SOL    HW230300   0.414   0.695   3.890  0.6046  2.3847 -1.1468
 6281SOL     OW30301   2.161   3.489   1.751  0.3461 -0.1219  0.1808
 6281SOL    HW130302   2.216   3.557   1.791  0.3415  0.8781 -1.5383
 6281SOL    HW230303   2.085   3.504   1.806  0.4044  1.2247 -0.1039
 6282SOL     OW30304   1.768   0.691   7.108  0.5147  0.0921  0.1745
 6282SOL    HW130305   1.769   0.778   7.146  1.0760 -0.2810  1.0149
 6282SOL    HW230306   1.689   0.661   7.152  0.5619  1.1910  1.0035
 6283SOL     OW30307   2.177   4.139   5.726  0.1497  0.1824 -0.8685
 6283SOL    HW130308   2.269   4.161   5.713 -0.2098  1.5252 -1.1488
 6283SOL    HW230309   2.150   4.206   5.790  0.5454  1.1567 -1.7286
 6284SOL     OW30310   3.583   0.852   9.351 -0.2645 -0.1018 -0.2180
 6284SOL    HW130311   3.567   0.824   9.441  0.4894 -0.7633 -0.2853
 6284SOL    HW230312   3.497   0.837   9.311  0.3554  0.1145 -1.6211
 6285SOL     OW30313   2.985   0.722   2.679 -0.2998 -0.8094 -0.1941
 6285SOL    HW130314   2.993   0.790   2.612  2.7893 -0.4671  0.4952
 6285SOL    HW230315   3.071   0.680   2.668  0.4872  0.2910  1.8802
 6286SOL     OW30316   4.139   4.310   2.596 -0.4946  0.0285  0.2139
 6286SOL    HW130317   4.143   4.405   2.610  3.3342 -0.1287  0.4441
 6286SOL    HW230318   4.223   4.280   2.633  0.8562  1.4281 -1.7037
 6287SOL     OW30319   2.174   3.851  16.850 -0.1732  0.3409 -0.5321
 6287SOL    HW130320   2.126   3.773  16.822 -2.2320  1.3751  0.1316
 6287SOL    HW230321   2.144   3.918  16.789  0.6558 -1.3022 -2.7301
 6288SOL     OW30322   2.931   3.372  11.474  0.0450 -0.2129 -0.3009
 6288SOL    HW130323   2.976   3.307  11.528 -2.5059 -0.9674  0.8756
 6288SOL    HW230324   2.998   3.400  11.411 -1.1793  3.2587 -0.0420
 6289SOL     OW30325   0.252   1.509   4.244  0.4360  0.2794  0.0960
 6289SOL    HW130326   0.307   1.534   4.170  0.2967 -2.3644 -0.8955
 6289SOL    HW230327   0.294   1.438   4.292 -0.0891 -1.8333 -2.5608
 6290SOL     OW30328   4.388   3.151  17.479  0.0202  0.2214  0.2331
 6290SOL    HW130329   4.454   3.100  17.527  1.0839  0.0273 -1.4244
 6290SOL    HW230330   4.421   3.241  17.477 -3.9643  1.6406 -1.2171
 6291SOL     OW30331   4.706   3.205   3.633 -0.2358 -0.3249 -0.3660
 6291SOL    HW130332   4.699   3.111   3.650  1.0134 -0.4461 -0.5349
 6291SOL    HW230333   4.710   3.235   3.724  2.2522 -0.7040 -0.3570
 6292SOL     OW30334   2.472   1.180   4.311  0.1702  0.7851 -0.4497
 6292SOL    HW130335   2.447   1.249   4.250  0.7100 -0.9218 -2.6124
 6292SOL    HW230336   2.463   1.103   4.253 -1.7035 -1.0455  2.2723
 6293SOL     OW30337   1.258   0.147   4.355  0.2716  0.1764  0.2001
 6293SOL    HW130338   1.225   0.219   4.301  1.4624  0.3120 -0.3385
 6293SOL    HW230339   1.225   0.181   4.439  0.3763  3.2009 -0.9907
 6294SOL     OW30340   2.777   4.535  12.676 -0.0697  0.0698  0.4285
 6294SOL    HW130341   2.833   4.458  12.661 -0.2787 -0.2213  1.1136
 6294SOL    HW230342   2.836   4.611  12.671 -1.3038  1.0353  0.7375
 6295SOL     OW30343   3.760   1.257   9.269  0.2729  0.5677 -0.0353
 6295SOL    HW130344   3.812   1.231   9.193 -0.3071 -2.3272  0.5891
 6295SOL    HW230345   3.681   1.284   9.222 -0.5588  0.6760  1.4264
 6296SOL     OW30346   2.807   3.029  12.829  0.5265 -0.2740  0.1507
 6296SOL    HW130347   2.741   3.019  12.898  0.7727  0.2286  0.4606
 6296SOL    HW230348   2.788   3.118  12.799  0.5318 -0.0048  0.9512
 6297SOL     OW30349   2.951   2.905   4.186  0.5263  0.3437  0.3424
 6297SOL    HW130350   2.989   2.967   4.124 -0.1588  2.7268  2.2784
 6297SOL    HW230351   2.919   2.837   4.128  1.2733  1.3926 -1.2979
 6298SOL     OW30352   4.269   1.141  10.600 -0.0247 -0.2961 -0.2160
 6298SOL    HW130353   4.333   1.147  10.530 -0.1283 -1.3159 -0.4092
 6298SOL    HW230354   4.208   1.213  10.581 -0.5639 -0.4480  0.9547
 6299SOL     OW30355   1.769   4.415   0.942 -0.8843 -0.5299  0.1265
 6299SOL    HW130356   1.747   4.501   0.907  3.3883  0.8514  0.7771
 6299SOL    HW230357   1.685   4.396   0.984 -0.3359 -2.1770  0.4792
 6300SOL     OW30358   0.416   3.139  11.209  0.2237 -0.0896  0.3183
 6300SOL    HW130359   0.332   3.098  11.194  0.1942  0.2800 -0.5134
 6300SOL    HW230360   0.471   3.119  11.133  0.1320  3.2384 -0.6572
 6301SOL     OW30361   1.230   4.010   9.370 -0.3763 -0.0399 -0.1556
 6301SOL    HW130362   1.144   4.007   9.328  1.0253  0.6293 -3.0695
 6301SOL    HW230363   1.235   3.923   9.410 -2.0835 -0.6775 -1.3737
 6302SOL     OW30364   0.634   2.875   8.247  0.4120 -0.0285  0.4070
 6302SOL    HW130365   0.665   2.950   8.196 -2.2456  0.2160 -0.8261
 6302SOL    HW230366   0.592   2.914   8.323 -0.4266 -1.1392  0.5178
 6303SOL     OW30367   1.194   2.516   8.390  0.0155 -0.0180 -0.0473
 6303SOL    HW130368   1.206   2.467   8.308 -0.3578  0.2135 -0.2385
 6303SOL    HW230369   1.282   2.500   8.426  0.2756  1.1145 -0.1946
 6304SOL     OW30370   3.437   1.959   4.931 -0.4400  0.1611 -0.5344
 6304SOL    HW130371   3.363   2.007   4.969 -0.1378 -0.4488  0.8216
 6304SOL    HW230372   3.387   1.880   4.912  0.2899 -0.4861  0.2281
 6305SOL     OW30373   2.886   1.456   2.344  0.1412 -0.3647  0.4048
 6305SOL    HW130374   2.803   1.460   2.391  0.1516  0.3099  0.3704
 6305SOL    HW230375   2.919   1.546   2.343  0.4928 -0.4886  3.9124
 6306SOL     OW30376   1.252   4.042  12.425  0.0993  0.4274  0.2576
 6306SOL    HW130377   1.283   4.084  12.344  0.3917 -0.4296 -0.0840
 6306SOL    HW230378   1.334   4.011  12.464  1.5184  0.3162 -2.7880
 6307SOL     OW30379   0.605   3.953   6.628  0.3391  0.3679  0.3257
 6307SOL    HW130380   0.528   3.927   6.679 -0.9378  1.5977 -0.9786
 6307SOL    HW230381   0.659   3.873   6.629 -0.8972 -0.4780 -0.6306
 6308SOL     OW30382   0.125   0.108  10.235 -0.2504 -0.3080 -0.6519
 6308SOL    HW130383   0.038   0.125  10.271 -0.7330 -1.2951 -1.3539
 6308SOL    HW230384   0.175   0.176  10.281  0.1121  1.1364 -3.1828
 6309SOL     OW30385   1.391   4.117   6.740 -0.3738 -0.2512  0.4283
 6309SOL    HW130386   1.360   4.055   6.805  0.4449 -1.0734  0.0343
 6309SOL    HW230387   1.448   4.177   6.789  0.5724 -0.9762  0.2243
 6310SOL     OW30388   2.184   1.122   7.154 -0.2562  0.1780  0.0984
 6310SOL    HW130389   2.122   1.193   7.139 -1.2716 -1.0242 -1.4381
 6310SOL    HW230390   2.227   1.117   7.069 -1.5368  0.3161 -0.5592
 6311SOL     OW30391   2.904   1.272   9.220 -0.4508 -0.1106  0.3922
 6311SOL    HW130392   2.840   1.205   9.197 -0.6212 -0.0658  0.7421
 6311SOL    HW230393   2.888   1.302   9.310 -0.1551 -0.6870  0.6354
 6312SOL     OW30394   1.820   1.719   1.551 -0.3545  0.5110  0.0238
 6312SOL    HW130395   1.823   1.652   1.619 -0.4662  1.1104  0.6145
 6312SOL    HW230396   1.891   1.700   1.490 -0.4638 -1.9916  0.6857
 6313SOL     OW30397   4.478   2.623   4.548  0.5764 -0.2885 -0.0553
 6313SOL    HW130398   4.422   2.684   4.500 -0.2864 -0.3467  0.8810
 6313SOL    HW230399   4.411   2.560   4.575  2.8851 -1.3489  3.1424
 6314SOL     OW30400   0.925   0.985   1.164  0.1776  0.3650 -0.4694
 6314SOL    HW130401   0.966   1.052   1.219 -1.9820 -0.9370  2.7574
 6314SOL    HW230402   0.900   0.920   1.230 -1.2198  2.5662  1.1726
 6315SOL     OW30403   1.842   3.449  11.632  0.1791 -0.7890 -0.3594
 6315SOL    HW130404   1.796   3.402  11.563  2.3656 -0.4067 -2.1076
 6315SOL    HW230405   1.933   3.432  11.607  0.7142  0.0026  1.0063
 6316SOL     OW30406   2.746   3.648   3.898  0.2055  0.5571  0.2383
 6316SOL    HW130407   2.771   3.557   3.884 -0.5526  0.6051 -1.5786
 6316SOL    HW230408   2.657   3.640   3.934  0.4940 -1.6282  0.4475
 6317SOL     OW30409   2.737   3.562  17.616  0.4686  0.1236 -0.1306
 6317SOL    HW130410   2.728   3.479  17.663  0.8835 -0.3104 -0.8200
 6317SOL    HW230411   2.671   3.549  17.548  0.7160  1.0959 -0.5530
 6318SOL     OW30412   3.463   0.561   4.495  0.7231  0.6420  0.3890
 6318SOL    HW130413   3.377   0.602   4.504  0.6175  0.4507  0.2714
 6318SOL    HW230414   3.453   0.497   4.424  1.1009  1.1075 -0.0829
 6319SOL     OW30415   1.011   4.107   3.154 -0.6456 -0.1718  0.0732
 6319SOL    HW130416   1.037   4.165   3.226 -0.9203  2.9246 -2.2829
 6319SOL    HW230417   0.924   4.084   3.184 -1.6571  2.6626 -0.6652
 6320SOL     OW30418   2.196   4.150   8.981 -0.2936  0.2931 -0.0701
 6320SOL    HW130419   2.250   4.079   8.945 -0.7443  0.0539 -0.2673
 6320SOL    HW230420   2.166   4.114   9.064  0.0084 -0.5020 -0.3053
 6321SOL     OW30421   3.127   2.912   4.391  0.9425 -0.1946  0.6419
 6321SOL    HW130422   3.080   2.892   4.472 -0.4279  1.3199  0.2200
 6321SOL    HW230423   3.056   2.940   4.333 -0.0645 -0.7020  1.6423
 6322SOL     OW30424   1.430   4.280  11.859 -0.2260  0.0451  0.0321
 6322SOL    HW130425   1.515   4.270  11.902  0.6727  0.1324 -1.7324
 6322SOL    HW230426   1.390   4.193  11.867 -3.0077  1.3377  0.0915
 6323SOL     OW30427   0.564   2.979   3.047  0.1672 -0.1539  0.0013
 6323SOL    HW130428   0.551   2.893   3.008 -0.0511 -0.5210  0.8780
 6323SOL    HW230429   0.501   3.034   3.000 -0.6749  0.0188  1.3306
 6324SOL     OW30430   0.549   2.000   3.116  0.2867 -0.2391 -0.3633
 6324SOL    HW130431   0.620   1.992   3.180 -0.6496  2.6164  0.9936
 6324SOL    HW230432   0.514   2.087   3.133 -1.2453 -0.8415 -0.4661
 6325SOL     OW30433   3.313   4.090  14.009  0.4423 -0.2910  0.4759
 6325SOL    HW130434   3.357   4.130  13.934  0.7744 -0.0488  0.8040
 6325SOL    HW230435   3.248   4.157  14.029 -0.3870 -1.4298  1.6036
 6326SOL     OW30436   1.525   1.514   3.396  0.3171 -0.6154 -0.2988
 6326SOL    HW130437   1.614   1.481   3.386  0.9375  1.5765 -1.9224
 6326SOL    HW230438   1.527   1.534   3.490  0.4173  2.0277 -0.8489
 6327SOL     OW30439   1.215   2.586   0.221  0.1199 -0.3800  0.1509
 6327SOL    HW130440   1.263   2.515   0.263  0.7501  2.0323  3.5586
 6327SOL    HW230441   1.174   2.633   0.293  1.0982  0.2247  0.3179
 6328SOL     OW30442   2.110   2.610  10.390  0.5095 -0.1949  0.1083
 6328SOL    HW130443   2.152   2.693  10.410  2.1270 -1.6621  2.8106
 6328SOL    HW230444   2.084   2.626  10.300 -1.3034  0.2140  0.7006
 6329SOL     OW30445   1.424   0.079  14.182  0.1157 -0.1104 -0.1516
 6329SOL    HW130446   1.356   0.127  14.229  0.1419 -0.8639  0.6503
 6329SOL    HW230447   1.492   0.139  14.210  0.7378 -0.2644 -1.3126
 6330SOL     OW30448   1.804   0.309   3.593 -0.1595 -0.2593  0.8275
 6330SOL    HW130449   1.785   0.234   3.650 -2.0161 -0.0982  0.4296
 6330SOL    HW230450   1.762   0.375   3.648 -1.9436 -0.5177 -0.2053
 6331SOL     OW30451   0.999   4.444   3.027  0.5008  0.1332  0.3973
 6331SOL    HW130452   0.910   4.454   2.994  0.6317 -1.2068 -0.3615
 6331SOL    HW230453   1.038   4.516   2.979  0.3424 -0.4715 -0.6322
 6332SOL     OW30454   3.501   2.367   1.752  0.0124 -0.7083 -0.3684
 6332SOL    HW130455   3.444   2.389   1.826  1.9784  0.5264  0.7635
 6332SOL    HW230456   3.566   2.435   1.768  0.1672 -1.0200  0.3098
 6333SOL     OW30457   0.220   1.451   6.815  0.1900  0.2919 -0.1625
 6333SOL    HW130458   0.155   1.468   6.747  0.7855 -0.5386 -0.9367
 6333SOL    HW230459   0.262   1.370   6.786  0.5062  1.5832 -3.2405
 6334SOL     OW30460   1.878   0.009  10.260  0.1773 -0.7244  0.0261
 6334SOL    HW130461   1.937   4.678  10.312  0.7569 -0.8685 -0.7924
 6334SOL    HW230462   1.855   0.080  10.319  1.6407  0.5728 -0.9841
 6335SOL     OW30463   1.908   3.392  16.862  0.6350 -0.0450  0.5999
 6335SOL    HW130464   1.845   3.459  16.836  0.2876 -0.6965 -0.2519
 6335SOL    HW230465   1.984   3.414  16.808 -0.2646 -0.4977 -0.8441
 6336SOL     OW30466   0.281   4.267   2.481 -0.0156 -0.2382  0.2935
 6336SOL    HW130467   0.220   4.214   2.532 -0.7348 -0.1958 -0.5145
 6336SOL    HW230468   0.260   4.242   2.391 -1.0649 -1.0291  0.7504
 6337SOL     OW30469   2.588   3.427  17.407  0.2647 -0.0485 -0.4693
 6337SOL    HW130470   2.558   3.342  17.439 -0.1300  0.9141  1.6863
 6337SOL    HW230471   2.510   3.453  17.357  0.8404 -0.2098 -1.4624
 6338SOL     OW30472   1.000   3.479  14.121  0.2916  0.4186  0.0305
 6338SOL    HW130473   1.037   3.396  14.089  1.2472 -0.3426  3.1411
 6338SOL    HW230474   0.966   3.510  14.037  0.2131 -1.1019 -0.5104
 6339SOL     OW30475   1.997   3.021   1.909  0.1222 -0.0140 -0.0110
 6339SOL    HW130476   2.014   2.987   1.821 -0.9137  1.8995 -0.9463
 6339SOL    HW230477   1.925   2.963   1.934  1.2661 -1.4689 -0.0793
 6340SOL     OW30478   1.387   0.004   1.592  0.5893 -0.2003  0.2798
 6340SOL    HW130479   1.396   0.070   1.524  0.3416 -1.7034 -1.2110
 6340SOL    HW230480   1.310   4.689   1.549  2.5628 -2.4213 -1.2314
 6341SOL     OW30481   3.604   0.113   4.777 -0.1757  1.1520 -0.2064
 6341SOL    HW130482   3.683   0.126   4.829 -0.9510  1.1006  0.9847
 6341SOL    HW230483   3.619   0.174   4.705 -0.5242  1.8709  0.3363
 6342SOL     OW30484   3.179   2.823  15.401 -0.0784  0.4956 -0.2873
 6342SOL    HW130485   3.258   2.876  15.390 -0.0823  0.8905  1.7242
 6342SOL    HW230486   3.181   2.776  15.317 -1.9643  0.7882 -0.4887
 6343SOL     OW30487   1.467   2.433   6.742  0.1741 -0.2259  0.3638
 6343SOL    HW130488   1.475   2.484   6.823  1.8291 -2.8237  1.8405
 6343SOL    HW230489   1.560   2.418   6.726  0.3169  0.3400  0.6601
 6344SOL     OW30490   4.123   4.309   0.892 -0.1738 -0.2456  0.2920
 6344SOL    HW130491   4.099   4.302   0.985  2.6453 -3.3140  0.7617
 6344SOL    HW230492   4.059   4.379   0.876 -0.5593 -0.9796 -1.3849
 6345SOL     OW30493   0.479   3.375   9.038  0.2869  0.0508  0.3745
 6345SOL    HW130494   0.435   3.447   8.993 -0.3552 -0.8772 -0.4711
 6345SOL    HW230495   0.478   3.411   9.127  0.2209 -1.8944  1.1632
 6346SOL     OW30496   1.270   3.953   4.483  0.1159 -0.2838 -0.0872
 6346SOL    HW130497   1.293   3.970   4.392 -1.7365  0.3371 -0.4311
 6346SOL    HW230498   1.357   3.958   4.522 -0.3234  1.1206  0.7273
 6347SOL     OW30499   3.888   3.285   8.170  0.1565  0.3510 -0.1203
 6347SOL    HW130500   3.924   3.263   8.256 -0.3294  2.0978  0.5328
 6347SOL    HW230501   3.796   3.302   8.192  1.0467  3.2902  1.3181
 6348SOL     OW30502   2.189   3.032   4.300  0.5755  0.1522 -0.0669
 6348SOL    HW130503   2.105   3.034   4.255 -0.0380  0.0216  1.0869
 6348SOL    HW230504   2.163   2.988   4.381 -0.2359 -1.2314 -1.0859
 6349SOL     OW30505   3.876   0.255   8.255  0.5924 -0.0979 -0.4819
 6349SOL    HW130506   3.871   0.215   8.342  0.6927  1.5153  0.2683
 6349SOL    HW230507   3.914   0.179   8.210 -0.7470 -1.0088 -0.0740
 6350SOL     OW30508   3.327   0.218   4.964  0.2213 -0.2078 -0.1116
 6350SOL    HW130509   3.375   0.274   4.903 -1.4481  0.6904 -0.5663
 6350SOL    HW230510   3.299   0.278   5.033  0.7152  0.0966 -0.1738
 6351SOL     OW30511   3.178   4.331   5.246  0.5147  0.0093 -0.3270
 6351SOL    HW130512   3.156   4.423   5.231 -0.9813 -0.4668 -1.0053
 6351SOL    HW230513   3.261   4.330   5.198  0.5710  0.7186 -0.2391
 6352SOL     OW30514   2.431   1.542   8.464  0.1008 -0.0070  0.2376
 6352SOL    HW130515   2.368   1.611   8.444 -1.1025 -0.1930  3.3274
 6352SOL    HW230516   2.380   1.468   8.496  0.8993 -0.6621 -0.0190
 6353SOL     OW30517   2.776   3.457   2.200 -0.0197 -0.5655  0.1827
 6353SOL    HW130518   2.847   3.449   2.136 -0.1122  1.4730 -0.1438
 6353SOL    HW230519   2.748   3.544   2.174 -0.7883 -0.7283  0.4643
 6354SOL     OW30520   3.064   0.893   7.734  0.4017  0.4190  0.9943
 6354SOL    HW130521   3.017   0.932   7.807 -2.3314  1.1404 -1.1629
 6354SOL    HW230522   3.076   0.807   7.776  1.3436 -0.5466 -1.2473
 6355SOL     OW30523   1.894   0.705   0.727 -0.1028 -0.0824 -0.1163
 6355SOL    HW130524   1.823   0.708   0.791 -2.1140 -1.1658 -2.2681
 6355SOL    HW230525   1.887   0.786   0.677 -0.5075  0.7302  1.2710
 6356SOL     OW30526   0.919   4.659   3.864  0.2905 -0.2763 -0.3802
 6356SOL    HW130527   0.970   4.704   3.931  0.1168 -0.9056  0.1762
 6356SOL    HW230528   0.873   4.591   3.914  0.3947  0.3243  0.5256
 6357SOL     OW30529   0.188   3.791  13.709 -0.4761  0.0785 -0.6954
 6357SOL    HW130530   0.099   3.816  13.686 -1.1248 -1.4778  0.1356
 6357SOL    HW230531   0.218   3.751  13.627  0.9224 -2.6872  1.1738
 6358SOL     OW30532   4.627   3.106   0.394 -0.0180 -0.2099  0.2965
 6358SOL    HW130533   4.581   3.189   0.391  1.7757  0.7548 -0.7650
 6358SOL    HW230534   4.718   3.133   0.407  0.4650 -0.8988 -1.7116
 6359SOL     OW30535   2.867   0.235  12.117  0.0748  0.2328  0.2813
 6359SOL    HW130536   2.951   0.218  12.075  0.0141 -4.0429  1.8316
 6359SOL    HW230537   2.808   0.246  12.043 -1.1669  0.1267  1.2583
 6360SOL     OW30538   1.854   3.107  15.200  0.2718  0.0420 -0.4394
 6360SOL    HW130539   1.791   3.142  15.263 -1.5066 -4.4044  0.2602
 6360SOL    HW230540   1.875   3.190  15.158  2.5799 -0.2629  0.1511
 6361SOL     OW30541   2.460   0.404  13.701 -0.4145  0.1249 -0.1049
 6361SOL    HW130542   2.523   0.469  13.732  0.6918  0.5421 -3.2030
 6361SOL    HW230543   2.434   0.446  13.619  0.7637  2.5160  0.7354
 6362SOL     OW30544   1.111   4.219   1.216 -0.5474 -0.2218 -0.2053
 6362SOL    HW130545   1.042   4.153   1.214  0.2007 -0.9945 -0.0342
 6362SOL    HW230546   1.093   4.283   1.146 -1.4919  0.3164  0.5296
 6363SOL     OW30547   4.593   2.284   4.209 -0.0531 -0.1613  0.1197
 6363SOL    HW130548   4.635   2.340   4.144 -0.7972 -0.8117 -0.9127
 6363SOL    HW230549   4.662   2.218   4.219  0.3107  0.5635  2.2760
 6364SOL     OW30550   0.730   4.254  12.350  0.8299  0.1924 -0.6723
 6364SOL    HW130551   0.678   4.296  12.418 -0.1363 -1.0949 -0.6238
 6364SOL    HW230552   0.808   4.228  12.399  0.8469  2.0088  0.2870
 6365SOL     OW30553   0.044   1.345   1.891  0.0128  0.4881  0.3363
 6365SOL    HW130554   0.013   1.433   1.870  1.0218  0.3900 -1.6000
 6365SOL    HW230555   4.700   1.318   1.953 -1.3953  1.2403 -0.8726
 6366SOL     OW30556   3.099   1.473  16.599 -0.3514  0.5527 -0.1463
 6366SOL    HW130557   3.158   1.547  16.610  0.6184 -0.1262 -0.8478
 6366SOL    HW230558   3.022   1.512  16.557 -1.8680  0.1100  2.2406
 6367SOL     OW30559   4.691   1.646   4.243 -0.3467  0.0524 -0.0829
 6367SOL    HW130560   4.694   1.665   4.149 -0.0200 -0.3108 -0.1453
 6367SOL    HW230561   0.057   1.618   4.258 -0.2251 -0.9286 -2.6237
 6368SOL     OW30562   1.386   1.175  12.277 -0.5489 -0.5131  0.0774
 6368SOL    HW130563   1.364   1.096  12.228 -0.3630 -1.7724  2.0019
 6368SOL    HW230564   1.360   1.248  12.222  1.2380  0.5719  0.6823
 6369SOL     OW30565   0.871   1.714  15.040  0.4590  0.0961 -0.0234
 6369SOL    HW130566   0.919   1.749  14.964  1.7667 -0.8722  0.3434
 6369SOL    HW230567   0.853   1.795  15.087 -1.0135 -0.3437  0.1509
 6370SOL     OW30568   0.526   3.801   2.618 -0.1184  0.0753  0.5909
 6370SOL    HW130569   0.508   3.885   2.575 -1.8944 -1.0889 -0.9682
 6370SOL    HW230570   0.447   3.751   2.596 -0.1660  0.0241  0.8781
 6371SOL     OW30571   0.439   2.979   3.782  0.3413  0.0054 -0.1003
 6371SOL    HW130572   0.388   2.898   3.788  0.4205 -0.0245  0.1457
 6371SOL    HW230573   0.421   3.016   3.695 -1.8131  1.1323  0.7998
 6372SOL     OW30574   4.721   4.126   9.144 -0.7905 -0.0848  0.3292
 6372SOL    HW130575   4.642   4.100   9.095 -1.3479 -0.2757  1.3424
 6372SOL    HW230576   0.012   4.053   9.204  1.0365 -1.2783 -1.5348
 6373SOL     OW30577   1.397   0.412   7.993 -0.6225 -0.2240  0.3726
 6373SOL    HW130578   1.452   0.430   8.069  1.0167  2.5419 -1.4410
 6373SOL    HW230579   1.413   0.493   7.943 -0.2272 -0.0611  0.7692
 6374SOL     OW30580   3.632   2.022  16.510  0.3324 -0.3915 -0.0548
 6374SOL    HW130581   3.636   2.044  16.603 -3.2282  1.9198 -0.4522
 6374SOL    HW230582   3.574   2.095  16.486  0.5117  0.5791  2.4500
 6375SOL     OW30583   2.962   1.153  10.055 -0.1312  0.2020 -0.2943
 6375SOL    HW130584   2.991   1.065  10.079  1.5068  0.7950 -0.0912
 6375SOL    HW230585   3.037   1.207  10.081 -0.9850  1.4575 -0.4836
 6376SOL     OW30586   0.563   1.104   5.956 -0.3505 -0.0921  0.5736
 6376SOL    HW130587   0.547   1.050   6.033 -0.6069 -1.1216 -0.1938
 6376SOL    HW230588   0.550   1.186   6.003 -0.0447 -0.5429  1.4438
 6377SOL     OW30589   2.352   1.538  15.430  0.3311  0.5137  0.2725
 6377SOL    HW130590   2.335   1.626  15.396  0.3936  0.0447 -0.9887
 6377SOL    HW230591   2.268   1.523  15.473  1.3197  0.3704  2.1634
 6378SOL     OW30592   2.869   2.791  13.371  0.1802  0.6043 -0.3847
 6378SOL    HW130593   2.895   2.721  13.431  0.8073  0.3874 -0.9097
 6378SOL    HW230594   2.782   2.807  13.407 -0.1469 -2.2631  0.1389
 6379SOL     OW30595   0.742   2.283   6.719  0.1023  0.5555 -0.0001
 6379SOL    HW130596   0.724   2.190   6.732  1.7237 -0.2657 -3.5453
 6379SOL    HW230597   0.754   2.302   6.812 -1.3567  2.7478 -0.2654
 6380SOL     OW30598   2.727   3.892   3.773  0.4604  0.1029 -0.1526
 6380SOL    HW130599   2.816   3.928   3.766  0.3816  0.3164 -0.0724
 6380SOL    HW230600   2.742   3.805   3.810 -0.7130 -0.2845 -0.5697
 6381SOL     OW30601   3.975   1.833   5.333 -0.0410 -0.3121 -0.0189
 6381SOL    HW130602   3.988   1.820   5.427  0.1214 -1.0705 -0.1484
 6381SOL    HW230603   3.900   1.779   5.307 -0.4761 -0.3895  1.4176
 6382SOL     OW30604   0.924   2.396   7.010  0.7218 -0.1468  0.1815
 6382SOL    HW130605   0.873   2.376   7.089 -0.2448 -2.0844 -0.9181
 6382SOL    HW230606   0.949   2.306   6.988 -1.1765 -0.5910 -0.1767
 6383SOL     OW30607   0.869   4.346   8.664 -0.4389 -0.1055 -0.4311
 6383SOL    HW130608   0.834   4.345   8.574  0.7747 -3.9292 -0.8671
 6383SOL    HW230609   0.871   4.255   8.694 -1.8088 -0.2593 -0.7675
 6384SOL     OW30610   4.358   0.067   1.351 -0.3209  0.5244 -0.0172
 6384SOL    HW130611   4.277   0.044   1.305  0.2832  1.7032 -1.6107
 6384SOL    HW230612   4.412   0.080   1.274 -0.6112  2.0374  0.0500
 6385SOL     OW30613   2.766   1.202   0.706 -0.5295 -0.0892  0.1003
 6385SOL    HW130614   2.793   1.278   0.758 -0.8837 -0.2995  0.5938
 6385SOL    HW230615   2.855   1.167   0.703 -0.8855 -0.9074 -0.9529
 6386SOL     OW30616   3.631   2.743  13.373 -0.3137  0.7768  0.1997
 6386SOL    HW130617   3.670   2.808  13.432  1.5229  0.1513 -0.3078
 6386SOL    HW230618   3.638   2.785  13.287  0.2000  0.0019 -0.1371
 6387SOL     OW30619   3.576   0.526   2.962  0.0249  0.3265  0.0657
 6387SOL    HW130620   3.610   0.581   2.891 -1.4269 -1.0036 -1.6423
 6387SOL    HW230621   3.502   0.584   2.978  0.0164  0.5750 -0.8654
 6388SOL     OW30622   1.032   3.756   5.704 -0.8268 -0.0065  0.3186
 6388SOL    HW130623   1.070   3.716   5.783  0.7168  0.1238 -0.3766
 6388SOL    HW230624   0.976   3.684   5.674 -2.9533  0.1600  3.8092
 6389SOL     OW30625   1.804   0.806   8.622 -0.1049  0.0667 -0.1201
 6389SOL    HW130626   1.888   0.816   8.668  1.9319 -0.7540 -3.6961
 6389SOL    HW230627   1.821   0.716   8.596  1.0478  0.0004  0.8542
 6390SOL     OW30628   3.914   3.602   5.429 -0.1711 -0.3111 -0.2630
 6390SOL    HW130629   3.831   3.603   5.382  0.1588 -1.2559 -0.8602
 6390SOL    HW230630   3.914   3.530   5.491 -0.5225  0.9800  1.2530
 6391SOL     OW30631   4.514   4.143   7.571 -0.1104 -0.0514  0.6330
 6391SOL    HW130632   4.530   4.082   7.499 -0.2564 -0.0994  0.6409
 6391SOL    HW230633   4.419   4.139   7.582 -0.0897 -2.2501  0.0196
 6392SOL     OW30634   1.936   0.333   2.737  0.1090  0.1450 -0.1622
 6392SOL    HW130635   1.987   0.414   2.731  1.8693 -1.0835 -1.9456
 6392SOL    HW230636   2.010   0.276   2.757 -1.0869 -2.0603 -1.9165
 6393SOL     OW30637   4.577   3.110   3.305 -0.5105 -0.3234 -0.1401
 6393SOL    HW130638   4.545   3.157   3.381  0.7541 -1.0835  0.8657
 6393SOL    HW230639   4.658   3.161   3.298  0.1154 -1.2804  0.1165
 6394SOL     OW30640   2.516   2.623   9.259 -0.2542  0.1647  0.1168
 6394SOL    HW130641   2.578   2.690   9.287  0.1255  0.2838 -1.0028
 6394SOL    HW230642   2.427   2.656   9.273 -0.0619  0.0486  1.5467
 6395SOL     OW30643   0.331   2.440   6.155  0.1588 -0.0553  0.1446
 6395SOL    HW130644   0.356   2.514   6.210 -0.3412 -0.3981  0.8323
 6395SOL    HW230645   0.277   2.391   6.217 -0.0488 -1.0105 -0.7906
 6396SOL     OW30646   0.339   0.041   5.655 -0.3651  0.5548 -0.1040
 6396SOL    HW130647   0.333   0.094   5.575  0.1163  0.0879 -0.4527
 6396SOL    HW230648   0.429   0.066   5.675 -0.0304  1.3006 -2.5673
 6397SOL     OW30649   3.301   2.736   9.318 -0.0482  0.2396  0.0698
 6397SOL    HW130650   3.339   2.713   9.402  0.4150 -0.2917 -0.2908
 6397SOL    HW230651   3.309   2.659   9.261 -2.0389  1.4210 -1.8361
 6398SOL     OW30652   2.150   2.824   2.199 -0.0402 -0.2540  0.5027
 6398SOL    HW130653   2.148   2.857   2.109 -0.3490  0.1038  0.6412
 6398SOL    HW230654   2.232   2.775   2.204  0.2527  0.2087  0.2117
 6399SOL     OW30655   2.238   3.048  13.837 -0.0120  0.0461  0.1897
 6399SOL    HW130656   2.231   3.139  13.866 -0.4348 -0.1002  0.5505
 6399SOL    HW230657   2.325   3.054  13.799  0.2032  1.1548  0.8658
 6400SOL     OW30658   4.543   1.880   7.479  0.2194 -0.2873  0.6669
 6400SOL    HW130659   4.453   1.913   7.480  0.5008  0.5045  0.2553
 6400SOL    HW230660   4.535   1.786   7.497 -0.6086 -0.3510 -0.0906
 6401SOL     OW30661   2.910   3.783   4.123 -0.6324  0.3704  0.4890
 6401SOL    HW130662   2.892   3.768   4.030 -0.0723  0.2497  0.4019
 6401SOL    HW230663   2.943   3.873   4.122  2.3479 -0.7329  0.5288
 6402SOL     OW30664   0.428   2.734   7.226  0.4064  0.2366 -0.3580
 6402SOL    HW130665   0.483   2.806   7.259  2.8211 -1.6129 -0.3245
 6402SOL    HW230666   0.375   2.722   7.304  3.2672  1.5496  1.8070
 6403SOL     OW30667   3.480   2.451   3.517  0.2314 -0.1281  0.1687
 6403SOL    HW130668   3.551   2.388   3.500 -0.3056 -0.6566 -0.1266
 6403SOL    HW230669   3.512   2.483   3.601 -0.6523  0.4363  0.2869
 6404SOL     OW30670   1.331   3.480   7.813 -0.1074  0.3840  0.1313
 6404SOL    HW130671   1.282   3.549   7.859  0.9448  2.3558 -1.7041
 6404SOL    HW230672   1.275   3.405   7.833 -1.4397  1.7640  1.5921
 6405SOL     OW30673   0.341   4.266   5.888 -0.8896 -0.4314 -0.1159
 6405SOL    HW130674   0.353   4.210   5.813 -0.7160 -1.4805  0.6976
 6405SOL    HW230675   0.398   4.340   5.867 -0.0515 -1.2754 -0.7789
 6406SOL     OW30676   4.200   2.330   7.307 -0.3143  0.0932 -0.0194
 6406SOL    HW130677   4.121   2.277   7.319 -0.0878  0.0040  1.0820
 6406SOL    HW230678   4.266   2.264   7.328  0.9419  1.0404 -1.0253
 6407SOL     OW30679   2.235   0.096   5.402 -0.0962  0.2812 -0.1599
 6407SOL    HW130680   2.160   0.035   5.404 -0.8567  1.3305  2.7201
 6407SOL    HW230681   2.310   0.041   5.424 -1.3259 -0.0299  3.2137
 6408SOL     OW30682   1.273   4.480   0.925 -0.0169 -0.0559 -0.4187
 6408SOL    HW130683   1.210   4.458   0.856 -0.2819  0.0339 -0.2042
 6408SOL    HW230684   1.215   4.487   1.000  2.6922  0.8642  1.6130
 6409SOL     OW30685   4.610   3.459   1.724 -1.2351 -0.1933  0.1793
 6409SOL    HW130686   4.704   3.456   1.708 -0.9423  0.7035  1.7774
 6409SOL    HW230687   4.595   3.547   1.692 -1.4465 -1.5144 -3.4176
 6410SOL     OW30688   0.748   0.858   6.017 -0.2208 -0.8750 -0.0949
 6410SOL    HW130689   0.722   0.942   6.055  0.8580 -1.3705  1.7532
 6410SOL    HW230690   0.838   0.840   6.046  0.3371 -0.1765 -1.3898
 6411SOL     OW30691   3.522   4.222   3.744  0.0685  0.3347 -0.2236
 6411SOL    HW130692   3.437   4.195   3.779 -0.1616  2.0611  0.5828
 6411SOL    HW230693   3.573   4.143   3.759 -1.2800 -0.4972  0.0600
 6412SOL     OW30694   0.497   1.483  17.189 -0.3372 -0.0047 -0.5638
 6412SOL    HW130695   0.454   1.406  17.227 -0.6398  1.6464  2.4887
 6412SOL    HW230696   0.438   1.547  17.229  0.2504  0.2275 -0.0640
 6413SOL     OW30697   3.538   4.407   1.380 -0.1597 -0.4686  0.4909
 6413SOL    HW130698   3.609   4.441   1.326  0.2763 -0.9381  0.7676
 6413SOL    HW230699   3.570   4.432   1.467  0.9379  1.3417 -0.4366
 6414SOL     OW30700   1.299   3.017  15.538 -0.0770  0.2640 -0.0076
 6414SOL    HW130701   1.340   2.947  15.587 -0.3167 -0.8803 -1.4372
 6414SOL    HW230702   1.229   2.969  15.494  0.1787 -0.7113  0.6689
 6415SOL     OW30703   1.959   1.936   7.544 -0.5425 -0.3795 -0.6356
 6415SOL    HW130704   2.049   1.942   7.576 -0.8362 -2.1789  0.4899
 6415SOL    HW230705   1.911   1.931   7.626  1.9746  0.3309  0.8774
 6416SOL     OW30706   4.223   4.067   2.425  1.0229 -0.2013  0.2429
 6416SOL    HW130707   4.170   4.140   2.392  1.2999 -0.4974 -0.8475
 6416SOL    HW230708   4.308   4.104   2.449  0.8375 -0.9891  2.0458
 6417SOL     OW30709   0.298   0.295  16.128 -0.1573  0.4052  0.4025
 6417SOL    HW130710   0.248   0.309  16.048 -0.6495  1.3028  0.8630
 6417SOL    HW230711   0.385   0.309  16.092 -0.2857  0.8251  0.2618
 6418SOL     OW30712   3.466   0.446   2.408 -0.3753 -0.1120 -0.0706
 6418SOL    HW130713   3.490   0.523   2.460 -3.0867  1.3875 -1.0059
 6418SOL    HW230714   3.373   0.458   2.389 -0.7086  0.8245  2.0767
 6419SOL     OW30715   1.735   0.831   6.069  0.0614 -0.0602  0.2285
 6419SOL    HW130716   1.765   0.895   6.133 -3.0351  0.4361  1.2112
 6419SOL    HW230717   1.646   0.807   6.095 -0.7552  1.0372 -1.4968
 6420SOL     OW30718   1.067   1.003   9.274  0.5045  0.0489  0.0397
 6420SOL    HW130719   1.091   0.918   9.309 -0.8235 -0.3858 -0.1083
 6420SOL    HW230720   1.137   1.015   9.209  0.0582  0.4888 -0.3603
 6421SOL     OW30721   1.276   4.482   5.537  0.4939 -0.0675  0.4326
 6421SOL    HW130722   1.326   4.426   5.597  0.0075  0.9875  1.8112
 6421SOL    HW230723   1.183   4.467   5.553  0.9044 -1.4458  1.4682
 6422SOL     OW30724   1.601   0.070   4.531 -0.6442  0.4175  0.1935
 6422SOL    HW130725   1.553   0.001   4.483  0.7487  0.2771 -0.9917
 6422SOL    HW230726   1.691   0.047   4.554  0.1189  1.7455 -1.4483
 6423SOL     OW30727   2.774   4.550  15.850  0.6109  0.7297  0.0590
 6423SOL    HW130728   2.697   4.548  15.793  0.5299 -0.6587  0.2310
 6423SOL    HW230729   2.781   4.643  15.872  2.4362  0.6383 -0.0727
 6424SOL     OW30730   3.983   2.458   7.929  0.2114  1.0605 -0.2882
 6424SOL    HW130731   4.011   2.453   8.021 -0.6227  0.5364 -0.0649
 6424SOL    HW230732   3.970   2.365   7.914 -0.1035  0.7371  1.9820
 6425SOL     OW30733   0.122   3.263   4.531 -0.1702 -0.3833  0.3665
 6425SOL    HW130734   0.156   3.176   4.511  0.8069  0.3384 -1.0697
 6425SOL    HW230735   0.031   3.259   4.501 -0.0313 -1.1402  0.0616
 6426SOL     OW30736   4.578   2.516   3.803 -0.2673  0.4979  0.0991
 6426SOL    HW130737   4.492   2.499   3.841 -0.7516  2.7100  0.0208
 6426SOL    HW230738   4.577   2.478   3.715  2.0616  1.1788 -0.2397
 6427SOL     OW30739   4.359   2.513   5.953  0.3443 -0.4823 -0.1092
 6427SOL    HW130740   4.345   2.436   5.898 -0.2563  0.0170 -0.6475
 6427SOL    HW230741   4.377   2.573   5.881 -1.8282 -0.2305 -0.4338
 6428SOL     OW30742   3.843   0.294   7.725  0.0037  0.1423  0.1765
 6428SOL    HW130743   3.762   0.343   7.739 -0.6856 -0.6908 -0.8613
 6428SOL    HW230744   3.909   0.362   7.737 -0.0986  0.0781  1.0966
 6429SOL     OW30745   0.710   4.428  12.102  0.8590  0.4804  0.2808
 6429SOL    HW130746   0.728   4.367  12.173  1.9538  2.0717  1.3629
 6429SOL    HW230747   0.764   4.503  12.127 -0.5605  1.8292 -0.6230
 6430SOL     OW30748   2.257   2.062   5.606 -0.1275 -0.4739 -0.3437
 6430SOL    HW130749   2.236   1.997   5.673 -0.6877  0.3617  0.2817
 6430SOL    HW230750   2.294   2.129   5.664  0.5787  0.3659 -1.7701
 6431SOL     OW30751   4.066   3.335   5.148  0.1443 -0.1311  0.2771
 6431SOL    HW130752   4.072   3.364   5.056 -0.6301  0.1705  0.3249
 6431SOL    HW230753   4.114   3.252   5.147 -0.4950 -0.4855 -1.1684
 6432SOL     OW30754   4.534   3.524   6.942 -0.3328 -0.0716  0.1460
 6432SOL    HW130755   4.490   3.549   6.860 -2.1192 -0.9895  0.8279
 6432SOL    HW230756   4.601   3.468   6.904  1.5741  1.0586  1.8845
 6433SOL     OW30757   4.032   0.498   5.073  0.1179 -0.1028 -0.0934
 6433SOL    HW130758   4.043   0.487   4.978  0.1570  0.5967 -0.1662
 6433SOL    HW230759   3.949   0.452   5.090  0.5088  0.5739  3.5726
 6434SOL     OW30760   1.839   3.665   9.248 -0.0876 -0.1208 -0.5989
 6434SOL    HW130761   1.903   3.714   9.196  1.6875 -0.1044  1.6221
 6434SOL    HW230762   1.819   3.721   9.323  0.2681 -3.2191  1.8078
 6435SOL     OW30763   4.041   3.522   8.989 -0.1445 -0.5592 -0.0144
 6435SOL    HW130764   4.086   3.456   9.041 -0.8621  0.1578  1.5256
 6435SOL    HW230765   4.053   3.597   9.048 -1.0297  0.2198 -0.8202
 6436SOL     OW30766   2.639   1.953   8.803  1.0247  0.5465  0.6761
 6436SOL    HW130767   2.693   1.983   8.877  1.7488 -0.3703  0.5093
 6436SOL    HW230768   2.701   1.956   8.731  1.5366 -1.3322  1.0441
 6437SOL     OW30769   2.035   4.196  16.761  0.2035  0.1514  0.2211
 6437SOL    HW130770   1.971   4.140  16.805 -0.9298  0.6991 -0.7280
 6437SOL    HW230771   1.984   4.275  16.743 -0.3912 -0.4424 -0.7230
 6438SOL     OW30772   2.911   4.467   5.155 -0.0930  0.5123  0.3924
 6438SOL    HW130773   2.957   4.449   5.073  0.5567 -1.0057  1.0771
 6438SOL    HW230774   2.982   4.494   5.213  1.0717 -2.8057  0.5393
 6439SOL     OW30775   1.313   2.412   6.241  0.1124 -0.8460 -0.1817
 6439SOL    HW130776   1.225   2.444   6.258 -0.2865 -2.4963  0.8575
 6439SOL    HW230777   1.334   2.483   6.180 -0.5422  0.8503  1.5788
 6440SOL     OW30778   3.328   2.115   7.634 -0.3950  0.2617  0.2909
 6440SOL    HW130779   3.356   2.072   7.714  2.4975  2.1584  0.2885
 6440SOL    HW230780   3.288   2.199   7.659  1.1056  1.1068 -0.1204
 6441SOL     OW30781   4.096   3.551   2.542  0.0050  0.2569  0.1052
 6441SOL    HW130782   4.154   3.612   2.498 -2.1510  1.4775 -1.0472
 6441SOL    HW230783   4.162   3.481   2.550 -2.8882 -2.5151 -0.0747
 6442SOL     OW30784   2.115   3.305   7.084  0.2961 -0.9634  0.1067
 6442SOL    HW130785   2.057   3.261   7.146 -0.1621  0.9203  1.0323
 6442SOL    HW230786   2.184   3.239   7.080 -0.7397 -2.0614  0.3160
 6443SOL     OW30787   0.044   4.181  17.631 -0.4312  0.3133  0.4828
 6443SOL    HW130788   0.131   4.142  17.637 -0.1993  0.6514 -0.5573
 6443SOL    HW230789   0.017   4.146  17.546 -1.6677 -2.4053  2.0213
 6444SOL     OW30790   0.663   4.532   5.162 -0.3791 -0.2263 -0.1459
 6444SOL    HW130791   0.590   4.518   5.103 -0.6850  1.0215 -0.0572
 6444SOL    HW230792   0.721   4.457   5.148 -1.8401 -1.8966  2.7298
 6445SOL     OW30793   2.980   4.153   5.721 -0.1324 -0.4424  0.4151
 6445SOL    HW130794   2.982   4.192   5.808  0.8396 -0.0414  0.2134
 6445SOL    HW230795   3.005   4.226   5.664  0.1975 -1.0191 -0.1747
 6446SOL     OW30796   3.578   3.318   9.201  0.3004  0.2339  0.0112
 6446SOL    HW130797   3.642   3.247   9.197  1.7882  1.5362  0.8408
 6446SOL    HW230798   3.507   3.258   9.181 -0.1655  0.7082  0.2539
 6447SOL     OW30799   1.426   2.331  16.710  0.3271 -0.2834  0.1625
 6447SOL    HW130800   1.480   2.273  16.763 -1.9228 -3.3020 -0.8290
 6447SOL    HW230801   1.369   2.373  16.774  1.7157 -0.0883  1.2525
 6448SOL     OW30802   2.325   0.615  10.804  0.4183  0.1498  0.1852
 6448SOL    HW130803   2.349   0.577  10.720 -0.0242  1.4655 -0.5478
 6448SOL    HW230804   2.360   0.555  10.869 -1.8595 -0.0464  1.2273
 6449SOL     OW30805   3.500   3.400   0.908 -0.0670 -0.2255 -0.2330
 6449SOL    HW130806   3.406   3.418   0.896  0.0934  0.8964  0.2194
 6449SOL    HW230807   3.526   3.490   0.887 -0.9889 -0.3112 -1.7858
 6450SOL     OW30808   1.948   0.663   5.748  0.3928  0.2456  0.6681
 6450SOL    HW130809   1.912   0.691   5.664  2.0861 -0.3144 -0.2342
 6450SOL    HW230810   1.921   0.573   5.768 -0.8058  0.1329 -1.4351
 6451SOL     OW30811   3.683   1.532  11.145 -0.2044 -0.0395  0.0945
 6451SOL    HW130812   3.698   1.441  11.119  0.2454  0.1249 -0.2215
 6451SOL    HW230813   3.744   1.566  11.079  0.7806 -1.2897  0.3624
 6452SOL     OW30814   1.042   4.192  16.046 -0.2056 -0.6397  0.4165
 6452SOL    HW130815   0.979   4.229  15.984 -1.5896 -2.4959  0.7059
 6452SOL    HW230816   0.991   4.119  16.083  1.9399  0.0356  4.7152
 6453SOL     OW30817   4.041   2.973  11.952 -0.1507 -0.4073  0.2388
 6453SOL    HW130818   4.074   2.976  12.042  1.3369  0.2814 -0.3235
 6453SOL    HW230819   3.957   3.017  11.969  0.5147  0.4821  1.3019
 6454SOL     OW30820   1.619   1.076   6.346  0.4378 -0.8086  0.3914
 6454SOL    HW130821   1.712   1.057   6.331  1.4083  1.6843  2.9883
 6454SOL    HW230822   1.597   1.003   6.404  1.0744 -1.2214  0.1108
 6455SOL     OW30823   0.675   1.907   8.888 -0.3669 -0.5267 -0.1405
 6455SOL    HW130824   0.667   1.813   8.872  2.2375 -0.7348 -0.2619
 6455SOL    HW230825   0.603   1.934   8.831  0.9220 -0.0028 -1.5263
 6456SOL     OW30826   4.518   1.183   0.676  0.5703 -0.3845 -0.2827
 6456SOL    HW130827   4.555   1.107   0.631 -0.4941 -1.4634  0.6605
 6456SOL    HW230828   4.590   1.208   0.734  0.3383 -1.2250  0.3709
 6457SOL     OW30829   1.874   1.151   5.964 -0.0548  0.2927  0.0818
 6457SOL    HW130830   1.936   1.130   6.035 -0.1263  1.2508  0.4259
 6457SOL    HW230831   1.922   1.116   5.889 -0.6976  0.4961 -0.4209
 6458SOL     OW30832   2.748   0.087   5.185 -0.3851 -0.3321  0.1432
 6458SOL    HW130833   2.766   0.013   5.126 -1.4419 -1.5249  1.3171
 6458SOL    HW230834   2.785   0.161   5.138  1.5716 -1.3912 -0.0018
 6459SOL     OW30835   4.237   4.232   7.629 -0.1192 -0.4523 -0.1027
 6459SOL    HW130836   4.161   4.289   7.616  1.4173  1.0220 -2.5471
 6459SOL    HW230837   4.211   4.155   7.680  0.1170 -2.2912 -2.7928
 6460SOL     OW30838   2.465   3.716   3.760  0.2674 -0.0635 -0.0479
 6460SOL    HW130839   2.546   3.667   3.745  0.3780 -0.9551  3.3857
 6460SOL    HW230840   2.421   3.678   3.684 -0.6938 -0.6685  0.8226
 6461SOL     OW30841   1.675   3.340   6.345  0.3851  0.7479  0.1272
 6461SOL    HW130842   1.742   3.312   6.282 -0.3953  1.5451 -1.0477
 6461SOL    HW230843   1.730   3.337   6.424  1.4730 -0.2041 -0.6734
 6462SOL     OW30844   1.728   2.183   6.989  0.1734  0.1850  0.2786
 6462SOL    HW130845   1.709   2.102   7.037  4.6533 -0.1508  1.4731
 6462SOL    HW230846   1.716   2.238   7.066 -1.2574  0.4907 -0.1641
 6463SOL     OW30847   2.142   1.134   2.719  0.2700  0.3316  0.6235
 6463SOL    HW130848   2.185   1.139   2.805  0.9438 -0.1226  0.3147
 6463SOL    HW230849   2.157   1.044   2.691 -0.6682  0.3985 -0.0774
 6464SOL     OW30850   0.336   3.174   2.446 -0.6650  0.8634 -0.1655
 6464SOL    HW130851   0.334   3.079   2.457  2.1988  0.8565  0.3472
 6464SOL    HW230852   0.417   3.188   2.397 -0.9711  2.4851 -0.2023
 6465SOL     OW30853   0.439   2.752   4.717 -0.0042 -0.3109  0.4844
 6465SOL    HW130854   0.380   2.714   4.652  1.4057  0.6726 -1.3596
 6465SOL    HW230855   0.454   2.839   4.682 -1.2843 -0.8029 -1.2949
 6466SOL     OW30856   2.868   4.548   2.513 -0.7507  0.4424  0.2953
 6466SOL    HW130857   2.798   4.603   2.548 -2.6949  0.1366 -3.0507
 6466SOL    HW230858   2.822   4.519   2.434 -1.3261 -0.6187  1.0121
 6467SOL     OW30859   3.155   4.713  10.444 -0.7449 -0.5841 -0.5140
 6467SOL    HW130860   3.128   4.650  10.511 -1.8207  1.1345  0.6743
 6467SOL    HW230861   3.098   4.695  10.369  2.2568  2.0871 -3.4155
 6468SOL     OW30862   1.322   4.071   4.215  0.3949 -0.2198  0.0792
 6468SOL    HW130863   1.398   4.079   4.157 -0.5247  2.9085 -0.7014
 6468SOL    HW230864   1.255   4.027   4.162  0.3802 -1.3508  1.0287
 6469SOL     OW30865   4.367   3.067   7.878 -0.0557 -0.1974 -0.2386
 6469SOL    HW130866   4.380   3.103   7.790 -0.5879  2.3166  0.7146
 6469SOL    HW230867   4.322   3.141   7.920  0.9106 -0.7720  1.7967
 6470SOL     OW30868   1.714   1.322   3.276 -0.4793  0.1535 -0.5284
 6470SOL    HW130869   1.810   1.314   3.278 -0.3866  1.1965 -0.8070
 6470SOL    HW230870   1.700   1.281   3.191 -0.5924  0.3333 -0.5967
 6471SOL     OW30871   0.464   3.777  10.526  0.2739 -0.0221  0.8206
 6471SOL    HW130872   0.383   3.770  10.476  0.7554 -1.1180  0.1787
 6471SOL    HW230873   0.436   3.741  10.611 -3.2386  1.9000  0.4193
 6472SOL     OW30874   4.346   1.017   8.213  0.1599 -0.6301 -0.5807
 6472SOL    HW130875   4.322   1.091   8.269 -0.1352 -1.7156  0.7174
 6472SOL    HW230876   4.359   0.946   8.275 -0.7089 -0.1664  0.1313
 6473SOL     OW30877   4.065   4.581  17.258  0.2521 -0.2359 -0.3190
 6473SOL    HW130878   4.117   4.630  17.322 -1.0274  1.6786 -0.7697
 6473SOL    HW230879   4.033   4.505  17.306  3.2012  0.0624  2.1253
 6474SOL     OW30880   2.400   1.165   6.182  0.2109 -0.1870 -0.4651
 6474SOL    HW130881   2.374   1.200   6.097 -2.5619  0.5353  0.6899
 6474SOL    HW230882   2.417   1.244   6.233 -1.4674  0.7598 -1.3986
 6475SOL     OW30883   4.247   0.912   7.632 -0.7074 -0.3810 -0.6328
 6475SOL    HW130884   4.288   0.832   7.665 -1.0128 -0.9201 -1.5538
 6475SOL    HW230885   4.169   0.928   7.685  1.0959  0.0248  1.9354
 6476SOL     OW30886   0.551   1.549   8.628 -0.0567 -0.3212 -0.0585
 6476SOL    HW130887   0.618   1.574   8.564 -1.1143 -0.2705 -1.1392
 6476SOL    HW230888   0.590   1.577   8.710 -1.0478 -1.2322  0.7292
 6477SOL     OW30889   3.329   1.978  10.924 -0.0472  0.5288 -0.6303
 6477SOL    HW130890   3.386   1.968  10.847  2.7681  2.0286  1.2878
 6477SOL    HW230891   3.261   1.914  10.900  1.0398 -0.7593 -0.2970
 6478SOL     OW30892   1.577   2.674  14.737  0.3689 -0.3719 -0.1148
 6478SOL    HW130893   1.631   2.604  14.701  0.3756 -0.4368  0.0213
 6478SOL    HW230894   1.615   2.754  14.702 -1.3239  0.4024 -0.1847
 6479SOL     OW30895   3.628   2.456   5.287 -0.4536 -0.2629 -0.2852
 6479SOL    HW130896   3.585   2.375   5.261  0.7867 -0.3093 -2.1938
 6479SOL    HW230897   3.715   2.423   5.264 -0.2524 -0.0633  0.1982
 6480SOL     OW30898   4.629   2.100   2.364  0.0749  0.3478  0.0869
 6480SOL    HW130899   4.616   2.078   2.456 -2.3196  0.4447 -0.2212
 6480SOL    HW230900   4.557   2.163   2.359  0.8745  1.2790  0.3266
 6481SOL     OW30901   0.975   0.975   6.996  0.0757  0.3824 -0.0154
 6481SOL    HW130902   1.065   0.982   7.027 -0.2489 -0.8460  1.1743
 6481SOL    HW230903   0.946   0.888   7.021  1.3452 -0.3996 -1.2174
 6482SOL     OW30904   0.957   0.585  13.889 -0.9426 -0.6188 -0.3408
 6482SOL    HW130905   0.880   0.553  13.938  0.9933 -0.6867  2.6467
 6482SOL    HW230906   0.949   0.675  13.919  0.0579  0.3629 -2.9915
 6483SOL     OW30907   4.449   3.845  11.588 -0.2347 -0.0079 -0.6706
 6483SOL    HW130908   4.363   3.824  11.553 -1.5721  0.2479  2.4472
 6483SOL    HW230909   4.407   3.878  11.668  0.7771  0.5867 -0.3785
 6484SOL     OW30910   4.485   3.456  14.533  0.5462  0.2633  0.2341
 6484SOL    HW130911   4.475   3.490  14.623 -0.0929 -0.3879  0.4071
 6484SOL    HW230912   4.395   3.460  14.500  0.2904 -1.7995  0.7277
 6485SOL     OW30913   0.342   2.733   0.775  0.4102  0.1716  0.4173
 6485SOL    HW130914   0.365   2.725   0.682  0.2653 -1.3805  0.5030
 6485SOL    HW230915   0.285   2.656   0.783 -0.5392  0.7703 -0.5701
 6486SOL     OW30916   3.119   0.349   4.421 -0.1348  0.0459 -0.5987
 6486SOL    HW130917   3.069   0.378   4.497  0.2997 -2.1026  0.4795
 6486SOL    HW230918   3.112   0.255   4.432 -0.5359  0.2340  0.6814
 6487SOL     OW30919   1.481   2.041  12.364 -0.3921 -0.2749  0.4806
 6487SOL    HW130920   1.526   1.964  12.330  0.5817  0.1986  0.6786
 6487SOL    HW230921   1.412   2.076  12.307 -0.9598 -1.0321  0.7138
 6488SOL     OW30922   3.925   0.045   4.592  0.4962  0.4684  0.1069
 6488SOL    HW130923   3.913   0.056   4.686  2.4974 -1.7634  0.6217
 6488SOL    HW230924   3.894   0.129   4.558 -1.9467 -0.4929 -0.0670
 6489SOL     OW30925   3.793   2.136   5.999 -0.0295  0.1132 -0.2047
 6489SOL    HW130926   3.818   2.158   5.909  1.9041 -4.1187 -0.7403
 6489SOL    HW230927   3.775   2.226   6.026  0.6907 -0.1877  1.3060
 6490SOL     OW30928   4.209   4.617  14.893  0.4896  0.1989 -0.2414
 6490SOL    HW130929   4.281   4.557  14.911 -1.2389 -1.1149  2.3545
 6490SOL    HW230930   4.140   4.566  14.849 -1.0239  0.7705  1.4702
 6491SOL     OW30931   3.358   0.003   5.503 -0.4576 -0.1277  0.1951
 6491SOL    HW130932   3.347   0.088   5.545  1.9232  1.6522 -2.8237
 6491SOL    HW230933   3.445   4.703   5.535  0.0066  0.9902 -0.2512
 6492SOL     OW30934   3.343   1.658   6.550 -0.1323 -0.2172  0.0074
 6492SOL    HW130935   3.284   1.614   6.612  2.0303 -2.5686  0.4210
 6492SOL    HW230936   3.321   1.611   6.470  0.4154  0.9956 -0.8340
 6493SOL     OW30937   2.962   1.235   5.204  0.4692 -0.3021 -0.2358
 6493SOL    HW130938   3.012   1.285   5.140  0.8018 -1.2485 -0.6937
 6493SOL    HW230939   2.887   1.217   5.147 -1.3938  0.5551  1.9064
 6494SOL     OW30940   2.254   1.121   8.467 -0.3037 -0.0463  0.4751
 6494SOL    HW130941   2.177   1.150   8.418 -0.3081  0.4124  0.7563
 6494SOL    HW230942   2.256   1.187   8.536 -0.3563  0.7127 -0.2637
 6495SOL     OW30943   1.264   0.475   3.603 -0.4017 -0.1690 -0.5596
 6495SOL    HW130944   1.262   0.432   3.688  1.4572 -1.0904 -0.9673
 6495SOL    HW230945   1.229   0.400   3.554  0.6640 -1.0216 -0.0219
 6496SOL     OW30946   0.731   4.226   5.369  0.2488 -0.1432 -0.2565
 6496SOL    HW130947   0.656   4.211   5.311  0.3193 -0.8925 -0.1532
 6496SOL    HW230948   0.790   4.267   5.306  0.5704 -0.0344  0.1117
 6497SOL     OW30949   0.248   0.460  17.277  0.0920 -0.1853 -0.3991
 6497SOL    HW130950   0.166   0.500  17.248 -0.5352  0.2454  1.9328
 6497SOL    HW230951   0.301   0.457  17.197 -0.9341  0.8857 -1.1091
 6498SOL     OW30952   4.431   1.100   2.428 -0.7680 -0.1332  0.1079
 6498SOL    HW130953   4.356   1.060   2.472  0.2859 -1.1894  0.9445
 6498SOL    HW230954   4.398   1.170   2.372 -1.7728 -1.3617 -0.8345
 6499SOL     OW30955   2.301   0.558   8.493  0.5446 -0.5680  0.4973
 6499SOL    HW130956   2.337   0.508   8.566 -0.9032 -0.4612  1.2922
 6499SOL    HW230957   2.330   0.648   8.511 -0.7942 -0.4256  2.0165
 6500SOL     OW30958   4.619   3.306  11.781 -0.7081 -0.0714 -0.0547
 6500SOL    HW130959   4.696   3.250  11.785 -0.8282 -0.0579  2.2899
 6500SOL    HW230960   4.563   3.251  11.726  0.6906  0.8412 -2.4387
 6501SOL     OW30961   4.163   1.795  16.131  0.8405  0.3099  0.3167
 6501SOL    HW130962   4.166   1.890  16.128 -0.4079  0.2794 -1.7357
 6501SOL    HW230963   4.120   1.782  16.215  1.0233  0.5786  0.4497
 6502SOL     OW30964   4.657   3.205   7.024 -0.1964 -0.9358  0.3570
 6502SOL    HW130965   4.659   3.110   7.022  0.8229 -0.9420  1.8891
 6502SOL    HW230966   0.011   3.233   7.073  0.0164 -1.1401  0.1406
 6503SOL     OW30967   1.343   1.484   7.248 -0.5289  0.3888  0.0959
 6503SOL    HW130968   1.275   1.417   7.259 -1.0885  1.1798  1.5594
 6503SOL    HW230969   1.312   1.547   7.313 -1.3554  0.8529 -0.7509
 6504SOL     OW30970   2.390   2.105   7.687  0.1711  0.0691 -0.9384
 6504SOL    HW130971   2.434   2.020   7.696  0.7932  0.4760 -0.1618
 6504SOL    HW230972   2.304   2.082   7.723  0.5242  2.5576  1.4160
 6505SOL     OW30973   2.221   3.516   7.485 -0.0209 -0.6037  0.2869
 6505SOL    HW130974   2.163   3.582   7.523 -1.6557  0.5520 -4.1914
 6505SOL    HW230975   2.255   3.555   7.405  0.1433 -0.5036  0.4070
 6506SOL     OW30976   1.442   4.666  11.505  0.0330  0.2312  0.6664
 6506SOL    HW130977   1.384   0.010  11.539 -2.2480 -0.9200 -0.9917
 6506SOL    HW230978   1.451   4.603  11.576  3.1721 -0.4531 -0.3369
 6507SOL     OW30979   0.870   4.153   4.022  0.0504  0.3722  0.3851
 6507SOL    HW130980   0.876   4.086   3.954 -0.4628  0.9510 -0.2237
 6507SOL    HW230981   0.896   4.108   4.103  0.4246  0.9179  0.5671
 6508SOL     OW30982   0.482   3.266  16.862 -0.5918  0.2241 -0.4551
 6508SOL    HW130983   0.423   3.206  16.909  1.1994 -0.4175  0.9946
 6508SOL    HW230984   0.484   3.217  16.780 -0.1185 -1.4257  0.5273
 6509SOL     OW30985   1.686   2.524   3.750 -0.0704 -0.0297 -0.4995
 6509SOL    HW130986   1.598   2.556   3.767 -0.0106 -0.7813  1.1812
 6509SOL    HW230987   1.698   2.488   3.838  1.1705 -0.1628 -0.7187
 6510SOL     OW30988   1.235   0.778  10.818  0.2302  0.7101  0.2023
 6510SOL    HW130989   1.301   0.827  10.866  0.3612 -0.9533  1.6994
 6510SOL    HW230990   1.264   0.803  10.730  2.0110  0.6885  0.7926
 6511SOL     OW30991   3.503   1.911   2.690  0.0475  0.4127  0.0008
 6511SOL    HW130992   3.496   1.852   2.764 -5.2524  1.4402  0.3324
 6511SOL    HW230993   3.448   1.870   2.624  0.4032  0.6084 -0.4167
 6512SOL     OW30994   0.094   2.462   7.897  0.4134 -0.5345 -0.0539
 6512SOL    HW130995   0.070   2.384   7.847 -1.7289  0.2114 -0.1695
 6512SOL    HW230996   0.012   2.495   7.933  0.3242 -0.2257 -0.5361
 6513SOL     OW30997   1.682   1.851   8.587  0.6996  0.0433 -0.0678
 6513SOL    HW130998   1.590   1.877   8.587  0.6443 -0.1532 -0.2464
 6513SOL    HW230999   1.677   1.760   8.617  0.4631  0.7038  1.9367
 6514SOL     OW31000   2.988   3.259   8.368  0.0577 -0.4034  0.6078
 6514SOL    HW131001   2.940   3.318   8.310  0.9282 -3.9179 -3.6459
 6514SOL    HW231002   3.077   3.263   8.334 -0.4237  0.0724 -0.5967
 6515SOL     OW31003   4.223   1.388   0.384  0.2670 -0.3130 -0.4257
 6515SOL    HW131004   4.190   1.455   0.444  0.9025 -0.3685 -0.0168
 6515SOL    HW231005   4.266   1.331   0.448 -1.2256  0.8302  1.6125
 6516SOL     OW31006   2.826   4.210  15.488 -0.0823  0.9816 -0.4293
 6516SOL    HW131007   2.787   4.298  15.481  0.5910  1.2203 -1.2479
 6516SOL    HW231008   2.864   4.217  15.575  0.9108  2.8725 -1.0070
 6517SOL     OW31009   0.910   1.988   1.564  0.0502 -0.8655  0.1980
 6517SOL    HW131010   0.977   1.920   1.555  0.1733 -0.4711 -1.9255
 6517SOL    HW231011   0.907   2.020   1.654 -2.4785  1.4143 -0.6936
 6518SOL     OW31012   0.256   2.093   3.745 -0.2860 -0.5804 -0.1019
 6518SOL    HW131013   0.318   2.144   3.692 -2.4031  1.1219 -0.9245
 6518SOL    HW231014   0.275   2.007   3.707 -0.1573 -0.7782  0.4131
 6519SOL     OW31015   1.753   1.964   2.767 -0.4851  0.3718 -0.3166
 6519SOL    HW131016   1.782   2.019   2.694 -0.8763  3.2514  1.6951
 6519SOL    HW231017   1.779   1.878   2.734  1.6620  0.9440 -0.1558
 6520SOL     OW31018   0.506   1.517   9.391  0.2042  0.2830  0.0912
 6520SOL    HW131019   0.448   1.442   9.402  2.6930 -1.5541  0.5725
 6520SOL    HW231020   0.448   1.592   9.403  0.8625  0.9326 -0.7411
 6521SOL     OW31021   0.899   2.904   3.372  0.2597  0.1138  0.1378
 6521SOL    HW131022   0.934   2.816   3.358 -0.8845 -1.0496  4.7747
 6521SOL    HW231023   0.854   2.907   3.456  0.6979  1.6826  0.3249
 6522SOL     OW31024   4.580   2.575   6.413  0.0565 -0.0900 -0.6558
 6522SOL    HW131025   4.618   2.579   6.325 -1.1522  0.7814 -1.1490
 6522SOL    HW231026   4.648   2.535   6.468 -1.2192 -0.1458  0.8932
 6523SOL     OW31027   4.202   3.656   0.819 -0.5080  0.1828  0.5853
 6523SOL    HW131028   4.126   3.673   0.764  0.3860  2.3709  0.0089
 6523SOL    HW231029   4.234   3.746   0.834 -0.5451  0.3368 -0.2794
 6524SOL     OW31030   1.860   0.575   9.573 -0.2144 -0.1255  0.9071
 6524SOL    HW131031   1.939   0.522   9.578 -1.2367 -1.7539 -0.1079
 6524SOL    HW231032   1.870   0.627   9.494  0.2276 -0.5790  0.6647
 6525SOL     OW31033   3.717   3.013   0.641 -0.1482 -0.4063 -0.5607
 6525SOL    HW131034   3.652   3.046   0.578  0.3106 -0.0355 -0.8401
 6525SOL    HW231035   3.715   3.081   0.709 -1.2214 -1.9904  1.0150
 6526SOL     OW31036   3.385   3.236   2.084  0.1863  0.5726  0.5308
 6526SOL    HW131037   3.435   3.317   2.070 -0.7361  1.1160  0.4002
 6526SOL    HW231038   3.303   3.272   2.118  0.6248  1.2074  0.9021
 6527SOL     OW31039   3.865   1.409  10.463 -0.4497 -0.6372 -0.1586
 6527SOL    HW131040   3.960   1.403  10.467 -0.4334  0.6283  1.8284
 6527SOL    HW231041   3.831   1.384  10.549 -0.6802  0.4437  0.0694
 6528SOL     OW31042   2.667   3.141   5.624 -0.2326 -0.6844 -0.2629
 6528SOL    HW131043   2.703   3.067   5.672 -0.1526 -0.5467 -0.1102
 6528SOL    HW231044   2.745   3.196   5.613 -0.2014 -0.3242  1.7770
 6529SOL     OW31045   2.165   0.372   4.910 -0.4449  0.0281  0.3484
 6529SOL    HW131046   2.242   0.428   4.919  0.0075 -0.3077 -1.5461
 6529SOL    HW231047   2.087   0.425   4.930  0.7632  1.4517  1.2689
 6530SOL     OW31048   3.995   1.900  13.512  0.4458 -0.1472 -0.5151
 6530SOL    HW131049   4.024   1.879  13.423 -0.5428  0.8101 -1.0630
 6530SOL    HW231050   3.952   1.984  13.501  1.4399  0.6623  1.7030
 6531SOL     OW31051   4.344   0.063   0.576 -0.2124  0.3101  0.1716
 6531SOL    HW131052   4.411   0.113   0.624 -0.7699 -0.4348  1.7474
 6531SOL    HW231053   4.273   0.050   0.638  0.3050  0.1508  0.7367
 6532SOL     OW31054   1.086   2.545  17.496 -0.4748  0.0146  0.3764
 6532SOL    HW131055   1.051   2.545  17.407 -0.0320 -1.3967  0.2085
 6532SOL    HW231056   1.069   2.454  17.518 -1.6435 -0.4891 -2.6098
 6533SOL     OW31057   3.580   2.628   5.669  0.0497  0.4009  0.4515
 6533SOL    HW131058   3.547   2.611   5.757 -0.7022 -1.9261 -0.2766
 6533SOL    HW231059   3.587   2.723   5.662  0.1586  0.0927 -3.2531
 6534SOL     OW31060   4.299   0.687   3.382 -0.2958 -0.1582 -0.6449
 6534SOL    HW131061   4.264   0.675   3.470 -0.8786  2.9793 -0.4738
 6534SOL    HW231062   4.301   0.779   3.357  0.8236 -0.1322 -0.4676
 6535SOL     OW31063   2.853   2.971   7.387 -0.2865 -0.1482  0.9550
 6535SOL    HW131064   2.832   2.974   7.294  0.2365 -0.9960  0.8064
 6535SOL    HW231065   2.776   2.936   7.432 -1.3085  1.2310  0.2736
 6536SOL     OW31066   3.243   1.125  14.546 -0.3092 -0.4359 -0.1010
 6536SOL    HW131067   3.237   1.063  14.473 -0.0096 -0.1612 -0.3592
 6536SOL    HW231068   3.172   1.083  14.595 -0.9431 -0.3809 -0.9654
 6537SOL     OW31069   2.893   0.901  10.328  0.1388  0.0227  0.1492
 6537SOL    HW131070   2.835   0.838  10.285 -0.1688 -0.1447  0.8187
 6537SOL    HW231071   2.840   0.981  10.337  1.1708  0.7622 -0.3707
 6538SOL     OW31072   2.488   4.586   3.665  0.1724 -0.2444 -0.1115
 6538SOL    HW131073   2.528   4.657   3.615 -0.1808  2.4459  3.3715
 6538SOL    HW231074   2.525   4.593   3.753 -0.5387  0.4525  0.1364
 6539SOL     OW31075   1.524   0.239   7.850  0.2403  0.3889  0.0655
 6539SOL    HW131076   1.512   0.162   7.905  1.7901 -0.5608 -0.9295
 6539SOL    HW231077   1.480   0.309   7.898  0.9614  0.4493  0.6272
 6540SOL     OW31078   3.148   4.123   6.170 -0.2829 -0.1779  0.2746
 6540SOL    HW131079   3.226   4.179   6.172  1.0563 -1.9489 -1.8796
 6540SOL    HW231080   3.105   4.143   6.253  0.5244  2.5466  0.0366
 6541SOL     OW31081   0.399   2.658   0.507  0.5759  0.6960 -0.6845
 6541SOL    HW131082   0.494   2.645   0.507  0.5028  0.1574 -0.6696
 6541SOL    HW231083   0.383   2.580   0.454 -0.9178  1.1859 -0.9573
 6542SOL     OW31084   0.916   4.352  13.355  0.6275  0.2992 -0.3371
 6542SOL    HW131085   0.889   4.273  13.308  1.0395 -1.3536  2.2003
 6542SOL    HW231086   0.859   4.339  13.430 -1.4019  2.0062 -1.5951
 6543SOL     OW31087   0.865   0.010   9.500  0.0048 -0.1382 -0.6716
 6543SOL    HW131088   0.800   0.020   9.570  1.1496 -1.3169  0.5686
 6543SOL    HW231089   0.877   4.639   9.495  0.7477 -0.0556 -0.4702
 6544SOL     OW31090   4.003   1.073   9.619  0.0027 -0.2016 -0.1851
 6544SOL    HW131091   4.043   1.012   9.557  0.0562  0.6701 -1.0148
 6544SOL    HW231092   3.914   1.088   9.587  0.6103  1.5912 -1.0177
 6545SOL     OW31093   1.619   3.101   7.690  0.5272  0.1991  0.5990
 6545SOL    HW131094   1.655   3.124   7.776  2.0473 -1.3548  0.3969
 6545SOL    HW231095   1.595   3.186   7.655  1.1834  1.0767  2.2716
 6546SOL     OW31096   3.479   2.987  13.840  0.8820  0.1789 -0.1057
 6546SOL    HW131097   3.496   2.970  13.747  2.2892 -0.0926  0.2070
 6546SOL    HW231098   3.517   2.906  13.872  0.1579 -0.0457  0.1851
 6547SOL     OW31099   4.581   4.364   6.545 -0.9503 -0.2464  0.4338
 6547SOL    HW131100   4.508   4.318   6.587 -2.4654  2.9187  1.2231
 6547SOL    HW231101   4.602   4.311   6.468  1.3882  2.2580 -0.6355
 6548SOL     OW31102   2.803   2.533   4.195 -0.3710  0.0508  0.3988
 6548SOL    HW131103   2.841   2.591   4.261 -1.2178  1.6274 -0.5161
 6548SOL    HW231104   2.739   2.485   4.249 -1.0296  0.0738 -0.3675
 6549SOL     OW31105   2.006   4.618  16.118 -0.1056 -0.8890 -0.5018
 6549SOL    HW131106   2.006   4.656  16.030 -1.1705 -0.3845 -0.2739
 6549SOL    HW231107   2.093   4.577  16.115  1.2403  1.9014 -0.3070
 6550SOL     OW31108   1.171   3.340  15.279 -0.0472 -0.0093 -0.0900
 6550SOL    HW131109   1.153   3.423  15.234 -1.0682  0.1862  0.6810
 6550SOL    HW231110   1.104   3.288  15.235 -1.5839  1.3875  0.5956
 6551SOL     OW31111   0.706   0.421   2.357  0.2888 -0.5615 -0.3611
 6551SOL    HW131112   0.778   0.357   2.361  1.4781  0.7685 -0.3594
 6551SOL    HW231113   0.656   0.378   2.288 -0.4278 -1.8097  0.9451
 6552SOL     OW31114   4.065   4.082   6.990 -0.3779  0.3568 -0.7744
 6552SOL    HW131115   4.134   4.033   6.946 -0.1064  1.2409 -1.3328
 6552SOL    HW231116   4.054   4.044   7.078  0.7893  0.2672 -0.6664
 6553SOL     OW31117   3.823   0.091   4.029 -0.1543  0.2050 -0.1889
 6553SOL    HW131118   3.914   0.065   4.017  0.2417  1.7627 -0.4880
 6553SOL    HW231119   3.795   0.081   3.938  2.4575  0.6969 -1.0422
 6554SOL     OW31120   0.448   2.552   7.019 -0.3208 -0.3454 -0.4577
 6554SOL    HW131121   0.481   2.469   7.053 -0.3422 -0.5719 -0.9823
 6554SOL    HW231122   0.423   2.595   7.100 -1.3723  1.0193 -1.5008
 6555SOL     OW31123   0.077   2.904   3.639  0.2390 -0.0259  0.3317
 6555SOL    HW131124   0.160   2.864   3.663  0.2937  0.4904  1.0058
 6555SOL    HW231125   0.018   2.866   3.705 -1.9591  1.2680 -0.8875
 6556SOL     OW31126   1.483   4.584   8.599 -0.4345 -0.0130  0.1511
 6556SOL    HW131127   1.530   4.634   8.532 -0.3836  2.1263  1.7601
 6556SOL    HW231128   1.529   4.500   8.595 -1.7851 -0.7360 -0.2378
 6557SOL     OW31129   3.413   3.780   7.755  0.0209  0.0030 -0.2001
 6557SOL    HW131130   3.453   3.758   7.839  0.8853  0.5737 -0.4612
 6557SOL    HW231131   3.485   3.789   7.694  1.0420 -0.7180  0.9097
 6558SOL     OW31132   0.650   3.070  15.195 -0.0367  0.0803  0.2350
 6558SOL    HW131133   0.664   2.982  15.231 -0.7728  0.4869  1.5197
 6558SOL    HW231134   0.608   3.037  15.115  1.2093  0.9448 -0.7592
 6559SOL     OW31135   0.239   2.739   5.831 -0.0861 -0.1662  0.0118
 6559SOL    HW131136   0.242   2.826   5.871 -1.2796  0.3740 -1.0761
 6559SOL    HW231137   0.315   2.697   5.872  1.5493  0.9348 -1.8949
 6560SOL     OW31138   3.886   4.531   2.487 -0.2475 -0.0088 -0.3762
 6560SOL    HW131139   3.841   4.458   2.445 -0.0879 -0.9022  0.9787
 6560SOL    HW231140   3.825   4.576   2.546  0.9108 -0.2687  1.0186
 6561SOL     OW31141   1.607   0.881   8.001 -0.1964 -0.0463 -0.0463
 6561SOL    HW131142   1.653   0.963   8.017 -0.1132 -0.2908  0.9704
 6561SOL    HW231143   1.577   0.898   7.912  2.2686  0.4661 -0.7687
 6562SOL     OW31144   1.309   3.647   4.198  0.4090 -0.2338  0.2566
 6562SOL    HW131145   1.390   3.696   4.186 -1.4228  2.3168 -1.7716
 6562SOL    HW231146   1.349   3.597   4.268  3.1222 -2.7731 -3.1157
 6563SOL     OW31147   0.266   4.542   2.688  0.1517  0.4504  0.8814
 6563SOL    HW131148   0.253   4.553   2.594 -1.1972 -0.4819  0.9668
 6563SOL    HW231149   0.182   4.506   2.714  0.3033 -0.6949 -0.2256
 6564SOL     OW31150   1.949   3.010  13.600  0.0310 -0.1811  0.2784
 6564SOL    HW131151   1.893   3.087  13.598 -2.8043 -2.2729 -2.3434
 6564SOL    HW231152   2.033   3.054  13.591  0.6866 -1.8572 -1.9349
 6565SOL     OW31153   4.428   2.022   9.895  0.4579 -0.4271  0.5913
 6565SOL    HW131154   4.452   1.930   9.902  1.0050 -0.2452  1.2211
 6565SOL    HW231155   4.377   2.035   9.975 -1.0140  0.1331 -0.4399
 6566SOL     OW31156   3.856   2.996  13.208 -0.6107 -0.2402 -0.0857
 6566SOL    HW131157   3.864   2.981  13.114 -1.2680  2.4758 -0.5914
 6566SOL    HW231158   3.895   3.084  13.211 -1.9709  0.3660 -0.2467
 6567SOL     OW31159   1.283   3.082   3.928 -0.1008 -0.1536 -0.1521
 6567SOL    HW131160   1.227   3.023   3.878 -0.5447  0.8897 -0.8826
 6567SOL    HW231161   1.236   3.090   4.012  0.0830  0.4785 -0.1083
 6568SOL     OW31162   4.183   2.086   3.542 -0.8046  0.5039 -0.4629
 6568SOL    HW131163   4.184   2.019   3.474 -0.8452 -0.7727  0.7853
 6568SOL    HW231164   4.091   2.086   3.570  0.0861 -2.2225  2.4312
 6569SOL     OW31165   1.348   2.184  16.061 -0.1544  0.1535 -0.5797
 6569SOL    HW131166   1.420   2.247  16.061 -0.0778  0.0604 -2.8924
 6569SOL    HW231167   1.402   2.107  16.043 -0.2496 -0.3332  1.2500
 6570SOL     OW31168   0.982   0.841   6.133  0.1047 -0.0256  0.0196
 6570SOL    HW131169   1.058   0.883   6.172 -0.8250  2.2509 -0.6349
 6570SOL    HW231170   1.019   0.832   6.045 -1.8692  0.5756 -0.8877
 6571SOL     OW31171   2.510   4.176   6.604 -0.1459  0.1002 -0.4784
 6571SOL    HW131172   2.495   4.266   6.576 -0.0629  0.0863 -0.5680
 6571SOL    HW231173   2.600   4.158   6.576  0.2500  0.3792  0.6072
 6572SOL     OW31174   2.470   2.583   6.369 -0.2277  0.1740 -0.0402
 6572SOL    HW131175   2.441   2.631   6.292 -0.3577 -0.7317 -0.5556
 6572SOL    HW231176   2.424   2.501   6.351  0.9042 -0.8375  1.6704
 6573SOL     OW31177   1.432   1.786   3.411 -0.8610 -0.0782 -0.3045
 6573SOL    HW131178   1.347   1.806   3.371 -1.3741 -0.3620  0.6632
 6573SOL    HW231179   1.456   1.700   3.376 -1.0542  0.0037 -0.6368
 6574SOL     OW31180   4.633   0.154   2.941 -0.1564 -0.0589 -0.0965
 6574SOL    HW131181   4.706   0.214   2.925  1.7058 -3.1076 -3.0503
 6574SOL    HW231182   4.648   0.120   3.029  1.6002  3.1379  0.8367
 6575SOL     OW31183   2.443   1.790  13.584 -0.6992  0.4169  0.2910
 6575SOL    HW131184   2.446   1.884  13.564  0.3772  0.3218  0.0288
 6575SOL    HW231185   2.491   1.785  13.666  1.0123 -1.8085 -0.8686
 6576SOL     OW31186   0.507   1.554  16.941  0.0020 -0.4396 -0.4264
 6576SOL    HW131187   0.537   1.532  17.029 -2.9654 -0.1871  0.6553
 6576SOL    HW231188   0.580   1.522  16.887  1.3415 -0.1242  1.2162
 6577SOL     OW31189   1.109   1.684   2.636  0.2571 -0.0753 -0.2410
 6577SOL    HW131190   1.103   1.732   2.553 -1.1618  1.2208  0.6403
 6577SOL    HW231191   1.181   1.736   2.672  0.5060 -0.9948  0.5963
 6578SOL     OW31192   3.479   4.153   5.291  0.9129 -0.1066 -0.0426
 6578SOL    HW131193   3.536   4.228   5.309  3.1659 -1.4533 -1.6073
 6578SOL    HW231194   3.397   4.189   5.323  2.0195 -0.4366  3.1717
 6579SOL     OW31195   1.163   2.511   2.719 -0.2314 -0.6248 -0.0842
 6579SOL    HW131196   1.081   2.461   2.726 -1.1232  0.8589  0.1722
 6579SOL    HW231197   1.120   2.596   2.725 -0.3593 -0.7341  0.5992
 6580SOL     OW31198   1.168   0.058   3.949 -0.0250 -0.1376 -0.6449
 6580SOL    HW131199   1.155   0.005   4.027  1.5631 -1.2552 -1.1270
 6580SOL    HW231200   1.175   0.147   3.983  0.9196 -0.8140  0.9492
 6581SOL     OW31201   0.156   1.697   7.378  0.1120 -0.1206 -0.2200
 6581SOL    HW131202   0.194   1.633   7.318  2.3546 -0.1461  1.2273
 6581SOL    HW231203   0.117   1.630   7.435 -0.8164  0.7458  0.1696
 6582SOL     OW31204   2.771   0.703   6.671  0.3511  0.2909 -0.2133
 6582SOL    HW131205   2.855   0.739   6.643  0.2726  0.8282  0.2556
 6582SOL    HW231206   2.711   0.714   6.597 -1.1429 -0.4401  0.8853
 6583SOL     OW31207   3.956   0.618   7.291 -0.3459 -0.0673  0.1686
 6583SOL    HW131208   4.035   0.568   7.271  0.2916  0.8848  0.3147
 6583SOL    HW231209   3.986   0.704   7.259  0.8486 -1.4732 -2.5140
 6584SOL     OW31210   1.884   2.574  10.563  0.0779  0.7868 -0.0719
 6584SOL    HW131211   1.918   2.651  10.607  0.1753  0.2114  0.8560
 6584SOL    HW231212   1.946   2.563  10.491  1.6552  0.2704  1.3757
 6585SOL     OW31213   3.162   1.366   7.323 -0.6435 -0.4198 -0.0286
 6585SOL    HW131214   3.096   1.307   7.285 -2.3451  0.8327  1.0066
 6585SOL    HW231215   3.160   1.344   7.416  3.2278  1.1317  0.4209
 6586SOL     OW31216   2.209   0.600  10.007  0.1381 -0.3811  0.3095
 6586SOL    HW131217   2.264   0.545   9.952  0.6658 -1.1101  1.5511
 6586SOL    HW231218   2.228   0.686   9.968  0.1125 -1.3470 -1.8098
 6587SOL     OW31219   3.305   2.513  12.267  0.0914  0.3202 -0.0117
 6587SOL    HW131220   3.240   2.539  12.333  1.2083  1.4998  0.6150
 6587SOL    HW231221   3.296   2.593  12.216 -2.0618  0.0924  0.0237
 6588SOL     OW31222   3.781   3.266   5.107  0.0320  0.2017 -0.1509
 6588SOL    HW131223   3.868   3.277   5.145  0.3833  0.0753 -0.9004
 6588SOL    HW231224   3.797   3.323   5.031  0.5620  0.2588  0.0026
 6589SOL     OW31225   3.759   3.677   0.248  0.0694 -0.5522 -0.3094
 6589SOL    HW131226   3.846   3.659   0.282  0.1295 -2.4035 -1.4064
 6589SOL    HW231227   3.722   3.590   0.231  0.6414 -0.8824  0.1373
 6590SOL     OW31228   2.235   2.421   9.740  0.6194 -0.1941  1.0136
 6590SOL    HW131229   2.141   2.433   9.733  0.6252  0.7852  2.6271
 6590SOL    HW231230   2.254   2.513   9.761 -0.9660  0.3119  0.2153
 6591SOL     OW31231   1.277   1.571  10.768  0.0539 -0.8337 -0.1947
 6591SOL    HW131232   1.321   1.548  10.849 -0.9210 -2.5442 -0.1436
 6591SOL    HW231233   1.196   1.594  10.814  1.2715  1.0922  0.9437
 6592SOL     OW31234   1.645   4.343   7.545  1.0225 -0.4164 -0.2609
 6592SOL    HW131235   1.657   4.437   7.556  0.0254 -0.2839 -0.2993
 6592SOL    HW231236   1.672   4.328   7.455  0.7489 -1.6612 -0.1397
 6593SOL     OW31237   0.930   3.516  13.821  0.0318  0.0505 -0.0600
 6593SOL    HW131238   0.941   3.422  13.807  1.6957  0.4953 -1.7793
 6593SOL    HW231239   0.977   3.545  13.742  3.3083  0.9249  2.2251
 6594SOL     OW31240   4.550   3.270   6.340 -0.3380  0.4074  0.5865
 6594SOL    HW131241   4.577   3.273   6.248 -3.2494  1.3792 -0.2192
 6594SOL    HW231242   4.591   3.350   6.375  0.7502  1.0087 -2.0725
 6595SOL     OW31243   0.639   4.263  10.280  0.0974  0.0895 -0.4498
 6595SOL    HW131244   0.625   4.217  10.362 -0.9092 -0.0810 -0.7085
 6595SOL    HW231245   0.714   4.319  10.299  0.2669  0.6215 -2.6325
 6596SOL     OW31246   4.298   2.140   6.855  0.2600 -0.7048  0.0247
 6596SOL    HW131247   4.264   2.153   6.766 -0.9204  0.1382  0.5962
 6596SOL    HW231248   4.348   2.060   6.843 -0.3474 -0.9134 -1.1474
 6597SOL     OW31249   2.201   1.305  12.583  0.2529  0.2400 -0.0538
 6597SOL    HW131250   2.242   1.230  12.626 -0.0838  0.9155  1.4179
 6597SOL    HW231251   2.280   1.359  12.592  0.4324  0.3412 -2.0877
 6598SOL     OW31252   1.803   2.917   7.239  0.0646 -0.2977 -0.1296
 6598SOL    HW131253   1.879   2.878   7.283  0.0069 -0.1209  0.1254
 6598SOL    HW231254   1.756   2.961   7.309 -0.5614 -0.4045 -0.4867
 6599SOL     OW31255   2.661   1.350  13.409 -0.0950 -0.0948  0.2810
 6599SOL    HW131256   2.693   1.418  13.469  3.1466 -0.7247 -0.7385
 6599SOL    HW231257   2.567   1.344  13.428 -0.1983 -1.2255 -0.6488
 6600SOL     OW31258   0.998   2.629   3.396 -0.3153 -0.4156  0.3798
 6600SOL    HW131259   0.918   2.597   3.437  0.4236 -2.6031  0.1001
 6600SOL    HW231260   1.060   2.605   3.464  0.6765  1.2387  0.0619
 6601SOL     OW31261   0.692   3.224   8.508 -0.3891 -0.7625  0.9655
 6601SOL    HW131262   0.672   3.219   8.601 -1.3971 -2.4780  0.6480
 6601SOL    HW231263   0.787   3.237   8.509 -0.2730 -1.4340 -0.5761
 6602SOL     OW31264   0.108   4.540  11.496  0.6261  0.5901 -0.3892
 6602SOL    HW131265   0.084   4.483  11.423 -2.9953  1.5794 -0.0104
 6602SOL    HW231266   0.118   4.623  11.448  0.2129  1.7046  1.4381
 6603SOL     OW31267   1.833   3.909   6.177 -0.2193  0.2242 -0.5599
 6603SOL    HW131268   1.780   3.842   6.134  0.5804 -0.3881 -0.5966
 6603SOL    HW231269   1.903   3.860   6.220 -0.7740 -1.2848 -1.3681
 6604SOL     OW31270   0.168   3.728   2.117  0.2808 -0.8111  0.1718
 6604SOL    HW131271   0.130   3.813   2.095 -0.0715 -1.3275 -1.1958
 6604SOL    HW231272   0.203   3.707   2.031  1.2008 -0.4014  0.4415
 6605SOL     OW31273   1.034   0.148   8.335  0.0461 -0.6042 -0.3728
 6605SOL    HW131274   1.115   0.111   8.301 -0.4720 -2.2433  0.1687
 6605SOL    HW231275   1.058   0.155   8.428  1.6805  0.2888 -0.8547
 6606SOL     OW31276   1.550   0.996  11.260  0.2192  0.1353 -0.0502
 6606SOL    HW131277   1.600   0.955  11.189 -1.1600  0.3951 -1.1585
 6606SOL    HW231278   1.583   1.086  11.266  1.8227 -0.5895  2.1834
 6607SOL     OW31279   3.698   4.632  10.760  0.0767 -0.3447  0.2898
 6607SOL    HW131280   3.609   4.618  10.795 -1.7413  2.6651 -3.2090
 6607SOL    HW231281   3.698   0.003  10.747  1.2935 -0.4293 -0.2184
 6608SOL     OW31282   0.990   1.713  14.602  0.1503  0.5876  0.5236
 6608SOL    HW131283   0.954   1.624  14.608  1.3811  0.0782  0.2410
 6608SOL    HW231284   0.969   1.723  14.509 -0.8801 -0.1262  0.6627
 6609SOL     OW31285   3.705   3.382   2.115  0.2379  0.1201  0.2770
 6609SOL    HW131286   3.758   3.460   2.104 -3.5775  2.6517 -0.1614
 6609SOL    HW231287   3.644   3.392   2.189 -0.5874 -0.3770 -0.3238
 6610SOL     OW31288   2.212   3.611   5.035  0.3080  0.1661  0.2416
 6610SOL    HW131289   2.265   3.533   5.019 -0.3151 -0.2919  0.3687
 6610SOL    HW231290   2.202   3.575   5.123  2.9407 -0.8491  0.1128
 6611SOL     OW31291   0.958   3.981  14.925  0.7616  0.7613 -0.0568
 6611SOL    HW131292   0.868   3.950  14.922  1.8692 -2.5053  0.5639
 6611SOL    HW231293   0.995   3.931  14.852 -1.0347  3.2911 -2.6781
 6612SOL     OW31294   1.708   2.464   6.019 -0.3938  0.6086  0.8781
 6612SOL    HW131295   1.628   2.502   6.054 -0.6607  0.1266  0.7934
 6612SOL    HW231296   1.755   2.430   6.094  0.4757  0.5059  0.2840
 6613SOL     OW31297   3.607   4.629   5.625 -0.1286  0.4525 -0.4171
 6613SOL    HW131298   3.692   4.671   5.609 -0.1632  0.0499 -1.6214
 6613SOL    HW231299   3.596   4.652   5.717 -1.5011 -1.4076 -0.1092
 6614SOL     OW31300   0.126   3.903   0.017 -0.0798  0.3781  0.4113
 6614SOL    HW131301   0.104   3.933   0.105 -1.6630  0.1888  0.0665
 6614SOL    HW231302   0.186   3.973  17.691 -0.5441  0.3207 -0.9616
 6615SOL     OW31303   1.619   0.367   8.149  0.0255 -0.0990  0.3846
 6615SOL    HW131304   1.691   0.371   8.086 -1.2921 -1.4808 -1.1946
 6615SOL    HW231305   1.651   0.321   8.226  0.5154  0.6533  0.6242
 6616SOL     OW31306   3.237   1.520   3.410  0.3784 -0.1011  0.4372
 6616SOL    HW131307   3.243   1.426   3.424 -0.7625 -0.0218  1.4542
 6616SOL    HW231308   3.263   1.517   3.318 -0.7961  0.5088  0.0876
 6617SOL     OW31309   1.460   0.000   6.452  0.2948  0.3024  0.1701
 6617SOL    HW131310   1.529   4.658   6.460 -0.2900 -0.2458  0.7021
 6617SOL    HW231311   1.497   0.069   6.507 -0.8087 -0.3521  1.7273
 6618SOL     OW31312   1.391   3.326   4.246  0.3128  0.1032  0.5678
 6618SOL    HW131313   1.423   3.331   4.156  1.3976 -0.5833  0.9146
 6618SOL    HW231314   1.429   3.405   4.286  0.7189  0.3002 -0.2094
 6619SOL     OW31315   3.739   3.917  11.166  0.0440  0.0471 -0.1876
 6619SOL    HW131316   3.812   3.978  11.153 -0.2644  0.9500  2.3781
 6619SOL    HW231317   3.777   3.835  11.198 -1.6430 -0.6914 -0.0734
 6620SOL     OW31318   4.037   0.319   5.518  0.4843  0.4220 -0.2039
 6620SOL    HW131319   4.036   0.385   5.587  0.1222 -0.8129  0.9860
 6620SOL    HW231320   4.117   0.279   5.552 -1.1245 -0.5484  2.4510
 6621SOL     OW31321   3.922   0.725   9.464  0.0845  0.2516  0.3444
 6621SOL    HW131322   3.972   0.798   9.428  0.8369 -0.8217 -0.7566
 6621SOL    HW231323   3.987   0.672   9.511 -1.7233 -2.1676  0.1109
 6622SOL     OW31324   0.039   2.634   4.555  0.1708 -0.4794  0.2222
 6622SOL    HW131325   4.676   2.635   4.514 -0.1619  1.4372  0.9606
 6622SOL    HW231326   0.009   2.660   4.643 -0.1640  0.1203 -0.0696
 6623SOL     OW31327   1.156   3.501   5.985  0.2867 -0.0588  0.0558
 6623SOL    HW131328   1.208   3.573   5.950 -0.1955 -0.6429 -1.8378
 6623SOL    HW231329   1.107   3.547   6.053 -1.4590 -0.9474 -0.5809
 6624SOL     OW31330   4.343   4.628   3.379 -0.0846 -0.4513 -0.3760
 6624SOL    HW131331   4.410   4.585   3.432 -2.3603  0.2540  3.0821
 6624SOL    HW231332   4.350   4.587   3.293  2.4034 -3.7412  1.3867
 6625SOL     OW31333   0.167   3.543   8.370 -0.0192 -0.1391  0.3579
 6625SOL    HW131334   0.248   3.556   8.419  0.3064 -1.0963  0.0764
 6625SOL    HW231335   0.107   3.592   8.426  0.3550  0.2561  0.4139
 6626SOL     OW31336   3.361   2.178   6.941 -0.3103  0.0695  0.0855
 6626SOL    HW131337   3.367   2.181   7.036 -2.4126  0.1073  0.2106
 6626SOL    HW231338   3.420   2.110   6.908 -2.6720 -1.1792 -1.5690
 6627SOL     OW31339   1.787   1.204   0.055 -0.0344  0.2451  0.4354
 6627SOL    HW131340   1.760   1.227   0.144  0.0732 -1.1486  0.8420
 6627SOL    HW231341   1.852   1.268   0.027 -0.6054  0.4255 -0.4803
 6628SOL     OW31342   3.219   1.867   7.729  0.1882  0.0318  0.4135
 6628SOL    HW131343   3.186   1.941   7.677 -0.6000 -1.1387 -0.7502
 6628SOL    HW231344   3.136   1.823   7.742 -0.6111  1.9229  1.7309
 6629SOL     OW31345   0.679   1.010  12.587  0.3002  0.3330 -0.2795
 6629SOL    HW131346   0.746   0.978  12.647 -0.7327  1.1555  1.3382
 6629SOL    HW231347   0.603   0.957  12.611 -0.2825  2.0023  1.6026
 6630SOL     OW31348   3.673   3.964   5.180 -0.1225  0.6403  0.1078
 6630SOL    HW131349   3.609   4.027   5.216 -0.1056 -0.3863  1.9322
 6630SOL    HW231350   3.724   3.944   5.258  1.4592  1.3947 -0.7414
 6631SOL     OW31351   2.299   3.906   3.137 -0.3227  0.5925 -0.3505
 6631SOL    HW131352   2.315   3.851   3.061 -0.4039 -0.2178  0.2196
 6631SOL    HW231353   2.386   3.939   3.158 -0.1279 -0.8110  0.9854
 6632SOL     OW31354   0.321   3.663   0.070  0.4216 -0.4132  0.1646
 6632SOL    HW131355   0.254   3.700   0.128  0.4249 -0.9463  0.5067
 6632SOL    HW231356   0.377   3.622   0.136  1.1762 -0.5068 -0.5365
 6633SOL     OW31357   3.619   3.253   0.721 -0.0991  0.2536 -0.0693
 6633SOL    HW131358   3.570   3.301   0.788 -1.1377 -0.6332 -0.1968
 6633SOL    HW231359   3.644   3.317   0.655 -1.1475  0.3323 -0.3862
 6634SOL     OW31360   2.057   0.869   7.188 -0.0808 -0.3059 -0.7596
 6634SOL    HW131361   2.002   0.897   7.261  0.7874  1.9207 -0.9499
 6634SOL    HW231362   2.107   0.950   7.183  0.8561 -0.9243 -1.3727
 6635SOL     OW31363   2.120   3.947   4.212 -0.4998  0.0041  0.1978
 6635SOL    HW131364   2.162   3.868   4.178  1.7324  0.9772  0.7132
 6635SOL    HW231365   2.185   4.016   4.201 -0.2319 -0.3965 -0.7258
 6636SOL     OW31366   2.026   3.214   6.480  0.2905  0.2194 -0.2827
 6636SOL    HW131367   2.003   3.142   6.540  1.3283  0.7287  0.7228
 6636SOL    HW231368   2.004   3.283   6.542  0.9158 -1.1270  1.4406
 6637SOL     OW31369   1.629   4.291   3.180 -0.7947 -0.1708  0.2854
 6637SOL    HW131370   1.687   4.330   3.115  0.3702 -0.5209  1.1139
 6637SOL    HW231371   1.601   4.203   3.156  0.2503 -0.7171  1.0362
 6638SOL     OW31372   2.556   1.335   0.564 -0.3123  0.2551  0.3026
 6638SOL    HW131373   2.489   1.271   0.540  0.8147  0.1335 -2.5437
 6638SOL    HW231374   2.620   1.289   0.618  0.3112  2.4055  1.4224
 6639SOL     OW31375   2.770   2.162  17.694  0.0481  0.4487  0.5054
 6639SOL    HW131376   2.823   2.085   0.015 -1.3320 -0.5497  0.3232
 6639SOL    HW231377   2.734   2.171   0.085  0.8988  1.6609  0.7267
 6640SOL     OW31378   2.314   2.398   6.214 -0.1823 -0.8884 -0.0348
 6640SOL    HW131379   2.295   2.426   6.124 -2.5592 -2.4573 -0.0294
 6640SOL    HW231380   2.375   2.332   6.183 -0.8020 -1.0880 -0.8303
 6641SOL     OW31381   0.393   4.591   4.519  0.4002 -0.0532  0.3359
 6641SOL    HW131382   0.418   4.584   4.427 -0.0269 -2.1902  0.3751
 6641SOL    HW231383   0.316   4.648   4.507  1.0710  0.7079 -0.3705
 6642SOL     OW31384   3.046   2.475   2.260  0.1266  0.6803  0.5751
 6642SOL    HW131385   3.055   2.564   2.226  1.9515  0.2425 -0.0512
 6642SOL    HW231386   3.129   2.481   2.307  0.4707 -3.0455  0.3680
 6643SOL     OW31387   1.891   0.236  12.250  0.1792 -0.2802  0.7852
 6643SOL    HW131388   1.845   0.172  12.303 -2.0274  1.0460  0.4699
 6643SOL    HW231389   1.985   0.225  12.263  0.2602 -1.1173 -0.5777
 6644SOL     OW31390   1.777   4.683  16.903  0.0397  0.3558  0.2163
 6644SOL    HW131391   1.764   4.661  16.811 -0.4163 -0.6074  0.5101
 6644SOL    HW231392   1.757   0.052  16.917 -0.1587  0.4030 -0.3641
 6645SOL     OW31393   4.516   1.539  14.034  0.0185  0.0145  0.1770
 6645SOL    HW131394   4.422   1.524  14.030 -0.2398  1.2278  1.5161
 6645SOL    HW231395   4.521   1.579  14.121  0.6971  2.0181 -0.7716
 6646SOL     OW31396   4.700   2.856   1.313  0.7064  0.1002 -0.6046
 6646SOL    HW131397   4.656   2.793   1.256  0.5059 -0.4854  0.1991
 6646SOL    HW231398   4.621   2.899   1.345  1.0476 -0.1327  0.5224
 6647SOL     OW31399   3.917   1.814   3.576  0.0579  0.2549  0.2030
 6647SOL    HW131400   3.825   1.840   3.573  0.1719  0.4803 -1.6339
 6647SOL    HW231401   3.924   1.770   3.661  1.5972 -0.3254 -0.2257
 6648SOL     OW31402   0.802   2.085   9.736  0.0437 -0.9135  0.2848
 6648SOL    HW131403   0.761   2.117   9.816  0.2861  4.6277 -1.8042
 6648SOL    HW231404   0.728   2.106   9.680  1.0430 -2.2142 -1.5270
 6649SOL     OW31405   1.850   1.720  15.340 -0.1539 -0.1552  0.5647
 6649SOL    HW131406   1.940   1.723  15.374 -0.3209  0.2783  0.9713
 6649SOL    HW231407   1.867   1.716  15.246 -3.0469 -2.5495  0.1533
 6650SOL     OW31408   2.887   1.375   0.868  0.1642 -0.2479 -0.3539
 6650SOL    HW131409   2.867   1.469   0.864  2.0189  0.2075  0.6270
 6650SOL    HW231410   2.949   1.371   0.941 -1.0249  2.0256  0.8125
 6651SOL     OW31411   1.954   3.526   4.698 -0.7533 -0.4247 -0.2403
 6651SOL    HW131412   1.937   3.435   4.674  1.5203 -0.3619 -2.0954
 6651SOL    HW231413   2.034   3.544   4.649 -0.5977 -0.1567  0.1170
 6652SOL     OW31414   2.607   2.827   7.242  0.3491  0.4962 -0.2038
 6652SOL    HW131415   2.641   2.908   7.204  0.7544  0.6425  0.4739
 6652SOL    HW231416   2.633   2.835   7.334  2.2918 -1.6475 -0.5620
 6653SOL     OW31417   2.692   1.386   4.767 -0.0662  0.5627 -0.3574
 6653SOL    HW131418   2.666   1.326   4.697  0.4271 -2.1968  1.7886
 6653SOL    HW231419   2.683   1.464   4.713 -1.5829 -1.2873 -2.8159
 6654SOL     OW31420   2.781   4.257   7.701 -0.3885  0.4908  0.1401
 6654SOL    HW131421   2.819   4.317   7.765  0.0019 -0.5181  0.8706
 6654SOL    HW231422   2.709   4.307   7.662 -1.0963 -1.4868 -1.0874
 6655SOL     OW31423   3.660   3.093  13.413 -0.0206  0.1220 -0.5728
 6655SOL    HW131424   3.584   3.098  13.355  1.3601 -1.9251 -2.5515
 6655SOL    HW231425   3.726   3.064  13.350 -0.3253 -1.1677 -0.3046
 6656SOL     OW31426   2.967   3.726   8.002 -0.0968 -0.2380 -0.2242
 6656SOL    HW131427   3.031   3.769   7.946 -1.6559  1.9192 -0.3528
 6656SOL    HW231428   2.880   3.755   7.974 -0.0635  0.6627  0.5912
 6657SOL     OW31429   0.243   3.907   7.455  0.1147 -0.1665 -0.3605
 6657SOL    HW131430   0.274   3.902   7.545 -0.8173  2.2050  0.0842
 6657SOL    HW231431   0.159   3.863   7.470 -0.7965  2.4324  2.1530
 6658SOL     OW31432   4.614   3.368  13.829 -0.7303 -0.0980  0.5119
 6658SOL    HW131433   4.700   3.388  13.792 -0.9760 -1.7061 -0.8899
 6658SOL    HW231434   4.608   3.430  13.902 -0.2616 -0.1727  0.6160
 6659SOL     OW31435   3.439   4.135   6.899  0.7718 -0.6205  0.1964
 6659SOL    HW131436   3.388   4.062   6.934  0.0197  0.0072  0.4281
 6659SOL    HW231437   3.409   4.210   6.951  3.4792  1.0968 -0.7695
 6660SOL     OW31438   3.299   4.088  14.283  0.0206  0.1623  0.1452
 6660SOL    HW131439   3.301   4.061  14.191  2.3954 -1.5838  0.6922
 6660SOL    HW231440   3.262   4.175  14.296 -2.8924 -1.1281  0.3930
 6661SOL     OW31441   3.805   4.206  10.252  0.1928  0.4316  0.1134
 6661SOL    HW131442   3.804   4.112  10.272  1.1509  0.8094  1.9553
 6661SOL    HW231443   3.805   4.249  10.338 -1.0713 -0.8955  0.7747
 6662SOL     OW31444   1.035   4.672   3.326  0.1427  0.3809  0.2249
 6662SOL    HW131445   0.989   4.672   3.411 -0.8251 -0.8929 -0.3108
 6662SOL    HW231446   0.988   4.599   3.286  1.2847  0.5172 -1.3456
 6663SOL     OW31447   0.365   1.781   1.460  0.4326  0.8384  0.3583
 6663SOL    HW131448   0.384   1.869   1.493  3.0172  0.1894  0.5657
 6663SOL    HW231449   0.292   1.753   1.516 -0.6092  1.8765 -0.4973
 6664SOL     OW31450   3.839   1.198  12.480 -0.2741  0.1745  0.4949
 6664SOL    HW131451   3.759   1.174  12.433  0.5643 -0.4477 -0.6217
 6664SOL    HW231452   3.884   1.114  12.468 -0.8911 -0.0993  0.0626
 6665SOL     OW31453   0.082   3.120   3.095 -0.2018  0.1173  0.0613
 6665SOL    HW131454   0.050   3.175   3.024  1.6178  0.4551 -0.4940
 6665SOL    HW231455   0.032   3.045   3.064  3.2393 -1.1420 -2.5210
 6666SOL     OW31456   4.159   4.350   1.448  0.3126 -0.0525 -0.1477
 6666SOL    HW131457   4.208   4.357   1.530 -0.6367 -1.6201  0.5662
 6666SOL    HW231458   4.093   4.285   1.475 -0.5662  0.2052 -1.6979
 6667SOL     OW31459   0.817   0.848   3.872 -0.4594  0.3493 -0.1190
 6667SOL    HW131460   0.908   0.861   3.843 -0.0729 -0.4921  0.7048
 6667SOL    HW231461   0.828   0.887   3.959  2.1511  0.9487 -0.6941
 6668SOL     OW31462   0.218   2.788  15.718  0.2102  0.2296  0.7114
 6668SOL    HW131463   0.133   2.833  15.722  0.0412 -0.0980  0.7957
 6668SOL    HW231464   0.200   2.718  15.780 -1.8592 -0.0581 -0.1980
 6669SOL     OW31465   4.703   3.465   3.222 -0.0724 -0.0049 -0.3228
 6669SOL    HW131466   4.644   3.540   3.211 -0.1829  0.1260  1.1735
 6669SOL    HW231467   4.670   3.432   3.305  0.2707  1.0641  0.2340
 6670SOL     OW31468   2.604   0.696  15.760  0.0436 -0.0780 -0.8769
 6670SOL    HW131469   2.551   0.715  15.683 -1.0840  2.1293  0.4620
 6670SOL    HW231470   2.661   0.772  15.759 -0.6753  0.4562 -0.8214
 6671SOL     OW31471   3.525   3.874   9.507  0.5318 -0.0991 -0.1718
 6671SOL    HW131472   3.538   3.779   9.513  3.8171  0.2276 -2.1496
 6671SOL    HW231473   3.513   3.896   9.599 -0.2085 -0.0101 -0.2897
 6672SOL     OW31474   3.498   1.627  10.256 -0.0855  0.5096 -0.0710
 6672SOL    HW131475   3.403   1.624  10.270 -0.4667  0.2857 -2.6583
 6672SOL    HW231476   3.490   1.633  10.161  1.6965 -3.4388 -0.5005
 6673SOL     OW31477   3.319   3.734   9.274  0.0178  0.4862  0.3199
 6673SOL    HW131478   3.410   3.748   9.298  0.9210 -3.6719 -0.6092
 6673SOL    HW231479   3.282   3.729   9.363  0.5657  0.9395  0.5672
 6674SOL     OW31480   0.412   0.283   4.483 -0.3238 -0.6494  0.5329
 6674SOL    HW131481   0.385   0.375   4.485 -1.2704 -0.9825  3.0615
 6674SOL    HW231482   0.361   0.248   4.556  0.6939  0.2240  1.6548
 6675SOL     OW31483   2.994   3.395  14.874 -0.1228  0.2053  0.1686
 6675SOL    HW131484   2.969   3.484  14.898  2.1456  1.1982 -1.1866
 6675SOL    HW231485   3.057   3.379  14.944 -1.0322  1.4524  1.2400
 6676SOL     OW31486   3.985   3.413   5.603 -0.3811 -1.1560 -0.0241
 6676SOL    HW131487   4.065   3.440   5.558  0.2774 -2.0502  0.6277
 6676SOL    HW231488   3.973   3.478   5.673  3.3544 -1.9741  1.3665
 6677SOL     OW31489   3.121   2.261  10.464  0.2431 -0.3707 -0.2279
 6677SOL    HW131490   3.141   2.318  10.538  0.3379 -0.5010 -0.1531
 6677SOL    HW231491   3.195   2.200  10.467 -2.2692 -3.4286 -0.4151
 6678SOL     OW31492   2.613   4.570  13.678  0.2038  0.0249  0.3968
 6678SOL    HW131493   2.692   4.519  13.658 -0.1961 -0.8720  1.0954
 6678SOL    HW231494   2.662   4.649  13.698  1.8792 -0.5303 -1.5038
 6679SOL     OW31495   1.368   1.088   4.243 -0.1151  0.5248 -0.2544
 6679SOL    HW131496   1.396   1.112   4.331 -1.1279  1.4144 -0.1670
 6679SOL    HW231497   1.307   1.159   4.222 -2.1471 -0.8661  0.9971
 6680SOL     OW31498   3.528   0.616   5.362 -0.1740 -0.0222  0.1295
 6680SOL    HW131499   3.571   0.666   5.431 -0.4430  0.1256  0.1874
 6680SOL    HW231500   3.437   0.621   5.390 -0.3735  0.8263 -0.6580
 6681SOL     OW31501   1.691   3.609   5.735  0.1526 -0.7925 -0.3335
 6681SOL    HW131502   1.614   3.553   5.723 -0.7162  0.7482 -1.8827
 6681SOL    HW231503   1.717   3.573   5.820  1.5153  0.1171 -0.3653
 6682SOL     OW31504   2.640   1.700   7.325 -0.7293 -0.3673 -0.4887
 6682SOL    HW131505   2.675   1.754   7.395 -1.2985  1.5459 -1.6472
 6682SOL    HW231506   2.611   1.763   7.258  1.3552  0.5567 -0.5125
 6683SOL     OW31507   3.144   0.446   3.674  0.1401  0.1044  0.0418
 6683SOL    HW131508   3.076   0.459   3.740  0.1127  1.2149 -0.2059
 6683SOL    HW231509   3.147   0.351   3.675  1.1778  0.1705  2.8845
 6684SOL     OW31510   4.249   1.744   1.478  0.0775 -0.3925  0.2016
 6684SOL    HW131511   4.336   1.706   1.459 -0.0384  0.8983 -2.8240
 6684SOL    HW231512   4.280   1.770   1.565 -1.4733  0.9234  0.3455
 6685SOL     OW31513   1.623   1.626   8.346 -0.1154  0.3224  0.2197
 6685SOL    HW131514   1.718   1.625   8.339 -0.0837 -0.7571  0.7988
 6685SOL    HW231515   1.597   1.675   8.268 -0.1439 -1.3882 -0.8362
 6686SOL     OW31516   0.621   0.791   5.131  0.4450  0.1678  0.0258
 6686SOL    HW131517   0.534   0.827   5.113  0.5872 -0.0698 -1.1437
 6686SOL    HW231518   0.597   0.699   5.146  0.1804  0.3558  0.7516
 6687SOL     OW31519   0.122   3.314   6.459 -0.3900  0.2519  1.0616
 6687SOL    HW131520   0.150   3.271   6.378  0.1332  0.4629  1.1347
 6687SOL    HW231521   0.066   3.248   6.500  0.1855 -0.5261  0.5707
 6688SOL     OW31522   0.731   2.033   2.198 -0.8334 -0.0590  0.2454
 6688SOL    HW131523   0.794   2.067   2.260  0.0141  2.2670 -1.8871
 6688SOL    HW231524   0.738   1.943   2.230 -0.8799  0.0130  0.4536
 6689SOL     OW31525   1.089   1.278  10.198  0.1094  0.3466  0.1734
 6689SOL    HW131526   1.069   1.197  10.151  2.3398 -0.7503  1.1025
 6689SOL    HW231527   1.078   1.246  10.288 -0.6336  1.3733  0.4494
 6690SOL     OW31528   1.257   3.891   0.647 -0.5947 -0.2113 -0.1254
 6690SOL    HW131529   1.197   3.818   0.659  0.5437 -0.8975  1.3890
 6690SOL    HW231530   1.217   3.976   0.665  0.4080  0.1729  0.3012
 6691SOL     OW31531   3.220   0.224   7.989 -0.3322  0.2695  0.1145
 6691SOL    HW131532   3.188   0.251   8.075  0.8201 -0.5475  0.8185
 6691SOL    HW231533   3.156   0.270   7.936  0.2544 -0.0388 -0.8680
 6692SOL     OW31534   1.930   3.263  11.439  0.0657 -0.3377  0.4132
 6692SOL    HW131535   2.000   3.310  11.394  2.1501 -2.6954  1.1950
 6692SOL    HW231536   1.968   3.177  11.457 -0.9224 -1.1104 -1.1684
 6693SOL     OW31537   1.951   3.729   2.559  0.4976 -0.0473  0.2027
 6693SOL    HW131538   1.966   3.732   2.465  0.7890 -0.1799  0.2464
 6693SOL    HW231539   1.932   3.822   2.573 -1.2269 -0.1592 -1.5470
 6694SOL     OW31540   2.130   2.882   4.517  0.1319 -0.2927  0.2635
 6694SOL    HW131541   2.038   2.909   4.525  0.0997 -0.2423 -0.2523
 6694SOL    HW231542   2.157   2.847   4.601 -0.5439 -0.1952  0.5230
 6695SOL     OW31543   2.667   0.554  14.275  0.0139  0.2335 -0.0503
 6695SOL    HW131544   2.584   0.541  14.321  0.1297 -2.0048 -0.4583
 6695SOL    HW231545   2.721   0.581  14.349 -1.2704  1.2332  0.5253
 6696SOL     OW31546   0.070   4.337  12.555  0.0427  0.0010  0.0501
 6696SOL    HW131547   4.711   4.349  12.508  0.4444 -1.0325 -0.9231
 6696SOL    HW231548   0.048   4.260  12.608 -1.3759  1.2526  1.2877
 6697SOL     OW31549   4.531   1.983   7.752 -0.1935  0.1252 -0.3912
 6697SOL    HW131550   4.563   1.915   7.693 -1.7622 -1.2022  0.3256
 6697SOL    HW231551   4.499   1.936   7.829 -0.9725 -1.1689 -1.5340
 6698SOL     OW31552   1.430   2.631   3.717 -0.7176 -0.1771  0.0473
 6698SOL    HW131553   1.369   2.697   3.685 -1.9847 -1.5855 -0.3740
 6698SOL    HW231554   1.422   2.566   3.647 -1.4052 -0.7366  0.6470
 6699SOL     OW31555   1.965   0.991   1.886  0.4876  0.5587 -0.0338
 6699SOL    HW131556   1.924   0.913   1.849  1.3949 -0.2356  0.6385
 6699SOL    HW231557   1.900   1.058   1.865 -1.0600 -0.8279  0.3266
 6700SOL     OW31558   1.896   1.080   3.887 -0.4796 -0.1234  0.1369
 6700SOL    HW131559   1.962   1.035   3.835 -1.3030 -0.3010 -0.7515
 6700SOL    HW231560   1.864   1.001   3.930  1.9950 -1.0446  0.2829
 6701SOL     OW31561   3.997   3.622   2.791  0.1359 -0.2142 -0.1359
 6701SOL    HW131562   4.033   3.606   2.704  1.0578 -0.0549  0.2253
 6701SOL    HW231563   3.925   3.679   2.763  0.6245  0.3349 -0.2635
 6702SOL     OW31564   2.551   0.280   8.914  0.3820  0.6466 -0.0956
 6702SOL    HW131565   2.596   0.262   8.996 -0.7933  0.2570  0.4622
 6702SOL    HW231566   2.460   0.259   8.932  0.1857  1.4756 -0.0869
 6703SOL     OW31567   0.457   4.010   6.060  0.2748  0.1058  0.0934
 6703SOL    HW131568   0.374   3.984   6.020 -0.6098  2.4934  0.4230
 6703SOL    HW231569   0.420   4.085   6.106  2.1484  0.0322  1.7410
 6704SOL     OW31570   3.516   3.878   8.697  0.0687 -0.5260  0.1801
 6704SOL    HW131571   3.545   3.911   8.782 -0.4113  0.2314  0.0523
 6704SOL    HW231572   3.553   3.790   8.702 -0.6271 -0.8994 -1.0616
 6705SOL     OW31573   4.074   3.983   7.275 -0.3348 -0.1441  0.3042
 6705SOL    HW131574   4.017   3.906   7.263 -1.0469  0.1579  1.7265
 6705SOL    HW231575   4.111   3.950   7.357  0.8077  1.4490  0.4252
 6706SOL     OW31576   0.020   3.279  15.124 -0.5511  0.4968  0.3296
 6706SOL    HW131577   4.656   3.260  15.156 -0.0673  1.5012  2.2752
 6706SOL    HW231578   0.038   3.351  15.184  2.1716  0.5589 -0.5532
 6707SOL     OW31579   1.739   0.757   9.909  0.5680  0.0826 -0.1588
 6707SOL    HW131580   1.788   0.745   9.990  0.5440 -0.6775 -0.2511
 6707SOL    HW231581   1.705   0.669   9.892 -0.7692  0.8015 -1.2683
 6708SOL     OW31582   2.376   3.444   5.935  0.1874 -0.1601  0.0419
 6708SOL    HW131583   2.378   3.359   5.890 -0.0783  1.2189 -2.5823
 6708SOL    HW231584   2.421   3.416   6.014 -0.3007  0.6797  0.6204
 6709SOL     OW31585   4.513   3.464  14.982  0.4255  0.1762  0.1062
 6709SOL    HW131586   4.450   3.400  14.949 -0.7778  2.1796 -1.5157
 6709SOL    HW231587   4.488   3.472  15.074  0.4188 -0.5841  0.1659
 6710SOL     OW31588   2.272   3.362   2.198 -0.3502  0.1494 -0.1185
 6710SOL    HW131589   2.326   3.286   2.179  1.5142  1.1366  1.2677
 6710SOL    HW231590   2.187   3.325   2.173  0.7703 -3.0398  0.8380
 6711SOL     OW31591   3.231   1.540   7.008 -0.3219  0.1104  0.1060
 6711SOL    HW131592   3.142   1.525   7.040 -0.3323  2.4203  1.0924
 6711SOL    HW231593   3.225   1.493   6.925  0.3422 -0.6110  0.4631
 6712SOL     OW31594   3.645   0.929   8.343  0.4987 -0.2238 -0.2638
 6712SOL    HW131595   3.664   0.839   8.370  0.5521 -0.2227 -0.2982
 6712SOL    HW231596   3.715   0.967   8.397  0.7058 -1.4571  0.3280
 6713SOL     OW31597   0.307   3.620   2.559 -0.2368  0.4319 -0.6609
 6713SOL    HW131598   0.329   3.548   2.618  0.5473  0.5060 -0.8631
 6713SOL    HW231599   0.298   3.566   2.481  2.0023 -0.3749 -0.3718
 6714SOL     OW31600   4.680   3.500  15.885 -0.6797  0.8003 -0.0383
 6714SOL    HW131601   4.689   3.577  15.941  0.1762 -0.6348  1.7961
 6714SOL    HW231602   4.606   3.539  15.838  0.1612 -1.2417 -3.0620
 6715SOL     OW31603   4.605   0.732   8.493  0.5253 -0.0093 -0.3651
 6715SOL    HW131604   4.568   0.819   8.478 -0.4896 -0.3716  0.0043
 6715SOL    HW231605   4.666   0.736   8.420 -1.2025 -1.3437 -1.8947
 6716SOL     OW31606   4.322   3.336   0.675 -0.0466 -0.2138 -0.2475
 6716SOL    HW131607   4.369   3.410   0.637 -0.6504  0.1416 -0.2925
 6716SOL    HW231608   4.307   3.373   0.762 -0.9331 -1.5265  0.1540
 6717SOL     OW31609   1.251   4.572   7.828  0.5197 -0.2603 -1.0618
 6717SOL    HW131610   1.201   4.652   7.842  1.4878  0.2957 -0.7154
 6717SOL    HW231611   1.178   4.511   7.837  0.9000 -0.4233  0.9694
 6718SOL     OW31612   0.773   3.513   1.395 -0.2680  0.4425 -0.6573
 6718SOL    HW131613   0.691   3.488   1.352  0.3113 -0.4532 -1.2210
 6718SOL    HW231614   0.828   3.451   1.347 -1.3962 -0.4732 -0.7774
 6719SOL     OW31615   1.667   3.776   7.529 -0.2630  0.1241  0.0831
 6719SOL    HW131616   1.688   3.754   7.620  1.0057  1.8670  0.2049
 6719SOL    HW231617   1.576   3.805   7.536 -0.5869 -0.9042  0.2120
 6720SOL     OW31618   1.434   3.058   8.468  0.0566 -0.2065  0.4272
 6720SOL    HW131619   1.410   3.019   8.552  0.0339 -2.8933 -0.8096
 6720SOL    HW231620   1.527   3.072   8.483  0.1571 -1.9014  1.4104
 6721SOL     OW31621   0.955   3.900   3.556  0.1301  0.4006 -0.0451
 6721SOL    HW131622   1.020   3.968   3.535  1.2943 -0.4835  0.6871
 6721SOL    HW231623   0.947   3.854   3.473 -1.6867 -1.6785  1.3062
 6722SOL     OW31624   1.327   3.337   4.596  0.0034  0.0906 -0.2301
 6722SOL    HW131625   1.338   3.250   4.559  0.6075 -0.1560  0.5393
 6722SOL    HW231626   1.320   3.322   4.690  3.0072 -1.2988 -0.2275
 6723SOL     OW31627   2.715   0.625   3.514  0.2802  0.0866  0.4852
 6723SOL    HW131628   2.764   0.660   3.588 -1.0170  0.0030  1.3806
 6723SOL    HW231629   2.755   0.673   3.442  3.4217 -1.2104  1.3872
 6724SOL     OW31630   0.471   3.020  11.450 -0.2160 -0.3095  0.2795
 6724SOL    HW131631   0.475   3.074  11.371 -1.4907 -0.5897  0.0199
 6724SOL    HW231632   0.470   3.088  11.517  3.1902  0.0735 -0.0483
 6725SOL     OW31633   0.457   4.395   1.811  0.5614  0.3189  0.0449
 6725SOL    HW131634   0.472   4.440   1.728  0.0248  3.3548  1.6003
 6725SOL    HW231635   0.536   4.415   1.860  0.7399  0.0348 -0.1319
 6726SOL     OW31636   3.847   3.649   8.604 -0.1381 -0.1228 -0.5400
 6726SOL    HW131637   3.917   3.617   8.661  0.5832  2.0773 -0.1726
 6726SOL    HW231638   3.795   3.570   8.587  0.9043 -0.8882 -0.1475
 6727SOL     OW31639   2.776   0.212   3.222 -0.2234  0.2941  0.3728
 6727SOL    HW131640   2.717   0.269   3.172 -0.0715 -1.1947 -1.5237
 6727SOL    HW231641   2.770   0.251   3.309  0.8980 -0.9515  0.9907
 6728SOL     OW31642   2.021   2.087   9.154  0.0268 -0.4521 -0.3189
 6728SOL    HW131643   2.114   2.081   9.137  0.1763  0.7019  0.1001
 6728SOL    HW231644   2.014   2.183   9.153  2.2820 -0.2318  3.5054
 6729SOL     OW31645   1.779   4.122   0.624 -0.4649  0.0565  0.6013
 6729SOL    HW131646   1.786   4.172   0.706 -0.7018 -0.8863  1.1988
 6729SOL    HW231647   1.686   4.127   0.603  0.0315  1.1084 -1.2446
 6730SOL     OW31648   0.054   4.364   8.212  0.1541 -0.3295  0.2988
 6730SOL    HW131649   0.069   4.344   8.305  1.3662  0.8965  0.3686
 6730SOL    HW231650   4.705   4.424   8.225 -1.4304 -2.1241 -0.2420
 6731SOL     OW31651   3.482   1.784   4.464  0.0122 -0.4675 -0.2186
 6731SOL    HW131652   3.529   1.724   4.406  1.3236  0.8999 -0.5690
 6731SOL    HW231653   3.541   1.859   4.470  1.7140 -1.7974 -0.4584
 6732SOL     OW31654   2.940   2.505   3.049 -0.4777  0.3200  0.0607
 6732SOL    HW131655   2.901   2.438   2.993  1.1104 -1.4591  1.0732
 6732SOL    HW231656   2.946   2.576   2.986  1.9251  0.5584  0.5426
 6733SOL     OW31657   2.765   0.152   4.548 -0.4576  0.3336 -0.0270
 6733SOL    HW131658   2.859   0.135   4.549 -0.4664  0.4352  1.5457
 6733SOL    HW231659   2.747   0.129   4.639 -1.5842  0.6097 -0.1862
 6734SOL     OW31660   3.304   3.189   6.953 -1.0711 -0.1717 -0.1613
 6734SOL    HW131661   3.254   3.229   7.024  1.8554  0.7097  1.4149
 6734SOL    HW231662   3.283   3.248   6.880 -1.1998 -2.3937 -1.9171
 6735SOL     OW31663   3.594   3.949   5.974 -0.4775  0.1321  0.3279
 6735SOL    HW131664   3.629   3.896   6.045 -0.2658 -2.0135 -1.3843
 6735SOL    HW231665   3.585   3.890   5.899 -0.6199  0.7855 -0.1701
 6736SOL     OW31666   0.707   1.513   9.229 -0.1381  0.4545  0.6706
 6736SOL    HW131667   0.641   1.484   9.167 -0.5402 -1.6326  2.0575
 6736SOL    HW231668   0.643   1.533   9.298  1.0133  1.6410  1.3990
 6737SOL     OW31669   3.215   3.085   2.538 -0.8334 -0.4109  0.1570
 6737SOL    HW131670   3.290   3.029   2.562  0.8775  2.0238  0.4342
 6737SOL    HW231671   3.249   3.174   2.533 -0.8436 -0.4349 -0.3430
 6738SOL     OW31672   2.371   1.920  15.469 -0.8930 -0.4694 -0.1428
 6738SOL    HW131673   2.458   1.897  15.503 -1.7038 -1.2770  1.4076
 6738SOL    HW231674   2.379   2.015  15.482  1.2308 -0.9553  2.0541
 6739SOL     OW31675   2.946   4.244   6.370 -0.2937 -0.1303  0.0425
 6739SOL    HW131676   2.876   4.304   6.345 -0.7927 -1.7460 -2.4516
 6739SOL    HW231677   2.908   4.204   6.448 -2.8850  1.6575 -0.3093
 6740SOL     OW31678   4.094   0.814   6.062 -0.1481 -0.7570  0.2408
 6740SOL    HW131679   4.072   0.897   6.019  0.3613 -0.8426 -0.1837
 6740SOL    HW231680   4.067   0.843   6.149  0.4279  0.4902  0.0078
 6741SOL     OW31681   4.672   2.607  13.669 -0.3816 -0.7854 -0.3495
 6741SOL    HW131682   4.667   2.544  13.740 -0.1191 -1.2172 -0.7161
 6741SOL    HW231683   4.700   2.549  13.599  1.6207  0.0529 -0.2391
 6742SOL     OW31684   0.475   3.372   9.314  0.0975  0.0118  0.4534
 6742SOL    HW131685   0.533   3.337   9.381  1.2191  0.9278 -0.0432
 6742SOL    HW231686   0.386   3.343   9.336  0.7980 -1.5282  1.2662
 6743SOL     OW31687   1.349   0.992  12.044  0.2738  0.2952 -0.3147
 6743SOL    HW131688   1.425   0.985  11.986  1.8007 -2.4056  2.0399
 6743SOL    HW231689   1.348   0.904  12.081  0.8169 -0.2295 -1.5549
 6744SOL     OW31690   3.143   3.640   5.558  0.3369  0.1919 -0.4356
 6744SOL    HW131691   3.167   3.652   5.466 -0.5708  0.0809 -0.6933
 6744SOL    HW231692   3.049   3.624   5.552  0.0574  1.4333  0.6546
 6745SOL     OW31693   2.890   4.129   3.984  0.1076  1.0095 -0.6026
 6745SOL    HW131694   2.986   4.121   3.984  0.1405  1.4684  0.2723
 6745SOL    HW231695   2.877   4.178   3.902  1.4166  1.2237 -0.6843
 6746SOL     OW31696   4.228   3.568  14.678  0.4088  0.0601 -0.6628
 6746SOL    HW131697   4.186   3.515  14.610 -1.8512  0.5363  0.3597
 6746SOL    HW231698   4.166   3.557  14.750  0.0235  2.3862 -0.6469
 6747SOL     OW31699   3.640   4.127   6.328 -0.4894 -1.0262 -0.3097
 6747SOL    HW131700   3.590   4.046   6.326 -1.5356 -0.3708 -0.8625
 6747SOL    HW231701   3.722   4.094   6.291 -1.5021 -3.7822 -0.0646
 6748SOL     OW31702   0.999   0.942   0.906  0.1404 -0.8844  0.9629
 6748SOL    HW131703   0.917   0.922   0.863 -0.1533 -0.1828  1.1859
 6748SOL    HW231704   0.968   0.963   0.994  1.5341 -3.5509  2.0958
 6749SOL     OW31705   3.023   0.532   6.383  0.3750 -0.6494 -0.5604
 6749SOL    HW131706   3.087   0.537   6.454 -0.7443 -2.0679  0.5530
 6749SOL    HW231707   2.981   0.447   6.391  1.7845 -1.2504  0.3686
 6750SOL     OW31708   0.901   3.299   2.262 -0.1636  0.1017 -0.5376
 6750SOL    HW131709   0.838   3.314   2.192 -1.0724 -0.1519  0.2195
 6750SOL    HW231710   0.868   3.211   2.285  2.6418 -0.9032 -0.3793
 6751SOL     OW31711   4.135   0.082  16.988  0.4452  0.2746  0.2060
 6751SOL    HW131712   4.183   0.002  16.965  1.0654  0.4896  0.7489
 6751SOL    HW231713   4.211   0.110  17.040  0.2286  1.6452 -0.2146
 6752SOL     OW31714   4.699   2.559   6.191 -0.3412 -0.3313 -0.2629
 6752SOL    HW131715   0.006   2.469   6.186  2.5165  0.6960 -1.0417
 6752SOL    HW231716   4.689   2.573   6.097 -0.6960  0.2332 -0.1414
 6753SOL     OW31717   1.143   2.028   4.466  0.0143  0.0433 -0.4303
 6753SOL    HW131718   1.177   2.006   4.553  1.4748  1.7124 -0.6023
 6753SOL    HW231719   1.225   2.046   4.421 -0.1062 -1.6486 -1.3308
 6754SOL     OW31720   2.666   4.076   1.560  0.8401  0.4646 -0.5290
 6754SOL    HW131721   2.657   3.988   1.525 -1.2442  0.3385  0.3406
 6754SOL    HW231722   2.737   4.064   1.623 -0.8887  2.3059  1.7522
 6755SOL     OW31723   4.529   0.006   9.478  0.0831 -0.4283  0.1064
 6755SOL    HW131724   4.439   4.696   9.473 -0.3035  0.4138  1.3963
 6755SOL    HW231725   4.541   0.021   9.384  2.4403  0.5959  0.5840
 6756SOL     OW31726   4.243   2.233   6.607 -0.1956  0.2586 -0.3292
 6756SOL    HW131727   4.294   2.295   6.554  1.0308 -0.1679  0.3489
 6756SOL    HW231728   4.182   2.199   6.541 -0.2250 -0.8711  0.2875
 6757SOL     OW31729   0.601   1.619   6.390  0.3369 -0.0757  0.5729
 6757SOL    HW131730   0.652   1.565   6.329  2.4641  0.1466  2.1912
 6757SOL    HW231731   0.656   1.697   6.402 -0.4712  0.3330  1.5729
 6758SOL     OW31732   0.515   4.064   2.515  0.7188  0.6054 -0.0960
 6758SOL    HW131733   0.466   4.079   2.434  2.5476  2.1398 -0.9114
 6758SOL    HW231734   0.602   4.095   2.494  0.2899  2.1365  0.4197
 6759SOL     OW31735   3.086   4.514   3.482 -0.3169  0.4696  0.1444
 6759SOL    HW131736   3.166   4.522   3.534 -0.7056  0.2289  0.7855
 6759SOL    HW231737   3.022   4.531   3.551 -0.7046 -0.1148 -0.0682
 6760SOL     OW31738   0.618   2.766   6.942 -0.4674 -0.2303  0.2242
 6760SOL    HW131739   0.660   2.742   7.024  0.6602 -1.2931 -0.6681
 6760SOL    HW231740   0.568   2.685   6.928 -1.1602  0.6418 -2.3476
 6761SOL     OW31741   4.244   0.098   8.898 -0.4362  0.1828 -0.3240
 6761SOL    HW131742   4.218   0.022   8.846 -0.3989  0.4442 -0.7280
 6761SOL    HW231743   4.314   0.062   8.953 -0.4871 -0.5609 -0.7391
 6762SOL     OW31744   3.645   2.076  16.938  0.7673 -0.2729  0.2451
 6762SOL    HW131745   3.651   2.171  16.949 -1.6283 -0.0462 -0.3040
 6762SOL    HW231746   3.648   2.052  17.031  1.7811  0.0216  0.2808
 6763SOL     OW31747   4.108   2.839  13.966  0.2821  0.1706 -0.4440
 6763SOL    HW131748   4.083   2.751  13.939 -0.9351  0.2062  0.5444
 6763SOL    HW231749   4.059   2.892  13.904 -0.5856  0.6257  0.6237
 6764SOL     OW31750   3.028   4.245   8.236  0.0299  0.0159  0.0816
 6764SOL    HW131751   3.031   4.327   8.286 -0.1712  0.8462 -1.2684
 6764SOL    HW231752   3.118   4.213   8.242 -0.3736 -1.1691 -0.2426
 6765SOL     OW31753   2.688   2.636  11.923  0.9709 -0.0056  0.0540
 6765SOL    HW131754   2.753   2.600  11.863 -0.7501 -1.6949 -0.7939
 6765SOL    HW231755   2.652   2.704  11.867  1.8948  2.0819  1.9958
 6766SOL     OW31756   4.699   0.385   4.803  0.2220 -0.0867  0.7145
 6766SOL    HW131757   0.027   0.448   4.752 -2.0608  0.3977 -0.9920
 6766SOL    HW231758   0.046   0.330   4.837 -0.2310 -0.0812  1.6609
 6767SOL     OW31759   0.356   4.402   7.908  0.2070 -0.1764  0.0112
 6767SOL    HW131760   0.399   4.485   7.884 -2.1410  1.0152 -0.1104
 6767SOL    HW231761   0.268   4.432   7.932  0.4627 -0.3748  1.1438
 6768SOL     OW31762   2.888   1.217   8.409 -0.1788 -0.0673  0.6498
 6768SOL    HW131763   2.804   1.262   8.411 -0.1222  0.0444  0.4897
 6768SOL    HW231764   2.930   1.298   8.436  0.6169  0.1619 -1.2366
 6769SOL     OW31765   2.670   2.233  17.340  0.0726 -0.4245  0.3785
 6769SOL    HW131766   2.609   2.299  17.304  1.8710  0.5311 -0.9178
 6769SOL    HW231767   2.606   2.176  17.383 -2.0998  1.0936 -0.8054
 6770SOL     OW31768   2.641   0.748  16.395  0.0611  0.3771  0.2468
 6770SOL    HW131769   2.663   0.666  16.351 -1.0785 -0.5252  1.3436
 6770SOL    HW231770   2.551   0.757  16.363  0.2497 -0.1621 -0.4216
 6771SOL     OW31771   2.047   1.106   5.703  0.5496 -0.2061  0.7880
 6771SOL    HW131772   2.090   1.081   5.621 -0.7062 -0.5536  0.2312
 6771SOL    HW231773   1.961   1.075   5.676  0.6757  1.6912 -1.7562
 6772SOL     OW31774   1.712   2.968   5.359  0.3455  0.3853  0.3649
 6772SOL    HW131775   1.795   3.011   5.342  0.5795 -0.3348 -0.3189
 6772SOL    HW231776   1.671   3.043   5.402  0.9309  0.7533  0.2761
 6773SOL     OW31777   0.448   3.718   7.642 -0.0900 -0.1591  0.2987
 6773SOL    HW131778   0.376   3.772   7.675  0.0815 -0.9244  1.9176
 6773SOL    HW231779   0.458   3.652   7.710  0.5409 -0.9278 -0.5378
 6774SOL     OW31780   2.965   0.302   9.016 -0.0421  0.5835  0.7708
 6774SOL    HW131781   3.029   0.233   9.033 -1.3085 -0.5352  1.0075
 6774SOL    HW231782   3.019   0.381   9.016  0.9784 -0.1158 -1.3209
 6775SOL     OW31783   1.564   1.452   7.717  0.5984  0.2905  0.2594
 6775SOL    HW131784   1.527   1.537   7.692  0.3306  0.9130  2.8050
 6775SOL    HW231785   1.656   1.461   7.694 -0.0864  1.7782 -1.9312
 6776SOL     OW31786   4.083   3.774   3.830 -0.1752  0.5631 -0.4790
 6776SOL    HW131787   4.022   3.846   3.818 -0.5848  0.3019  0.0191
 6776SOL    HW231788   4.019   3.708   3.855 -0.2563  1.2803  1.2132
 6777SOL     OW31789   2.003   2.311   9.637 -0.1722 -0.3027 -0.0207
 6777SOL    HW131790   1.930   2.321   9.699  0.5870 -0.7482  0.9462
 6777SOL    HW231791   2.038   2.226   9.664  1.9751  0.9310  1.0715
 6778SOL     OW31792   3.075   2.967   7.530 -0.4568  0.3752  0.0559
 6778SOL    HW131793   2.992   2.947   7.486  0.4216  0.7311 -1.7442
 6778SOL    HW231794   3.129   2.895   7.498 -0.9890  0.1502 -0.3455
 6779SOL     OW31795   0.308   2.520   3.343  0.0534  0.4195 -0.0395
 6779SOL    HW131796   0.294   2.609   3.376 -0.3574  0.2968  0.1204
 6779SOL    HW231797   0.232   2.525   3.285 -0.5370  1.5575  0.8119
 6780SOL     OW31798   0.158   2.027   5.041 -0.1296  0.1605 -0.6025
 6780SOL    HW131799   0.067   2.057   5.047 -0.7190 -1.3489 -2.1234
 6780SOL    HW231800   0.193   2.062   5.123  1.4463  1.0249 -1.6499
 6781SOL     OW31801   3.755   2.082   1.522  0.1825 -0.3848 -0.0606
 6781SOL    HW131802   3.779   1.994   1.491 -1.2080 -0.6962 -0.2816
 6781SOL    HW231803   3.659   2.085   1.518  0.2881  0.1965 -1.7123
 6782SOL     OW31804   2.205   3.299  15.094  0.2689 -0.0401 -0.2545
 6782SOL    HW131805   2.217   3.379  15.043  1.7836  0.9007  1.5434
 6782SOL    HW231806   2.115   3.314  15.124  0.7617  1.6934  0.3686
 6783SOL     OW31807   2.628   2.889  11.792 -0.2563 -0.6943 -0.4932
 6783SOL    HW131808   2.687   2.957  11.825 -1.5111 -0.6796  1.7041
 6783SOL    HW231809   2.552   2.942  11.767 -0.3438 -1.3762 -1.6545
 6784SOL     OW31810   3.998   0.669   3.516  0.0150 -0.7101  0.3398
 6784SOL    HW131811   3.957   0.618   3.447  0.5631  0.6231 -0.9588
 6784SOL    HW231812   3.939   0.740   3.539  0.1812  0.0344 -1.5916
 6785SOL     OW31813   2.757   1.847   7.556  0.1546  0.4130  0.3926
 6785SOL    HW131814   2.743   1.764   7.602 -0.3485 -0.7973 -1.9693
 6785SOL    HW231815   2.735   1.908   7.626  0.2023  0.9836 -0.0925
 6786SOL     OW31816   4.398   2.400   7.620  0.4114 -0.4588  0.4666
 6786SOL    HW131817   4.446   2.434   7.545 -0.3629  2.8680  1.4654
 6786SOL    HW231818   4.470   2.356   7.666  1.3707  1.8587  1.1873
 6787SOL     OW31819   3.100   3.419   0.600 -0.0013 -0.1270  0.1289
 6787SOL    HW131820   3.115   3.495   0.544  0.0593 -0.1498  0.1140
 6787SOL    HW231821   3.031   3.367   0.559  1.7267 -3.0446  0.9582
 6788SOL     OW31822   3.726   2.574   1.732 -0.3815  0.0666  0.3407
 6788SOL    HW131823   3.806   2.523   1.726  0.6301  1.8546 -1.2161
 6788SOL    HW231824   3.738   2.627   1.653 -2.1770  0.4934  0.3433
 6789SOL     OW31825   3.836   3.880   5.391  0.1690 -0.2457  0.2776
 6789SOL    HW131826   3.868   3.939   5.458 -2.8751  1.0028  0.6453
 6789SOL    HW231827   3.839   3.794   5.432 -0.7875 -1.9742 -3.2722
 6790SOL     OW31828   0.118   4.031   3.197 -0.0622  0.0084 -0.1136
 6790SOL    HW131829   0.075   3.984   3.268  0.2902 -2.3208 -1.4402
 6790SOL    HW231830   0.075   3.989   3.122 -0.4522  1.1241 -0.5078
 6791SOL     OW31831   2.061   0.068   4.298  0.1267  0.1107 -0.8189
 6791SOL    HW131832   2.093   0.157   4.292 -2.0667  1.0757  1.8852
 6791SOL    HW231833   2.064   0.054   4.392  0.5371  1.0046 -0.7001
 6792SOL     OW31834   2.382   1.361   3.469  0.0750 -0.0855 -0.2114
 6792SOL    HW131835   2.362   1.358   3.563 -1.1197 -0.2916 -0.4764
 6792SOL    HW231836   2.478   1.360   3.469  0.0748 -0.7940  0.6478
 6793SOL     OW31837   2.981   2.803  10.044  0.5079  0.6212  0.3525
 6793SOL    HW131838   2.932   2.883  10.059 -0.3766 -0.2690  2.2331
 6793SOL    HW231839   3.033   2.784  10.122  0.8423  0.3669  0.0730
 6794SOL     OW31840   1.903   3.159   0.558  0.1092  0.1270  0.3622
 6794SOL    HW131841   1.956   3.206   0.623  0.1967 -1.4015  1.4007
 6794SOL    HW231842   1.859   3.101   0.621 -3.2604  1.3433 -0.9063
 6795SOL     OW31843   3.500   3.445   7.177  0.1246  0.1000 -0.1257
 6795SOL    HW131844   3.423   3.422   7.229 -0.5707  3.3223  0.2487
 6795SOL    HW231845   3.466   3.411   7.094 -3.6517  2.3180  0.4788
 6796SOL     OW31846   1.827   2.753   9.087 -0.2018  0.0535 -0.1783
 6796SOL    HW131847   1.772   2.675   9.093 -0.1277  0.2585  3.4389
 6796SOL    HW231848   1.773   2.810   9.142 -1.1314 -0.3849 -0.6532
 6797SOL     OW31849   2.576   3.088   4.459  0.1893  0.8460 -0.0749
 6797SOL    HW131850   2.564   3.151   4.530  2.3030 -0.9012  1.8283
 6797SOL    HW231851   2.526   3.131   4.390 -1.7830  3.9426  3.2895
 6798SOL     OW31852   0.074   1.677   1.600  0.3324 -0.1870  0.6617
 6798SOL    HW131853   0.135   1.620   1.553 -0.7956 -1.7357  1.0466
 6798SOL    HW231854   0.047   1.729   1.525  0.2753 -0.6050  0.3954
 6799SOL     OW31855   0.644   0.681   8.963 -0.4914  0.2590  0.3110
 6799SOL    HW131856   0.627   0.642   9.049  1.6893 -0.3607  0.4723
 6799SOL    HW231857   0.554   0.710   8.947  0.0397  1.6638 -0.1027
 6800SOL     OW31858   1.084   1.826  13.475  0.2276  0.5265 -0.3090
 6800SOL    HW131859   1.087   1.770  13.552 -2.3496  0.5079 -0.2345
 6800SOL    HW231860   1.157   1.888  13.479  1.1511 -0.8332  3.6794
 6801SOL     OW31861   4.059   0.541   9.598 -0.0062  0.0005  1.2991
 6801SOL    HW131862   4.043   0.470   9.661 -0.6485 -0.0963  1.0274
 6801SOL    HW231863   4.154   0.551   9.602 -0.1363  1.4893  0.5093
 6802SOL     OW31864   0.995   0.047   4.516  0.0563  0.0443  0.4338
 6802SOL    HW131865   1.082   0.044   4.556  0.4264 -1.0093 -0.4202
 6802SOL    HW231866   1.007   0.130   4.471 -0.4715  0.0326  0.2711
 6803SOL     OW31867   3.659   0.347   2.694  0.1147  0.2807  0.3422
 6803SOL    HW131868   3.596   0.418   2.680 -0.3096 -0.0230  0.7173
 6803SOL    HW231869   3.630   0.291   2.623  0.7431  0.8006 -0.3350
 6804SOL     OW31870   0.154   2.833   1.656  0.2081  0.3483  0.7232
 6804SOL    HW131871   0.118   2.758   1.704  2.0720 -0.8715  0.2480
 6804SOL    HW231872   0.095   2.829   1.581  0.7637 -1.1630  0.3531
 6805SOL     OW31873   3.849   3.683  11.198 -0.5077 -0.3083  0.1371
 6805SOL    HW131874   3.879   3.670  11.108  2.5561 -0.0389  1.1376
 6805SOL    HW231875   3.925   3.650  11.246 -0.2500 -0.2187 -0.2184
 6806SOL     OW31876   1.628   2.910   7.515  0.1939 -0.5187 -0.1833
 6806SOL    HW131877   1.632   2.971   7.589 -2.7831 -0.3057 -0.1890
 6806SOL    HW231878   1.533   2.915   7.507  0.0254 -2.1911  0.9112
 6807SOL     OW31879   0.690   2.911   4.080  0.2816 -0.2217  0.3915
 6807SOL    HW131880   0.622   2.891   4.144 -0.2387 -1.1330 -0.4469
 6807SOL    HW231881   0.690   2.829   4.030  0.6019  0.6967 -1.0916
 6808SOL     OW31882   2.883   0.878  14.886 -0.1461  0.8767 -0.3739
 6808SOL    HW131883   2.834   0.844  14.961  0.5147  1.3482  0.2789
 6808SOL    HW231884   2.925   0.798  14.854 -0.0527  0.2929  1.1546
 6809SOL     OW31885   3.584   0.166   5.393 -0.0974 -0.0951  0.2401
 6809SOL    HW131886   3.616   0.245   5.438  1.0940 -1.3947  1.7011
 6809SOL    HW231887   3.651   0.104   5.423 -0.4255 -0.0662  1.0334
 6810SOL     OW31888   0.061   2.334   4.727 -0.2115  0.3525 -0.2479
 6810SOL    HW131889   4.717   2.329   4.659  0.2941 -1.7974 -0.6048
 6810SOL    HW231890   0.139   2.329   4.671 -0.2863  0.3657 -0.3536
 6811SOL     OW31891   1.686   4.716   2.102  0.6219 -0.3698  0.0761
 6811SOL    HW131892   1.628   4.697   2.028 -0.9277 -0.2914  1.2754
 6811SOL    HW231893   1.724   0.074   2.071  1.2763  0.1202  2.1814
 6812SOL     OW31894   3.714   3.382   1.062  0.4786  0.2333  0.8281
 6812SOL    HW131895   3.628   3.389   1.019  0.1412  2.0092  1.7554
 6812SOL    HW231896   3.737   3.474   1.079 -0.7105  0.8372 -0.7444
 6813SOL     OW31897   3.340   2.757   8.969  0.6280 -0.2262  0.0475
 6813SOL    HW131898   3.340   2.839   8.919 -2.3170  0.0218  0.4376
 6813SOL    HW231899   3.266   2.775   9.026 -1.3405  0.8161 -2.8434
 6814SOL     OW31900   2.762   0.972   5.878 -0.3660  0.3104 -0.1292
 6814SOL    HW131901   2.773   0.946   5.786  0.4890 -1.3317  0.4410
 6814SOL    HW231902   2.712   0.898   5.913  0.7181 -0.5286 -0.3501
 6815SOL     OW31903   0.839   2.084   7.593 -0.2514 -0.3130  0.1847
 6815SOL    HW131904   0.880   2.020   7.651  1.7216  0.4165 -0.4358
 6815SOL    HW231905   0.898   2.087   7.518  0.3998 -0.7047  0.6902
 6816SOL     OW31906   0.897   1.871   3.670  0.4164 -0.1798  0.3074
 6816SOL    HW131907   0.908   1.912   3.584  1.5061  0.6884  0.8716
 6816SOL    HW231908   0.974   1.816   3.679  1.2520  1.1140  1.0837
 6817SOL     OW31909   4.503   3.636   1.172 -0.0715 -0.2764  0.0695
 6817SOL    HW131910   4.521   3.728   1.153 -0.4753 -0.1217  0.4169
 6817SOL    HW231911   4.408   3.632   1.159 -0.2330 -0.6151  1.2932
 6818SOL     OW31912   1.980   3.167   3.168 -0.3033 -0.2529 -0.0664
 6818SOL    HW131913   1.887   3.147   3.163 -0.2928 -1.0540  2.9866
 6818SOL    HW231914   1.972   3.257   3.198 -0.6287 -0.4093  0.3071
 6819SOL     OW31915   3.466   0.714   2.133  0.1147  0.9874 -0.1887
 6819SOL    HW131916   3.560   0.713   2.116 -0.2825  2.4766 -2.4841
 6819SOL    HW231917   3.460   0.678   2.221 -1.6568  1.3268 -0.1816
 6820SOL     OW31918   0.374   3.402   6.180 -0.7225  0.7071  0.2959
 6820SOL    HW131919   0.383   3.311   6.206 -0.0363  1.1478  1.6229
 6820SOL    HW231920   0.413   3.402   6.092  2.2067  0.8810  1.6018
 6821SOL     OW31921   2.742   3.698   8.254 -0.3280  0.1244 -0.7980
 6821SOL    HW131922   2.832   3.722   8.276 -0.8414  0.0046  1.4454
 6821SOL    HW231923   2.721   3.649   8.334  0.1739 -1.2264 -1.4996
 6822SOL     OW31924   3.112   1.041   2.366 -0.2830 -0.0971 -0.9166
 6822SOL    HW131925   3.070   1.115   2.323 -1.2100  0.0808  0.3076
 6822SOL    HW231926   3.075   1.037   2.454  0.6458  4.0723 -0.3518
 6823SOL     OW31927   0.006   2.221  10.628  0.0779  0.4424 -0.7032
 6823SOL    HW131928   4.660   2.169  10.588 -0.6489  0.5247  0.4805
 6823SOL    HW231929   4.682   2.230  10.710  0.6767 -2.1629 -0.0450
 6824SOL     OW31930   1.575   2.413   5.785  0.1150  0.4701 -0.2081
 6824SOL    HW131931   1.618   2.450   5.863 -1.0294 -0.0181  0.6522
 6824SOL    HW231932   1.484   2.401   5.810 -0.1149 -1.3845 -1.9874
 6825SOL     OW31933   3.549   1.096   2.703  0.3241 -0.0451  0.4076
 6825SOL    HW131934   3.530   1.189   2.714  2.6297  0.5270 -0.5565
 6825SOL    HW231935   3.495   1.084   2.624  1.1956 -0.4462 -0.1278
 6826SOL     OW31936   3.897   0.658   2.309 -0.1374 -0.3446 -0.2314
 6826SOL    HW131937   3.829   0.599   2.277  0.1736 -1.7905  1.7708
 6826SOL    HW231938   3.836   0.726   2.340 -0.9988 -0.4271 -1.7405
 6827SOL     OW31939   3.002   3.934   6.401  0.0759  0.2617  0.0749
 6827SOL    HW131940   3.014   3.982   6.483  0.7864 -0.5625  0.4590
 6827SOL    HW231941   3.077   3.874   6.400 -0.8353 -0.8832 -0.2711
 6828SOL     OW31942   0.230   2.816   7.895  0.4338 -1.0256  0.3603
 6828SOL    HW131943   0.185   2.805   7.979 -0.1000  2.2195  0.5056
 6828SOL    HW231944   0.290   2.887   7.915 -0.1937  0.4239 -2.9128
 6829SOL     OW31945   0.487   3.008  10.209  0.3335  0.2982 -0.1471
 6829SOL    HW131946   0.573   3.035  10.179 -0.2269  0.5699 -1.5343
 6829SOL    HW231947   0.439   3.091  10.210  0.4435  0.3814 -1.2623
 6830SOL     OW31948   4.307   1.634   6.775  0.3311 -0.0800  0.2596
 6830SOL    HW131949   4.271   1.571   6.713  0.2216  1.8972 -1.6821
 6830SOL    HW231950   4.274   1.612   6.862 -1.3776 -0.1225 -0.3972
 6831SOL     OW31951   3.051   1.914   4.488  0.2238 -0.1964 -0.7743
 6831SOL    HW131952   2.992   1.907   4.413  1.7228 -2.7478 -1.7413
 6831SOL    HW231953   2.993   1.888   4.559 -0.2098 -1.5830 -1.6338
 6832SOL     OW31954   0.084   3.425   5.109  0.3514 -0.0242  0.0085
 6832SOL    HW131955   0.005   3.376   5.087  1.1894 -0.8563 -1.1762
 6832SOL    HW231956   0.071   3.502   5.054  1.5402  1.0071  1.1534
 6833SOL     OW31957   1.834   3.899   7.366  0.1091  1.1581 -0.4601
 6833SOL    HW131958   1.776   3.867   7.435  1.2604  0.8858  0.3822
 6833SOL    HW231959   1.872   3.817   7.334  1.1631  0.3270  3.0027
 6834SOL     OW31960   3.301   0.047   0.486  0.0535  0.4505  0.5757
 6834SOL    HW131961   3.299   0.064   0.392 -2.1554 -2.4006  0.1089
 6834SOL    HW231962   3.213   0.077   0.512 -1.3674 -2.0931 -1.3177
 6835SOL     OW31963   0.647   3.051   6.601  0.0541 -0.1450 -0.6723
 6835SOL    HW131964   0.560   3.012   6.590 -1.6370  2.9034  1.8292
 6835SOL    HW231965   0.694   2.968   6.611 -0.4900 -0.5944 -1.8500
 6836SOL     OW31966   0.379   2.823   1.494  0.3250  0.1934 -0.4625
 6836SOL    HW131967   0.291   2.819   1.531  0.5668  0.2981  0.1280
 6836SOL    HW231968   0.351   2.880   1.423 -2.9718 -1.4071 -0.4286
 6837SOL     OW31969   4.275   2.668   5.208 -0.1660 -0.0805 -0.0216
 6837SOL    HW131970   4.239   2.676   5.120  0.9236 -2.8441 -0.7192
 6837SOL    HW231971   4.315   2.755   5.206  1.9750 -1.0993 -2.0890
 6838SOL     OW31972   3.221   0.045  11.775  0.5229 -0.8342 -0.3226
 6838SOL    HW131973   3.163   0.109  11.818 -1.9466 -1.0506 -3.3034
 6838SOL    HW231974   3.163   4.693  11.776 -0.7178  0.0980 -1.1965
 6839SOL     OW31975   0.561   1.857   5.753  0.1245 -0.3956  0.0742
 6839SOL    HW131976   0.547   1.830   5.844  0.5923 -0.6839  0.0570
 6839SOL    HW231977   0.633   1.920   5.754 -0.8717  0.7650 -0.3535
 6840SOL     OW31978   3.129   0.028   1.518 -0.0419 -0.0357 -0.8401
 6840SOL    HW131979   3.128   4.682   1.584 -0.5568 -0.2265 -1.0469
 6840SOL    HW231980   3.058   4.717   1.464 -0.2767  0.2519 -0.7187
 6841SOL     OW31981   2.283   3.863   8.210  0.1141  0.2496  0.2436
 6841SOL    HW131982   2.212   3.884   8.272  0.9645 -0.5761  1.4928
 6841SOL    HW231983   2.362   3.872   8.264 -0.7349  1.2855  1.3254
 6842SOL     OW31984   4.166   3.486   4.349 -0.9595 -0.2574  0.6266
 6842SOL    HW131985   4.123   3.502   4.265 -0.1001 -0.8538  0.0791
 6842SOL    HW231986   4.169   3.576   4.381  1.4643  0.2364 -1.0315
 6843SOL     OW31987   4.359   3.169   2.743  0.1644 -0.3779  0.1492
 6843SOL    HW131988   4.441   3.129   2.715 -0.6361  0.3682 -3.2457
 6843SOL    HW231989   4.329   3.110   2.812  0.3106 -0.0073  0.5232
 6844SOL     OW31990   0.776   4.611   5.416  0.1306  0.0436 -0.0869
 6844SOL    HW131991   0.765   4.583   5.325  0.0237  0.7134 -0.2794
 6844SOL    HW231992   0.740   4.533   5.458  1.3299 -1.8404 -2.5333
 6845SOL     OW31993   2.218   4.214   4.860  0.0720  0.4227  0.1995
 6845SOL    HW131994   2.143   4.166   4.896 -2.0041  1.1601 -3.2326
 6845SOL    HW231995   2.219   4.292   4.916 -1.2793 -0.4625  1.4691
 6846SOL     OW31996   1.155   2.690   3.902 -0.4879  0.1096 -0.0682
 6846SOL    HW131997   1.145   2.776   3.859 -1.8773  0.5728  1.2148
 6846SOL    HW231998   1.095   2.704   3.975 -0.8048  1.2114 -0.5376
 6847SOL     OW31999   2.342   0.228   7.077 -0.5255  0.1606 -0.3873
 6847SOL    HW132000   2.428   0.217   7.037 -1.1495 -0.5731 -1.5287
 6847SOL    HW232001   2.284   0.212   7.002  0.7675  0.3525 -1.4315
 6848SOL     OW32002   1.092   0.553   8.808 -0.8011  0.3621  0.4521
 6848SOL    HW132003   1.034   0.609   8.756 -1.0714 -0.8907 -0.5766
 6848SOL    HW232004   1.104   0.605   8.887  0.2881  0.1831  0.4052
 6849SOL     OW32005   4.012   0.092   2.512 -0.0609  0.0465 -0.5775
 6849SOL    HW132006   3.959   0.014   2.530 -0.8090  0.9114  0.9533
 6849SOL    HW232007   4.065   0.062   2.438  0.8964 -1.5513  0.7531
 6850SOL     OW32008   2.042   4.090   7.714 -0.2019  0.4676 -0.3472
 6850SOL    HW132009   2.023   4.083   7.621 -0.0612  0.5256 -0.3809
 6850SOL    HW232010   2.136   4.111   7.715 -0.4295  1.4175  1.5225
 6851SOL     OW32011   1.367   2.393   4.610 -0.1050  0.3179  0.3315
 6851SOL    HW132012   1.338   2.482   4.592  1.5647  0.1735 -3.0686
 6851SOL    HW232013   1.346   2.365   4.521  2.3150 -1.2517  0.2475
 6852SOL     OW32014   1.361   1.207   6.329  0.1294  0.1547  0.3276
 6852SOL    HW132015   1.328   1.194   6.418 -1.2092 -0.8537 -0.3237
 6852SOL    HW232016   1.443   1.158   6.331 -0.5062 -0.9002  0.2514
 6853SOL     OW32017   1.101   4.065  15.140 -0.5264  0.1634  0.1464
 6853SOL    HW132018   1.139   3.984  15.107 -0.0857 -0.1748  1.4786
 6853SOL    HW232019   1.035   4.085  15.075 -0.1750 -0.4917 -0.4116
 6854SOL     OW32020   1.307   1.475   6.754 -0.0607 -0.2960 -0.5488
 6854SOL    HW132021   1.303   1.565   6.722 -2.0295 -0.4281 -0.6783
 6854SOL    HW232022   1.342   1.497   6.840 -1.4165 -2.0842  0.4716
 6855SOL     OW32023   2.118   1.374   8.167 -0.4410  0.4242 -0.6453
 6855SOL    HW132024   2.025   1.380   8.144 -0.6264  2.3746  0.5412
 6855SOL    HW232025   2.101   1.301   8.227 -0.4837  0.5006 -0.5630
 6856SOL     OW32026   3.582   3.778  10.978 -0.1783  1.0526  0.5190
 6856SOL    HW132027   3.628   3.826  11.047 -1.7153  1.6042  1.1477
 6856SOL    HW232028   3.603   3.830  10.901  0.7693 -0.3857 -0.1876
 6857SOL     OW32029   4.698   0.571   7.654 -0.1596 -0.2291 -0.1152
 6857SOL    HW132030   4.690   0.666   7.663 -1.5579 -0.2553 -0.9997
 6857SOL    HW232031   0.031   0.551   7.728  0.3197 -0.1653 -0.4641
 6858SOL     OW32032   2.689   0.402   1.805  0.0519  0.0366 -0.2114
 6858SOL    HW132033   2.741   0.334   1.762 -0.0014 -0.1692  0.0508
 6858SOL    HW232034   2.619   0.348   1.843  0.3868  0.1867  0.5896
 6859SOL     OW32035   1.098   4.347   0.668 -0.2511 -0.1043 -0.1141
 6859SOL    HW132036   1.068   4.275   0.612 -3.0278  0.8037  0.2041
 6859SOL    HW232037   1.022   4.405   0.670 -0.4715 -0.3778 -0.5251
 6860SOL     OW32038   3.893   1.119  11.196  0.4423 -0.1803  0.0406
 6860SOL    HW132039   3.911   1.025  11.192  0.8628 -0.1237  0.6528
 6860SOL    HW232040   3.954   1.149  11.263  0.0736  0.7600 -0.0427
 6861SOL     OW32041   2.215   2.015  12.437 -0.3709 -0.5810  0.3290
 6861SOL    HW132042   2.178   2.052  12.517 -1.2514  1.4496 -1.0159
 6861SOL    HW232043   2.281   1.960  12.480 -0.4429 -0.3719  0.7076
 6862SOL     OW32044   0.822   2.313  16.804 -0.4620 -0.3578 -0.2481
 6862SOL    HW132045   0.877   2.240  16.774  1.4289 -0.1143  2.7373
 6862SOL    HW232046   0.837   2.375  16.732 -1.0878 -1.7102 -1.5521
 6863SOL     OW32047   0.907   4.591   7.350 -0.2061  0.0456 -0.0941
 6863SOL    HW132048   0.839   4.658   7.357  1.2781  1.4198  1.2229
 6863SOL    HW232049   0.909   4.586   7.254  2.7796  1.0289 -0.0772
 6864SOL     OW32050   4.574   1.944   6.358 -0.0581 -0.0058  0.4031
 6864SOL    HW132051   4.521   1.984   6.289  1.7720  0.0798 -0.9510
 6864SOL    HW232052   4.504   1.909   6.414 -0.6809 -1.2361 -1.1629
 6865SOL     OW32053   1.628   2.248   5.408  0.4029 -0.2711  0.2246
 6865SOL    HW132054   1.677   2.167   5.417 -1.3893 -1.2765  0.6969
 6865SOL    HW232055   1.680   2.311   5.458  1.2294  0.8731 -2.0310
 6866SOL     OW32056   2.460   3.715   0.101  0.0810 -0.3927 -0.2586
 6866SOL    HW132057   2.498   3.670   0.177  1.2333 -0.8589 -1.1237
 6866SOL    HW232058   2.432   3.636   0.055  0.9783 -0.6364 -0.3745
 6867SOL     OW32059   0.108   4.599   0.046  0.1215  0.1261  0.2335
 6867SOL    HW132060   0.103   4.585  17.649 -0.8329 -0.4502  0.3693
 6867SOL    HW232061   0.017   4.626   0.065  0.2579  2.4985 -2.5083
 6868SOL     OW32062   0.460   1.016   8.752  0.1150  0.2224 -0.1514
 6868SOL    HW132063   0.512   0.972   8.685  0.9040 -0.6441  1.0383
 6868SOL    HW232064   0.418   1.087   8.704  1.1509 -0.3416 -1.9015
 6869SOL     OW32065   2.235   3.856   7.355  0.0682  0.6340  0.5515
 6869SOL    HW132066   2.178   3.826   7.426  0.4846 -2.6569 -0.5007
 6869SOL    HW232067   2.321   3.857   7.396  0.7601 -0.0644 -0.8639
 6870SOL     OW32068   2.429   3.410   7.068  0.0751  0.4522 -0.1076
 6870SOL    HW132069   2.430   3.450   6.981  0.4560  1.8967  0.5649
 6870SOL    HW232070   2.405   3.320   7.047  0.4082  0.2812  0.2381
 6871SOL     OW32071   0.114   0.229  17.529  0.1970  0.1302 -0.0375
 6871SOL    HW132072   0.171   0.173  17.477 -0.2632  0.5498 -0.9848
 6871SOL    HW232073   0.178   0.294  17.560 -0.9478  1.3734 -0.2447
 6872SOL     OW32074   4.200   2.369   3.286 -0.5100 -0.3045  0.1945
 6872SOL    HW132075   4.253   2.289   3.280  0.1146 -0.0415  2.1472
 6872SOL    HW232076   4.116   2.323   3.278  0.4227 -1.8514 -0.7362
 6873SOL     OW32077   2.796   2.544   1.932  0.2893 -0.0882  0.0496
 6873SOL    HW132078   2.777   2.637   1.923  0.5130 -0.1594 -1.1282
 6873SOL    HW232079   2.816   2.522   1.841 -1.0850 -1.1278  0.0006
 6874SOL     OW32080   3.173   2.631   7.534 -0.0229  0.0359 -0.1577
 6874SOL    HW132081   3.165   2.570   7.461 -0.1617  1.2622 -1.1848
 6874SOL    HW232082   3.265   2.658   7.540 -0.2729  0.7966  0.3026
 6875SOL     OW32083   0.455   1.597   4.987  0.4606 -0.3196  0.5030
 6875SOL    HW132084   0.436   1.617   4.896 -0.9590 -0.0869  0.8545
 6875SOL    HW232085   0.534   1.651   4.998 -0.1445  0.8330 -0.8122
 6876SOL     OW32086   0.648   0.924   1.367 -0.1103 -0.2501 -0.3908
 6876SOL    HW132087   0.643   0.894   1.277  0.4970 -1.7275  0.0708
 6876SOL    HW232088   0.715   0.873   1.413  1.4581  1.1692 -1.0554
 6877SOL     OW32089   1.868   4.225   2.810 -0.5028 -0.3304 -0.1313
 6877SOL    HW132090   1.851   4.282   2.885 -1.2295  1.4749 -1.6381
 6877SOL    HW232091   1.806   4.271   2.753 -0.3328  2.0713  1.6404
 6878SOL     OW32092   4.299   2.261   8.596  0.2797 -0.0112 -0.6408
 6878SOL    HW132093   4.305   2.325   8.525 -2.3949 -0.7384 -1.5128
 6878SOL    HW232094   4.391   2.247   8.619 -0.4667 -0.7543  1.8736
 6879SOL     OW32095   1.406   2.859   4.571 -0.2782  0.1085  0.1081
 6879SOL    HW132096   1.422   2.933   4.512 -1.0798  0.3293  0.1616
 6879SOL    HW232097   1.377   2.906   4.649 -0.9361  1.3563 -0.8750
 6880SOL     OW32098   1.163   2.333  10.060  0.0207 -0.0072  0.8803
 6880SOL    HW132099   1.199   2.341   9.972  1.1259  1.7919  1.5062
 6880SOL    HW232100   1.101   2.260  10.059  0.3734 -0.3076  0.6153
 6881SOL     OW32101   0.463   1.422   3.136  0.2507  0.7719  0.2272
 6881SOL    HW132102   0.498   1.510   3.126  2.1180 -0.2731 -2.4998
 6881SOL    HW232103   0.529   1.368   3.179  1.3343  3.0753  1.4404
 6882SOL     OW32104   1.900   0.084   8.241  0.2120  0.0747  0.2986
 6882SOL    HW132105   1.930   4.724   8.207 -0.6131  0.4421 -1.3104
 6882SOL    HW232106   1.955   0.149   8.197  0.0148 -2.2399 -3.3030
 6883SOL     OW32107   2.569   2.398   7.343  0.2422 -0.5888  0.3843
 6883SOL    HW132108   2.545   2.402   7.251  0.9190 -1.6436  0.1540
 6883SOL    HW232109   2.485   2.379   7.385  0.9593  0.2375  2.1994
 6884SOL     OW32110   1.073   0.796   4.693 -0.3181 -0.1376  0.4553
 6884SOL    HW132111   1.020   0.717   4.698  1.4390 -1.2934  1.0137
 6884SOL    HW232112   1.155   0.766   4.652  0.2115  3.5037 -1.1890
 6885SOL     OW32113   4.174   3.391   8.100  0.0934 -0.6077  0.1945
 6885SOL    HW132114   4.198   3.476   8.136  1.2791 -0.9199  0.1669
 6885SOL    HW232115   4.085   3.389   8.134  0.8107  1.0150  2.1383
 6886SOL     OW32116   3.964   2.936  10.643 -0.1719 -0.1063 -0.1263
 6886SOL    HW132117   3.996   3.002  10.705  0.9099 -0.7112 -0.0476
 6886SOL    HW232118   3.875   2.930  10.676  0.1198  0.5754  0.8033
 6887SOL     OW32119   1.345   0.848   2.928 -0.0055 -0.3527  0.6623
 6887SOL    HW132120   1.320   0.774   2.873 -0.8620  0.7438 -0.4037
 6887SOL    HW232121   1.403   0.803   2.991  0.4960 -2.8370 -1.5890
 6888SOL     OW32122   0.638   4.343   2.936  0.2545  0.0673 -0.0468
 6888SOL    HW132123   0.644   4.256   2.897  1.3165  0.8912 -1.7154
 6888SOL    HW232124   0.595   4.401   2.874 -0.0621  1.0667  1.0908
 6889SOL     OW32125   0.148   4.144   9.824  0.4139 -0.5988 -0.0416
 6889SOL    HW132126   0.107   4.132   9.738  0.2486 -0.2715 -0.0107
 6889SOL    HW232127   0.241   4.125   9.813  0.4125 -0.2862 -0.5941
 6890SOL     OW32128   2.218   2.000   4.647 -0.4387 -0.1247 -0.6135
 6890SOL    HW132129   2.269   2.071   4.608 -0.1959  1.9328  3.4036
 6890SOL    HW232130   2.271   1.922   4.630 -1.2623 -0.5768 -1.1055
 6891SOL     OW32131   3.098   0.370   1.767  0.1233  0.5068  0.4310
 6891SOL    HW132132   3.059   0.332   1.689 -0.3771  0.6243  0.6181
 6891SOL    HW232133   3.165   0.428   1.732 -0.3137  0.0965 -1.0571
 6892SOL     OW32134   3.442   2.098   4.531 -0.0648 -0.1764  0.3433
 6892SOL    HW132135   3.366   2.138   4.573  0.4279  1.7703 -0.6601
 6892SOL    HW232136   3.393   2.061   4.458 -1.9165  0.2204  1.3823
 6893SOL     OW32137   3.437   3.322   9.831 -0.1133 -0.3244  0.4232
 6893SOL    HW132138   3.402   3.297   9.917  0.5939  0.5597  0.9691
 6893SOL    HW232139   3.454   3.236   9.792 -0.3287 -0.0534 -0.2750
 6894SOL     OW32140   3.083   4.619   4.678 -0.4682  0.0826 -0.4586
 6894SOL    HW132141   3.034   4.601   4.598  2.1416 -1.0226 -1.8136
 6894SOL    HW232142   3.170   4.646   4.650 -0.1419 -1.4529 -0.9319
 6895SOL     OW32143   1.486   1.096   7.210  0.0802 -0.7334  0.7974
 6895SOL    HW132144   1.509   1.159   7.142  1.1249 -0.7389  1.1356
 6895SOL    HW232145   1.565   1.042   7.211  0.9645  0.5409 -0.7870
 6896SOL     OW32146   3.227   1.955  17.452 -0.2119  0.3941  0.2624
 6896SOL    HW132147   3.294   2.019  17.474  3.0033 -1.6095 -3.7018
 6896SOL    HW232148   3.255   1.879  17.503 -2.3976 -0.4949  0.1408
 6897SOL     OW32149   3.601   2.352  13.235  0.3901  0.4453 -0.4765
 6897SOL    HW132150   3.551   2.403  13.171  0.1404  1.4999  0.5639
 6897SOL    HW232151   3.568   2.262  13.227 -1.5088  1.2320 -1.3672
 6898SOL     OW32152   3.623   1.795   8.367 -0.4310 -0.2717 -0.5145
 6898SOL    HW132153   3.695   1.732   8.369 -0.4598 -0.3029 -0.4324
 6898SOL    HW232154   3.546   1.740   8.387  0.3371 -1.3417 -0.5031
 6899SOL     OW32155   4.172   1.344   3.829  0.0130  0.0229 -0.1518
 6899SOL    HW132156   4.082   1.364   3.856 -0.3916 -0.9992 -0.7709
 6899SOL    HW232157   4.147   1.256   3.803 -0.5927 -0.0594  0.6968
 6900SOL     OW32158   3.539   1.235  13.109 -0.8420  0.2581  0.0885
 6900SOL    HW132159   3.560   1.322  13.144 -2.9840  0.8073  0.0604
 6900SOL    HW232160   3.450   1.230  13.146 -0.7806  0.3128  0.2434
 6901SOL     OW32161   1.978   1.328   3.213 -0.2824  0.2996 -0.2279
 6901SOL    HW132162   2.071   1.310   3.227 -0.5829 -1.0611  0.0463
 6901SOL    HW232163   1.987   1.390   3.140 -0.9749 -1.8178 -2.1039
 6902SOL     OW32164   1.174   3.611   2.355  0.5060 -0.1300 -0.6612
 6902SOL    HW132165   1.220   3.686   2.392  2.2978 -1.3907 -0.3336
 6902SOL    HW232166   1.113   3.598   2.427  1.2536 -0.8796 -0.1593
 6903SOL     OW32167   3.564   1.223   9.586  0.1426 -0.4214 -0.3613
 6903SOL    HW132168   3.644   1.173   9.568 -0.0754 -0.5344 -1.0070
 6903SOL    HW232169   3.609   1.300   9.620 -1.0209  0.8667 -1.7174
 6904SOL     OW32170   3.582   0.786   6.102 -0.4248 -0.0687 -0.6043
 6904SOL    HW132171   3.556   0.718   6.164 -1.0953  0.6942 -0.0484
 6904SOL    HW232172   3.544   0.861   6.149  0.4613  0.0813 -0.1250
 6905SOL     OW32173   2.932   0.229  12.555  0.2547  0.3849 -0.3287
 6905SOL    HW132174   2.925   0.273  12.470  2.0121 -0.0452 -0.6973
 6905SOL    HW232175   2.981   0.303  12.592 -1.0969  0.8758  0.4942
 6906SOL     OW32176   2.078   0.347   3.138  0.1957  0.0016 -0.2399
 6906SOL    HW132177   2.024   0.327   3.214 -0.4349 -1.5202 -1.0705
 6906SOL    HW232178   2.017   0.318   3.069  0.4659 -1.6281  0.1962
 6907SOL     OW32179   4.122   3.063  13.334  0.2368 -0.1537  0.3019
 6907SOL    HW132180   4.081   3.146  13.309 -2.3497 -2.2570 -2.5057
 6907SOL    HW232181   4.060   3.035  13.402 -1.3996  1.6786 -0.4300
 6908SOL     OW32182   1.771   0.915  12.790  0.4206  0.2644 -0.4463
 6908SOL    HW132183   1.814   0.833  12.812 -0.9106 -1.4266 -4.1214
 6908SOL    HW232184   1.754   0.886  12.700  1.8957 -0.6629 -0.4179
 6909SOL     OW32185   3.250   0.300   5.429 -0.0882  0.0970  0.4703
 6909SOL    HW132186   3.304   0.230   5.393 -1.3064 -0.4377 -0.3137
 6909SOL    HW232187   3.165   0.256   5.419  0.0401  0.3840 -1.8541
 6910SOL     OW32188   3.963   2.989   6.074 -0.1711 -0.5309  0.4247
 6910SOL    HW132189   3.992   3.021   6.159 -0.4569 -0.5957  0.5448
 6910SOL    HW232190   3.962   3.074   6.029  0.0692 -0.4110  0.6473
 6911SOL     OW32191   4.694   2.896  15.767  0.0303 -0.0002 -0.1768
 6911SOL    HW132192   4.600   2.877  15.764 -0.2869  1.5802  0.0725
 6911SOL    HW232193   4.696   2.990  15.784 -1.1550 -0.1225  0.5863
 6912SOL     OW32194   2.733   0.649   7.236 -0.0425  0.7847 -0.3721
 6912SOL    HW132195   2.751   0.713   7.167 -0.2107 -1.7067 -2.7224
 6912SOL    HW232196   2.821   0.621   7.260 -0.4662 -1.9017 -1.9850
 6913SOL     OW32197   4.088   2.230   7.039  0.3791  0.2875 -0.7400
 6913SOL    HW132198   4.012   2.173   7.041  1.5911 -1.2844 -0.0388
 6913SOL    HW232199   4.145   2.181   6.981  1.2438  0.7931 -0.3126
 6914SOL     OW32200   0.146   2.667   3.156  0.1470  0.2629 -0.8590
 6914SOL    HW132201   0.231   2.661   3.111  1.0097  0.4425  0.7619
 6914SOL    HW232202   0.081   2.655   3.087 -1.9522  0.2751  1.1411
 6915SOL     OW32203   3.842   1.312   1.605 -0.1236 -0.0037  0.1647
 6915SOL    HW132204   3.802   1.246   1.549 -1.2148 -0.1671  1.1254
 6915SOL    HW232205   3.788   1.388   1.584 -1.6244 -1.1684 -0.1546
 6916SOL     OW32206   0.661   0.722   2.106  0.1679  0.0700 -0.4546
 6916SOL    HW132207   0.750   0.757   2.112 -1.0242  2.5630  2.5851
 6916SOL    HW232208   0.684   0.630   2.096  1.3700  0.5770 -2.2859
 6917SOL     OW32209   2.721   4.069   8.430 -0.0721  0.2361 -0.6312
 6917SOL    HW132210   2.695   4.153   8.393  1.0831  0.8980  0.0838
 6917SOL    HW232211   2.765   4.105   8.507  2.9904 -0.8235 -1.8893
 6918SOL     OW32212   0.019   4.180   2.703  0.5530 -0.1484  0.0673
 6918SOL    HW132213   0.017   4.123   2.626  0.6472 -2.4951  1.8237
 6918SOL    HW232214   0.112   4.172   2.723  0.4905  0.6895  0.6731
 6919SOL     OW32215   0.859   3.735   3.346  0.1516  1.0966  0.2531
 6919SOL    HW132216   0.870   3.679   3.269  1.3951 -0.7903  1.7796
 6919SOL    HW232217   0.777   3.701   3.381  0.0104 -0.0281 -1.1749
 6920SOL     OW32218   0.284   4.101   1.815  0.0276  0.3132  0.4006
 6920SOL    HW132219   0.196   4.135   1.801  0.2987  0.4223 -1.0424
 6920SOL    HW232220   0.338   4.134   1.743 -0.0965  0.6755  0.4755
 6921SOL     OW32221   2.574   0.728  11.633 -0.4408  0.4838  0.6926
 6921SOL    HW132222   2.571   0.819  11.662 -1.3100  0.4713  0.6591
 6921SOL    HW232223   2.493   0.692  11.670 -0.0176 -1.4192 -0.2042
 6922SOL     OW32224   2.098   4.577   0.072 -0.0851 -0.0921 -0.4846
 6922SOL    HW132225   2.024   4.548   0.019 -1.4284  0.8905  0.8472
 6922SOL    HW232226   2.146   4.496   0.085  0.2174 -0.0151 -1.1193
 6923SOL     OW32227   3.957   3.894  17.345  0.1343 -0.4349  0.3078
 6923SOL    HW132228   3.942   3.920  17.254  1.1408  1.7450  0.7723
 6923SOL    HW232229   4.049   3.911  17.361  0.2132 -1.8441  1.2807
 6924SOL     OW32230   0.241   2.086   7.632  0.4113  0.7798 -0.2381
 6924SOL    HW132231   0.232   2.172   7.591  0.8403  0.1274 -1.7133
 6924SOL    HW232232   0.197   2.027   7.570 -1.1966  2.3281 -0.5714
 6925SOL     OW32233   0.056   0.735   5.730 -0.6330 -0.3793  0.1074
 6925SOL    HW132234   0.001   0.802   5.688  1.7988  0.7117 -1.3941
 6925SOL    HW232235   0.129   0.725   5.668  1.1955  0.1030  2.1919
 6926SOL     OW32236   4.655   0.164  10.414  0.2601 -0.5329 -0.1430
 6926SOL    HW132237   4.588   0.134  10.475  0.7205 -1.1467  0.0662
 6926SOL    HW232238   4.616   0.245  10.381 -1.0337 -1.2453 -0.3814
 6927SOL     OW32239   2.060   0.811   8.776  0.0436 -0.2622 -0.0004
 6927SOL    HW132240   2.055   0.716   8.763 -0.2218 -0.0238 -1.6867
 6927SOL    HW232241   2.137   0.824   8.721 -0.4339  0.0500 -0.6027
 6928SOL     OW32242   1.768   0.950   3.580 -0.3807 -0.0673  0.4851
 6928SOL    HW132243   1.835   1.015   3.561  0.6722 -1.2550  0.1810
 6928SOL    HW232244   1.802   0.871   3.539 -1.4450 -0.1525 -0.2315
 6929SOL     OW32245   1.401   0.042   8.795  0.2619 -0.6189  0.1895
 6929SOL    HW132246   1.446   4.696   8.749  0.8189 -0.1487  0.0196
 6929SOL    HW232247   1.324   4.716   8.820  0.7192 -0.3599  2.1225
 6930SOL     OW32248   3.744   0.656   9.666 -0.2684 -0.2549  0.2268
 6930SOL    HW132249   3.812   0.649   9.599 -1.8595  0.4684 -1.4566
 6930SOL    HW232250   3.706   0.738   9.634 -0.1803  0.9752  3.2777
 6931SOL     OW32251   1.229   0.523   5.769 -0.2425 -0.8525 -0.6443
 6931SOL    HW132252   1.262   0.444   5.726 -0.4960 -1.1656 -0.2719
 6931SOL    HW232253   1.275   0.597   5.730 -1.3407 -0.2466 -0.8037
 6932SOL     OW32254   1.907   2.771   8.084 -0.0868  0.0617 -0.0500
 6932SOL    HW132255   1.940   2.713   8.016  0.1953 -0.2119  0.3172
 6932SOL    HW232256   1.987   2.780   8.137  0.9076 -0.8962 -1.3825
 6933SOL     OW32257   0.518   2.289   4.030 -0.1635 -0.0655  0.6962
 6933SOL    HW132258   0.486   2.343   4.103  0.8615 -1.7480  2.3853
 6933SOL    HW232259   0.438   2.237   4.026  0.4450 -1.0017  0.8540
 6934SOL     OW32260   3.539   3.468   4.227  0.1880 -0.3371  0.4889
 6934SOL    HW132261   3.489   3.389   4.205 -0.8247  0.2593  0.6370
 6934SOL    HW232262   3.566   3.438   4.314  0.2334 -2.1241 -0.1256
 6935SOL     OW32263   3.506   2.245  12.075 -0.6812  0.1037 -0.7204
 6935SOL    HW132264   3.436   2.211  12.020  0.6686 -1.5498 -1.4085
 6935SOL    HW232265   3.590   2.236  12.030  0.6356  0.1801  1.7021
 6936SOL     OW32266   4.224   1.064   6.635  0.2402  0.1153  0.7569
 6936SOL    HW132267   4.176   0.982   6.650  0.5662 -0.1671  0.2465
 6936SOL    HW232268   4.251   1.042   6.546  0.8928 -1.3389  1.3239
 6937SOL     OW32269   4.102   2.800   3.615 -0.5088  0.1319 -0.1042
 6937SOL    HW132270   4.163   2.759   3.677  0.3977 -0.6853 -1.5459
 6937SOL    HW232271   4.056   2.720   3.591  0.4313  0.4032 -2.7323
 6938SOL     OW32272   1.055   1.439   5.104  0.2278 -0.6351 -0.2965
 6938SOL    HW132273   1.095   1.358   5.074  0.8080  0.9336 -3.7382
 6938SOL    HW232274   1.017   1.424   5.191  1.0969 -0.9217  0.0288
 6939SOL     OW32275   3.688   3.010   6.137  0.3222  0.9543  0.1494
 6939SOL    HW132276   3.681   3.099   6.172  0.6038  1.5448 -1.2698
 6939SOL    HW232277   3.782   3.006   6.123  0.7186  1.5531  2.6943
 6940SOL     OW32278   3.310   0.443   8.306  0.7846  0.2939 -0.1445
 6940SOL    HW132279   3.399   0.474   8.289  0.6874  0.3777 -0.4936
 6940SOL    HW232280   3.327   0.404   8.392  1.8998  0.4242 -0.3127
 6941SOL     OW32281   4.176   2.029  13.296  0.3924 -0.2785 -0.9985
 6941SOL    HW132282   4.265   1.994  13.308 -0.1707 -0.7786  1.7061
 6941SOL    HW232283   4.181   2.122  13.318 -0.5841 -0.1800 -1.1979
 6942SOL     OW32284   4.385   4.397   2.006  0.5835  0.5931 -0.4442
 6942SOL    HW132285   4.379   4.379   2.100  1.0261  1.7429 -0.1893
 6942SOL    HW232286   4.295   4.375   1.981  0.6586  1.9134 -1.8498
 6943SOL     OW32287   0.214   0.703  13.234 -0.3852 -0.2175  0.7453
 6943SOL    HW132288   0.196   0.797  13.242  0.6561 -0.0637  1.4039
 6943SOL    HW232289   0.209   0.699  13.139  0.5267  0.7782  0.6477
 6944SOL     OW32290   0.075   0.139   8.322 -0.7112 -0.4033  0.2375
 6944SOL    HW132291   0.027   0.146   8.405 -1.1198 -1.0227  0.0517
 6944SOL    HW232292   0.160   0.169   8.353 -1.0625  0.5772  0.2634
 6945SOL     OW32293   4.423   4.153   2.956 -0.3214 -0.0185 -0.7783
 6945SOL    HW132294   4.410   4.160   3.050 -0.1687 -0.7325 -0.7029
 6945SOL    HW232295   4.412   4.059   2.937  0.7953 -0.1949 -0.6053
 6946SOL     OW32296   1.209   0.963  17.515  0.3493  0.0549 -0.0504
 6946SOL    HW132297   1.161   0.955  17.433  3.8064  0.8542 -2.1544
 6946SOL    HW232298   1.130   0.974  17.568  0.1133  0.5053 -0.4995
 6947SOL     OW32299   1.305   2.805   4.260  0.9326 -0.6316 -0.0571
 6947SOL    HW132300   1.389   2.850   4.253  0.4313  0.1690 -0.8665
 6947SOL    HW232301   1.310   2.732   4.199  0.9313 -1.1413  0.5558
 6948SOL     OW32302   1.802   3.984   5.599  0.3253  0.3042 -0.0800
 6948SOL    HW132303   1.726   3.929   5.581  0.1980 -0.3459  2.5805
 6948SOL    HW232304   1.772   4.072   5.577 -2.4220 -0.7308 -0.5376
 6949SOL     OW32305   2.039   1.188   8.916  0.2826 -0.0529 -0.9704
 6949SOL    HW132306   1.970   1.247   8.946  0.4157  0.2513 -1.2644
 6949SOL    HW232307   2.006   1.099   8.930  0.0977  0.3052  0.9319
 6950SOL     OW32308   1.780   1.265   5.490 -0.1834 -0.1845 -0.2876
 6950SOL    HW132309   1.795   1.191   5.548 -1.5816 -1.8050 -1.9667
 6950SOL    HW232310   1.716   1.306   5.548 -1.5227  0.3215 -2.0962
 6951SOL     OW32311   3.460   4.303   9.002 -0.2917  0.0857  0.2393
 6951SOL    HW132312   3.459   4.207   9.005  1.0518 -0.0242 -2.5753
 6951SOL    HW232313   3.533   4.329   9.058 -1.7265  1.1522  1.6270
 6952SOL     OW32314   1.854   2.503   2.611  0.2943  1.2192 -0.6268
 6952SOL    HW132315   1.804   2.547   2.543 -2.1732  0.1391  0.4918
 6952SOL    HW232316   1.924   2.461   2.560 -1.0420 -1.8304  0.0985
 6953SOL     OW32317   1.262   0.678   2.024 -0.0259  0.2277  0.2279
 6953SOL    HW132318   1.192   0.693   2.087  1.0819  3.1000  0.7859
 6953SOL    HW232319   1.321   0.754   2.024  0.3000 -0.0220  0.4337
 6954SOL     OW32320   0.893   3.310  13.394  0.2665  0.3244  0.2274
 6954SOL    HW132321   0.898   3.219  13.420 -2.2569  0.5095  1.3083
 6954SOL    HW232322   0.827   3.356  13.445  0.8129  2.4085 -0.8903
 6955SOL     OW32323   3.519   2.471   8.277 -0.7268  0.6737 -0.5294
 6955SOL    HW132324   3.594   2.482   8.336 -0.6121 -0.2344 -0.5092
 6955SOL    HW232325   3.542   2.388   8.236 -1.4413  0.3663 -0.3077
 6956SOL     OW32326   4.108   1.469   8.543 -0.1481 -0.0856 -0.0683
 6956SOL    HW132327   4.095   1.447   8.451  0.6941  0.7163 -0.3838
 6956SOL    HW232328   4.023   1.443   8.579  0.6851 -0.5152  1.6003
 6957SOL     OW32329   1.738   4.021   9.299 -0.4922  0.4302 -0.1264
 6957SOL    HW132330   1.694   3.959   9.357  1.4442 -0.3022  0.5607
 6957SOL    HW232331   1.726   4.100   9.352 -2.8708 -1.5245  2.2452
 6958SOL     OW32332   2.318   3.119   8.231 -0.0827 -0.3373 -0.1491
 6958SOL    HW132333   2.374   3.099   8.307  0.2262 -0.6277 -0.4523
 6958SOL    HW232334   2.243   3.069   8.264 -0.5105  0.0704 -0.5020
 6959SOL     OW32335   1.099   0.416  12.126 -0.2052  0.5996  0.4006
 6959SOL    HW132336   1.069   0.442  12.213 -0.0401  0.3931  0.5196
 6959SOL    HW232337   1.029   0.352  12.119 -0.3270  0.9915 -1.9850
 6960SOL     OW32338   3.331   1.067   9.607  0.2103  0.7705 -0.7568
 6960SOL    HW132339   3.297   1.101   9.689  1.4124  0.2876 -0.0596
 6960SOL    HW232340   3.425   1.069   9.622 -0.1840  0.1989  1.7721
 6961SOL     OW32341   4.017   3.214   5.926 -0.0008  0.3186  0.0649
 6961SOL    HW132342   4.000   3.296   5.972 -0.2925 -0.7860  1.9321
 6961SOL    HW232343   4.092   3.243   5.875  0.9512 -2.4403 -0.0740
 6962SOL     OW32344   0.776   3.352   3.271  0.0387 -0.3323 -0.3706
 6962SOL    HW132345   0.682   3.333   3.282 -0.0004 -1.2014 -2.1562
 6962SOL    HW232346   0.791   3.302   3.191 -0.3301 -1.2550  0.1351
 6963SOL     OW32347   0.210   0.042   3.882  0.0080 -0.6731 -0.0071
 6963SOL    HW132348   0.175   0.125   3.850 -0.1767 -0.2721  1.2435
 6963SOL    HW232349   0.234   4.720   3.802  0.4988 -0.9907  0.3183
 6964SOL     OW32350   3.173   1.593   0.639  0.0868  0.5960  0.2650
 6964SOL    HW132351   3.256   1.630   0.670  1.0479 -1.2476 -0.0631
 6964SOL    HW232352   3.135   1.662   0.586  0.5520 -0.9772 -2.1221
 6965SOL     OW32353   2.774   0.745   2.272  0.2620  0.3025 -0.0153
 6965SOL    HW132354   2.696   0.791   2.241  0.6197  2.0466  1.6540
 6965SOL    HW232355   2.742   0.714   2.357  0.4501  1.0177  0.3213
 6966SOL     OW32356   3.992   2.604  10.457  0.1338  0.7570  0.2431
 6966SOL    HW132357   3.909   2.616  10.503 -0.4611  1.7794 -1.1069
 6966SOL    HW232358   4.008   2.698  10.455 -0.4285  0.8212 -0.7644
 6967SOL     OW32359   1.601   4.320   2.747 -0.0515  0.3175  0.0483
 6967SOL    HW132360   1.533   4.378   2.781 -2.3793 -1.3960 -1.7173
 6967SOL    HW232361   1.619   4.347   2.657 -0.9600  0.5768 -0.0544
 6968SOL     OW32362   0.818   3.468   8.132 -0.0629  0.4951 -0.1206
 6968SOL    HW132363   0.818   3.513   8.216 -1.8584 -0.3583  0.3393
 6968SOL    HW232364   0.902   3.425   8.146  0.0835 -0.1497 -2.9194
 6969SOL     OW32365   4.259   0.397   8.581  0.1623 -0.0679 -0.1732
 6969SOL    HW132366   4.330   0.408   8.644 -1.2492  3.1823  0.8601
 6969SOL    HW232367   4.313   0.427   8.508  0.5025  2.0717  0.9628
 6970SOL     OW32368   3.012   4.667   3.907  0.7757  0.3915 -0.6363
 6970SOL    HW132369   3.003   0.034   3.933 -0.2308 -0.1107  0.7817
 6970SOL    HW232370   2.974   4.622   3.983  0.3821 -0.5905 -1.4099
 6971SOL     OW32371   2.251   2.639  15.852  0.6164  0.7282 -0.6657
 6971SOL    HW132372   2.184   2.683  15.800  0.4568  2.0701  0.6878
 6971SOL    HW232373   2.318   2.707  15.860  0.8542  0.3055  1.0393
 6972SOL     OW32374   4.358   1.751   2.125  0.3621  0.2332  0.2262
 6972SOL    HW132375   4.316   1.825   2.168  0.4331  1.1672 -1.3045
 6972SOL    HW232376   4.363   1.786   2.036 -0.9570  0.9153  0.4256
 6973SOL     OW32377   4.480   3.543  16.547  0.1752  0.6148  0.1089
 6973SOL    HW132378   4.401   3.534  16.600  0.0062 -3.8598 -0.9015
 6973SOL    HW232379   4.464   3.633  16.517  0.3329  1.2503  1.9060
 6974SOL     OW32380   2.359   3.285  17.294 -0.1238  0.0730  0.3172
 6974SOL    HW132381   2.318   3.222  17.354 -0.2140  1.4118  1.6737
 6974SOL    HW232382   2.316   3.370  17.296  0.0957  0.1367  2.3843
 6975SOL     OW32383   0.463   3.677   5.115 -0.0494 -0.3891  0.2786
 6975SOL    HW132384   0.470   3.674   5.019 -1.5537 -4.4324  0.3198
 6975SOL    HW232385   0.416   3.599   5.144 -0.2902 -0.3228  0.0641
 6976SOL     OW32386   2.193   1.205   5.142 -0.0553 -0.3056 -0.3460
 6976SOL    HW132387   2.196   1.237   5.232 -0.3568  0.5549 -0.6320
 6976SOL    HW232388   2.110   1.157   5.142 -0.2347 -0.0045  0.9539
 6977SOL     OW32389   3.537   1.089  13.729 -0.1616 -0.0439 -0.5154
 6977SOL    HW132390   3.554   1.010  13.781 -1.2485 -2.4673 -3.8487
 6977SOL    HW232391   3.573   1.151  13.793  0.6678  1.0483 -2.0326
 6978SOL     OW32392   2.864   4.103  17.153 -0.0318 -0.2692 -0.1017
 6978SOL    HW132393   2.884   4.023  17.105  1.1136  0.9427 -1.6401
 6978SOL    HW232394   2.795   4.138  17.097 -0.0363 -1.0626 -0.5860
 6979SOL     OW32395   0.662   4.556  11.501 -0.2486 -0.0767 -0.3848
 6979SOL    HW132396   0.626   4.492  11.563  1.7710 -0.0996  0.7329
 6979SOL    HW232397   0.745   4.521  11.470  0.8558  1.0174  1.4162
 6980SOL     OW32398   1.091   3.127   4.700 -0.8828 -0.1379  0.1642
 6980SOL    HW132399   1.117   3.188   4.769  0.3230 -1.5952  0.9978
 6980SOL    HW232400   1.130   3.050   4.739  1.6313 -0.1572 -2.3513
 6981SOL     OW32401   2.331   0.030  14.640  0.2456  0.4400 -0.3084
 6981SOL    HW132402   2.247   0.054  14.599 -0.7796 -1.6949  0.5179
 6981SOL    HW232403   2.390   0.010  14.568  2.1758  0.3497  1.3146
 6982SOL     OW32404   2.693   2.151   5.343 -0.1873 -0.4729 -0.2177
 6982SOL    HW132405   2.688   2.209   5.266  0.5200 -1.6214 -1.1177
 6982SOL    HW232406   2.617   2.191   5.386 -0.5089  1.1130 -2.2331
 6983SOL     OW32407   4.370   3.770  11.307 -0.8872 -0.1747 -0.2746
 6983SOL    HW132408   4.433   3.700  11.324  0.4033  0.9669 -0.4217
 6983SOL    HW232409   4.310   3.733  11.373  1.8354 -3.0766  0.5829
 6984SOL     OW32410   3.516   0.224  15.753 -0.5519  0.4219  0.4336
 6984SOL    HW132411   3.562   0.292  15.704  1.8245 -0.9311  0.7521
 6984SOL    HW232412   3.492   0.261  15.838  0.3868 -1.1464  1.3891
 6985SOL     OW32413   0.296   3.447   8.667  0.3485  0.2127  0.5241
 6985SOL    HW132414   0.239   3.374   8.692  2.3555 -1.8085 -0.7765
 6985SOL    HW232415   0.301   3.493   8.751  0.1915  0.8684  0.1660
 6986SOL     OW32416   4.147   1.400   3.261 -0.0679 -0.2864 -0.3555
 6986SOL    HW132417   4.214   1.457   3.224 -0.5410  0.3348 -0.2479
 6986SOL    HW232418   4.187   1.313   3.249  0.5758 -0.0175 -0.1702
 6987SOL     OW32419   3.275   1.390   6.787  0.5439  0.6407 -0.1071
 6987SOL    HW132420   3.210   1.415   6.722  1.0097  0.7511 -0.5370
 6987SOL    HW232421   3.321   1.324   6.735  1.9352 -0.6972  2.7876
 6988SOL     OW32422   1.265   4.122   5.786 -0.3464 -0.1342 -0.1506
 6988SOL    HW132423   1.212   4.190   5.746 -0.8841 -0.5983 -0.2212
 6988SOL    HW232424   1.248   4.049   5.727 -0.4139 -0.3826  0.1755
 6989SOL     OW32425   1.125   4.065   8.375  1.0757  0.0622  0.7162
 6989SOL    HW132426   1.146   4.158   8.376  0.2630  0.2375  1.2236
 6989SOL    HW232427   1.029   4.063   8.378  1.1337 -0.0067  2.7380
 6990SOL     OW32428   3.025   4.074   6.915 -0.2355 -0.4704  0.2088
 6990SOL    HW132429   3.102   4.021   6.895 -0.5005 -0.4210 -0.9810
 6990SOL    HW232430   2.992   4.015   6.983  1.9070 -2.1730 -0.2164
 6991SOL     OW32431   4.149   0.509   3.863  0.2808 -0.2326  0.4672
 6991SOL    HW132432   4.054   0.498   3.867  0.1205  1.8372  2.4732
 6991SOL    HW232433   4.154   0.574   3.933  0.8433  0.5509 -0.3035
 6992SOL     OW32434   3.643   3.542  11.322 -0.2496 -0.5455 -0.0792
 6992SOL    HW132435   3.713   3.574  11.265 -0.2698  0.4058  0.4319
 6992SOL    HW232436   3.693   3.481  11.377  1.5102  0.1686 -0.8904
 6993SOL     OW32437   4.158   0.767  16.555 -0.4775 -0.5399  0.0334
 6993SOL    HW132438   4.208   0.787  16.634 -0.7172 -2.2589  0.6056
 6993SOL    HW232439   4.131   0.681  16.586  2.6868 -0.3948  3.0941
 6994SOL     OW32440   1.265   3.893   6.169 -0.1985 -0.0537  0.0604
 6994SOL    HW132441   1.237   3.985   6.170 -1.0399 -0.3322  2.2328
 6994SOL    HW232442   1.357   3.905   6.194 -0.6295  0.8532  1.2199
 6995SOL     OW32443   2.364   2.744   3.553 -0.1526  0.0227  0.9500
 6995SOL    HW132444   2.314   2.761   3.473  1.3031 -1.9486 -0.3820
 6995SOL    HW232445   2.453   2.766   3.523 -1.0635  0.5917 -1.2895
 6996SOL     OW32446   1.437   2.928   1.672  0.2209  0.2641  0.1858
 6996SOL    HW132447   1.496   2.864   1.633 -1.0463  0.1594 -1.5358
 6996SOL    HW232448   1.491   2.967   1.741  1.3141  0.5794 -0.8508
 6997SOL     OW32449   0.391   4.360   5.508 -0.4326  0.2133 -0.6302
 6997SOL    HW132450   0.455   4.424   5.539 -0.1920  1.1415 -3.0353
 6997SOL    HW232451   0.395   4.291   5.574 -1.5885  1.9709  1.2677
 6998SOL     OW32452   0.589   3.672  14.668 -0.5903 -0.2866 -0.4270
 6998SOL    HW132453   0.573   3.594  14.719  0.4519 -0.5691 -0.5360
 6998SOL    HW232454   0.516   3.670  14.606 -2.8153 -1.9280  2.2686
 6999SOL     OW32455   1.447   4.136  16.926  0.4249  0.7765 -0.7698
 6999SOL    HW132456   1.373   4.179  16.882 -1.1812 -1.2294 -0.0395
 6999SOL    HW232457   1.509   4.116  16.856 -0.1668 -1.0496 -0.7642
 7000SOL     OW32458   0.259   2.992   5.938  0.0537  0.1778 -0.3252
 7000SOL    HW132459   0.168   3.017   5.953 -0.4450 -0.6326 -1.9760
 7000SOL    HW232460   0.269   3.041   5.857  2.6922  0.7709  0.3790
 7001SOL     OW32461   2.531   1.395   6.962  0.2454  0.0372  0.1784
 7001SOL    HW132462   2.550   1.303   6.979  0.2460  0.0510  0.2544
 7001SOL    HW232463   2.461   1.407   7.027 -1.3124  1.2522 -1.7213
 7002SOL     OW32464   4.597   1.382   7.466 -0.2407 -0.0506 -0.3808
 7002SOL    HW132465   4.544   1.324   7.520  0.9568 -0.6335  0.1585
 7002SOL    HW232466   4.614   1.326   7.391  0.5945 -2.6235  1.7441
 7003SOL     OW32467   1.758   3.288   7.326 -0.4245  0.5246  0.1511
 7003SOL    HW132468   1.779   3.227   7.397 -2.3416 -0.7225 -0.3644
 7003SOL    HW232469   1.756   3.368   7.378 -0.8105 -0.2081  1.2779
 7004SOL     OW32470   2.170   0.763   4.614  0.2451 -0.6893 -0.5319
 7004SOL    HW132471   2.081   0.751   4.648 -0.5220  2.4690 -1.4637
 7004SOL    HW232472   2.210   0.796   4.694  1.1387  1.4874 -1.8625
 7005SOL     OW32473   3.711   1.076   4.524 -0.8711  0.0878  0.1377
 7005SOL    HW132474   3.679   1.095   4.612 -0.7500 -0.9018  0.3915
 7005SOL    HW232475   3.627   1.051   4.485 -1.2299 -1.5062  1.9689
 7006SOL     OW32476   4.110   1.528  12.011 -0.0773 -0.3729 -0.3941
 7006SOL    HW132477   4.124   1.540  12.104  0.4718 -2.5201 -0.1891
 7006SOL    HW232478   4.187   1.481  11.978  0.7730  1.9628 -1.6805
 7007SOL     OW32479   0.364   3.423   5.093 -0.5810  0.3582  0.6273
 7007SOL    HW132480   0.397   3.337   5.117 -3.1472 -1.0123 -0.7748
 7007SOL    HW232481   0.271   3.398   5.093 -0.3401 -0.4877 -1.2111
 7008SOL     OW32482   4.144   2.245  17.507  0.5146  0.1952 -0.8166
 7008SOL    HW132483   4.166   2.328  17.548 -4.1691  0.4326  1.2191
 7008SOL    HW232484   4.189   2.187  17.569 -0.7843  0.4819  0.3863
 7009SOL     OW32485   3.840   3.975  10.625 -0.7869 -0.1544  0.1076
 7009SOL    HW132486   3.883   4.047  10.579  0.5298 -0.2446  1.2169
 7009SOL    HW232487   3.778   3.943  10.560 -0.8359  0.2249 -0.0313
 7010SOL     OW32488   2.715   4.670  17.430 -0.6413  0.1574 -0.1255
 7010SOL    HW132489   2.651   4.625  17.485  0.3634  1.6439  2.2727
 7010SOL    HW232490   2.679   0.035  17.422  1.4966  0.9574 -0.9620
 7011SOL     OW32491   1.668   0.411   5.216  0.3637  0.1560 -0.7012
 7011SOL    HW132492   1.612   0.437   5.143 -0.9058 -1.2575 -0.2291
 7011SOL    HW232493   1.634   0.471   5.283  2.2920 -0.4433  0.8438
 7012SOL     OW32494   0.626   4.533   6.402  0.2111  0.4126 -0.2122
 7012SOL    HW132495   0.656   4.617   6.366  1.7737  0.1429  0.4322
 7012SOL    HW232496   0.712   4.492   6.417  1.1983  2.8920  0.8690
 7013SOL     OW32497   3.137   3.161   4.693 -0.4156 -0.4389  0.1153
 7013SOL    HW132498   3.154   3.210   4.774  1.5600 -2.2082  0.7704
 7013SOL    HW232499   3.134   3.073   4.730 -3.5252 -0.5735 -0.4433
 7014SOL     OW32500   4.538   2.698   8.420  0.1187 -0.2806 -0.2305
 7014SOL    HW132501   4.623   2.714   8.378 -0.4714  2.4097 -0.3873
 7014SOL    HW232502   4.484   2.771   8.389  1.4744 -0.2748 -2.6015
 7015SOL     OW32503   0.047   0.233   7.650 -0.1383  0.1654 -0.1285
 7015SOL    HW132504   4.701   0.207   7.590  0.3604  0.2695 -0.7598
 7015SOL    HW232505   4.718   0.275   7.718 -1.7193 -0.5506 -0.9243
 7016SOL     OW32506   1.628   0.614  12.658  0.0483  0.3475 -0.3364
 7016SOL    HW132507   1.642   0.696  12.611 -0.9721  1.1235  0.7012
 7016SOL    HW232508   1.708   0.615  12.710 -0.0761  1.1325 -0.1708
 7017SOL     OW32509   1.321   1.839   4.049 -0.1580  0.0025  0.1550
 7017SOL    HW132510   1.333   1.934   4.044 -0.4949  0.0661  0.5081
 7017SOL    HW232511   1.240   1.834   4.101  1.2835  0.1475  2.4354
 7018SOL     OW32512   2.348   0.435   7.974  0.3336  0.4776  0.2108
 7018SOL    HW132513   2.380   0.345   7.969  0.1806  0.3100  2.4910
 7018SOL    HW232514   2.347   0.447   8.069 -0.8166  0.1959  0.2270
 7019SOL     OW32515   4.080   3.650   8.449 -0.3696 -0.0076 -0.6497
 7019SOL    HW132516   4.023   3.683   8.519  0.7606  2.3538 -0.8536
 7019SOL    HW232517   4.141   3.614   8.514 -1.3120  1.5076  1.0781
 7020SOL     OW32518   3.985   0.578   5.972  0.6288  0.3601  0.4537
 7020SOL    HW132519   3.900   0.619   5.956  0.3165 -0.6074 -0.3613
 7020SOL    HW232520   4.035   0.659   5.984  0.7512  0.4099 -0.4072
 7021SOL     OW32521   3.236   3.009  16.300  0.3160 -0.3290  0.1285
 7021SOL    HW132522   3.269   2.951  16.369 -3.4384 -0.1133  2.1260
 7021SOL    HW232523   3.277   2.969  16.224 -1.3030 -0.7022 -0.5578
 7022SOL     OW32524   3.994   1.148   3.402 -0.5248  0.1192 -0.7566
 7022SOL    HW132525   3.948   1.209   3.461  1.6006  1.6981 -0.7167
 7022SOL    HW232526   4.083   1.150   3.439 -1.0903  2.1425  0.5020
 7023SOL     OW32527   1.997   3.887  12.366  0.1338  0.4737 -0.2880
 7023SOL    HW132528   2.079   3.934  12.379 -0.7615  1.2539  2.5265
 7023SOL    HW232529   1.983   3.851  12.453 -0.4718  1.0956 -0.1267
 7024SOL     OW32530   3.761   1.296  12.730 -0.4208 -0.0294  0.2264
 7024SOL    HW132531   3.717   1.223  12.773  0.5505 -0.3236  0.7270
 7024SOL    HW232532   3.817   1.242  12.674 -1.3689  0.3260 -1.0720
 7025SOL     OW32533   4.160   0.756   4.800  0.6066  0.0244 -0.3097
 7025SOL    HW132534   4.219   0.746   4.875 -1.0984  0.2059  1.0609
 7025SOL    HW232535   4.206   0.698   4.740  2.3226 -0.2331  1.2445
 7026SOL     OW32536   4.380   3.567   4.565 -0.3012  0.2895 -0.1725
 7026SOL    HW132537   4.313   3.626   4.531  0.6438  2.4165  1.6579
 7026SOL    HW232538   4.448   3.591   4.502 -0.6419 -2.5616 -1.6210
 7027SOL     OW32539   4.307   3.048   4.358  0.1314  0.8046 -0.5652
 7027SOL    HW132540   4.318   3.082   4.270  3.5371  1.9565  0.3083
 7027SOL    HW232541   4.258   3.115   4.406 -0.1690  0.1212  0.0851
 7028SOL     OW32542   1.907   0.893   2.319  0.5639 -0.3435 -0.2993
 7028SOL    HW132543   1.878   0.963   2.261 -0.4212 -0.5579 -0.0596
 7028SOL    HW232544   1.995   0.926   2.338 -0.4335  2.0302  0.2199
 7029SOL     OW32545   0.312   4.196  11.977  0.9419 -0.1036 -0.0358
 7029SOL    HW132546   0.255   4.255  12.027  0.6224  0.3471 -0.9195
 7029SOL    HW232547   0.352   4.144  12.046  1.0414 -0.7866 -0.6101
 7030SOL     OW32548   0.697   2.881   8.800 -0.5025  0.2010 -0.2776
 7030SOL    HW132549   0.718   2.788   8.804 -0.4410  0.2634  0.8080
 7030SOL    HW232550   0.622   2.893   8.859 -0.2499  0.5346 -0.0179
 7031SOL     OW32551   4.334   4.598   4.378  0.1038  0.3449 -0.2778
 7031SOL    HW132552   4.238   4.599   4.386  0.2693  0.5531  1.8476
 7031SOL    HW232553   4.355   4.685   4.412  0.6677  0.0187  0.2167
 7032SOL     OW32554   4.321   4.249   7.317  0.2482  0.4171 -0.7358
 7032SOL    HW132555   4.263   4.255   7.392 -1.0336 -1.3951 -1.5742
 7032SOL    HW232556   4.263   4.190   7.269  0.3303 -1.7058  1.7738
 7033SOL     OW32557   3.803   2.374   1.513 -0.1982  0.3662  0.1170
 7033SOL    HW132558   3.798   2.285   1.477 -1.1080  0.2356  0.5432
 7033SOL    HW232559   3.827   2.356   1.604  0.8089 -2.2110 -0.6555
 7034SOL     OW32560   4.036   0.820  14.364 -0.2469  0.4390 -0.9239
 7034SOL    HW132561   4.074   0.734  14.349  1.4561  1.0582 -0.2280
 7034SOL    HW232562   4.104   0.887  14.359 -0.4912  0.8113  0.8401
 7035SOL     OW32563   2.969   2.635   1.698  0.3380  0.6651 -0.0173
 7035SOL    HW132564   2.912   2.677   1.634  0.8407  1.1408 -0.1519
 7035SOL    HW232565   3.006   2.569   1.639  2.2780  2.1227 -0.4494
 7036SOL     OW32566   0.836   3.141  17.122 -0.5409 -0.6834 -0.2708
 7036SOL    HW132567   0.889   3.090  17.183 -0.1873  0.1530  0.1243
 7036SOL    HW232568   0.847   3.086  17.044 -1.9475 -0.6243 -0.5022
 7037SOL     OW32569   2.096   3.276  13.774 -0.0057  0.1398 -0.0023
 7037SOL    HW132570   2.138   3.308  13.694 -0.0676 -0.3508 -0.2339
 7037SOL    HW232571   2.127   3.343  13.834 -0.9239  0.1724  0.4382
 7038SOL     OW32572   1.619   2.212  13.213 -0.5620  0.3887  0.1357
 7038SOL    HW132573   1.688   2.259  13.259  0.6247 -0.2619 -1.0122
 7038SOL    HW232574   1.549   2.267  13.250 -0.8332 -1.2676  2.0418
 7039SOL     OW32575   0.729   2.310   4.657  0.1512 -0.0575  0.1100
 7039SOL    HW132576   0.819   2.281   4.670  0.1429  0.4905  1.4608
 7039SOL    HW232577   0.717   2.385   4.715  2.1011 -0.5613  1.1604
 7040SOL     OW32578   3.354   3.089   9.718 -0.0420 -0.5970 -0.3579
 7040SOL    HW132579   3.325   3.002   9.691 -3.6095  0.0987  1.3471
 7040SOL    HW232580   3.267   3.125   9.730  0.2131 -0.9065  2.3096
 7041SOL     OW32581   1.899   3.412   7.762  0.1331 -0.1621 -0.6671
 7041SOL    HW132582   1.877   3.502   7.736 -0.0491  0.4221  1.5061
 7041SOL    HW232583   1.808   3.383   7.770  0.5649 -0.6646  2.3629
 7042SOL     OW32584   2.348   4.658   6.839  0.4476 -0.2486 -0.4284
 7042SOL    HW132585   2.442   4.669   6.828  0.3526  0.9170 -0.0704
 7042SOL    HW232586   2.321   4.668   6.748  1.5110  2.3622 -0.4650
 7043SOL     OW32587   2.665   1.405  15.105 -0.0060  0.0584 -0.0908
 7043SOL    HW132588   2.577   1.397  15.143 -0.0386  3.0714  0.5359
 7043SOL    HW232589   2.643   1.488  15.063  0.6587  0.4490  0.3278
 7044SOL     OW32590   0.145   0.776  15.040  0.4439 -0.0189 -0.4497
 7044SOL    HW132591   0.102   0.841  15.097 -1.5364 -0.9157 -0.9258
 7044SOL    HW232592   0.220   0.834  15.027 -1.3623  3.0423  2.6368
 7045SOL     OW32593   1.442   4.332  15.944 -0.1430 -0.0927  0.0572
 7045SOL    HW132594   1.445   4.263  15.878 -2.8064  0.7924 -0.9637
 7045SOL    HW232595   1.420   4.405  15.887  0.3804  0.6030  0.7447
 7046SOL     OW32596   3.584   0.040   6.250  0.5354 -0.2189  0.3965
 7046SOL    HW132597   3.506   4.721   6.284  1.4552 -2.8146 -0.7924
 7046SOL    HW232598   3.550   0.080   6.170 -1.9356 -2.1111  0.5070
 7047SOL     OW32599   2.845   3.821   4.974 -0.1656 -0.2238 -0.0386
 7047SOL    HW132600   2.852   3.823   4.879  1.5273  2.9513  0.1647
 7047SOL    HW232601   2.753   3.844   4.991 -0.3175 -0.0039 -1.2012
 7048SOL     OW32602   1.932   1.947   6.056  0.3513 -0.2400  0.2391
 7048SOL    HW132603   1.863   1.958   6.121  2.1574  0.8005  1.9896
 7048SOL    HW232604   1.888   1.968   5.974 -3.0463 -1.1356  1.8506
 7049SOL     OW32605   4.577   3.770   0.464 -0.2424 -0.7700  0.3147
 7049SOL    HW132606   4.554   3.825   0.539  0.1553  0.5572 -0.5369
 7049SOL    HW232607   4.663   3.749   0.501  0.1596 -0.4870 -0.4478
 7050SOL     OW32608   3.393   2.674  13.878  0.0450  0.3737 -0.6969
 7050SOL    HW132609   3.348   2.606  13.928 -0.4253  3.1585  2.6923
 7050SOL    HW232610   3.454   2.705  13.946  2.1792 -1.2880 -1.8615
 7051SOL     OW32611   0.839   0.700  12.362  0.0385 -0.0347  0.6970
 7051SOL    HW132612   0.857   0.793  12.344  1.6110 -0.9257 -2.4466
 7051SOL    HW232613   0.743   0.697  12.363 -0.0051  1.8538  2.1022
 7052SOL     OW32614   0.138   2.538  11.171 -0.3716  0.5669 -0.6468
 7052SOL    HW132615   0.097   2.601  11.112  1.4586  1.3644 -1.0659
 7052SOL    HW232616   0.101   2.461  11.128  0.3033  0.3318 -0.8078
 7053SOL     OW32617   1.159   2.432  14.279  0.7326 -0.1333  0.6712
 7053SOL    HW132618   1.203   2.497  14.333 -0.5205  0.2320  1.2682
 7053SOL    HW232619   1.116   2.495  14.220  2.3240  0.0778 -0.2696
 7054SOL     OW32620   0.470   3.034   1.824  0.0944 -0.2854 -0.5080
 7054SOL    HW132621   0.534   2.991   1.880  1.7132  3.8490  0.7574
 7054SOL    HW232622   0.512   3.019   1.739  1.2261  1.1872 -0.1894
 7055SOL     OW32623   1.989   1.745  15.991  0.6806 -0.4025  0.7406
 7055SOL    HW132624   1.934   1.751  16.068  1.4966  0.7839  1.2356
 7055SOL    HW232625   2.029   1.832  15.983 -1.8239  0.6154 -0.9250
 7056SOL     OW32626   0.403   4.486   0.436  0.6433 -0.3175 -0.1460
 7056SOL    HW132627   0.452   4.404   0.431  0.3869 -0.4271 -0.9642
 7056SOL    HW232628   0.453   4.528   0.506 -1.6121 -0.1349  1.3538
 7057SOL     OW32629   4.714   3.875   2.995 -0.0032  0.0536 -0.2740
 7057SOL    HW132630   4.698   3.862   2.901  0.7925 -0.0003 -0.3989
 7057SOL    HW232631   0.045   3.799   3.013 -1.8488 -1.8392 -2.4792
 7058SOL     OW32632   4.652   2.275   7.647  0.0535  0.1049  0.5118
 7058SOL    HW132633   4.698   2.235   7.573  1.6847  1.1291  0.9707
 7058SOL    HW232634   4.695   2.234   7.723 -0.7815  0.3899  1.1419
 7059SOL     OW32635   4.148   3.505   5.350 -0.5254 -0.0962  0.3718
 7059SOL    HW132636   4.071   3.562   5.350  0.7415  1.6242  0.6331
 7059SOL    HW232637   4.117   3.438   5.288 -0.9736 -0.3045  0.8154
 7060SOL     OW32638   2.636   4.267   7.395 -0.1208  0.0518  0.4336
 7060SOL    HW132639   2.571   4.307   7.452 -0.8314  1.9902 -1.7222
 7060SOL    HW232640   2.673   4.189   7.437  3.2087  1.4463  0.1086
 7061SOL     OW32641   1.125   2.562   3.647 -0.5611 -0.1497 -0.2689
 7061SOL    HW132642   1.070   2.511   3.706 -0.0449 -0.2344  0.1349
 7061SOL    HW232643   1.176   2.607   3.714 -1.2288  1.3517 -0.7791
 7062SOL     OW32644   0.538   1.001   3.456  0.2205  0.3256 -0.4942
 7062SOL    HW132645   0.501   0.951   3.528  1.6494  0.0052  0.0122
 7062SOL    HW232646   0.504   0.958   3.377 -1.0946 -0.3861  0.4645
 7063SOL     OW32647   3.990   1.786   0.892  0.1869  0.0374 -0.0939
 7063SOL    HW132648   3.937   1.716   0.932 -0.4057  0.6988  0.2746
 7063SOL    HW232649   4.031   1.819   0.972  1.4262 -1.2238 -0.2168
 7064SOL     OW32650   4.640   2.700   9.575 -0.0839 -0.6446  0.4054
 7064SOL    HW132651   4.559   2.717   9.527 -0.4219  1.3775  1.6517
 7064SOL    HW232652   4.605   2.669   9.659 -0.4696 -2.7690 -0.5332
 7065SOL     OW32653   3.812   0.898  14.226  0.0194  0.0192  0.3127
 7065SOL    HW132654   3.835   0.847  14.149  2.3476  1.1171  0.2675
 7065SOL    HW232655   3.888   0.877  14.280  0.5261  1.4459  0.1564
 7066SOL     OW32656   3.728   0.561   6.501  0.0788 -0.6561  0.1579
 7066SOL    HW132657   3.797   0.529   6.561 -0.8240 -2.2310  0.3636
 7066SOL    HW232658   3.777   0.606   6.432 -1.4864  1.6522  0.5678
 7067SOL     OW32659   2.832   4.232  11.687  0.5353 -0.2815  0.0869
 7067SOL    HW132660   2.914   4.192  11.657  0.6074  1.8759 -2.6091
 7067SOL    HW232661   2.855   4.276  11.769  0.9302  0.8118 -0.6190
 7068SOL     OW32662   1.972   4.569  11.853  0.1612  0.1590 -0.0772
 7068SOL    HW132663   1.907   4.503  11.830 -0.7531  0.5126  1.5051
 7068SOL    HW232664   1.986   4.600  11.764 -0.2813 -1.1683 -0.6107
 7069SOL     OW32665   1.758   0.130  16.499 -0.0835 -0.2953 -0.1811
 7069SOL    HW132666   1.794   0.219  16.491  0.1808 -0.3178  0.7670
 7069SOL    HW232667   1.774   0.088  16.415  1.2952 -0.1664  0.0204
 7070SOL     OW32668   0.101   3.604   7.338  0.1140  0.1997  0.0613
 7070SOL    HW132669   0.123   3.531   7.281  2.4838  0.3632  0.7816
 7070SOL    HW232670   0.005   3.603   7.342  0.0918  1.4649 -0.2399
 7071SOL     OW32671   0.365   3.714   5.689  0.4897 -0.3161 -0.1022
 7071SOL    HW132672   0.346   3.792   5.636  1.5451 -1.1903 -1.7572
 7071SOL    HW232673   0.374   3.654   5.615  1.3185 -0.1929 -0.1003
 7072SOL     OW32674   3.206   0.669   4.577  0.2255 -0.2830  0.3664
 7072SOL    HW132675   3.136   0.605   4.564 -2.2404  2.0475  2.2068
 7072SOL    HW232676   3.212   0.673   4.673  1.8223  1.6901  0.1936
 7073SOL     OW32677   4.456   2.118   6.116 -0.0587  0.5377  0.2492
 7073SOL    HW132678   4.528   2.118   6.052  0.3591 -0.0672  0.7130
 7073SOL    HW232679   4.399   2.056   6.070  1.6763 -1.2802  0.5622
 7074SOL     OW32680   4.364   0.824   7.044 -0.3399  0.2578  0.1986
 7074SOL    HW132681   4.356   0.803   6.951  0.0057 -1.1794  0.4899
 7074SOL    HW232682   4.277   0.827   7.083  0.3245 -0.8499  1.8042
 7075SOL     OW32683   2.177   1.539   9.761 -0.3359 -0.1736 -0.4061
 7075SOL    HW132684   2.202   1.448   9.777  0.5073  0.4816  1.9352
 7075SOL    HW232685   2.157   1.579   9.846 -2.0780 -0.9059 -0.4754
 7076SOL     OW32686   3.278   1.256   8.560  0.3223 -0.0711  0.5164
 7076SOL    HW132687   3.356   1.291   8.517  0.4529 -0.8156  0.1405
 7076SOL    HW232688   3.232   1.231   8.480  1.0424  1.1649 -0.2854
 7077SOL     OW32689   1.401   1.236   7.694  0.0160 -0.0444 -0.4269
 7077SOL    HW132690   1.485   1.282   7.697 -0.7752  1.2330  3.0476
 7077SOL    HW232691   1.336   1.303   7.717 -0.6162 -0.6178 -0.5534
 7078SOL     OW32692   4.672   3.736   4.458 -0.1024  0.0542  0.0443
 7078SOL    HW132693   0.030   3.697   4.489  0.8419  1.5778 -0.5351
 7078SOL    HW232694   4.643   3.787   4.534  0.9606  1.8167 -0.7582
 7079SOL     OW32695   0.831   2.757   6.454  0.1702  0.5608  0.3385
 7079SOL    HW132696   0.795   2.727   6.538 -0.2268 -0.1488 -0.0901
 7079SOL    HW232697   0.922   2.728   6.455  0.0868  0.2972 -0.6146
 7080SOL     OW32698   4.499   0.358   8.885 -0.0585 -0.1755  0.1738
 7080SOL    HW132699   4.559   0.340   8.812 -0.5938 -0.2970 -0.2407
 7080SOL    HW232700   4.527   0.449   8.897 -0.3085 -0.1507  0.5510
 7081SOL     OW32701   4.708   0.234  12.584 -0.7102 -0.4283  0.2211
 7081SOL    HW132702   4.636   0.287  12.618 -0.6409  0.2551 -0.6942
 7081SOL    HW232703   4.672   0.152  12.548  1.7233 -1.3940 -0.0342
 7082SOL     OW32704   2.162   2.176   7.313 -0.5083  0.1672  0.2453
 7082SOL    HW132705   2.247   2.220   7.325  0.6369 -1.9290 -0.0803
 7082SOL    HW232706   2.177   2.092   7.357  0.5660  2.0292  3.4823
 7083SOL     OW32707   3.139   0.970  14.743 -0.5593 -0.3709  0.0787
 7083SOL    HW132708   3.186   0.996  14.822 -0.8026  0.4409 -0.0512
 7083SOL    HW232709   3.061   0.934  14.784 -0.9712 -0.3192 -0.6613
 7084SOL     OW32710   0.006   1.159   8.234 -0.4018 -0.3822  0.5560
 7084SOL    HW132711   0.022   1.083   8.179  1.0004 -0.4423  1.0256
 7084SOL    HW232712   0.044   1.230   8.182 -0.0940 -1.0849 -0.1728
 7085SOL     OW32713   3.600   2.113   4.204 -0.2976 -0.1376  0.0045
 7085SOL    HW132714   3.518   2.160   4.183  0.6208  1.6704  0.4429
 7085SOL    HW232715   3.564   2.025   4.202  0.8875 -0.6072 -0.5753
 7086SOL     OW32716   4.673   3.708   1.607  0.1318  0.0407  0.2085
 7086SOL    HW132717   4.643   3.788   1.563  0.6361 -0.5555 -1.2130
 7086SOL    HW232718   0.044   3.703   1.595  0.2403  0.5441  0.8237
 7087SOL     OW32719   2.946   1.726   2.779 -0.4763 -0.1503  0.0762
 7087SOL    HW132720   2.858   1.693   2.796 -0.0631 -1.2686  0.0713
 7087SOL    HW232721   2.982   1.637   2.776 -3.6373 -1.4875  1.7238
 7088SOL     OW32722   2.377   1.687   9.666 -0.4180  0.4532 -0.6963
 7088SOL    HW132723   2.305   1.655   9.720  1.6725 -0.1835  1.7003
 7088SOL    HW232724   2.410   1.602   9.636 -0.2948 -0.3985  1.8970
 7089SOL     OW32725   0.652   1.292  14.080  0.1141 -0.2833 -0.1625
 7089SOL    HW132726   0.569   1.250  14.099  0.1246  0.1675  0.8614
 7089SOL    HW232727   0.635   1.306  13.986 -1.9573  2.6034  0.6310
 7090SOL     OW32728   1.921   1.121   2.149  0.5016 -0.5599 -0.0553
 7090SOL    HW132729   1.850   1.140   2.087  1.4789  0.7508 -0.7933
 7090SOL    HW232730   1.900   1.190   2.211  0.8654 -0.9961  0.5439
 7091SOL     OW32731   3.857   4.428  10.948  0.0237 -0.0178 -0.6785
 7091SOL    HW132732   3.827   4.509  10.906 -1.4779 -1.0636 -1.6063
 7091SOL    HW232733   3.872   4.367  10.876  0.5904 -1.0850  0.3319
 7092SOL     OW32734   3.958   1.575   6.701 -0.0989 -0.1385 -0.3596
 7092SOL    HW132735   3.950   1.496   6.648  0.5311 -0.2445 -0.2931
 7092SOL    HW232736   3.868   1.597   6.725 -0.0055  1.9569 -1.8819
 7093SOL     OW32737   3.583   3.953  10.067 -0.2997 -0.1409 -0.1216
 7093SOL    HW132738   3.606   4.032  10.019 -1.7182  0.0300 -0.5308
 7093SOL    HW232739   3.658   3.897  10.047 -0.3084 -0.4481  0.7036
 7094SOL     OW32740   1.397   2.778   2.892 -0.0360  0.0297  0.0860
 7094SOL    HW132741   1.389   2.814   2.981  0.8203  0.5783 -0.0551
 7094SOL    HW232742   1.325   2.828   2.852  1.8361  0.8333 -2.2382
 7095SOL     OW32743   1.966   2.450  15.324  0.1574  0.5640 -0.2769
 7095SOL    HW132744   1.985   2.358  15.311  0.2937  0.4376  0.7999
 7095SOL    HW232745   1.875   2.452  15.354  0.3946  2.0436  0.3642
 7096SOL     OW32746   3.533   1.721  11.898 -0.2081  0.0081 -0.0102
 7096SOL    HW132747   3.518   1.657  11.829  2.2399  1.0622 -1.5368
 7096SOL    HW232748   3.500   1.797  11.849  2.3669 -0.4040 -2.4132
 7097SOL     OW32749   4.063   2.473   8.189  0.3945  0.7423 -0.1786
 7097SOL    HW132750   4.098   2.395   8.234  0.4127 -0.9996 -3.2257
 7097SOL    HW232751   4.087   2.548   8.244 -1.0654  0.6905  0.5255
 7098SOL     OW32752   3.648   4.092   8.185  0.1995  0.5448 -0.3883
 7098SOL    HW132753   3.705   4.104   8.261  2.0122 -3.7047 -1.0770
 7098SOL    HW232754   3.564   4.107   8.227 -0.1382 -0.0869 -0.8303
 7099SOL     OW32755   3.539   4.187  17.051 -0.4906 -0.1059  0.1678
 7099SOL    HW132756   3.495   4.122  17.105  0.6478  0.0600  1.3060
 7099SOL    HW232757   3.596   4.225  17.118 -0.3786 -0.6333  0.3708
 7100SOL     OW32758   2.085   2.279   1.192 -0.0595  0.2952  0.0156
 7100SOL    HW132759   2.154   2.340   1.220 -0.9644  0.0480  2.7670
 7100SOL    HW232760   2.088   2.285   1.097  0.1001 -0.6466 -0.0338
 7101SOL     OW32761   4.420   2.714   6.922  0.3589  0.2451  0.6529
 7101SOL    HW132762   4.366   2.721   6.843 -3.4332 -0.0741  3.2207
 7101SOL    HW232763   4.378   2.639   6.965 -0.5632 -1.1499 -2.6862
 7102SOL     OW32764   0.530   4.387  11.660  0.0827 -0.3726 -0.1340
 7102SOL    HW132765   0.450   4.431  11.689 -0.5537 -0.9480 -1.0332
 7102SOL    HW232766   0.550   4.354  11.748  2.4998  2.2798  0.3245
 7103SOL     OW32767   4.579   4.486   3.519  0.2317 -0.0023  0.7128
 7103SOL    HW132768   4.603   4.395   3.499  2.1243  0.4232  1.0288
 7103SOL    HW232769   4.566   4.491   3.613 -0.7173 -1.1074  0.6438
 7104SOL     OW32770   3.778   2.753   6.074 -0.0938 -0.2364 -0.3816
 7104SOL    HW132771   3.719   2.828   6.072  0.0607 -0.1210 -0.5764
 7104SOL    HW232772   3.864   2.792   6.058 -0.0861 -1.0725 -2.4698
 7105SOL     OW32773   0.245   3.296   5.332 -0.1325 -0.0556 -0.0132
 7105SOL    HW132774   0.332   3.274   5.298 -0.0097 -2.0405  1.5427
 7105SOL    HW232775   0.198   3.334   5.258 -2.3181  0.1078  1.4764
 7106SOL     OW32776   2.690   3.305   2.556  0.0409  0.5714  0.0412
 7106SOL    HW132777   2.716   3.397   2.565 -2.0084  1.1434  0.2139
 7106SOL    HW232778   2.604   3.302   2.597  0.9478  1.6993  2.0018
 7107SOL     OW32779   0.531   0.098   7.040  0.4388  0.8685  0.4316
 7107SOL    HW132780   0.442   0.084   7.009  0.9712 -0.9538 -0.3210
 7107SOL    HW232781   0.584   0.096   6.960  0.6601  2.2987  0.5478
 7108SOL     OW32782   2.471   3.059   1.560 -0.3756  0.1456  0.0652
 7108SOL    HW132783   2.522   3.140   1.559  1.3503 -0.9349 -1.1953
 7108SOL    HW232784   2.432   3.062   1.473  0.3752  0.7759 -0.2523
 7109SOL     OW32785   0.747   3.983   1.044 -0.4979 -0.2305 -0.3093
 7109SOL    HW132786   0.670   3.962   0.992  0.5137 -1.2100 -1.3761
 7109SOL    HW232787   0.796   4.055   1.005  0.1370 -0.4311  0.1097
 7110SOL     OW32788   0.704   0.224  14.106  0.0161 -0.0917  0.1485
 7110SOL    HW132789   0.678   0.261  14.022 -1.6732 -0.8219  0.3692
 7110SOL    HW232790   0.750   0.144  14.080  1.6247  1.3543 -1.4231
 7111SOL     OW32791   4.232   1.977   7.233 -0.2615  0.0681  0.6193
 7111SOL    HW132792   4.186   1.973   7.149  3.1416 -0.9387 -1.1944
 7111SOL    HW232793   4.197   1.894   7.266 -1.0663 -0.1176 -0.7031
 7112SOL     OW32794   1.806   4.367   4.400  0.5378 -0.2798  0.2457
 7112SOL    HW132795   1.874   4.401   4.342 -0.9776 -0.8043 -1.8280
 7112SOL    HW232796   1.735   4.427   4.378  1.0044  0.4570  0.7476
 7113SOL     OW32797   4.661   2.920  11.531  0.0636 -0.4959  0.5956
 7113SOL    HW132798   0.011   2.970  11.564  1.2300 -0.4866 -1.9741
 7113SOL    HW232799   4.701   2.870  11.460 -0.2491 -1.2871  0.9740
 7114SOL     OW32800   2.390   1.143  12.365 -0.1001 -0.2263  0.0698
 7114SOL    HW132801   2.447   1.067  12.357 -0.3009 -0.7866  3.6826
 7114SOL    HW232802   2.305   1.099  12.360  1.3279 -2.7336 -2.0108
 7115SOL     OW32803   0.202   0.107   6.058  0.1663  0.4740 -0.1004
 7115SOL    HW132804   0.283   0.062   6.036  0.6740  0.9966  0.7084
 7115SOL    HW232805   0.124   0.057   6.034 -0.1112  1.2168 -0.7216
 7116SOL     OW32806   2.002   1.891   2.219 -0.1390  0.6725 -0.0418
 7116SOL    HW132807   2.041   1.961   2.166 -1.1675  1.5937  0.3963
 7116SOL    HW232808   1.961   1.844   2.146  2.0098 -3.0897  1.2128
 7117SOL     OW32809   2.608   4.662   7.992 -0.1658 -0.1384  0.3349
 7117SOL    HW132810   2.688   4.681   8.041  0.1137 -0.7707  0.1330
 7117SOL    HW232811   2.630   4.721   7.920  0.5399 -0.7973 -0.0042
 7118SOL     OW32812   3.891   1.925  11.551 -0.2568  0.2753 -0.8330
 7118SOL    HW132813   3.866   1.870  11.477 -1.9831  2.1715 -1.6633
 7118SOL    HW232814   3.963   1.882  11.597 -2.0396  0.6514  2.3141
 7119SOL     OW32815   3.027   3.485   4.422  0.2518 -0.0136  0.6314
 7119SOL    HW132816   3.099   3.537   4.458  1.7604 -2.6360  1.3873
 7119SOL    HW232817   2.943   3.524   4.447  0.5752  0.5594  0.8057
 7120SOL     OW32818   0.019   1.978  14.062  0.2186 -0.2984  0.3219
 7120SOL    HW132819   0.049   2.041  13.996  1.7657 -2.9200 -1.4625
 7120SOL    HW232820   4.648   1.987  14.054  0.5288  2.1630 -0.7760
 7121SOL     OW32821   3.868   4.529  10.562  0.1852  0.4144 -0.2475
 7121SOL    HW132822   3.934   4.585  10.605 -1.3811  2.2392 -0.2231
 7121SOL    HW232823   3.795   4.557  10.617  0.9030  0.2108  0.8197
 7122SOL     OW32824   1.211   1.173  16.255  0.1854 -0.4919 -0.4052
 7122SOL    HW132825   1.272   1.131  16.194 -0.3073 -3.0458  0.8501
 7122SOL    HW232826   1.138   1.110  16.252  0.1125 -0.4326  0.1318
 7123SOL     OW32827   3.836   0.865   0.212 -0.6532 -0.0783  0.3708
 7123SOL    HW132828   3.860   0.915   0.289  2.9562 -0.6679 -0.3598
 7123SOL    HW232829   3.918   0.874   0.164 -0.0069  0.6170  1.6185
 7124SOL     OW32830   1.273   1.749  11.060 -0.2493 -0.0757 -0.0333
 7124SOL    HW132831   1.237   1.668  11.025 -0.3860  0.8776 -2.1098
 7124SOL    HW232832   1.362   1.716  11.068  0.6095  1.9133 -1.2895
 7125SOL     OW32833   4.138   0.284   6.375  0.2630 -0.1067 -0.2914
 7125SOL    HW132834   4.185   0.291   6.458 -0.2595 -2.7859  0.1987
 7125SOL    HW232835   4.055   0.243   6.395  0.4823  0.5603  1.9122
 7126SOL     OW32836   0.242   0.779   3.588  0.5547  0.2629 -0.1797
 7126SOL    HW132837   0.149   0.777   3.610  0.8140 -0.0146  0.8720
 7126SOL    HW232838   0.258   0.707   3.526 -2.1425 -0.0948 -0.4721
 7127SOL     OW32839   0.530   3.656   8.312 -0.4889  0.5150 -0.0116
 7127SOL    HW132840   0.483   3.644   8.394 -0.2210 -0.4301 -0.0023
 7127SOL    HW232841   0.617   3.625   8.334 -1.1970 -1.2566  0.2586
 7128SOL     OW32842   3.852   3.612   2.080 -0.2691 -0.5291 -0.1703
 7128SOL    HW132843   3.909   3.651   2.146 -0.8272  0.2139 -0.1329
 7128SOL    HW232844   3.885   3.657   2.002 -1.0837  1.7860  0.8485
 7129SOL     OW32845   0.245   1.751   5.486  0.7362 -0.3013  0.1443
 7129SOL    HW132846   0.309   1.771   5.417 -1.7126  1.1442 -1.6904
 7129SOL    HW232847   0.177   1.712   5.431 -0.9963  4.0338 -0.7125
 7130SOL     OW32848   1.087   1.631   8.644  0.3789  0.5206  0.2878
 7130SOL    HW132849   1.106   1.542   8.676 -0.8299  0.2939  0.3801
 7130SOL    HW232850   1.088   1.673   8.729 -0.2850 -0.1243  0.6095
 7131SOL     OW32851   1.474   4.047  10.878  0.2721 -0.9299  0.1693
 7131SOL    HW132852   1.423   4.094  10.812  0.4757 -1.8421 -0.6225
 7131SOL    HW232853   1.539   4.114  10.898  1.7779 -1.6703 -2.3742
 7132SOL     OW32854   2.927   4.546   1.692  0.3272  0.7888  0.2685
 7132SOL    HW132855   2.847   4.538   1.745  1.2144  0.1260  1.4868
 7132SOL    HW232856   2.937   4.463   1.646 -0.0459  1.3090 -0.7767
 7133SOL     OW32857   3.072   0.759   9.074  0.0431  0.0152  0.4609
 7133SOL    HW132858   3.062   0.854   9.069 -0.4052 -0.2179 -2.7598
 7133SOL    HW232859   2.985   0.727   9.050  0.4869 -0.0196 -1.1180
 7134SOL     OW32860   3.440   1.344   6.093 -0.3392  0.2813  0.6856
 7134SOL    HW132861   3.426   1.421   6.038  0.1160 -0.4215 -0.3967
 7134SOL    HW232862   3.386   1.278   6.051 -0.1772  0.9691 -0.5966
 7135SOL     OW32863   4.571   1.174   3.479 -0.0601 -0.4107 -0.0524
 7135SOL    HW132864   4.583   1.258   3.434  0.7310 -0.8489 -0.6451
 7135SOL    HW232865   4.622   1.119   3.420 -1.1763 -0.4131 -1.0196
 7136SOL     OW32866   2.139   2.977   7.092 -0.0270 -0.2768  0.0322
 7136SOL    HW132867   2.093   2.928   7.160  0.4695 -0.5831  0.1432
 7136SOL    HW232868   2.175   2.907   7.038 -0.4115  0.0269 -0.6244
 7137SOL     OW32869   1.157   2.433   2.985  0.2981  0.0613 -0.0180
 7137SOL    HW132870   1.139   2.482   2.905 -0.2686 -0.7830 -0.4097
 7137SOL    HW232871   1.077   2.381   2.989 -0.1209  0.5895 -1.4166
 7138SOL     OW32872   2.534   0.084  14.436  0.3241 -0.0276  0.1722
 7138SOL    HW132873   2.596   0.094  14.508 -0.1801  0.1477  0.5795
 7138SOL    HW232874   2.565   0.158  14.382  1.8553 -1.2480 -0.6278
 7139SOL     OW32875   3.648   1.059   7.798  0.0497 -0.4267 -0.1127
 7139SOL    HW132876   3.626   1.054   7.891  1.4733 -0.3139  0.2250
 7139SOL    HW232877   3.561   1.035   7.765  1.1801 -1.6743 -2.2292
 7140SOL     OW32878   3.739   3.987  13.005 -0.4015 -0.2696  0.7264
 7140SOL    HW132879   3.648   4.017  13.007 -0.3998 -0.2904  1.1151
 7140SOL    HW232880   3.735   3.935  13.085  1.9485 -1.5538  0.0180
 7141SOL     OW32881   0.778   2.878   2.757 -0.0555 -0.1264  0.2602
 7141SOL    HW132882   0.709   2.897   2.694  1.6983  1.1670 -1.2782
 7141SOL    HW232883   0.794   2.963   2.798 -0.0729  0.0371 -0.0689
 7142SOL     OW32884   2.907   1.054  16.444  0.0475  0.3794 -0.3255
 7142SOL    HW132885   2.842   1.012  16.500  1.0404 -2.0094 -0.9464
 7142SOL    HW232886   2.943   1.123  16.499 -2.2508  1.7506 -0.5574
 7143SOL     OW32887   0.877   4.166  11.910  0.2461  0.4024 -0.8618
 7143SOL    HW132888   0.926   4.134  11.987 -2.4962 -2.5919 -0.3372
 7143SOL    HW232889   0.946   4.155  11.845  0.7529  4.1772 -0.9271
 7144SOL     OW32890   2.567   2.835   7.975 -0.0976 -0.0389  0.2593
 7144SOL    HW132891   2.658   2.809   7.991  0.1058  1.1003  0.9323
 7144SOL    HW232892   2.587   2.898   7.906  0.5042 -0.5238 -0.0103
 7145SOL     OW32893   0.836   2.561   9.196 -0.6917 -0.3777 -0.3409
 7145SOL    HW132894   0.758   2.554   9.251  0.3584 -1.8127  0.9677
 7145SOL    HW232895   0.851   2.483   9.142  0.2195 -0.3704 -0.0868
 7146SOL     OW32896   3.736   4.286  13.948  0.2471 -0.0320  0.5347
 7146SOL    HW132897   3.677   4.326  14.012  0.0447  1.8841 -0.8503
 7146SOL    HW232898   3.704   4.314  13.863 -0.6297 -0.5059  0.7077
 7147SOL     OW32899   1.025   4.027   5.656  0.0335 -0.3812  0.4090
 7147SOL    HW132900   1.022   3.932   5.666  1.7421 -0.4701  0.0563
 7147SOL    HW232901   1.022   4.061   5.745  0.8498 -1.2833  0.7772
 7148SOL     OW32902   3.549   0.178   8.688 -0.4491  0.0855  0.4325
 7148SOL    HW132903   3.510   0.210   8.770  1.4017  1.4624  0.7836
 7148SOL    HW232904   3.532   0.084   8.697  3.6036 -0.6418  0.5633
 7149SOL     OW32905   3.507   0.221   3.629  0.2812  0.2711 -0.0426
 7149SOL    HW132906   3.487   0.149   3.570  0.2512  0.1839  0.0752
 7149SOL    HW232907   3.502   0.289   3.562  1.7756 -0.3917 -0.8214
 7150SOL     OW32908   3.082   0.398   7.196 -0.3032  0.3645 -0.1156
 7150SOL    HW132909   3.032   0.471   7.158 -0.1607  0.8618  0.6417
 7150SOL    HW232910   3.011   0.344   7.232 -0.9398 -0.4389 -2.5352
 7151SOL     OW32911   3.038   2.624   7.780  0.1103 -0.0724  0.0627
 7151SOL    HW132912   3.038   2.716   7.806  1.3594 -0.6407  2.0828
 7151SOL    HW232913   3.078   2.644   7.696  2.3669  0.6217  1.2940
 7152SOL     OW32914   1.802   1.713  14.087  0.0231  0.4781  0.1394
 7152SOL    HW132915   1.882   1.729  14.037 -0.1531  1.7830  0.2911
 7152SOL    HW232916   1.755   1.670  14.016 -1.8523 -0.0349  1.6925
 7153SOL     OW32917   2.550   2.467   3.749  0.1838  0.2323 -0.2275
 7153SOL    HW132918   2.499   2.546   3.765 -1.7324 -0.8693 -0.9909
 7153SOL    HW232919   2.483   2.418   3.701 -1.2703  0.4274  1.6161
 7154SOL     OW32920   1.168   1.685   0.431 -0.4506 -0.2277  0.2273
 7154SOL    HW132921   1.107   1.678   0.505 -2.9640  3.8136 -1.4758
 7154SOL    HW232922   1.244   1.634   0.459  0.0240 -1.0963 -2.6456
 7155SOL     OW32923   2.330   2.771   4.875 -0.0497 -0.0052  0.0498
 7155SOL    HW132924   2.409   2.801   4.828  0.0175  2.1370  1.5425
 7155SOL    HW232925   2.370   2.695   4.918  0.5539 -0.3303 -1.0529
 7156SOL     OW32926   2.684   3.059   5.335 -0.1656 -0.2281  0.3494
 7156SOL    HW132927   2.689   3.095   5.423 -0.7626  3.4953 -1.1359
 7156SOL    HW232928   2.777   3.065   5.314  0.0824 -1.6871  1.0216
 7157SOL     OW32929   0.076   2.524   9.974  0.1540  0.4517  0.2722
 7157SOL    HW132930   0.027   2.600   9.944 -1.3538 -0.6813 -0.1472
 7157SOL    HW232931   0.038   2.511  10.061  0.5200  1.4704  0.5732
 7158SOL     OW32932   4.156   3.099   1.530  0.4418  0.2613  0.4419
 7158SOL    HW132933   4.161   3.186   1.492 -0.5735 -0.3670 -1.1554
 7158SOL    HW232934   4.074   3.095   1.580  0.1297  2.7473  0.1200
 7159SOL     OW32935   3.323   3.917   8.122  0.0133 -0.5085  0.0553
 7159SOL    HW132936   3.340   4.004   8.156 -1.9478  0.2205 -0.8392
 7159SOL    HW232937   3.260   3.933   8.052 -0.8792 -0.6719  0.8227
 7160SOL     OW32938   0.881   2.116  16.459 -0.3748  0.1389  0.0585
 7160SOL    HW132939   0.960   2.128  16.406 -1.4412  1.6004 -1.2096
 7160SOL    HW232940   0.915   2.059  16.528  1.1351  1.4325  0.4023
 7161SOL     OW32941   0.047   1.392   4.629  0.1091 -0.3070  0.0260
 7161SOL    HW132942   0.076   1.373   4.718 -2.3919  0.4260  1.0076
 7161SOL    HW232943   4.692   1.439   4.657 -0.1079 -0.1728 -0.8053
 7162SOL     OW32944   2.506   2.142   3.498  0.1542 -0.0830  0.0900
 7162SOL    HW132945   2.465   2.220   3.535  0.7347  0.4015 -0.3028
 7162SOL    HW232946   2.493   2.150   3.403 -3.2455 -1.4069  0.4455
 7163SOL     OW32947   1.785   2.298  11.288 -0.1837  0.3256 -0.4697
 7163SOL    HW132948   1.751   2.295  11.377  1.5516  1.6899  0.2459
 7163SOL    HW232949   1.707   2.293  11.233  1.2163 -0.3673 -2.3848
 7164SOL     OW32950   1.934   2.046   1.900  0.0801  0.1252 -0.1638
 7164SOL    HW132951   1.953   2.041   1.807 -3.3716  0.1288 -0.8700
 7164SOL    HW232952   2.019   2.081   1.928  0.0598  1.8761 -2.3322
 7165SOL     OW32953   3.385   0.053   1.428  0.8048  0.0239  0.2327
 7165SOL    HW132954   3.297   0.027   1.456  0.9449 -0.8103 -0.0957
 7165SOL    HW232955   3.432   0.055   1.512  0.5287  1.4540  0.3492
 7166SOL     OW32956   0.702   2.701   4.723  0.4146 -0.5963  0.1609
 7166SOL    HW132957   0.607   2.703   4.710  0.2219  0.6633  1.7585
 7166SOL    HW232958   0.733   2.754   4.650  2.4456  2.1408  3.0289
 7167SOL     OW32959   2.608   0.468   5.045  0.1015 -0.6645  0.2699
 7167SOL    HW132960   2.519   0.500   5.034  0.9919  1.5967 -0.4283
 7167SOL    HW232961   2.622   0.411   4.969  1.9315 -1.7644  1.4191
 7168SOL     OW32962   2.109   3.293   1.979  0.5686 -0.6316 -0.7267
 7168SOL    HW132963   2.084   3.204   1.953 -1.0587 -0.5930  0.7050
 7168SOL    HW232964   2.035   3.349   1.956  2.3005  2.7565  2.0439
 7169SOL     OW32965   1.548   0.726   6.227  0.4160 -0.1760  0.0344
 7169SOL    HW132966   1.608   0.686   6.291  1.1582  1.3031  0.2738
 7169SOL    HW232967   1.464   0.681   6.231  0.9069 -1.3186 -2.2860
 7170SOL     OW32968   0.974   3.375  11.457  0.0165 -0.3258 -0.1292
 7170SOL    HW132969   1.056   3.395  11.502 -1.4989  1.0490  1.9988
 7170SOL    HW232970   0.897   3.391  11.512 -0.2213 -1.8074 -0.0284
 7171SOL     OW32971   3.580   3.660   3.379  0.3493 -0.9507 -0.6553
 7171SOL    HW132972   3.540   3.674   3.293  0.4280 -1.4803 -0.7844
 7171SOL    HW232973   3.619   3.745   3.399 -0.0088 -0.6586 -1.1918
 7172SOL     OW32974   2.490   3.146   7.380 -0.1442 -0.3559  0.2469
 7172SOL    HW132975   2.565   3.206   7.382 -1.0215  0.8473 -3.3837
 7172SOL    HW232976   2.426   3.208   7.414  0.7932 -0.3760  2.0155
 7173SOL     OW32977   4.446   1.933  13.313  0.3111  0.2201  0.1553
 7173SOL    HW132978   4.477   1.859  13.261 -0.9601  0.1072 -0.4404
 7173SOL    HW232979   4.487   1.923  13.399  0.7542 -1.0857 -0.2004
 7174SOL     OW32980   3.800   2.172   1.969 -0.3551 -0.0260 -0.2137
 7174SOL    HW132981   3.866   2.167   2.037 -1.0601  0.0202  0.4712
 7174SOL    HW232982   3.825   2.103   1.908 -1.0249 -1.0083  0.6249
 7175SOL     OW32983   4.593   3.464   1.364 -0.3252  0.6796  0.3667
 7175SOL    HW132984   4.540   3.526   1.314 -2.0991 -0.5926  0.6638
 7175SOL    HW232985   4.658   3.438   1.298 -1.0205  1.9373 -0.8241
 7176SOL     OW32986   3.933   1.512   6.377  0.0723  0.8021  0.1999
 7176SOL    HW132987   3.938   1.580   6.310 -0.4840  1.8862  1.2528
 7176SOL    HW232988   3.851   1.530   6.422  0.1983 -0.1393  0.8119
 7177SOL     OW32989   3.374   3.383   9.398  0.1166 -0.4888 -0.1779
 7177SOL    HW132990   3.331   3.298   9.408 -1.5094  0.1924 -1.2067
 7177SOL    HW232991   3.463   3.354   9.416  0.6345  1.0130 -0.3268
 7178SOL     OW32992   1.623   3.423   8.267  0.5582  1.0118  0.2759
 7178SOL    HW132993   1.682   3.484   8.224  2.3377 -0.6123  0.4550
 7178SOL    HW232994   1.539   3.458   8.236 -0.9883 -1.4525  1.7171
 7179SOL     OW32995   3.884   2.180   3.610 -0.3319  0.2458  0.1491
 7179SOL    HW132996   3.938   2.247   3.653 -1.6446  1.6706 -0.4150
 7179SOL    HW232997   3.876   2.118   3.683  1.4769 -0.2698 -0.0991
 7180SOL     OW32998   0.536   1.078  10.484  0.4179 -0.3865 -0.1747
 7180SOL    HW132999   0.510   1.140  10.552  3.1778  1.7361 -1.0746
 7180SOL    HW233000   0.485   1.112  10.411  0.1594  0.1422  0.2490
 7181SOL     OW33001   1.852   3.478   2.293  0.1504  0.5030  0.3508
 7181SOL    HW133002   1.828   3.391   2.263  1.6457 -0.0424  0.7564
 7181SOL    HW233003   1.790   3.506   2.362  0.9672 -1.9451  2.0672
 7182SOL     OW33004   3.413   2.495   4.353 -0.4685  0.7163  0.5148
 7182SOL    HW133005   3.403   2.520   4.261  1.0749 -0.6401 -0.0186
 7182SOL    HW233006   3.507   2.513   4.360  0.1423 -1.8706 -0.8591
 7183SOL     OW33007   3.331   3.853   2.253 -0.1650  0.0189  0.2298
 7183SOL    HW133008   3.294   3.873   2.339 -0.3301  2.1246 -0.3362
 7183SOL    HW233009   3.328   3.941   2.216 -2.3674  1.0358  2.8911
 7184SOL     OW33010   3.457   4.542   2.726 -0.0413 -0.3976  0.7388
 7184SOL    HW133011   3.468   4.472   2.790  0.6347  0.5044  1.6094
 7184SOL    HW233012   3.439   4.620   2.779  0.1938 -1.4627  2.3776
 7185SOL     OW33013   0.958   4.716   2.903 -0.0916  0.2687  0.2382
 7185SOL    HW133014   0.864   4.715   2.886 -0.0532  0.9922  0.0087
 7185SOL    HW233015   0.965   0.054   2.976  0.9280 -1.3282  1.5098
 7186SOL     OW33016   0.638   2.533   5.089  0.0036 -0.3210 -0.0730
 7186SOL    HW133017   0.580   2.523   5.014 -1.0870  1.1128  0.5891
 7186SOL    HW233018   0.574   2.577   5.145  0.3835  0.8349 -0.5595
 7187SOL     OW33019   0.792   2.894   8.543  0.0071 -0.0895 -0.3123
 7187SOL    HW133020   0.772   2.902   8.636 -1.0886  0.2422 -0.5844
 7187SOL    HW233021   0.885   2.917   8.550 -0.8070  3.1687 -0.6195
 7188SOL     OW33022   2.899   1.779   7.068 -0.2288 -0.0942  0.7578
 7188SOL    HW133023   2.923   1.687   7.076 -2.1480 -0.7359 -0.8837
 7188SOL    HW233024   2.807   1.766   7.093 -0.2058 -0.8201  0.4510
 7189SOL     OW33025   4.307   2.985   7.031 -0.4720 -0.0223 -0.1868
 7189SOL    HW133026   4.241   3.021   6.972 -1.1486  1.8646  1.7689
 7189SOL    HW233027   4.348   2.923   6.969 -0.6491  0.2962 -0.6206
 7190SOL     OW33028   2.084   4.221  10.154  0.5580 -0.3713 -0.2811
 7190SOL    HW133029   2.090   4.263  10.240 -0.1978  0.3640 -0.5888
 7190SOL    HW233030   2.022   4.279  10.112 -0.8290 -1.1693  0.6747
 7191SOL     OW33031   1.855   4.290   8.384  0.4246  0.1322 -0.4587
 7191SOL    HW133032   1.861   4.335   8.300 -2.0221  2.6210  0.6898
 7191SOL    HW233033   1.851   4.199   8.354 -0.1878 -0.0530  0.1772
 7192SOL     OW33034   3.716   4.701   9.747  0.2841 -0.1998  0.0425
 7192SOL    HW133035   3.681   4.716   9.659 -0.9496  0.3261  0.6238
 7192SOL    HW233036   3.630   4.715   9.789 -0.5117 -1.7781 -1.0822
 7193SOL     OW33037   2.045   2.132  14.087  0.4032  0.2082 -0.1185
 7193SOL    HW133038   1.957   2.124  14.050  0.7104 -0.7018 -0.6435
 7193SOL    HW233039   2.101   2.115  14.011 -0.1825  1.1382 -0.7633
 7194SOL     OW33040   4.073   3.765   0.231  0.4661 -0.1427 -0.1050
 7194SOL    HW133041   4.020   3.826   0.283  1.5854 -1.0204  2.0728
 7194SOL    HW233042   4.160   3.799   0.252 -0.1139  0.7769  0.8242
 7195SOL     OW33043   0.326   2.486  16.249 -0.4819  0.6681  0.1736
 7195SOL    HW133044   0.303   2.577  16.229  1.7314  0.8717 -1.4427
 7195SOL    HW233045   0.357   2.490  16.339  2.8013  0.3127 -0.9506
 7196SOL     OW33046   0.027   1.856   6.168  0.3046  0.0237 -0.3419
 7196SOL    HW133047   4.714   1.915   6.234 -0.7433 -1.4513  0.3874
 7196SOL    HW233048   0.052   1.784   6.225 -1.3782 -0.3519 -0.0669
 7197SOL     OW33049   2.620   0.657   2.554  0.3784  0.5221  0.0788
 7197SOL    HW133050   2.554   0.724   2.540 -0.8513 -1.1525 -2.1078
 7197SOL    HW233051   2.575   0.573   2.553 -0.3001  0.8680  1.7386
 7198SOL     OW33052   3.839   2.185  11.284 -0.4983 -0.0364 -0.3232
 7198SOL    HW133053   3.848   2.274  11.248 -0.9791 -0.3193 -1.1609
 7198SOL    HW233054   3.788   2.200  11.363  0.9046  2.2256  0.1444
 7199SOL     OW33055   0.132   2.635   1.426 -0.7681 -0.0750  0.5325
 7199SOL    HW133056   0.050   2.678   1.403 -1.8191 -1.8253  1.0179
 7199SOL    HW233057   0.101   2.571   1.489 -0.0932 -1.2831 -0.3613
 7200SOL     OW33058   2.871   1.964   1.969 -0.0650  0.4328 -0.2055
 7200SOL    HW133059   2.870   1.869   1.956 -1.0990  0.9735 -3.9372
 7200SOL    HW233060   2.956   1.988   1.930 -0.7393 -0.3483 -2.1564
 7201SOL     OW33061   2.934   3.217   0.492  0.3935  0.3741 -0.4074
 7201SOL    HW133062   2.848   3.177   0.480 -0.5070  1.7815  1.3035
 7201SOL    HW233063   2.981   3.146   0.535  1.8931  2.2405  1.0711
 7202SOL     OW33064   3.014   3.032   9.393 -0.3809 -0.1372  0.4730
 7202SOL    HW133065   3.035   2.975   9.467 -0.4546 -1.6535 -0.6718
 7202SOL    HW233066   3.040   2.981   9.316  2.4100  0.9187  0.7051
 7203SOL     OW33067   4.414   2.795   1.760  0.3279 -0.2052  0.1185
 7203SOL    HW133068   4.376   2.708   1.777  1.2907 -0.5297  0.6036
 7203SOL    HW233069   4.385   2.820   1.672 -1.2227  0.6699  0.8802
 7204SOL     OW33070   2.787   2.789   1.495  0.8876 -0.3067 -0.0299
 7204SOL    HW133071   2.753   2.802   1.407 -1.6457 -0.1584  0.9673
 7204SOL    HW233072   2.721   2.727   1.528  1.8055 -1.1035  0.3135
 7205SOL     OW33073   0.456   0.571  14.502  0.1238 -0.3945  0.0369
 7205SOL    HW133074   0.378   0.558  14.448  0.9504 -0.7257 -1.0755
 7205SOL    HW233075   0.466   0.481  14.533 -1.4296 -0.7050 -0.3785
 7206SOL     OW33076   2.347   4.207   6.890  0.1042 -0.1447  0.1658
 7206SOL    HW133077   2.388   4.183   6.973  0.5337 -0.8771 -0.2518
 7206SOL    HW233078   2.397   4.172   6.816 -0.4132 -1.5335  0.4853
 7207SOL     OW33079   4.493   1.941   5.636 -0.1387  0.0515 -0.1368
 7207SOL    HW133080   4.425   1.995   5.596  0.8952  0.5661 -1.2189
 7207SOL    HW233081   4.453   1.856   5.654 -1.1152  1.2696  3.3300
 7208SOL     OW33082   2.964   3.140   7.763 -0.3644  0.4078 -0.2201
 7208SOL    HW133083   3.015   3.069   7.725 -0.4329  0.4175 -0.3302
 7208SOL    HW233084   2.928   3.188   7.689 -0.7378 -0.0208 -0.3134
 7209SOL     OW33085   0.827   3.497   6.663 -0.5751  0.5867  0.2783
 7209SOL    HW133086   0.736   3.507   6.637 -0.3221 -0.6951 -1.0993
 7209SOL    HW233087   0.818   3.445   6.743 -0.5163  0.8789  0.4737
 7210SOL     OW33088   4.429   4.171   5.762 -0.1589 -0.2983 -0.2089
 7210SOL    HW133089   4.516   4.211   5.757 -0.1084 -0.5418 -1.1358
 7210SOL    HW233090   4.443   4.102   5.827  0.1816 -0.4232 -0.4177
 7211SOL     OW33091   1.533   1.215  17.634  0.4235 -0.2209 -0.1414
 7211SOL    HW133092   1.616   1.241  17.675 -0.5399  0.2308  1.5061
 7211SOL    HW233093   1.496   1.301  17.617 -3.4869 -1.6676  1.0323
 7212SOL     OW33094   2.001   1.315   6.660  0.1745  0.2428  0.2919
 7212SOL    HW133095   2.072   1.351   6.714 -0.7398  0.7491  1.1636
 7212SOL    HW233096   2.046   1.235   6.635  0.0984 -0.5792  2.8620
 7213SOL     OW33097   1.165   4.261   4.592 -0.1853 -0.5041 -0.0875
 7213SOL    HW133098   1.222   4.331   4.625  0.6285 -1.7447  1.1389
 7213SOL    HW233099   1.192   4.192   4.652  1.9172 -0.8475 -1.4400
 7214SOL     OW33100   1.900   0.722   4.668 -0.4428  0.0901 -0.0247
 7214SOL    HW133101   1.828   0.694   4.611  0.9741 -1.1114 -1.2269
 7214SOL    HW233102   1.862   0.728   4.756  1.7204  0.0795  0.8902
 7215SOL     OW33103   0.332   3.155   5.720  0.8641 -0.6906 -0.3883
 7215SOL    HW133104   0.367   3.231   5.674 -0.7295  0.3201  0.0820
 7215SOL    HW233105   0.290   3.125   5.639  1.7862 -3.2305  0.0722
 7216SOL     OW33106   2.653   0.556  13.851 -0.0025 -0.2431  0.4384
 7216SOL    HW133107   2.698   0.479  13.886 -0.3654  0.1495  1.7986
 7216SOL    HW233108   2.659   0.612  13.929 -1.8466 -0.1531  0.5193
 7217SOL     OW33109   2.836   0.437   6.674  0.1792 -0.8793 -0.1561
 7217SOL    HW133110   2.806   0.528   6.673 -1.2748 -1.3441  1.2825
 7217SOL    HW233111   2.929   0.460   6.661  0.1562 -0.5524  0.2520
 7218SOL     OW33112   1.414   1.388   1.113 -0.6133 -0.0513 -0.2111
 7218SOL    HW133113   1.440   1.380   1.205 -0.9150  0.9850 -0.0387
 7218SOL    HW233114   1.372   1.471   1.136  1.2028  1.0138 -0.7170
 7219SOL     OW33115   0.833   1.582   2.294  0.1940 -0.0272 -0.2019
 7219SOL    HW133116   0.820   1.493   2.262 -1.3021  0.2291 -0.2738
 7219SOL    HW233117   0.764   1.629   2.247 -0.7390  0.3292  1.5292
 7220SOL     OW33118   2.069   0.847   8.316 -0.6026  0.3090  0.3033
 7220SOL    HW133119   1.998   0.881   8.371 -0.7548  0.5398 -0.0338
 7220SOL    HW233120   2.027   0.836   8.230  0.2207  1.2647 -0.2129
 7221SOL     OW33121   0.978   2.491   2.256 -0.1337  0.2179  0.0357
 7221SOL    HW133122   1.006   2.498   2.165  1.3365 -2.3726  0.2765
 7221SOL    HW233123   1.009   2.577   2.285 -0.4773 -0.2730  1.8835
 7222SOL     OW33124   3.172   0.907   3.958 -0.5742 -0.5172  0.4235
 7222SOL    HW133125   3.240   0.908   3.890 -0.9343 -1.9556  0.0521
 7222SOL    HW233126   3.223   0.903   4.039  1.4538 -0.5077 -0.8512
 7223SOL     OW33127   2.715   0.003   3.533  0.0548  0.5744  0.6565
 7223SOL    HW133128   2.637   0.010   3.479 -0.3714  0.1097  1.2129
 7223SOL    HW233129   2.781   4.715   3.465 -0.2091  0.1505  0.4785
 7224SOL     OW33130   2.675   2.799   2.040 -0.3550  0.9948  0.7482
 7224SOL    HW133131   2.683   2.732   2.108  0.2770  0.9506  0.6319
 7224SOL    HW233132   2.747   2.856   2.067  0.2972 -0.2871  1.7091
 7225SOL     OW33133   3.737   0.091   7.056 -0.1364  0.2420 -0.6831
 7225SOL    HW133134   3.818   0.108   7.104  0.3275 -0.3018 -1.2737
 7225SOL    HW233135   3.740   4.720   7.039 -2.2852 -0.2463  1.6579
 7226SOL     OW33136   2.321   2.027   4.108  0.0585  0.5184  0.8767
 7226SOL    HW133137   2.264   2.038   4.033 -0.0694  1.8380  1.1672
 7226SOL    HW233138   2.321   1.932   4.121  1.1349  1.0354  4.6778
 7227SOL     OW33139   2.520   1.871  11.996  0.4305 -0.1206  0.2579
 7227SOL    HW133140   2.425   1.879  11.996  0.3253 -1.4076 -0.7581
 7227SOL    HW233141   2.546   1.882  11.904  2.8963 -1.3942  0.8004
 7228SOL     OW33142   3.824   3.659   1.233 -0.2688  0.3544  0.5000
 7228SOL    HW133143   3.919   3.654   1.228 -0.3452 -1.0470  0.6666
 7228SOL    HW233144   3.828   3.708   1.315  1.6006 -1.1642  1.3044
 7229SOL     OW33145   2.747   1.326  15.794  0.1921 -0.2233 -0.4980
 7229SOL    HW133146   2.719   1.389  15.861 -0.1046 -1.2332  0.3183
 7229SOL    HW233147   2.675   1.265  15.810  0.6648 -0.2202  1.5785
 7230SOL     OW33148   1.995   0.704   7.846 -0.4299 -0.5601  0.0653
 7230SOL    HW133149   1.973   0.696   7.753  2.1087 -0.7002 -0.5090
 7230SOL    HW233150   2.030   0.616   7.858 -0.6123 -0.8627 -1.6708
 7231SOL     OW33151   0.251   0.964  13.267 -0.0531 -0.2514 -0.5698
 7231SOL    HW133152   0.224   1.041  13.317 -0.9221 -1.0596  0.2144
 7231SOL    HW233153   0.337   0.952  13.306 -0.1026 -1.3651 -0.7975
 7232SOL     OW33154   0.697   2.326   4.343  0.2734 -0.1229  0.1130
 7232SOL    HW133155   0.601   2.321   4.349  0.2765  0.6450  0.6917
 7232SOL    HW233156   0.722   2.281   4.424  0.9340  1.8760  1.0157
 7233SOL     OW33157   0.876   1.050  11.436 -0.7900 -0.4104 -0.0895
 7233SOL    HW133158   0.905   1.030  11.525  3.9320 -0.5410 -1.6158
 7233SOL    HW233159   0.902   1.142  11.431  0.1229 -0.7682 -1.9028
 7234SOL     OW33160   4.594   3.259   4.425 -0.1055 -0.3196 -0.3434
 7234SOL    HW133161   4.547   3.321   4.369  0.9346  2.0668  1.4038
 7234SOL    HW233162   4.535   3.183   4.422  0.0635 -0.4131 -1.2180
 7235SOL     OW33163   1.319   0.165  17.631  0.0306  0.7981  0.8461
 7235SOL    HW133164   1.259   0.213  17.574 -0.7047 -1.2936 -0.1548
 7235SOL    HW233165   1.339   0.234  17.694 -0.6389 -0.2779  2.2247
 7236SOL     OW33166   1.704   2.116  14.671  0.1891  0.5754  0.1374
 7236SOL    HW133167   1.782   2.155  14.633 -0.1193  2.4135  1.3820
 7236SOL    HW233168   1.685   2.061  14.595 -0.3677  1.3190 -0.2643
 7237SOL     OW33169   4.181   0.996   7.369  0.0877 -0.5441 -0.4440
 7237SOL    HW133170   4.207   0.969   7.458  1.3084 -0.6374 -0.8237
 7237SOL    HW233171   4.095   1.032   7.388  0.1150 -2.0617  2.6974
 7238SOL     OW33172   3.053   1.071   9.463  0.0295 -0.1747 -0.5736
 7238SOL    HW133173   3.040   1.009   9.535 -0.3534  2.4707  1.6283
 7238SOL    HW233174   3.092   1.154   9.491 -0.1408  0.2820 -1.7086
 7239SOL     OW33175   1.333   1.299   3.032 -0.1404  0.2479 -1.0169
 7239SOL    HW133176   1.388   1.304   3.110  0.7051  0.7557 -1.6440
 7239SOL    HW233177   1.392   1.247   2.977  0.7844  0.1894  0.0395
 7240SOL     OW33178   0.651   4.390   0.292 -0.1093 -0.1129  0.1147
 7240SOL    HW133179   0.718   4.436   0.342 -0.4736  2.1140 -1.4219
 7240SOL    HW233180   0.631   4.461   0.230 -0.2470  0.8826  1.2933
 7241SOL     OW33181   3.315   2.498   5.518 -0.4853  0.4603  0.2232
 7241SOL    HW133182   3.378   2.527   5.584 -0.0306  2.2202 -0.9679
 7241SOL    HW233183   3.260   2.574   5.503 -2.0154 -1.0620 -2.0199
 7242SOL     OW33184   1.190   3.570   6.904  0.3662 -0.7924 -0.3251
 7242SOL    HW133185   1.211   3.607   6.818 -2.5698 -0.7012 -0.9770
 7242SOL    HW233186   1.102   3.603   6.918  1.1531  0.4971  1.6225
 7243SOL     OW33187   1.812   0.147   9.804  0.2090  0.0047 -0.4053
 7243SOL    HW133188   1.772   0.142   9.891  2.5773 -0.5752  0.6400
 7243SOL    HW233189   1.872   0.221   9.807  0.9040 -0.5753 -0.1029
 7244SOL     OW33190   1.533   2.673  10.142 -0.7532  0.1001 -0.0118
 7244SOL    HW133191   1.531   2.612  10.215  1.6047 -0.1054 -0.1296
 7244SOL    HW233192   1.607   2.725  10.174  0.7615 -0.2712 -2.9512
 7245SOL     OW33193   2.650   0.516   7.596  0.3563  0.1514  0.5355
 7245SOL    HW133194   2.622   0.584   7.534  1.0685  0.2615  0.3255
 7245SOL    HW233195   2.593   0.530   7.671 -0.5065 -0.3498 -0.0294
 7246SOL     OW33196   2.329   3.917   2.665 -0.0830  0.2194 -0.1827
 7246SOL    HW133197   2.342   3.823   2.676 -2.2432  0.0411  0.8479
 7246SOL    HW233198   2.258   3.930   2.729 -0.8156  2.6038 -1.4991
 7247SOL     OW33199   2.386   1.449   9.416  0.1269  0.0539 -0.0189
 7247SOL    HW133200   2.456   1.513   9.402 -0.5559  1.5480  3.4469
 7247SOL    HW233201   2.417   1.376   9.363 -0.9329  0.2074 -0.8648
 7248SOL     OW33202   3.700   3.402   0.239  0.5230  0.5290 -0.1288
 7248SOL    HW133203   3.769   3.339   0.222  1.3084  0.4712  3.3661
 7248SOL    HW233204   3.623   3.361   0.200  0.7732  0.9605 -1.0928
 7249SOL     OW33205   2.302   3.061   0.847  0.0583 -0.1140  0.2363
 7249SOL    HW133206   2.330   3.044   0.937  0.1958 -6.0765 -0.9177
 7249SOL    HW233207   2.371   3.011   0.803  0.5680 -0.4225  1.3815
 7250SOL     OW33208   2.984   0.921   6.863  0.2089  0.2643  0.5692
 7250SOL    HW133209   3.076   0.940   6.883  1.4308 -1.6846 -2.9825
 7250SOL    HW233210   2.993   0.904   6.769 -0.6845 -1.7328  0.8523
 7251SOL     OW33211   4.191   3.691   2.963  0.3545 -0.1973 -0.4118
 7251SOL    HW133212   4.126   3.646   2.909  2.5382 -1.8300 -1.6395
 7251SOL    HW233213   4.205   3.620   3.026  3.1278  0.0728 -0.7382
 7252SOL     OW33214   2.942   2.398  13.722 -0.1279 -0.0895 -0.1335
 7252SOL    HW133215   3.035   2.411  13.743 -0.0525 -1.1258  0.1776
 7252SOL    HW233216   2.913   2.363  13.806 -0.8364  1.1734  0.1419
 7253SOL     OW33217   1.547   0.855   1.720  0.4628  0.3123 -0.3953
 7253SOL    HW133218   1.528   0.901   1.638 -2.8763 -0.4197 -0.0501
 7253SOL    HW233219   1.641   0.837   1.720  0.5671  0.8543 -0.5194
 7254SOL     OW33220   0.101   2.365   5.154 -0.3245 -0.4411  0.2476
 7254SOL    HW133221   0.122   2.414   5.075 -1.4871 -0.4941 -0.0973
 7254SOL    HW233222   0.044   2.293   5.125  2.3853 -2.2417 -0.5899
 7255SOL     OW33223   3.357   2.660   2.226 -0.1686  0.2219  0.0276
 7255SOL    HW133224   3.296   2.613   2.282  0.4745 -0.9059 -0.2046
 7255SOL    HW233225   3.435   2.604   2.225 -0.3032  0.0281  0.3368
 7256SOL     OW33226   1.121   0.061   0.174 -0.3966 -0.0957 -0.2165
 7256SOL    HW133227   1.131   0.101   0.260  0.6487 -0.5706 -0.1206
 7256SOL    HW233228   1.100   4.694   0.196 -0.4103  0.0056  0.1876
 7257SOL     OW33229   4.464   3.125   7.616 -0.0537 -0.1235 -0.2789
 7257SOL    HW133230   4.382   3.127   7.567  0.3918 -1.5237 -1.0949
 7257SOL    HW233231   4.522   3.105   7.542  2.3322 -1.5287  1.9609
 7258SOL     OW33232   2.657   2.418   0.559  0.2846  0.1312 -0.1474
 7258SOL    HW133233   2.714   2.341   0.563  1.4616  0.9509 -1.0409
 7258SOL    HW233234   2.635   2.428   0.652 -2.2070  1.4436 -0.8933
 7259SOL     OW33235   2.293   2.711   4.373 -0.7560 -0.3320 -0.3568
 7259SOL    HW133236   2.261   2.621   4.364 -1.1193 -0.3179  0.8313
 7259SOL    HW233237   2.213   2.762   4.382 -1.7524 -1.3976 -3.3448
 7260SOL     OW33238   2.822   0.856   6.183 -0.0350 -0.1839 -0.4688
 7260SOL    HW133239   2.763   0.839   6.110 -1.8702 -1.2503  1.2728
 7260SOL    HW233240   2.782   0.937   6.214  1.5410  0.2706  0.3565
 7261SOL     OW33241   1.422   0.648   6.895 -0.3728  0.3515  0.3129
 7261SOL    HW133242   1.369   0.603   6.959 -3.7502 -0.0678 -2.7786
 7261SOL    HW233243   1.501   0.655   6.948 -0.0187  0.1525 -0.1834
 7262SOL     OW33244   2.883   3.638   6.186  0.1096  1.0447  0.4394
 7262SOL    HW133245   2.914   3.660   6.099  0.6954  0.0820  0.4021
 7262SOL    HW233246   2.952   3.577   6.212  0.9254  2.4666  1.5939
 7263SOL     OW33247   3.648   3.803  11.936  0.7134 -0.3335 -0.2559
 7263SOL    HW133248   3.560   3.768  11.920  1.8730 -3.1863 -0.4397
 7263SOL    HW233249   3.640   3.863  11.861 -1.8602 -0.3589 -0.0128
 7264SOL     OW33250   0.986   3.997   4.209  0.9463 -0.2775  0.0095
 7264SOL    HW133251   1.054   4.018   4.273 -0.0939 -2.1585  1.7460
 7264SOL    HW233252   1.009   3.907   4.183  2.2042 -0.4325  1.6396
 7265SOL     OW33253   2.606   1.830  11.637 -0.1376  0.0258 -0.4038
 7265SOL    HW133254   2.642   1.892  11.700 -0.1115  1.5868 -1.9662
 7265SOL    HW233255   2.602   1.876  11.553  2.1040 -4.0257 -2.7294
 7266SOL     OW33256   1.876   0.396   4.366 -0.4253 -0.5042 -0.6419
 7266SOL    HW133257   1.932   0.377   4.291  0.3821  0.5015 -0.3100
 7266SOL    HW233258   1.940   0.426   4.431  0.3099  0.4869 -1.8081
 7267SOL     OW33259   3.607   3.557   6.644 -0.7271 -0.4754  0.0468
 7267SOL    HW133260   3.642   3.473   6.613  2.4782  0.7625  0.2597
 7267SOL    HW233261   3.652   3.573   6.727 -2.5969  0.7480  0.8118
 7268SOL     OW33262   0.298   4.101   4.207  0.1867  0.1515  0.1454
 7268SOL    HW133263   0.335   4.025   4.162 -0.8030 -0.9504  1.2099
 7268SOL    HW233264   0.256   4.057   4.280 -1.2411  0.7787 -0.2942
 7269SOL     OW33265   3.964   3.045   8.044  0.4100  0.3220 -0.4109
 7269SOL    HW133266   4.010   3.114   7.997  0.0225 -0.1486 -1.4756
 7269SOL    HW233267   3.911   3.107   8.095 -0.4507  0.3999 -1.4084
 7270SOL     OW33268   3.986   1.118  10.350  0.2884 -0.0422 -0.2464
 7270SOL    HW133269   4.038   1.192  10.383 -0.7096  0.4965  0.1116
 7270SOL    HW233270   3.963   1.148  10.262  1.1242 -0.7330 -0.7017
 7271SOL     OW33271   0.977   2.947   5.936  0.4712  0.5328 -0.9715
 7271SOL    HW133272   0.919   2.979   5.867 -0.2321  0.8867 -0.2177
 7271SOL    HW233273   0.987   3.026   5.989  1.2953  1.6943 -2.8741
 7272SOL     OW33274   1.942   2.735   6.244  1.2810 -0.1627 -0.3395
 7272SOL    HW133275   1.881   2.672   6.282  0.7088  1.7295  1.8941
 7272SOL    HW233276   2.019   2.679   6.252  1.4441 -0.0692 -1.2340
 7273SOL     OW33277   1.492   3.556   5.235  0.2132  0.3086  0.4300
 7273SOL    HW133278   1.581   3.557   5.268 -0.0094 -3.4065  1.0531
 7273SOL    HW233279   1.444   3.566   5.317 -1.3298 -0.0093 -0.4327
 7274SOL     OW33280   3.943   1.606   1.639 -0.0767  0.4156  0.9831
 7274SOL    HW133281   3.866   1.553   1.618 -0.5925  1.9857 -1.1562
 7274SOL    HW233282   3.899   1.687   1.666 -0.4892  0.5324 -0.0375
 7275SOL     OW33283   4.115   4.041   6.263 -0.0180  0.0197  0.6160
 7275SOL    HW133284   4.056   4.115   6.267 -3.1894 -2.5128  0.3227
 7275SOL    HW233285   4.071   3.970   6.216 -1.0960  1.1736 -0.0954
 7276SOL     OW33286   2.214   0.602  16.977  0.4143 -0.3178 -0.1445
 7276SOL    HW133287   2.140   0.580  16.921  1.6177 -4.5375 -0.1071
 7276SOL    HW233288   2.177   0.572  17.060  1.7298  0.5299  0.7550
 7277SOL     OW33289   3.381   1.862   0.347 -0.1788 -0.6962  0.3199
 7277SOL    HW133290   3.456   1.922   0.350 -1.1868  0.4951  1.8576
 7277SOL    HW233291   3.419   1.782   0.312 -1.5158 -1.3081  0.2728
 7278SOL     OW33292   2.433   0.745  15.557 -0.0026  0.4921  0.1194
 7278SOL    HW133293   2.480   0.734  15.474  0.2530  0.3117  0.2860
 7278SOL    HW233294   2.363   0.799  15.522 -1.8363 -0.6381  2.0170
 7279SOL     OW33295   3.423   1.794   3.451  0.0219  0.3035  0.1049
 7279SOL    HW133296   3.442   1.739   3.375  1.1548 -0.6657  1.0865
 7279SOL    HW233297   3.380   1.732   3.511 -2.8728 -0.7448 -3.0648
 7280SOL     OW33298   1.126   1.580   1.040  0.2603 -0.2211 -0.0839
 7280SOL    HW133299   1.171   1.527   1.107 -0.4269 -0.2256  0.3763
 7280SOL    HW233300   1.043   1.608   1.079  1.2925  1.5901  0.8125
 7281SOL     OW33301   1.578   3.734   7.782  0.0728 -0.2354  0.1966
 7281SOL    HW133302   1.558   3.758   7.872  0.2062 -1.9181  0.6790
 7281SOL    HW233303   1.487   3.721   7.755  1.0654 -1.8035 -2.3923
 7282SOL     OW33304   2.074   1.746  14.004 -0.0281 -0.0796  0.5165
 7282SOL    HW133305   2.097   1.829  13.964 -0.0912 -0.7883 -0.9761
 7282SOL    HW233306   2.152   1.723  14.054  0.1485  1.7220  1.0641
 7283SOL     OW33307   0.568   0.235   5.180  0.3338 -0.1555 -0.1535
 7283SOL    HW133308   0.622   0.222   5.258 -0.7835 -0.4732  0.5554
 7283SOL    HW233309   0.511   0.159   5.180 -1.4876  1.2272 -1.0466
 7284SOL     OW33310   3.199   3.231   8.196  0.0045 -1.0103 -0.2694
 7284SOL    HW133311   3.279   3.255   8.149 -0.1766  1.6918  0.8255
 7284SOL    HW233312   3.147   3.252   8.119  1.3540  1.8928 -0.3819
 7285SOL     OW33313   1.846   2.244   5.016  0.0543 -0.5190 -0.1880
 7285SOL    HW133314   1.823   2.336   5.011 -0.0470 -0.4398  1.7298
 7285SOL    HW233315   1.767   2.212   5.060 -0.8836 -0.8856 -2.1459
 7286SOL     OW33316   0.361   4.364   3.498  0.3492 -0.5334  0.1774
 7286SOL    HW133317   0.395   4.293   3.443 -0.9337 -1.9421  1.1950
 7286SOL    HW233318   0.440   4.402   3.537  1.3670 -2.3325 -0.1467
 7287SOL     OW33319   0.865   1.445   3.135 -0.7029  0.5484 -0.1977
 7287SOL    HW133320   0.823   1.413   3.055 -2.2071 -0.3489  0.9431
 7287SOL    HW233321   0.937   1.383   3.126 -0.3921  1.1873 -2.0150
 7288SOL     OW33322   3.985   3.201   8.419  0.1657 -0.4639  0.3320
 7288SOL    HW133323   4.076   3.212   8.449  0.8542 -1.8980 -1.2804
 7288SOL    HW233324   3.939   3.227   8.499  0.4568 -1.6218  0.8765
 7289SOL     OW33325   0.131   2.436   1.104  0.6473 -0.4771  0.5333
 7289SOL    HW133326   0.079   2.517   1.101  1.0609 -0.1843  1.1032
 7289SOL    HW233327   0.183   2.437   1.024  0.7890 -0.8054  0.6222
 7290SOL     OW33328   1.816   2.816  10.025 -0.8375 -0.4526 -0.2404
 7290SOL    HW133329   1.898   2.795  10.071 -1.2625 -1.3875  0.0774
 7290SOL    HW233330   1.753   2.810  10.097 -0.5562 -0.7709 -0.0215
 7291SOL     OW33331   3.689   4.087   9.849 -0.2652  0.9612  0.2158
 7291SOL    HW133332   3.655   4.168   9.812  1.5625  0.7548 -1.9273
 7291SOL    HW233333   3.774   4.127   9.867  1.2014 -2.2162  0.4114
 7292SOL     OW33334   4.651   3.378   9.108 -0.1663  0.1583 -0.1751
 7292SOL    HW133335   4.639   3.472   9.099 -0.3216  0.1923  0.3899
 7292SOL    HW233336   0.008   3.368   9.058  1.4047 -0.7123  2.5346
 7293SOL     OW33337   4.137   2.509   5.614 -0.4220  0.5789  0.2543
 7293SOL    HW133338   4.047   2.527   5.587  0.7562  3.0248 -1.9762
 7293SOL    HW233339   4.180   2.554   5.542  0.3900 -0.0330  0.3657
 7294SOL     OW33340   3.320   3.597   6.403 -0.0300 -0.2251  0.3574
 7294SOL    HW133341   3.338   3.504   6.414 -1.9780 -0.7723 -1.0663
 7294SOL    HW233342   3.359   3.610   6.316 -0.0241 -1.3021  0.2045
 7295SOL     OW33343   3.290   4.336  16.581 -0.1709  0.0703 -0.7982
 7295SOL    HW133344   3.367   4.390  16.568  0.1918 -0.2411  0.0236
 7295SOL    HW233345   3.218   4.400  16.588  0.0565  0.1215  1.0542
 7296SOL     OW33346   3.967   4.340   8.692 -0.3622  0.0660  0.7440
 7296SOL    HW133347   3.932   4.295   8.769 -0.2261 -1.2425  0.0462
 7296SOL    HW233348   4.059   4.337   8.720 -0.1123 -0.8660 -0.1760
 7297SOL     OW33349   1.276   3.071   5.114  0.1850 -0.0752 -0.0316
 7297SOL    HW133350   1.328   3.013   5.059 -0.7685 -1.1120  0.1672
 7297SOL    HW233351   1.337   3.082   5.187  0.7780  1.2020 -0.7269
 7298SOL     OW33352   1.057   3.896   0.279  0.1706 -0.6022 -0.4985
 7298SOL    HW133353   0.962   3.883   0.283  0.4165 -1.8857  1.4896
 7298SOL    HW233354   1.060   3.957   0.206  2.8370 -0.9870 -0.7290
 7299SOL     OW33355   4.187   0.682   1.694 -0.5696  0.7356  0.1380
 7299SOL    HW133356   4.241   0.612   1.658  0.2492  1.9536 -1.0211
 7299SOL    HW233357   4.098   0.649   1.683 -0.8983  2.2320 -1.8156
 7300SOL     OW33358   4.450   0.744  11.222  0.1174  0.4260  0.5050
 7300SOL    HW133359   4.516   0.715  11.286 -2.1187 -2.3856  1.5934
 7300SOL    HW233360   4.430   0.659  11.182  1.3129  1.6294 -2.5738
 7301SOL     OW33361   4.203   2.794   0.418 -0.3690 -0.0495 -0.4528
 7301SOL    HW133362   4.256   2.867   0.385  3.1137 -1.1067  2.8848
 7301SOL    HW233363   4.118   2.836   0.431  0.1506  0.4606  1.2195
 7302SOL     OW33364   3.842   1.797  10.523  0.6489  0.3328  0.4385
 7302SOL    HW133365   3.759   1.835  10.494  1.5083  1.9845  0.1634
 7302SOL    HW233366   3.863   1.748  10.444  3.1403  0.6875  0.9020
 7303SOL     OW33367   2.759   1.372   1.790 -0.0757  0.0543 -0.3827
 7303SOL    HW133368   2.758   1.417   1.874 -1.1465 -1.5907  0.4822
 7303SOL    HW233369   2.852   1.367   1.768 -0.0565 -3.3359  0.4301
 7304SOL     OW33370   0.107   3.176   0.707  0.6275 -0.1890  0.4462
 7304SOL    HW133371   0.132   3.086   0.728  1.6077  0.1429  0.7088
 7304SOL    HW233372   0.013   3.169   0.689  1.1528  0.8445 -2.6713
 7305SOL     OW33373   1.373   1.327   4.499 -0.1730  0.0999 -0.7475
 7305SOL    HW133374   1.393   1.415   4.531 -2.8421  0.0395  1.0516
 7305SOL    HW233375   1.385   1.353   4.407 -0.2791  1.9663 -0.2492
 7306SOL     OW33376   0.346   2.440   5.270  0.4828 -0.6154  0.3442
 7306SOL    HW133377   0.389   2.365   5.311  0.2184 -1.5088 -1.0072
 7306SOL    HW233378   0.264   2.394   5.250  0.5020 -0.2295 -0.6123
 7307SOL     OW33379   0.852   1.379   7.052  0.2805 -0.2146 -0.2007
 7307SOL    HW133380   0.810   1.296   7.029 -1.6658 -0.2609  3.6196
 7307SOL    HW233381   0.780   1.441   7.038  0.4567  0.4165  1.6772
 7308SOL     OW33382   4.040   3.476   5.981  0.4472 -0.6499 -0.5088
 7308SOL    HW133383   4.020   3.526   5.902 -0.2310 -1.0610 -0.5911
 7308SOL    HW233384   4.107   3.534   6.018  0.0009 -0.0718 -0.6021
 7309SOL     OW33385   0.789   2.583   5.822 -0.0143  0.0081  0.3850
 7309SOL    HW133386   0.725   2.638   5.776  1.6373  0.8756 -0.8667
 7309SOL    HW233387   0.839   2.560   5.744 -2.8122 -3.2680 -0.4582
 7310SOL     OW33388   2.487   2.655   1.896 -0.3319  0.0292 -0.4535
 7310SOL    HW133389   2.467   2.576   1.947 -0.9981  0.7390  0.3786
 7310SOL    HW233390   2.549   2.710   1.944  2.2131 -0.5942 -3.1097
 7311SOL     OW33391   0.917   2.280   8.597 -0.6293  0.0574 -0.5962
 7311SOL    HW133392   0.827   2.266   8.626 -0.3321 -0.5557  0.0036
 7311SOL    HW233393   0.909   2.371   8.569  1.4900  0.7481  1.0775
 7312SOL     OW33394   3.019   2.021   2.758  0.8931 -0.0003 -0.0037
 7312SOL    HW133395   3.000   1.934   2.724 -2.1719  0.9903 -0.8723
 7312SOL    HW233396   2.935   2.057   2.730  0.3061 -2.1347 -0.9725
 7313SOL     OW33397   2.422   3.348   7.548 -0.5647 -0.0654  0.1877
 7313SOL    HW133398   2.485   3.420   7.552  1.3434 -1.7079 -0.6500
 7313SOL    HW233399   2.346   3.401   7.525 -1.7538 -1.2312  1.3919
 7314SOL     OW33400   3.454   4.127   8.583 -0.0280 -0.2202 -0.3673
 7314SOL    HW133401   3.511   4.165   8.650 -0.8272 -0.2934  0.3550
 7314SOL    HW233402   3.458   4.035   8.610  0.5982  0.4580  1.8821
 7315SOL     OW33403   0.227   3.560  11.236  0.2728 -0.1156  0.0155
 7315SOL    HW133404   0.260   3.622  11.301 -0.2339  1.2830 -1.0645
 7315SOL    HW233405   0.136   3.586  11.221  0.3461  0.2853  0.2553
 7316SOL     OW33406   0.261   1.256  16.688 -0.0698  0.2566  0.5012
 7316SOL    HW133407   0.347   1.213  16.690  0.6036  1.5994  0.6596
 7316SOL    HW233408   0.258   1.303  16.771  1.0383  1.5911 -0.2073
 7317SOL     OW33409   1.984   0.453   4.068 -0.5746 -0.8375 -0.2260
 7317SOL    HW133410   2.033   0.463   3.986  0.0349  1.6922  0.4669
 7317SOL    HW233411   1.905   0.500   4.042 -0.4275  0.7467  2.1688
 7318SOL     OW33412   3.621   0.961   5.815  0.1829  0.2161 -0.0785
 7318SOL    HW133413   3.528   0.943   5.810  0.3515 -0.8530  0.4492
 7318SOL    HW233414   3.606   1.051   5.789 -1.3429  0.5840  2.0814
 7319SOL     OW33415   2.620   0.381  10.146  0.2095  0.5993  0.0841
 7319SOL    HW133416   2.627   0.380  10.050  1.3261  2.4017  0.1446
 7319SOL    HW233417   2.528   0.409  10.149  0.2536  0.9302 -1.1884
 7320SOL     OW33418   0.700   3.317   4.913 -0.6698  0.0003 -0.2502
 7320SOL    HW133419   0.639   3.363   4.855 -1.4720 -1.3986 -0.5218
 7320SOL    HW233420   0.728   3.378   4.980 -1.6303 -0.3972  0.5119
 7321SOL     OW33421   0.115   3.545   3.542  0.2060  0.0732  0.2232
 7321SOL    HW133422   0.049   3.485   3.509  1.8688 -1.5573 -0.1661
 7321SOL    HW233423   0.193   3.504   3.504  1.3522  0.1941  2.4323
 7322SOL     OW33424   0.873   2.275  16.030  0.5159 -0.2795 -0.2193
 7322SOL    HW133425   0.833   2.303  15.948 -1.4057 -0.2490  0.7370
 7322SOL    HW233426   0.961   2.246  16.004  0.6631  0.1985 -0.2566
 7323SOL     OW33427   1.733   2.190   1.217  0.1839  0.5373  0.6581
 7323SOL    HW133428   1.691   2.265   1.260  0.5177  0.8399  0.4569
 7323SOL    HW233429   1.698   2.124   1.277 -1.0081  1.0230  0.5015
 7324SOL     OW33430   4.416   4.684   5.747 -0.4814 -0.4264 -0.1530
 7324SOL    HW133431   4.410   4.694   5.843  2.3420  0.5637 -0.0782
 7324SOL    HW233432   4.479   0.029   5.726 -2.1719  0.8403 -1.1030
 7325SOL     OW33433   3.161   3.647  15.044 -0.3480 -0.6074  1.1075
 7325SOL    HW133434   3.067   3.658  15.059 -0.3267 -1.5953  2.0015
 7325SOL    HW233435   3.178   3.563  15.087  2.0174  0.2006  1.7213
 7326SOL     OW33436   0.398   1.008   5.127 -0.2435 -0.6016 -0.0972
 7326SOL    HW133437   0.315   1.039   5.090 -0.1744  0.0725  0.3227
 7326SOL    HW233438   0.360   0.941   5.184  1.3119 -2.2013 -0.9563
 7327SOL     OW33439   0.420   1.689   3.380 -0.1445 -0.1490  0.0473
 7327SOL    HW133440   0.390   1.772   3.417 -1.3276  0.1007 -1.4484
 7327SOL    HW233441   0.410   1.716   3.289 -1.2639 -1.8246 -0.3200
 7328SOL     OW33442   4.408   4.032  11.354 -0.1267 -0.1961  0.0020
 7328SOL    HW133443   4.387   3.939  11.348 -0.5249  0.0429 -2.2608
 7328SOL    HW233444   4.485   4.021  11.411  1.3339  1.1800 -1.7077
 7329SOL     OW33445   2.408   3.310   8.530  0.5068  0.0597  0.5424
 7329SOL    HW133446   2.428   3.219   8.509  0.9729 -0.3831  2.8582
 7329SOL    HW233447   2.347   3.295   8.603 -0.4610  0.9010 -0.0876
 7330SOL     OW33448   3.570   3.682   9.886 -0.2278 -0.8267  0.5340
 7330SOL    HW133449   3.567   3.702   9.980  0.1292 -0.3911  0.4542
 7330SOL    HW233450   3.535   3.762   9.847 -1.3389 -1.2753  0.6024
 7331SOL     OW33451   3.205   2.438   3.767  0.3352  1.1075  0.3578
 7331SOL    HW133452   3.182   2.381   3.840 -1.4232  2.5861  0.9602
 7331SOL    HW233453   3.269   2.496   3.809  1.0883 -1.5146  2.8173
 7332SOL     OW33454   2.363   3.791   7.674 -0.0282 -0.1856 -0.3006
 7332SOL    HW133455   2.325   3.704   7.689 -1.0164 -0.0885 -2.2830
 7332SOL    HW233456   2.373   3.814   7.767  1.5401 -1.3377 -0.1905
 7333SOL     OW33457   3.030   0.682  10.152  0.3086 -0.2965 -0.3724
 7333SOL    HW133458   3.044   0.776  10.141 -1.7031  0.2006  1.2995
 7333SOL    HW233459   3.122   0.658  10.137  0.3953  1.8416 -3.1949
 7334SOL     OW33460   1.202   4.271   1.872 -0.0889  0.2420 -0.1796
 7334SOL    HW133461   1.220   4.358   1.835  0.8895 -0.1925 -0.7191
 7334SOL    HW233462   1.171   4.282   1.962 -0.0982 -1.2347 -0.0124
 7335SOL     OW33463   4.344   0.592   3.094 -0.0617  0.1255 -0.3221
 7335SOL    HW133464   4.308   0.586   3.183 -0.1988 -0.8097 -0.4376
 7335SOL    HW233465   4.436   0.585   3.120  0.2326 -0.8082 -1.6296
 7336SOL     OW33466   0.303   4.101  17.666 -0.3987 -0.6320 -0.3588
 7336SOL    HW133467   0.351   4.160  17.607 -3.8219  0.8833 -1.6047
 7336SOL    HW233468   0.382   4.051  17.687 -0.2584 -0.1811  0.1797
 7337SOL     OW33469   3.193   1.714   4.414  0.3512  0.5182 -0.4695
 7337SOL    HW133470   3.145   1.792   4.443  1.7586  0.5691  1.7264
 7337SOL    HW233471   3.282   1.725   4.449  0.5260  1.3521 -1.1669
 7338SOL     OW33472   3.992   4.613  16.494  0.3151 -0.3879 -0.1234
 7338SOL    HW133473   4.085   4.597  16.481 -0.2258 -3.3381 -0.3248
 7338SOL    HW233474   3.984   4.704  16.464  0.1545 -0.3066  0.1678
 7339SOL     OW33475   2.943   1.458   8.705 -0.0615 -0.3003  0.5187
 7339SOL    HW133476   2.985   1.541   8.729 -1.8055  1.0450 -1.0957
 7339SOL    HW233477   2.981   1.454   8.618 -1.8198  1.4026 -0.3282
 7340SOL     OW33478   4.158   3.033  12.191 -0.2078 -0.0694  0.4884
 7340SOL    HW133479   4.148   3.125  12.168 -2.2187 -0.0377  1.4779
 7340SOL    HW233480   4.225   3.042  12.259  1.7826 -1.3138 -1.2884
 7341SOL     OW33481   2.887   4.284   3.729  0.1433 -0.0377  0.0131
 7341SOL    HW133482   2.912   4.376   3.720  3.2026 -0.8944 -0.2619
 7341SOL    HW233483   2.792   4.286   3.735  0.0925 -0.7388 -0.6505
 7342SOL     OW33484   4.472   4.470   7.460 -0.5568  0.4170  0.8685
 7342SOL    HW133485   4.441   4.379   7.466 -2.2120  0.8555 -0.9190
 7342SOL    HW233486   4.390   4.511   7.432  0.3536  2.4992  1.2766
 7343SOL     OW33487   4.238   1.737   7.361 -0.1203 -0.7553  0.1405
 7343SOL    HW133488   4.304   1.691   7.413  0.2235  0.0484  0.4104
 7343SOL    HW233489   4.220   1.672   7.294  0.5084 -1.6169  0.8125
 7344SOL     OW33490   3.341   1.526   9.700 -0.0702 -0.5206 -0.2725
 7344SOL    HW133491   3.384   1.535   9.785  0.1826  0.7333 -0.5235
 7344SOL    HW233492   3.247   1.526   9.716  0.4921 -0.3837  3.0265
 7345SOL     OW33493   3.581   0.825   6.490 -0.2358  0.5142 -0.2856
 7345SOL    HW133494   3.507   0.853   6.436  0.9407  0.4982 -1.9310
 7345SOL    HW233495   3.659   0.854   6.441 -0.3671  0.2616 -0.6395
 7346SOL     OW33496   2.566   4.066   1.988  0.2072  0.1573  0.4136
 7346SOL    HW133497   2.558   4.146   2.041 -1.6847  1.3857 -1.7656
 7346SOL    HW233498   2.515   4.001   2.038 -1.8552 -0.4342 -2.4610
 7347SOL     OW33499   0.411   1.242   4.724 -0.0777 -0.3091 -0.0653
 7347SOL    HW133500   0.319   1.237   4.752 -0.1348 -2.7068 -0.7056
 7347SOL    HW233501   0.463   1.249   4.804 -0.9872 -1.8530  0.6817
 7348SOL     OW33502   4.598   2.929  11.808  0.7982 -0.2584  0.3418
 7348SOL    HW133503   4.618   2.905  11.718  2.0402  2.1016  0.0038
 7348SOL    HW233504   4.544   2.855  11.838  0.4839 -0.3002 -0.3311
 7349SOL     OW33505   2.170   4.621   2.891 -0.9181  0.4579  0.1595
 7349SOL    HW133506   2.203   4.572   2.966 -0.0108  2.1831  0.8877
 7349SOL    HW233507   2.250   4.640   2.842 -0.7255  0.5289  0.5028
 7350SOL     OW33508   1.707   0.670  12.267  0.7796  0.9656 -0.7426
 7350SOL    HW133509   1.658   0.588  12.260  0.3083  1.0268  1.9663
 7350SOL    HW233510   1.766   0.656  12.193  0.2340  0.1511 -1.0280
 7351SOL     OW33511   3.230   3.600   2.137  0.3207  0.1228  0.3734
 7351SOL    HW133512   3.193   3.683   2.170 -0.6267  0.1756 -0.8502
 7351SOL    HW233513   3.311   3.592   2.189  0.7378  1.7704 -0.0003
 7352SOL     OW33514   2.123   3.068   3.858 -0.1679 -0.4099  0.4473
 7352SOL    HW133515   2.167   3.012   3.923  0.5276 -0.1708  0.1756
 7352SOL    HW233516   2.042   3.018   3.846  0.1136 -1.1568  1.6373
 7353SOL     OW33517   4.291   0.406   3.319  0.2382 -0.7944 -0.4164
 7353SOL    HW133518   4.249   0.362   3.393  0.8547 -2.2751 -0.9319
 7353SOL    HW233519   4.271   0.496   3.344 -2.8451 -1.2074 -1.3717
 7354SOL     OW33520   3.995   1.237  15.899 -0.5806  0.0761 -0.1942
 7354SOL    HW133521   4.034   1.318  15.933 -0.8968 -0.3690  1.2394
 7354SOL    HW233522   4.056   1.169  15.930 -0.2336 -0.1942 -1.4956
 7355SOL     OW33523   0.720   0.166   5.420 -0.3949 -0.5102  0.9066
 7355SOL    HW133524   0.716   0.071   5.404 -0.1086 -0.5216  0.9037
 7355SOL    HW233525   0.642   0.185   5.472 -1.4659  0.0668 -0.9059
 7356SOL     OW33526   0.291   3.147   3.635  0.2758 -0.2765  0.3565
 7356SOL    HW133527   0.273   3.218   3.698  1.3306  1.5466 -1.4189
 7356SOL    HW233528   0.206   3.134   3.592  1.0735 -0.1581 -1.2407
 7357SOL     OW33529   2.800   0.313   6.954  0.0812  0.0396  0.1268
 7357SOL    HW133530   2.804   0.354   6.867  1.1838 -1.4245 -0.5049
 7357SOL    HW233531   2.840   0.379   7.011  1.8901 -1.1340  0.2099
 7358SOL     OW33532   3.868   0.937   8.526 -0.2674  0.0282 -0.0905
 7358SOL    HW133533   3.904   0.848   8.524  0.8325  0.4981 -1.3862
 7358SOL    HW233534   3.929   0.976   8.463  0.1396 -1.7301 -0.8100
 7359SOL     OW33535   4.462   1.194   6.865  0.1935 -0.5378  0.2712
 7359SOL    HW133536   4.373   1.188   6.900 -0.7938 -0.0306 -2.1735
 7359SOL    HW233537   4.511   1.260   6.913 -1.2311 -0.2865  1.3911
 7360SOL     OW33538   0.897   1.142   2.209 -0.2053 -0.3444 -1.0858
 7360SOL    HW133539   0.907   1.066   2.151  1.4064 -0.9654 -0.0085
 7360SOL    HW233540   0.977   1.130   2.261  0.3714  2.7476 -1.2679
 7361SOL     OW33541   2.783   1.011   4.313  0.4813  0.3603 -0.2621
 7361SOL    HW133542   2.860   0.954   4.322  0.6831  0.3609 -2.0786
 7361SOL    HW233543   2.815   1.085   4.262 -0.6261  1.3344  0.4492
 7362SOL     OW33544   1.609   3.738   1.487 -0.0682  0.5875 -0.2463
 7362SOL    HW133545   1.623   3.739   1.393  1.3777  1.2300 -0.0210
 7362SOL    HW233546   1.522   3.778   1.494 -0.2875  0.3376 -1.6290
 7363SOL     OW33547   3.564   0.327   2.046  0.3621 -0.0476  0.6949
 7363SOL    HW133548   3.478   0.370   2.046  1.1541  1.5316 -1.5862
 7363SOL    HW233549   3.538   0.237   2.063  1.4531 -0.7368 -1.2377
 7364SOL     OW33550   0.510   2.384  16.489  0.5475 -0.2841  0.4898
 7364SOL    HW133551   0.567   2.332  16.433 -1.1126  0.6083 -1.9933
 7364SOL    HW233552   0.523   2.339  16.573  1.2513 -1.6790 -0.3811
 7365SOL     OW33553   3.324   4.363  13.390  0.3146  0.6244 -0.1297
 7365SOL    HW133554   3.281   4.408  13.463 -2.9956 -1.9802 -0.5059
 7365SOL    HW233555   3.249   4.361  13.331  0.8335 -0.3596 -0.7538
 7366SOL     OW33556   3.809   0.802   3.646  0.2224  0.2783  0.1782
 7366SOL    HW133557   3.826   0.892   3.621 -0.1393 -0.1334 -1.5849
 7366SOL    HW233558   3.714   0.812   3.650  0.1459  0.1018 -1.1104
 7367SOL     OW33559   4.704   1.709  12.282  0.4025  0.1997 -0.2737
 7367SOL    HW133560   0.043   1.753  12.224 -0.5368  0.4439 -1.1118
 7367SOL    HW233561   4.649   1.676  12.211 -0.5823  0.3265  0.4318
 7368SOL     OW33562   2.489   4.189   3.034 -0.4072  0.1650  0.8059
 7368SOL    HW133563   2.482   4.284   3.025 -1.4902  0.0299  0.2472
 7368SOL    HW233564   2.495   4.178   3.128  1.6537 -0.3125  0.6093
 7369SOL     OW33565   1.676   4.616  13.769  0.1365  0.1077  0.0775
 7369SOL    HW133566   1.699   4.707  13.786 -0.4175  0.2886 -0.1333
 7369SOL    HW233567   1.759   4.570  13.758  0.2999  0.5436 -0.5100
 7370SOL     OW33568   2.388   4.012   4.513 -0.3817  0.1881  0.0840
 7370SOL    HW133569   2.397   4.011   4.418  3.7997 -0.2862  0.4984
 7370SOL    HW233570   2.480   4.000   4.535  0.5327  2.3587 -2.6157
 7371SOL     OW33571   1.703   1.959   2.205  0.3946  0.2171  0.1716
 7371SOL    HW133572   1.704   1.870   2.241 -1.5287  0.5685  1.0768
 7371SOL    HW233573   1.610   1.978   2.210  0.2061 -0.3688 -1.3564
 7372SOL     OW33574   2.382   1.692   3.699 -0.3167 -0.6079 -0.1292
 7372SOL    HW133575   2.389   1.674   3.605 -0.5848  0.0574 -0.2739
 7372SOL    HW233576   2.408   1.784   3.701 -0.6370 -0.4806 -1.6917
 7373SOL     OW33577   2.608   1.010   2.431 -0.5531 -0.3368  0.7010
 7373SOL    HW133578   2.536   0.947   2.442 -0.9692 -0.2299 -1.3159
 7373SOL    HW233579   2.610   1.046   2.520  1.1298  0.2543  0.4194
 7374SOL     OW33580   4.681   3.825   7.087  0.2274  0.5478  0.6839
 7374SOL    HW133581   4.698   3.917   7.066  2.3405 -0.2779 -1.1932
 7374SOL    HW233582   0.031   3.797   7.141  1.2025  0.3078 -0.7804
 7375SOL     OW33583   4.597   3.364   3.440 -0.1120  0.2761 -0.0077
 7375SOL    HW133584   4.530   3.394   3.501  1.2712  0.5027  1.4208
 7375SOL    HW233585   4.631   3.306   3.507 -0.9002  1.0940  1.0995
 7376SOL     OW33586   1.118   3.090   4.444  0.1646 -0.0108 -0.1971
 7376SOL    HW133587   1.110   3.083   4.540 -1.2724  0.9002 -0.2472
 7376SOL    HW233588   1.080   3.005   4.420 -4.7188  1.1198  3.5534
 7377SOL     OW33589   3.058   2.741   2.215 -0.6739 -0.5900  0.1915
 7377SOL    HW133590   2.982   2.785   2.175 -1.5494 -1.0186  1.3712
 7377SOL    HW233591   3.130   2.778   2.165 -1.0507  1.9306  1.4964
 7378SOL     OW33592   4.416   4.396   9.835 -0.3328 -0.2072 -0.0755
 7378SOL    HW133593   4.454   4.315   9.800 -0.1808 -1.0334  1.9332
 7378SOL    HW233594   4.326   4.392   9.804 -1.1044 -0.3936  2.1628
 7379SOL     OW33595   4.412   4.450   8.552 -0.1911 -0.3323  0.5113
 7379SOL    HW133596   4.431   4.508   8.478  2.2856 -1.7182  0.0448
 7379SOL    HW233597   4.326   4.417   8.525  0.5055 -1.0742 -0.8030
 7380SOL     OW33598   3.179   2.746  13.715  0.0807  0.0974  0.0338
 7380SOL    HW133599   3.249   2.757  13.779  1.1766 -2.0044 -0.7975
 7380SOL    HW233600   3.225   2.783  13.640  0.4752 -2.6725 -1.1091
 7381SOL     OW33601   0.056   1.415   0.576 -0.1994 -0.1335  0.0115
 7381SOL    HW133602   4.721   1.440   0.505  1.1827  0.5234 -0.9076
 7381SOL    HW233603   0.130   1.476   0.570 -0.0520 -0.5390 -2.4490
 7382SOL     OW33604   3.923   0.636   2.608  0.9166 -0.3561  0.3559
 7382SOL    HW133605   3.910   0.549   2.644 -1.1304 -0.4223 -0.5109
 7382SOL    HW233606   3.965   0.614   2.525  1.6045  1.4222  0.2305
 7383SOL     OW33607   2.845   3.803   7.010  0.5636 -0.7891 -0.3420
 7383SOL    HW133608   2.850   3.740   6.938 -0.3245 -1.6507  0.3454
 7383SOL    HW233609   2.930   3.790   7.053  0.5937 -1.6206 -0.6536
 7384SOL     OW33610   2.715   1.303   6.672 -0.1613  0.5832  0.4716
 7384SOL    HW133611   2.626   1.301   6.638  0.4652  1.6342 -1.2500
 7384SOL    HW233612   2.703   1.348   6.755  0.5435 -0.5996  1.2163
 7385SOL     OW33613   0.440   3.517  13.539  0.2379 -0.0651 -0.1427
 7385SOL    HW133614   0.352   3.554  13.530  0.3956  0.5531  0.8537
 7385SOL    HW233615   0.452   3.550  13.628  3.4692  3.1241 -1.7813
 7386SOL     OW33616   4.267   1.443   2.534  0.0139  0.0811  0.3037
 7386SOL    HW133617   4.258   1.390   2.455 -1.3308  3.6384 -1.9350
 7386SOL    HW233618   4.202   1.505   2.500 -0.1038 -1.2963 -1.9693
 7387SOL     OW33619   2.055   3.153   5.904 -0.1940  0.7732 -0.2540
 7387SOL    HW133620   1.996   3.132   5.976 -0.8218  1.5336 -0.5431
 7387SOL    HW233621   2.035   3.245   5.886 -2.4480  0.1001 -1.1523
 7388SOL     OW33622   0.922   0.646  15.233  0.2035  0.4154 -0.4600
 7388SOL    HW133623   0.992   0.689  15.185  1.2225 -2.1795 -1.2830
 7388SOL    HW233624   0.868   0.614  15.161  1.4298 -1.4073 -0.5689
 7389SOL     OW33625   3.565   3.613   9.548  0.2682 -0.5006 -0.5158
 7389SOL    HW133626   3.472   3.608   9.570  0.4499  0.3344  0.4218
 7389SOL    HW233627   3.620   3.552   9.598 -2.8697 -0.7987  2.5401
 7390SOL     OW33628   0.731   0.300   2.718  0.1831  0.4342 -0.2315
 7390SOL    HW133629   0.765   0.358   2.786 -2.4274  1.2368  0.4001
 7390SOL    HW233630   0.782   0.318   2.639 -0.9600  0.3206 -1.0042
 7391SOL     OW33631   3.788   2.396  14.596  0.0629  0.4796  0.5263
 7391SOL    HW133632   3.848   2.343  14.544  2.0349  0.3209  2.9886
 7391SOL    HW233633   3.704   2.351  14.585  1.9919 -3.3874  1.5673
 7392SOL     OW33634   2.611   0.366   8.379 -0.2202 -0.4220  0.4328
 7392SOL    HW133635   2.643   0.453   8.404 -2.4775  0.1132  1.4965
 7392SOL    HW233636   2.634   0.316   8.458 -0.7469 -2.4380 -0.6919
 7393SOL     OW33637   2.107   2.973   8.295 -0.0720 -0.2201 -0.7245
 7393SOL    HW133638   2.094   2.887   8.335  2.3183 -0.3713 -0.2948
 7393SOL    HW233639   2.033   3.024   8.327 -1.7280 -1.1945 -2.9782
 7394SOL     OW33640   1.458   3.929   0.460 -0.0385  0.3322  0.2421
 7394SOL    HW133641   1.365   3.938   0.479 -0.1417 -0.7338  0.2443
 7394SOL    HW233642   1.491   3.882   0.536 -0.0285 -1.5948 -0.9468
 7395SOL     OW33643   2.991   0.580  14.183  0.1761 -0.1339  0.1998
 7395SOL    HW133644   2.944   0.537  14.255  1.7906 -2.4752 -0.1604
 7395SOL    HW233645   3.005   0.509  14.120  1.1305 -0.1234  0.4057
 7396SOL     OW33646   0.783   0.110  17.305 -0.1842 -0.3101  0.3196
 7396SOL    HW133647   0.765   0.112  17.211  1.8752  1.1463 -0.0532
 7396SOL    HW233648   0.694   0.086  17.329 -0.9643  0.6708 -1.5698
 7397SOL     OW33649   1.160   0.510  17.143  0.0949 -0.3062 -0.3504
 7397SOL    HW133650   1.163   0.469  17.057 -0.4680 -0.1110 -0.4611
 7397SOL    HW233651   1.209   0.446  17.195 -0.0561  1.3344  1.8534
 7398SOL     OW33652   2.056   1.847   3.685  0.4044 -0.1128  0.6274
 7398SOL    HW133653   2.028   1.777   3.625  1.6700 -0.8364  0.8795
 7398SOL    HW233654   2.019   1.811   3.766 -0.6734 -1.7318 -0.5675
 7399SOL     OW33655   3.617   3.347   8.253  0.2427  0.1140  0.2670
 7399SOL    HW133656   3.605   3.254   8.231  0.0979  0.5838 -1.6811
 7399SOL    HW233657   3.570   3.406   8.194 -0.8821 -0.1873  0.8653
 7400SOL     OW33658   1.681   2.771   5.602 -0.2690  0.1032  0.3044
 7400SOL    HW133659   1.597   2.756   5.646  0.1067  0.8087  1.2718
 7400SOL    HW233660   1.653   2.800   5.516  2.5259  0.7145 -0.3787
 7401SOL     OW33661   0.417   0.278   2.339  0.3448 -0.5217 -0.2969
 7401SOL    HW133662   0.415   0.183   2.350 -1.9220 -0.3479  0.6526
 7401SOL    HW233663   0.482   0.284   2.269  1.2063 -0.3293  0.5085
 7402SOL     OW33664   2.185   4.621  12.267  0.2167 -0.0718 -0.5799
 7402SOL    HW133665   2.169   4.588  12.178  0.4634  0.9074 -0.9841
 7402SOL    HW233666   2.109   4.580  12.308 -0.2772  1.1108 -0.3060
 7403SOL     OW33667   0.392   0.751  17.521  0.0419  0.2158  0.2570
 7403SOL    HW133668   0.386   0.770  17.427 -2.3220 -0.2373  0.3126
 7403SOL    HW233669   0.370   0.839  17.553 -2.6721 -0.0246 -0.9662
 7404SOL     OW33670   0.879   1.266   8.187 -0.3428  0.5769 -0.0432
 7404SOL    HW133671   0.849   1.341   8.136  0.7474 -0.1665 -1.7941
 7404SOL    HW233672   0.928   1.207   8.129 -0.0220 -0.6733  1.5119
 7405SOL     OW33673   2.679   3.219   8.619 -0.6913  0.3787 -0.2781
 7405SOL    HW133674   2.633   3.192   8.698 -0.7407  0.7966 -0.1615
 7405SOL    HW233675   2.608   3.258   8.567  0.4501  0.4601 -1.7904
 7406SOL     OW33676   3.023   3.403   2.712 -0.0617  0.5803 -0.1854
 7406SOL    HW133677   3.105   3.390   2.760 -1.3158  0.9264  2.0792
 7406SOL    HW233678   2.967   3.465   2.759  1.7767 -0.2279  3.0600
 7407SOL     OW33679   2.927   2.708   2.834  0.2343  0.2832 -0.0760
 7407SOL    HW133680   2.988   2.760   2.782 -0.1279  0.9971  0.2198
 7407SOL    HW233681   2.853   2.762   2.806  0.1331  0.2606  0.1531
 7408SOL     OW33682   3.031   2.573   8.464 -0.4449  0.2565  0.0285
 7408SOL    HW133683   3.024   2.658   8.421 -0.3641  0.4810  0.4598
 7408SOL    HW233684   3.116   2.544   8.430  0.1180  1.0245  0.7834
 7409SOL     OW33685   0.214   1.909   5.729  0.1358  0.1941 -0.2072
 7409SOL    HW133686   0.133   1.958   5.714 -0.0692  0.2978  1.2118
 7409SOL    HW233687   0.210   1.843   5.660 -0.4040 -0.3353  0.3170
 7410SOL     OW33688   3.412   4.711   7.395 -0.6665 -1.0265 -0.1839
 7410SOL    HW133689   3.504   4.693   7.375 -0.4912 -2.4373  1.9692
 7410SOL    HW233690   3.365   4.707   7.312  0.7335  0.6614 -1.0778
 7411SOL     OW33691   1.375   3.367   5.957  0.2569 -0.0466 -0.2561
 7411SOL    HW133692   1.342   3.283   5.924  0.3713 -0.3377  0.3614
 7411SOL    HW233693   1.294   3.410   5.984 -1.3780 -2.5463 -1.1992
 7412SOL     OW33694   4.053   2.741   8.831  0.3396 -0.3280 -0.1825
 7412SOL    HW133695   4.046   2.658   8.878  0.7321 -0.5878 -0.5843
 7412SOL    HW233696   4.119   2.719   8.765  0.1468 -0.9676 -0.1641
 7413SOL     OW33697   2.233   0.101  12.576 -0.2091 -0.4123  0.6582
 7413SOL    HW133698   2.147   0.114  12.616 -0.5944 -1.8584  0.2956
 7413SOL    HW233699   2.280   0.183  12.593 -1.4654  0.2335  1.0037
 7414SOL     OW33700   0.035   3.402  14.446 -0.6827 -0.6316  0.3510
 7414SOL    HW133701   0.044   3.409  14.351  1.3106  0.8518  0.6378
 7414SOL    HW233702   4.665   3.394  14.459 -0.5740 -2.6202 -0.1177
 7415SOL     OW33703   4.078   1.431   8.264  0.0331  0.1193  0.1344
 7415SOL    HW133704   4.076   1.526   8.256  0.5949  0.0904 -0.3383
 7415SOL    HW233705   4.057   1.389   8.181 -0.2856  2.3960 -0.9167
 7416SOL     OW33706   1.137   0.823   7.517  0.0647  0.0347 -0.4145
 7416SOL    HW133707   1.064   0.790   7.569  1.0489 -1.4472  0.0174
 7416SOL    HW233708   1.192   0.745   7.510  0.2036  0.1744 -0.8761
 7417SOL     OW33709   3.911   2.418   7.129 -0.1210  0.0457  0.0671
 7417SOL    HW133710   3.976   2.353   7.101 -0.2614  0.5387 -1.4119
 7417SOL    HW233711   3.927   2.411   7.223 -2.3584 -1.1721  0.3490
 7418SOL     OW33712   0.113   3.995   0.553  0.5125 -0.5294 -0.2572
 7418SOL    HW133713   0.152   4.066   0.603  1.2051 -0.8084 -0.3906
 7418SOL    HW233714   0.039   3.978   0.610  1.2538  2.4241  1.5668
 7419SOL     OW33715   1.030   2.559   8.685 -0.8762 -0.4860 -0.0465
 7419SOL    HW133716   0.942   2.565   8.648 -0.9122  2.0975  0.4154
 7419SOL    HW233717   1.081   2.548   8.605 -0.8268  1.5939 -0.3174
 7420SOL     OW33718   0.808   1.136   8.737  0.3276 -0.1230  0.1645
 7420SOL    HW133719   0.734   1.198   8.738  1.4532  1.2050  1.4736
 7420SOL    HW233720   0.788   1.074   8.808 -1.1510  0.2285  0.0598
 7421SOL     OW33721   3.002   3.780   9.760 -0.5237  0.0002 -0.4202
 7421SOL    HW133722   2.949   3.729   9.699  0.7413 -1.2046 -0.5278
 7421SOL    HW233723   2.938   3.840   9.798  0.2884  1.2331 -0.9766
 7422SOL     OW33724   2.787   2.993   6.486 -0.1204 -0.5884  0.4959
 7422SOL    HW133725   2.759   3.033   6.568  1.6249  2.5557 -0.4773
 7422SOL    HW233726   2.723   2.921   6.481 -2.1741  1.0243  3.5769
 7423SOL     OW33727   1.914   0.352  16.451 -0.3428 -0.1406 -0.4119
 7423SOL    HW133728   1.979   0.418  16.476  0.1769 -0.6953 -0.3268
 7423SOL    HW233729   1.848   0.412  16.416  0.5989  0.7714 -0.6279
 7424SOL     OW33730   0.041   3.303   2.891  0.2749 -0.3835 -0.0114
 7424SOL    HW133731   4.671   3.298   2.911  0.8663 -1.5220  2.4794
 7424SOL    HW233732   0.050   3.299   2.796  0.6339 -0.2757  0.0171
 7425SOL     OW33733   0.817   0.958   9.159 -0.6250  0.2144  0.0200
 7425SOL    HW133734   0.734   0.985   9.199 -1.3404 -0.6705 -0.8812
 7425SOL    HW233735   0.885   0.993   9.217  1.1210 -0.3244 -1.7051
 7426SOL     OW33736   4.006   0.084   0.811  0.1137 -0.2264  0.4044
 7426SOL    HW133737   4.006   0.006   0.866  0.9430  0.5143  1.4603
 7426SOL    HW233738   4.083   0.135   0.835 -0.2111  0.0882  0.7784
 7427SOL     OW33739   0.560   0.726   0.883 -0.5356  0.1251 -0.4690
 7427SOL    HW133740   0.604   0.791   0.829  0.0796 -0.4148 -0.6052
 7427SOL    HW233741   0.571   0.771   0.967 -0.0814 -0.5305 -0.1749
 7428SOL     OW33742   2.285   2.754   9.226 -0.3777  0.5243  0.0663
 7428SOL    HW133743   2.192   2.732   9.218 -0.7836  2.3080 -0.1252
 7428SOL    HW233744   2.288   2.841   9.186 -0.5239  1.3754  1.9072
 7429SOL     OW33745   3.056   1.983   7.146  0.5199  0.0526 -0.8200
 7429SOL    HW133746   3.080   1.962   7.236  0.3504 -0.6653 -0.9436
 7429SOL    HW233747   2.992   1.917   7.120  1.7925 -1.9610  1.2260
 7430SOL     OW33748   1.348   4.459   4.716 -0.1039 -0.2369  0.2928
 7430SOL    HW133749   1.395   4.476   4.797  0.0049  0.0661  0.1656
 7430SOL    HW233750   1.423   4.434   4.662  0.8811 -0.1194  1.6017
 7431SOL     OW33751   0.526   0.187   1.085  0.6124  0.6626  0.5799
 7431SOL    HW133752   0.548   0.096   1.071  0.8738  0.5796  1.5292
 7431SOL    HW233753   0.613   0.226   1.082  0.4490  1.0284  0.5249
 7432SOL     OW33754   0.724   0.681   4.679 -0.6886 -0.4481 -0.0485
 7432SOL    HW133755   0.705   0.644   4.593  0.3596  0.2222 -0.5587
 7432SOL    HW233756   0.819   0.669   4.678 -0.7744 -1.1992  0.7913
 7433SOL     OW33757   0.012   4.347   0.906  0.2801  0.0848  0.1517
 7433SOL    HW133758   0.047   4.259   0.892 -0.4710  0.0703 -1.6220
 7433SOL    HW233759   0.015   4.377   0.815 -2.0772  2.0672  0.7224
 7434SOL     OW33760   4.561   2.585   4.992  0.0405 -0.1103 -0.2026
 7434SOL    HW133761   4.520   2.587   4.906 -0.8561  1.5142  0.2488
 7434SOL    HW233762   4.584   2.675   5.017  1.1233 -0.8050  1.3135
 7435SOL     OW33763   0.434   2.926  15.803  0.0408  0.1436 -0.0736
 7435SOL    HW133764   0.445   2.860  15.871 -1.8647 -2.5669 -2.3829
 7435SOL    HW233765   0.381   2.877  15.740  0.2949 -0.5401  0.2529
 7436SOL     OW33766   2.018   4.722   2.450 -0.1546 -0.2814  0.3311
 7436SOL    HW133767   2.051   4.656   2.511 -1.9976 -1.2387  0.2913
 7436SOL    HW233768   2.088   0.003   2.386  0.1454 -2.7721  0.4779
 7437SOL     OW33769   1.196   0.269   4.593  0.2905  0.4162  0.4465
 7437SOL    HW133770   1.224   0.360   4.589  2.5302 -0.3581 -1.6479
 7437SOL    HW233771   1.222   0.247   4.683  0.7243  0.9271  0.4463
 7438SOL     OW33772   2.661   1.232   4.522  0.0334 -0.7042 -0.2765
 7438SOL    HW133773   2.748   1.210   4.488  0.6494  0.1410  0.8038
 7438SOL    HW233774   2.610   1.209   4.444 -0.3317 -1.0105  0.0505
 7439SOL     OW33775   2.365   1.951   8.830 -0.4117 -0.0788  0.2248
 7439SOL    HW133776   2.454   1.972   8.858 -1.0052  1.9301  0.6646
 7439SOL    HW233777   2.361   1.857   8.816 -0.5242 -0.1797  0.9396
 7440SOL     OW33778   4.639   0.078   3.210 -0.3852  0.0419  0.4032
 7440SOL    HW133779   4.679   4.717   3.226  1.7928  0.6833 -1.6893
 7440SOL    HW233780   4.702   0.125   3.265 -1.1844  0.1621  1.2216
 7441SOL     OW33781   0.953   0.701   5.328  0.3211 -0.1214  0.2651
 7441SOL    HW133782   1.046   0.681   5.315  0.0009 -0.7167 -1.1830
 7441SOL    HW233783   0.958   0.770   5.394  0.6357  0.2565 -0.1554
 7442SOL     OW33784   3.747   2.702   9.293  0.2416  0.1289 -0.5168
 7442SOL    HW133785   3.840   2.720   9.308  0.0797 -0.0328  0.6764
 7442SOL    HW233786   3.752   2.631   9.230  1.0260  1.3899 -1.8827
 7443SOL     OW33787   0.539   2.137   0.487  0.0347 -0.4942  0.3150
 7443SOL    HW133788   0.620   2.142   0.537  1.2154  0.9938 -1.7788
 7443SOL    HW233789   0.567   2.107   0.401 -0.7652  0.0953 -0.1501
 7444SOL     OW33790   2.743   1.629  16.106  0.2823  0.1087 -0.0540
 7444SOL    HW133791   2.731   1.682  16.185  3.0382  2.5303 -1.2914
 7444SOL    HW233792   2.811   1.566  16.131  0.4279  0.6223  0.8314
 7445SOL     OW33793   4.147   3.307   6.565  0.2411 -0.3599  0.3191
 7445SOL    HW133794   4.199   3.308   6.485  1.4729  1.9403  1.1450
 7445SOL    HW233795   4.150   3.216   6.594 -2.0978 -0.6769 -0.4221
 7446SOL     OW33796   2.868   0.010   1.360  0.1618  0.3405  0.2374
 7446SOL    HW133797   2.789   4.692   1.394 -1.0271  0.2261 -2.6684
 7446SOL    HW233798   2.829   0.088   1.320  1.1233 -0.2915 -1.8902
 7447SOL     OW33799   0.066   4.690   0.647  0.3361  0.0161  0.3671
 7447SOL    HW133800   0.057   4.654   0.559 -1.2409  2.0931 -0.3075
 7447SOL    HW233801   0.135   4.636   0.686 -0.1752 -1.4704 -0.7957
 7448SOL     OW33802   2.644   2.365  12.547  0.3405 -0.6324  0.4789
 7448SOL    HW133803   2.632   2.273  12.524  1.1407 -0.8715  1.0280
 7448SOL    HW233804   2.627   2.364  12.642 -0.5166 -0.5049  0.3266
 7449SOL     OW33805   4.294   4.198  17.314  0.3038  0.1546  0.0878
 7449SOL    HW133806   4.381   4.231  17.292  0.2978  1.6196  2.2013
 7449SOL    HW233807   4.240   4.259  17.263  0.2778 -0.3229 -0.4502
 7450SOL     OW33808   3.755   4.142   8.901  0.2320  0.3075  0.4537
 7450SOL    HW133809   3.695   4.070   8.916  0.9079  0.1072  2.1361
 7450SOL    HW233810   3.698   4.201   8.852  1.3611  0.6007 -0.5131
 7451SOL     OW33811   1.865   0.998   6.285 -0.2346 -0.1604 -0.2184
 7451SOL    HW133812   1.913   0.930   6.332 -0.2930 -0.0232  0.0398
 7451SOL    HW233813   1.933   1.031   6.227  0.0433 -0.7038 -0.1997
 7452SOL     OW33814   2.547   1.564  17.622  0.2652  0.5410 -1.0802
 7452SOL    HW133815   2.582   1.608   0.003  1.0343 -1.4404 -0.2830
 7452SOL    HW233816   2.607   1.490  17.632  1.1557  1.3073 -0.7327
 7453SOL     OW33817   3.911   1.451   3.842  0.2196  0.2250 -0.0453
 7453SOL    HW133818   3.843   1.444   3.910 -0.5016 -0.0678 -0.8030
 7453SOL    HW233819   3.947   1.538   3.862  2.9885 -0.7042 -1.0858
 7454SOL     OW33820   0.034   3.336   2.611 -0.6030  0.2323  0.0207
 7454SOL    HW133821   4.720   3.417   2.579  1.2458  0.6975 -1.0379
 7454SOL    HW233822   4.708   3.263   2.574  1.9910 -0.3509 -2.3727
 7455SOL     OW33823   3.842   2.169   7.688  0.1434 -0.1265 -0.5958
 7455SOL    HW133824   3.923   2.207   7.655  0.0757  0.1126 -0.4892
 7455SOL    HW233825   3.885   2.132   7.765  0.5628 -0.8997 -1.2017
 7456SOL     OW33826   1.274   2.515   4.114 -0.3673  0.4067 -0.1139
 7456SOL    HW133827   1.256   2.568   4.036  0.0274  0.4396 -0.1835
 7456SOL    HW233828   1.233   2.433   4.087  0.6289  0.1163 -0.7478
 7457SOL     OW33829   4.017   3.833   6.086  0.7479 -0.1318 -0.4510
 7457SOL    HW133830   4.091   3.802   6.138  1.8631  0.0528 -1.9363
 7457SOL    HW233831   4.064   3.871   6.012  0.8679 -1.1043 -0.8745
 7458SOL     OW33832   3.669   1.260  11.134  0.1534  0.1844  0.4882
 7458SOL    HW133833   3.758   1.224  11.140  1.0013  2.5316  2.0634
 7458SOL    HW233834   3.637   1.240  11.222 -0.5691  0.7641  0.3636
 7459SOL     OW33835   3.714   4.495   3.727 -0.2311  0.3943  0.1353
 7459SOL    HW133836   3.743   4.418   3.775  1.1485  0.1073 -1.1261
 7459SOL    HW233837   3.783   4.506   3.660 -1.1167 -1.3571 -1.0645
 7460SOL     OW33838   1.210   2.982   7.727 -0.3216  0.3969 -0.0805
 7460SOL    HW133839   1.268   3.008   7.656  1.4262 -0.2817  1.0699
 7460SOL    HW233840   1.244   2.893   7.731 -2.0757 -0.2902 -0.6784
 7461SOL     OW33841   0.186   4.394  14.581 -0.4660 -0.1343 -0.5924
 7461SOL    HW133842   0.133   4.391  14.660  2.7222  0.4272  1.5754
 7461SOL    HW233843   0.112   4.415  14.523 -0.7266  0.5438 -0.0165
 7462SOL     OW33844   1.752   2.337   6.741 -0.5349  0.0084 -0.2470
 7462SOL    HW133845   1.744   2.272   6.810 -0.7356  0.5553  0.2397
 7462SOL    HW233846   1.784   2.414   6.788 -1.3015  1.5011 -2.1691
 7463SOL     OW33847   1.742   4.562  14.884  0.2044 -0.1215  0.0492
 7463SOL    HW133848   1.804   4.585  14.814  0.9571 -0.9494  0.4502
 7463SOL    HW233849   1.749   4.633  14.948 -1.6136  0.4742 -0.4072
 7464SOL     OW33850   1.019   2.240   6.158 -0.2546  0.2430  0.1916
 7464SOL    HW133851   1.076   2.181   6.207  0.8762  0.8805 -0.3706
 7464SOL    HW233852   1.051   2.324   6.189  0.6269  0.3684 -1.0720
 7465SOL     OW33853   2.919   3.458  10.217 -0.3791  0.1701 -0.2046
 7465SOL    HW133854   2.975   3.454  10.140 -1.2917 -2.1560 -0.7473
 7465SOL    HW233855   2.991   3.487  10.272  0.1648  1.6510 -1.6659
 7466SOL     OW33856   1.953   0.986   7.863 -0.6785  1.0973 -0.6463
 7466SOL    HW133857   1.933   0.898   7.832 -2.6039  2.1593 -2.4279
 7466SOL    HW233858   1.952   1.030   7.778 -1.4091  1.4851 -0.4379
 7467SOL     OW33859   0.090   3.353  16.412  0.0037 -0.2420 -0.2296
 7467SOL    HW133860   0.059   3.440  16.436 -0.3189  0.1581 -2.0969
 7467SOL    HW233861   0.178   3.370  16.378  0.6028 -0.1644  1.3932
 7468SOL     OW33862   2.381   4.036   4.955 -0.1374 -0.6981 -0.1549
 7468SOL    HW133863   2.356   4.114   4.906  1.9853  0.7806  1.1034
 7468SOL    HW233864   2.294   4.004   4.981 -0.2407  1.5311  2.2373
 7469SOL     OW33865   3.627   2.482   9.530  0.2634 -0.3017  0.4028
 7469SOL    HW133866   3.538   2.450   9.538  0.2865 -0.8585 -1.4791
 7469SOL    HW233867   3.685   2.415   9.493  0.3214  0.9021 -1.6870
 7470SOL     OW33868   3.780   1.281   7.908 -0.0046 -0.3583 -0.5222
 7470SOL    HW133869   3.706   1.303   7.964 -0.7030  0.7269 -1.8916
 7470SOL    HW233870   3.752   1.197   7.871  0.6964 -0.6947 -0.2893
 7471SOL     OW33871   0.847   4.301   7.950 -0.3805 -0.1212 -0.0634
 7471SOL    HW133872   0.753   4.320   7.948 -0.1592  1.0294  0.8539
 7471SOL    HW233873   0.848   4.213   7.988  1.3702  0.9130  2.2921
 7472SOL     OW33874   3.258   2.469  15.052  0.2088 -0.5529 -0.1074
 7472SOL    HW133875   3.343   2.502  15.021  0.0848 -1.1903 -1.1112
 7472SOL    HW233876   3.212   2.548  15.079  1.3950  0.5809 -1.4282
 7473SOL     OW33877   0.932   3.945   3.852 -0.1478  0.4884 -0.3467
 7473SOL    HW133878   0.958   3.911   3.767 -1.9133  2.1425 -1.5572
 7473SOL    HW233879   1.000   3.906   3.907 -1.2722  1.3487  1.6898
 7474SOL     OW33880   2.242   2.079   2.543  0.0216 -0.4790 -0.0654
 7474SOL    HW133881   2.187   2.130   2.602 -0.1023  0.3359 -0.8671
 7474SOL    HW233882   2.177   2.014   2.516 -0.5667  0.1294 -0.1239
 7475SOL     OW33883   1.467   3.451  12.584  0.6021 -0.1877 -0.0205
 7475SOL    HW133884   1.491   3.416  12.498 -0.7530  0.5744 -0.7067
 7475SOL    HW233885   1.377   3.483  12.575  0.3911 -1.2796 -1.7674
 7476SOL     OW33886   0.260   2.262   6.353  0.5235  0.9690  0.2720
 7476SOL    HW133887   0.256   2.302   6.440  2.2700 -0.0178  0.8133
 7476SOL    HW233888   0.176   2.215   6.347  0.4058  1.5474 -2.6166
 7477SOL     OW33889   1.574   0.598   8.663 -0.4252  0.4207 -0.1391
 7477SOL    HW133890   1.619   0.626   8.743  1.8152 -0.3773 -1.0973
 7477SOL    HW233891   1.513   0.669   8.643 -0.8760  0.1628  0.3307
 7478SOL     OW33892   1.718   0.219   5.807  0.3702 -0.2221 -0.0160
 7478SOL    HW133893   1.634   0.265   5.812  1.3621  1.6565 -0.4180
 7478SOL    HW233894   1.768   0.297   5.833  0.7470 -0.7665  0.8925
 7479SOL     OW33895   2.610   1.479   3.191 -0.2123 -0.1595 -0.0893
 7479SOL    HW133896   2.595   1.551   3.130 -0.7214  0.1689  0.4162
 7479SOL    HW233897   2.662   1.415   3.143 -2.3691 -2.4039  0.5718
 7480SOL     OW33898   0.652   1.310   3.296  0.3407 -0.0029 -0.0402
 7480SOL    HW133899   0.727   1.328   3.240  1.0641 -1.4501  0.4614
 7480SOL    HW233900   0.685   1.347   3.378  0.9651  2.1547 -1.2878
 7481SOL     OW33901   0.489   3.680   4.834  0.8304  0.2500 -0.2130
 7481SOL    HW133902   0.531   3.607   4.787 -0.0413 -0.4950  0.1811
 7481SOL    HW233903   0.493   3.746   4.765  0.7987 -0.2613 -0.7100
 7482SOL     OW33904   2.729   3.297   7.357  0.6173  0.0460 -0.3947
 7482SOL    HW133905   2.780   3.251   7.291  0.8490  0.8119 -0.7570
 7482SOL    HW233906   2.792   3.323   7.424 -0.3619  1.2326  0.0820
 7483SOL     OW33907   1.985   2.433  14.479 -0.3246 -0.1454 -0.5870
 7483SOL    HW133908   1.945   2.479  14.405 -1.4385  0.1019  0.1648
 7483SOL    HW233909   2.031   2.498  14.533  1.3339 -0.2451 -1.8884
 7484SOL     OW33910   4.122   2.427   2.695  0.4846 -0.4831  0.0369
 7484SOL    HW133911   4.203   2.470   2.724 -0.6873  1.3849  0.5465
 7484SOL    HW233912   4.067   2.434   2.773  1.4810  1.3266  0.5769
 7485SOL     OW33913   0.922   1.275  16.375 -0.2937 -0.2927 -0.1046
 7485SOL    HW133914   0.887   1.198  16.419 -0.8599  0.8716  1.4710
 7485SOL    HW233915   0.849   1.295  16.317 -1.4176  0.9133  1.7424
 7486SOL     OW33916   1.440   0.212   1.975  0.1558  0.0654  0.2769
 7486SOL    HW133917   1.452   0.303   2.002 -0.0805  0.1536  0.0836
 7486SOL    HW233918   1.346   0.202   1.962  0.2518  1.2722 -1.3225
 7487SOL     OW33919   3.904   3.367   7.548 -0.2360  0.2171  0.0350
 7487SOL    HW133920   3.814   3.399   7.551  0.2462  1.5822  0.0538
 7487SOL    HW233921   3.894   3.279   7.511 -0.2528  0.8915 -1.5483
 7488SOL     OW33922   2.191   4.077   9.231  0.1342  0.2835  0.2429
 7488SOL    HW133923   2.210   4.168   9.255 -2.7392  0.9794 -0.1710
 7488SOL    HW233924   2.245   4.032   9.295  0.5466 -0.6093 -0.7357
 7489SOL     OW33925   1.686   4.583   6.511 -0.1835 -0.0558  0.6937
 7489SOL    HW133926   1.728   4.613   6.592  1.9223  0.3795 -0.5660
 7489SOL    HW233927   1.697   4.490   6.528  2.6309  0.1925  0.1892
 7490SOL     OW33928   4.447   3.536   2.955 -0.5544 -0.3868 -0.1588
 7490SOL    HW133929   4.407   3.461   2.999  0.3442 -1.8786 -1.9300
 7490SOL    HW233930   4.470   3.589   3.032  1.0670 -0.2963 -0.7081
 7491SOL     OW33931   3.028   4.014   7.251 -0.0407 -0.8183 -0.2016
 7491SOL    HW133932   3.053   4.014   7.344  1.3048  1.5135 -0.5464
 7491SOL    HW233933   2.944   3.970   7.257 -0.3163 -0.1866  0.5708
 7492SOL     OW33934   0.283   3.808   1.848 -0.2472 -0.1103 -0.0231
 7492SOL    HW133935   0.352   3.805   1.913 -0.8804 -0.0631  0.6474
 7492SOL    HW233936   0.260   3.901   1.842  0.5985  0.1518  0.8336
 7493SOL     OW33937   2.591   0.157   7.003  0.1733  0.4545  0.2851
 7493SOL    HW133938   2.600   0.127   7.094  1.0173  1.3210  0.4835
 7493SOL    HW233939   2.663   0.220   7.004 -1.0161  1.8203  1.5825
 7494SOL     OW33940   3.357   3.848  10.170 -0.0709  0.7579 -0.3785
 7494SOL    HW133941   3.350   3.772  10.112  0.0280 -0.3090  1.0122
 7494SOL    HW233942   3.442   3.884  10.145 -0.7383  0.7004 -2.7402
 7495SOL     OW33943   3.675   0.493   8.538  0.2623  0.1657  0.0172
 7495SOL    HW133944   3.692   0.541   8.619  0.9863 -1.0385  0.5830
 7495SOL    HW233945   3.666   0.403   8.570  0.5532 -0.0486 -0.5255
 7496SOL     OW33946   0.362   0.587   4.519 -0.1119 -0.5330 -1.0458
 7496SOL    HW133947   0.277   0.600   4.478 -0.2295  0.6769 -0.4094
 7496SOL    HW233948   0.428   0.635   4.468 -0.7730  0.7084 -0.7234
 7497SOL     OW33949   2.624   2.277   3.062 -0.1253 -0.0146 -0.0127
 7497SOL    HW133950   2.611   2.340   3.132  0.1553  0.6085 -0.5259
 7497SOL    HW233951   2.616   2.322   2.978 -0.8619  1.0989  0.6518
 7498SOL     OW33952   2.867   1.500   5.672  0.1149  0.0780 -0.5522
 7498SOL    HW133953   2.863   1.489   5.767  0.3370 -0.8249 -0.6456
 7498SOL    HW233954   2.958   1.525   5.659 -0.2281  2.4329  1.4220
 7499SOL     OW33955   2.057   1.438  14.113  0.0788 -0.1339 -0.1166
 7499SOL    HW133956   2.105   1.519  14.132  1.6409 -1.7936  3.0313
 7499SOL    HW233957   2.060   1.430  14.018 -1.1261  0.6954 -0.2217
 7500SOL     OW33958   2.161   0.006  13.037  0.4711  0.4873  0.5755
 7500SOL    HW133959   2.248   0.027  13.003 -0.0779  0.9068 -0.5701
 7500SOL    HW233960   2.186   4.700  13.124 -0.9102 -1.0894  0.4334
 7501SOL     OW33961   1.631   3.137   2.477 -0.9423  0.1538 -0.4364
 7501SOL    HW133962   1.621   3.057   2.529  1.5183  0.6615  0.7844
 7501SOL    HW233963   1.583   3.198   2.533  0.3141 -0.0865  0.8956
 7502SOL     OW33964   1.555   3.477   6.139 -0.5448  0.4092  0.5412
 7502SOL    HW133965   1.476   3.442   6.098  0.9461 -0.3719 -1.6328
 7502SOL    HW233966   1.579   3.406   6.199  0.1209 -1.7006 -2.2225
 7503SOL     OW33967   1.194   3.966   7.216 -0.1827 -0.8714  0.3754
 7503SOL    HW133968   1.144   3.968   7.134 -0.0107 -0.9216  0.2695
 7503SOL    HW233969   1.134   4.023   7.264  1.2098  1.1128 -0.2290
 7504SOL     OW33970   0.325   0.631   0.056  0.2227 -0.5669 -0.1092
 7504SOL    HW133971   0.392   0.603   0.118  1.1897  0.4623 -0.6895
 7504SOL    HW233972   0.377   0.673  17.684 -1.0269  0.6678 -0.2949
 7505SOL     OW33973   1.108   0.905   4.971  0.1646  0.6440  0.1080
 7505SOL    HW133974   1.086   0.892   4.878  1.1773 -2.2173  0.2453
 7505SOL    HW233975   1.026   0.932   5.012  0.5258  0.4059  0.9743
 7506SOL     OW33976   1.734   0.056   8.650 -0.2560  0.3247  0.1923
 7506SOL    HW133977   1.768   0.118   8.714 -0.3338 -1.2935  1.7941
 7506SOL    HW233978   1.660   0.107   8.616 -0.6558 -0.8063 -0.6340
 7507SOL     OW33979   2.277   2.579   2.281 -0.3016  0.8736 -0.3834
 7507SOL    HW133980   2.213   2.570   2.351  0.6749  2.2402  0.6917
 7507SOL    HW233981   2.222   2.539   2.214  0.1231 -0.6443  0.1728
 7508SOL     OW33982   0.158   1.234   1.205  0.5087  0.0679  0.3569
 7508SOL    HW133983   0.119   1.314   1.170 -1.2517 -1.6087 -1.5018
 7508SOL    HW233984   0.232   1.263   1.259  0.1848  1.3137  0.1080
 7509SOL     OW33985   4.156   1.539   1.792  0.3074  0.3912 -0.2472
 7509SOL    HW133986   4.233   1.539   1.736  1.7899 -3.1013  1.7569
 7509SOL    HW233987   4.079   1.534   1.735 -0.2943  0.7582  0.5217
 7510SOL     OW33988   0.188   3.153   5.079  0.1173  0.4903 -0.3512
 7510SOL    HW133989   0.168   3.200   4.998  1.3300 -0.6750 -1.3422
 7510SOL    HW233990   0.255   3.091   5.049  0.8088  1.5404 -0.9657
 7511SOL     OW33991   3.055   0.307   1.493  0.4925  0.1173 -0.1515
 7511SOL    HW133992   3.093   0.221   1.476 -0.7706 -0.5075  0.1881
 7511SOL    HW233993   3.001   0.331   1.418 -1.3655 -1.9743  0.5166
 7512SOL     OW33994   2.417   1.896   2.871 -0.2623  0.0505 -0.4569
 7512SOL    HW133995   2.348   1.861   2.814 -0.9792 -0.3230  0.6420
 7512SOL    HW233996   2.364   1.923   2.946  0.9781  1.1904 -0.0085
 7513SOL     OW33997   2.575   1.619   9.373 -0.2985 -0.3671 -0.5035
 7513SOL    HW133998   2.645   1.668   9.330  0.4585 -0.7670  0.2748
 7513SOL    HW233999   2.575   1.675   9.451 -0.4040  1.1938 -1.6211
 7514SOL     OW34000   2.712   3.839  15.519 -0.4731  0.6328 -0.5139
 7514SOL    HW134001   2.630   3.808  15.557  0.7567 -1.5222  0.3655
 7514SOL    HW234002   2.757   3.841  15.603 -1.1275 -1.0722 -0.1298
 7515SOL     OW34003   1.759   2.767   9.741  0.1748  0.2493  0.4106
 7515SOL    HW134004   1.663   2.765   9.741  0.2412 -1.4477 -1.7970
 7515SOL    HW234005   1.780   2.769   9.835  3.2169 -0.9541 -0.2675
 7516SOL     OW34006   3.167   3.292   3.805  0.0242  0.0583 -0.7912
 7516SOL    HW134007   3.091   3.247   3.768  2.0385 -3.5832 -0.5338
 7516SOL    HW234008   3.152   3.377   3.763 -0.0876  0.5168  0.1904
 7517SOL     OW34009   1.850   0.035   4.973 -0.4691  0.7913 -0.1715
 7517SOL    HW134010   1.777   0.066   5.027 -1.2264  0.4223 -0.9700
 7517SOL    HW234011   1.833   0.095   4.899 -2.5951  2.3119  1.5292
 7518SOL     OW34012   1.293   4.452   2.213 -0.5518 -0.3495  0.2461
 7518SOL    HW134013   1.367   4.493   2.258 -0.8264  1.6154 -1.0861
 7518SOL    HW234014   1.334   4.390   2.153  1.3467  1.6616 -0.4887
 7519SOL     OW34015   0.389   3.707  14.484 -0.3408  0.1499 -0.4836
 7519SOL    HW134016   0.393   3.799  14.507 -1.1645  1.2455 -4.8146
 7519SOL    HW234017   0.433   3.706  14.399  0.4326  0.1832 -0.0871
 7520SOL     OW34018   2.544   2.521   3.266  0.2006 -0.5612 -0.0083
 7520SOL    HW134019   2.617   2.577   3.239 -0.8824  0.1832 -1.4002
 7520SOL    HW234020   2.586   2.468   3.334  2.2090 -0.5505 -1.2531
 7521SOL     OW34021   4.478   4.550  17.394 -0.0513 -0.3343 -0.0861
 7521SOL    HW134022   4.403   4.592  17.352 -0.9570 -0.5074  1.3794
 7521SOL    HW234023   4.510   4.630  17.434  3.5123  0.1019 -3.7663
 7522SOL     OW34024   2.560   0.968   5.548 -0.1846  0.8983  0.0059
 7522SOL    HW134025   2.579   0.901   5.482  0.5518 -0.1165  1.2621
 7522SOL    HW234026   2.650   0.972   5.582 -0.1072 -0.1821 -0.0831
 7523SOL     OW34027   3.158   0.952  13.272  0.1221  0.7255  0.2092
 7523SOL    HW134028   3.109   0.960  13.354  0.5173  0.4249  0.4763
 7523SOL    HW234029   3.186   0.861  13.288  0.4848  0.5049 -1.6678
 7524SOL     OW34030   2.379   1.494  17.420  0.0020 -0.1695 -0.0907
 7524SOL    HW134031   2.298   1.501  17.470  2.8020  1.5650  4.1464
 7524SOL    HW234032   2.430   1.510  17.498  0.9953 -2.6166 -0.2485
 7525SOL     OW34033   2.775   2.334   6.113  0.0694 -0.4672 -0.0223
 7525SOL    HW134034   2.852   2.375   6.152 -0.2160 -1.4928  1.6486
 7525SOL    HW234035   2.765   2.404   6.049 -0.1529  0.6799  1.2489
 7526SOL     OW34036   3.851   2.893   4.804 -0.2222  0.0211 -0.9949
 7526SOL    HW134037   3.890   2.978   4.785 -1.3155  0.2335 -2.2666
 7526SOL    HW234038   3.925   2.837   4.778  0.5831  1.0706 -0.9599
 7527SOL     OW34039   4.195   3.753   4.450 -0.3429 -0.0686  0.1389
 7527SOL    HW134040   4.115   3.778   4.496  1.3448  0.4220  2.7409
 7527SOL    HW234041   4.247   3.832   4.467  1.0866 -0.9728 -0.0677
 7528SOL     OW34042   0.693   0.274  10.438 -0.5523  0.0846 -0.2407
 7528SOL    HW134043   0.627   0.318  10.384 -1.1025  0.6814  0.9067
 7528SOL    HW234044   0.700   0.344  10.503  1.0774  1.9462 -2.4383
 7529SOL     OW34045   4.497   1.564   8.512  0.1068 -0.4581 -0.0483
 7529SOL    HW134046   4.558   1.523   8.450  1.4989  0.1646  0.9150
 7529SOL    HW234047   4.445   1.484   8.523 -1.2497  0.6771  1.6791
 7530SOL     OW34048   3.312   1.971   9.826 -0.0720 -0.3562 -0.4801
 7530SOL    HW134049   3.308   2.067   9.822  1.6364 -0.2403  0.4206
 7530SOL    HW234050   3.325   1.960   9.731 -1.6381 -1.2971 -0.5751
 7531SOL     OW34051   0.872   4.420   7.732  0.2618  0.3148  0.2583
 7531SOL    HW134052   0.869   4.375   7.816 -1.5689  1.8179  1.0084
 7531SOL    HW234053   0.889   4.507   7.769 -2.6648  0.2628  1.6860
 7532SOL     OW34054   2.813   3.411   0.346  0.1046 -0.4933 -0.4603
 7532SOL    HW134055   2.826   3.501   0.376  1.0296 -1.0538  0.8228
 7532SOL    HW234056   2.863   3.361   0.412  0.5874 -2.0586 -1.9997
 7533SOL     OW34057   1.468   0.317  10.160  0.1432  0.2480 -0.8178
 7533SOL    HW134058   1.555   0.357  10.167 -0.1055  0.6961 -0.3032
 7533SOL    HW234059   1.461   0.293  10.068 -0.1605 -1.5320 -0.3327
 7534SOL     OW34060   4.668   4.108  14.743 -0.4789 -0.0042 -0.0322
 7534SOL    HW134061   4.655   4.130  14.836 -1.7425 -3.5001  0.6088
 7534SOL    HW234062   4.616   4.174  14.698 -0.4870 -0.3151 -0.4816
 7535SOL     OW34063   4.257   3.939  17.362 -0.3288 -0.1521 -0.3543
 7535SOL    HW134064   4.256   4.030  17.335  0.1580 -0.1838 -0.4903
 7535SOL    HW234065   4.321   3.931  17.434  0.7151 -2.3238 -1.5233
 7536SOL     OW34066   3.776   1.113  11.663  0.8603 -0.3353  0.1921
 7536SOL    HW134067   3.779   1.205  11.690  1.7022  0.0156 -1.0932
 7536SOL    HW234068   3.866   1.087  11.644  0.9496 -0.7674  1.1934
 7537SOL     OW34069   3.238   3.245   6.013  0.4387  0.9099  0.2478
 7537SOL    HW134070   3.306   3.298   5.971  0.1963  1.4372  0.5162
 7537SOL    HW234071   3.254   3.152   5.998 -2.0375  0.2586  1.5702
 7538SOL     OW34072   3.258   3.446  12.240  0.0892 -0.0016  0.2940
 7538SOL    HW134073   3.172   3.456  12.279  0.4370  0.7315  0.8734
 7538SOL    HW234074   3.313   3.461  12.318  0.6451  4.6974 -1.0289
 7539SOL     OW34075   4.702   3.716  11.914 -0.8634 -0.2547  0.0846
 7539SOL    HW134076   0.066   3.738  11.942 -0.8015 -0.5965  0.1616
 7539SOL    HW234077   4.647   3.735  11.989 -0.1054 -0.5740  0.7166
 7540SOL     OW34078   2.657   3.599   7.314  0.1975 -0.0449 -0.1685
 7540SOL    HW134079   2.699   3.514   7.313  1.6669  0.6750  2.3890
 7540SOL    HW234080   2.581   3.586   7.371 -0.1562 -1.6964 -1.0157
 7541SOL     OW34081   0.987   1.868  14.835  0.0717  0.4654  0.3207
 7541SOL    HW134082   0.980   1.829  14.748  0.5956  1.1945 -0.0420
 7541SOL    HW234083   1.079   1.893  14.834 -0.5055  2.7547  4.4729
 7542SOL     OW34084   0.845   3.220   7.299 -0.0716  0.1985  0.0131
 7542SOL    HW134085   0.768   3.260   7.339 -0.7592 -1.3100  0.1888
 7542SOL    HW234086   0.904   3.277   7.348 -0.4061  0.0922  0.5450
 7543SOL     OW34087   4.170   1.491   9.045 -0.0494 -0.0991  0.5735
 7543SOL    HW134088   4.175   1.480   9.140  1.9639  0.9921  0.5880
 7543SOL    HW234089   4.252   1.536   9.027 -0.9810  1.1865 -0.4758
 7544SOL     OW34090   3.284   3.572   3.427 -0.1094  0.1727  0.2633
 7544SOL    HW134091   3.374   3.544   3.412  0.5317  1.4542  1.7425
 7544SOL    HW234092   3.297   3.601   3.518  3.3709 -1.4973  0.3162
 7545SOL     OW34093   1.939   4.332  17.133 -0.2859  0.3846 -0.4371
 7545SOL    HW134094   1.963   4.378  17.213  0.9200  0.2236 -0.7072
 7545SOL    HW234095   1.958   4.390  17.059  0.5139 -1.0798 -1.3705
 7546SOL     OW34096   2.796   3.411   3.794 -0.4689 -0.0711 -0.3687
 7546SOL    HW134097   2.841   3.341   3.747  2.1709  0.3234  1.6282
 7546SOL    HW234098   2.794   3.379   3.884  1.6311 -0.2221 -0.3863
 7547SOL     OW34099   1.457   2.321  12.385  0.0151 -0.1774 -0.3322
 7547SOL    HW134100   1.474   2.360  12.470  2.9663  0.3332 -1.1532
 7547SOL    HW234101   1.477   2.229  12.403  0.8074 -0.0422 -0.5336
 7548SOL     OW34102   4.132   0.190   2.815  0.2355  0.0316 -0.0465
 7548SOL    HW134103   4.129   0.188   2.720 -1.5483  0.6155 -0.0046
 7548SOL    HW234104   4.201   0.254   2.836 -1.2079  1.2584  0.9748
 7549SOL     OW34105   0.610   4.384  17.012 -0.6267 -0.1126  0.2182
 7549SOL    HW134106   0.567   4.435  16.943 -1.5699 -0.5975  0.4376
 7549SOL    HW234107   0.666   4.336  16.951 -0.4870 -0.1565  0.3823
 7550SOL     OW34108   3.801   4.501   4.443  1.1567 -0.5919  0.2366
 7550SOL    HW134109   3.745   4.439   4.395 -1.4663 -0.7672  3.5808
 7550SOL    HW234110   3.744   4.575   4.463 -1.5175 -1.7698 -2.9735
 7551SOL     OW34111   4.075   0.836   2.766 -0.1893 -0.1169 -0.3204
 7551SOL    HW134112   3.996   0.784   2.750 -0.9412  0.5066  1.3670
 7551SOL    HW234113   4.070   0.829   2.862  3.4016  1.6555 -0.0141
 7552SOL     OW34114   3.692   4.712   7.329  0.0821 -0.3969 -0.3926
 7552SOL    HW134115   3.765   0.004   7.390  0.7736 -1.3174 -0.9748
 7552SOL    HW234116   3.713   0.045   7.255 -1.2658  0.7412  0.1244
 7553SOL     OW34117   4.641   3.944   5.670  0.4453  0.2754  0.2943
 7553SOL    HW134118   4.695   4.021   5.650  2.9676 -1.8266 -0.9404
 7553SOL    HW234119   4.556   3.970   5.633  1.1113  1.8624 -0.1327
 7554SOL     OW34120   4.422   1.420   3.765 -0.2792 -0.1193 -0.3816
 7554SOL    HW134121   4.507   1.393   3.801 -0.8425  0.9708  1.7599
 7554SOL    HW234122   4.367   1.353   3.805 -1.6861  1.4883  0.3566
 7555SOL     OW34123   4.586   0.435   5.057 -0.5988 -0.3446  0.0883
 7555SOL    HW134124   4.611   0.442   4.965  1.6203  3.5164  0.9509
 7555SOL    HW234125   4.491   0.440   5.046 -0.5800  2.0573  0.9508
 7556SOL     OW34126   2.953   2.623   4.903 -0.3194 -0.2796  0.4377
 7556SOL    HW134127   2.896   2.601   4.829 -0.5504 -1.6716  1.0274
 7556SOL    HW234128   3.000   2.539   4.906  0.9157  0.3692 -0.5208
 7557SOL     OW34129   3.759   1.979   1.188 -0.4936  0.1313  0.7959
 7557SOL    HW134130   3.758   2.059   1.241 -1.8867  0.6612 -0.0192
 7557SOL    HW234131   3.748   1.906   1.249 -0.9406 -0.3535  0.1318
 7558SOL     OW34132   0.997   0.836   3.098 -0.5020 -0.4864 -0.1723
 7558SOL    HW134133   0.962   0.884   3.173 -0.0823  1.1320 -1.0077
 7558SOL    HW234134   0.923   0.824   3.039  1.2621 -1.9467 -2.1335
 7559SOL     OW34135   1.823   4.474   2.971 -0.0211  0.7616  0.7649
 7559SOL    HW134136   1.895   4.536   2.982  0.4237  0.4916 -0.5887
 7559SOL    HW234137   1.761   4.531   2.927  0.4336  0.2158 -0.5761
 7560SOL     OW34138   3.355   3.070   5.017 -0.5384 -0.3421 -0.5017
 7560SOL    HW134139   3.359   2.982   4.980 -2.3985 -0.3276 -0.7503
 7560SOL    HW234140   3.446   3.088   5.039 -0.6746 -0.1549 -0.0724
 7561SOL     OW34141   3.101   2.354  11.932 -0.0801 -0.1243 -0.5293
 7561SOL    HW134142   3.134   2.398  11.854  0.1542  3.3313  1.4933
 7561SOL    HW234143   3.080   2.431  11.985 -0.3759 -0.7326  0.2360
 7562SOL     OW34144   1.823   3.200   9.650  0.0849  0.4939  1.0241
 7562SOL    HW134145   1.909   3.229   9.622 -0.1847  0.8315  0.5270
 7562SOL    HW234146   1.771   3.276   9.623  2.5756  1.0634 -2.0932
 7563SOL     OW34147   1.058   0.050   8.615 -0.2264  0.4896  0.5485
 7563SOL    HW134148   1.063   0.105   8.694 -1.7961  1.8662 -0.2960
 7563SOL    HW234149   0.963   0.034   8.616 -0.4324  1.5919 -1.2532
 7564SOL     OW34150   2.083   1.587  13.502 -0.0085  0.7483  0.0620
 7564SOL    HW134151   2.177   1.600  13.487 -0.0348  1.4075  0.5001
 7564SOL    HW234152   2.061   1.678  13.484  0.1579  0.8465  0.3608
 7565SOL     OW34153   4.392   2.982   5.655  0.5960 -0.5863 -0.4301
 7565SOL    HW134154   4.476   3.023   5.678  0.1732  1.3393 -2.3165
 7565SOL    HW234155   4.425   2.927   5.584 -1.2394 -0.8366 -1.0859
 7566SOL     OW34156   1.517   4.379   4.177  0.1138 -0.1567 -0.3961
 7566SOL    HW134157   1.573   4.347   4.106  0.3759 -0.4739 -0.0461
 7566SOL    HW234158   1.462   4.438   4.126  1.1821  2.6850  1.7511
 7567SOL     OW34159   0.061   1.702   6.388 -0.3300  0.3158 -0.4398
 7567SOL    HW134160   0.028   1.744   6.468  2.2088  3.1399 -0.8410
 7567SOL    HW234161   0.156   1.691   6.397 -0.3124 -0.4895 -1.6173
 7568SOL     OW34162   4.229   0.623   3.652 -0.5327  0.4689  0.0707
 7568SOL    HW134163   4.206   0.570   3.729  0.5401  0.8802  0.6825
 7568SOL    HW234164   4.142   0.621   3.613 -1.3253 -0.9266  1.9226
 7569SOL     OW34165   2.167   1.624  17.567 -0.8356 -0.2534 -0.3254
 7569SOL    HW134166   2.160   1.711  17.526 -1.2001 -0.0065  0.2531
 7569SOL    HW234167   2.189   1.643  17.658  0.0332  0.6607 -0.7303
 7570SOL     OW34168   4.641   2.590  16.278 -0.3069 -0.4464  0.4557
 7570SOL    HW134169   4.604   2.678  16.275  0.0822 -0.3112 -0.2743
 7570SOL    HW234170   4.651   2.568  16.185 -1.4750 -1.0838  0.4696
 7571SOL     OW34171   2.614   4.361  15.177 -0.7535  0.0919  0.0648
 7571SOL    HW134172   2.695   4.333  15.134  1.0463  1.7031  2.4463
 7571SOL    HW234173   2.645   4.388  15.263  2.2130  0.5921 -1.1651
 7572SOL     OW34174   1.180   1.419  16.065  0.0473  0.1708  0.1540
 7572SOL    HW134175   1.168   1.497  16.011 -1.6126  0.5839  1.1098
 7572SOL    HW234176   1.141   1.349  16.012 -0.7881  2.1706 -1.8701
 7573SOL     OW34177   3.416   3.022   3.796  0.3577 -0.1872  0.4914
 7573SOL    HW134178   3.414   3.083   3.722  0.8319  1.9782  2.2521
 7573SOL    HW234179   3.503   2.988   3.776  1.0026 -0.3452  3.6411
 7574SOL     OW34180   0.155   1.428   6.448 -0.4046  0.1051 -0.4187
 7574SOL    HW134181   0.149   1.466   6.536 -2.4179 -0.6394 -0.2345
 7574SOL    HW234182   0.136   1.505   6.394  1.6620  1.7221  1.1591
 7575SOL     OW34183   3.962   1.179   7.355  0.4783  0.3836 -0.0333
 7575SOL    HW134184   3.937   1.151   7.267 -1.2845 -0.7603  0.8390
 7575SOL    HW234185   3.879   1.199   7.398  1.3889  0.2003  1.8138
 7576SOL     OW34186   3.440   1.777   7.543 -0.1513 -0.5358  0.2623
 7576SOL    HW134187   3.439   1.866   7.507  1.0516 -0.0001  1.5901
 7576SOL    HW234188   3.400   1.804   7.625 -1.0393 -0.2729 -0.2550
 7577SOL     OW34189   0.339   0.704   7.912 -0.7423 -0.2381 -0.1345
 7577SOL    HW134190   0.426   0.681   7.944 -0.7350  0.6694  0.5187
 7577SOL    HW234191   0.303   0.623   7.876 -2.3398  0.3214  0.1863
 7578SOL     OW34192   1.423   3.824   7.269 -0.1941  0.4422  0.4944
 7578SOL    HW134193   1.338   3.857   7.242 -0.5059 -1.8962 -1.3459
 7578SOL    HW234194   1.432   3.867   7.355  1.2744 -2.5015  1.8186
 7579SOL     OW34195   1.160   2.876   8.078  0.6402  0.0874  0.1597
 7579SOL    HW134196   1.241   2.920   8.105 -0.2788  0.9517  1.4882
 7579SOL    HW234197   1.122   2.843   8.159 -1.3570 -0.1204 -0.8723
 7580SOL     OW34198   3.534   3.762   4.486 -0.3527  0.1775  0.4437
 7580SOL    HW134199   3.506   3.756   4.395  1.4472  0.8968 -0.1486
 7580SOL    HW234200   3.471   3.719   4.544  0.6171 -0.0861  1.2850
 7581SOL     OW34201   4.093   0.097   0.264  0.1555  0.7484  0.6469
 7581SOL    HW134202   4.084   0.018   0.318 -1.0594 -0.5003 -1.3876
 7581SOL    HW234203   4.178   0.080   0.225 -0.5525 -0.8479 -0.2077
 7582SOL     OW34204   1.569   1.586  15.776  0.1487 -0.3466 -0.5397
 7582SOL    HW134205   1.616   1.668  15.792  1.1604 -1.1082  0.3831
 7582SOL    HW234206   1.599   1.572  15.686  2.0300  1.6164 -0.2246
 7583SOL     OW34207   0.665   4.014   2.116  0.5927  0.6585  0.0297
 7583SOL    HW134208   0.711   4.004   2.200 -0.6936 -2.0841  0.4205
 7583SOL    HW234209   0.579   4.039   2.149  0.1645  0.5243 -0.9941
 7584SOL     OW34210   4.456   2.175   2.058  0.2257  0.6872 -0.5517
 7584SOL    HW134211   4.405   2.192   2.137  0.7782  1.2714 -0.3157
 7584SOL    HW234212   4.515   2.105   2.087 -0.7274 -0.0326 -0.3484
 7585SOL     OW34213   1.576   1.532   2.755 -0.2237  0.1409 -0.4681
 7585SOL    HW134214   1.649   1.521   2.817 -0.3923  1.7176  0.0139
 7585SOL    HW234215   1.553   1.625   2.759  0.0991  0.1956  0.1882
 7586SOL     OW34216   3.092   1.553   0.183 -0.1150 -0.0928 -0.0547
 7586SOL    HW134217   3.102   1.479   0.242  2.6537  0.2756 -0.0689
 7586SOL    HW234218   3.099   1.517   0.095 -1.9772  0.6723 -0.5097
 7587SOL     OW34219   1.241   2.572   7.667 -0.6832 -0.2412 -0.3293
 7587SOL    HW134220   1.171   2.600   7.608  0.0357  1.4355 -0.3635
 7587SOL    HW234221   1.228   2.618   7.749  2.3495 -0.7165  0.4255
 7588SOL     OW34222   1.253   4.144   0.815  0.1390  0.2556 -0.0912
 7588SOL    HW134223   1.203   4.224   0.797 -1.7034  0.1483  4.5718
 7588SOL    HW234224   1.184   4.080   0.834  1.9596 -1.9895 -1.0430
 7589SOL     OW34225   2.021   3.903   0.227  0.0042  0.1256  0.3521
 7589SOL    HW134226   1.985   3.966   0.289 -0.5423 -0.1726  0.3300
 7589SOL    HW234227   2.086   3.951   0.174 -1.4455 -1.1657 -2.6014
 7590SOL     OW34228   2.365   0.586   3.926  0.8787 -0.2219 -0.9692
 7590SOL    HW134229   2.285   0.534   3.921  0.5336  0.1405  0.7033
 7590SOL    HW234230   2.336   0.675   3.907 -0.4385  0.0890  2.4752
 7591SOL     OW34231   3.359   0.484   1.964  0.1352  0.1279 -0.3076
 7591SOL    HW134232   3.371   0.572   1.999 -1.0941  1.0041 -2.0872
 7591SOL    HW234233   3.343   0.509   1.873  0.6090  0.0789 -0.4071
 7592SOL     OW34234   2.745   3.074   2.958  0.0525 -0.1370 -0.1967
 7592SOL    HW134235   2.833   3.041   2.940  0.4808  1.2270 -0.5886
 7592SOL    HW234236   2.698   3.072   2.875  0.0532 -0.9448 -0.1776
 7593SOL     OW34237   0.127   0.187   4.452  0.1631  0.3724  0.3375
 7593SOL    HW134238   0.115   0.206   4.545 -1.2494  2.3902 -0.2443
 7593SOL    HW234239   0.136   0.092   4.461  0.9870  0.7243  3.0573
 7594SOL     OW34240   1.514   0.177   5.584 -0.4308  0.2073 -0.0316
 7594SOL    HW134241   1.475   0.116   5.521  0.2125 -0.4049  0.1645
 7594SOL    HW234242   1.517   0.122   5.661 -0.1137  0.9025  0.4520
 7595SOL     OW34243   0.664   3.124   5.991  0.2260 -0.1290 -0.0166
 7595SOL    HW134244   0.680   3.043   5.942 -1.5410 -1.0960  1.0163
 7595SOL    HW234245   0.615   3.092   6.067  0.3278  0.2490  0.2092
 7596SOL     OW34246   3.828   0.798   1.748  0.3603 -0.2664 -0.8085
 7596SOL    HW134247   3.875   0.717   1.728 -1.2671 -1.4851  0.3214
 7596SOL    HW234248   3.900   0.837   1.798 -1.0814 -2.8427  3.3629
 7597SOL     OW34249   1.227   2.924  14.452 -0.4301  0.1922  0.0898
 7597SOL    HW134250   1.168   2.993  14.421 -0.0694  0.6450  0.4015
 7597SOL    HW234251   1.222   2.943  14.546 -3.8924  1.4176 -0.3557
 7598SOL     OW34252   3.680   2.916   8.763  0.1683 -0.2911 -0.0765
 7598SOL    HW134253   3.765   2.960   8.764 -0.5870  1.1230  1.3083
 7598SOL    HW234254   3.624   2.973   8.709  2.6879  2.6329  0.3553
 7599SOL     OW34255   2.793   0.571   9.538  0.8755 -0.2518 -0.1969
 7599SOL    HW134256   2.704   0.565   9.504  0.5494 -0.8684  0.7745
 7599SOL    HW234257   2.793   0.664   9.563  3.7453 -0.1737 -0.4853
 7600SOL     OW34258   1.867   3.252   8.069  0.7028  0.0776 -0.0436
 7600SOL    HW134259   1.854   3.339   8.033  0.5404  1.5438  3.6182
 7600SOL    HW234260   1.938   3.213   8.018 -0.0141 -1.2485 -0.0406
 7601SOL     OW34261   0.374   4.070   1.098 -0.1784  0.0764 -0.1990
 7601SOL    HW134262   0.428   4.064   1.177  3.3417  0.1114 -2.5868
 7601SOL    HW234263   0.338   3.981   1.093 -0.0340 -0.0403  0.9975
 7602SOL     OW34264   1.846   2.814   2.757  0.3722  0.2090  0.3334
 7602SOL    HW134265   1.876   2.775   2.675  1.8620  0.3467  0.8191
 7602SOL    HW234266   1.861   2.742   2.819 -0.8755 -1.1833 -1.0131
 7603SOL     OW34267   0.671   0.875   4.213 -0.3736  0.5601  0.0080
 7603SOL    HW134268   0.745   0.818   4.233 -1.2606 -0.4329  0.4497
 7603SOL    HW234269   0.686   0.962   4.250 -0.8999  0.7385 -0.1959
 7604SOL     OW34270   4.050   0.936   9.334  0.3274  0.9617 -0.4139
 7604SOL    HW134271   4.093   0.867   9.283  1.1360 -0.6952  2.5149
 7604SOL    HW234272   4.088   1.014   9.293  2.1919  0.2181 -0.1136
 7605SOL     OW34273   1.522   1.095   9.416 -0.2566 -0.5707  0.8366
 7605SOL    HW134274   1.486   1.054   9.338  2.3716 -0.6500 -0.3291
 7605SOL    HW234275   1.490   1.038   9.486  0.6326 -0.7937  1.0716
 7606SOL     OW34276   2.146   1.132   4.396 -0.0818 -0.2109 -0.4386
 7606SOL    HW134277   2.222   1.077   4.377 -0.8349 -0.9736 -1.2920
 7606SOL    HW234278   2.082   1.061   4.405 -0.9033  0.8172  1.7040
 7607SOL     OW34279   3.077   3.093  10.116 -0.4152 -0.2128 -0.0329
 7607SOL    HW134280   3.002   3.089  10.175 -0.4652 -0.6774 -0.1297
 7607SOL    HW234281   3.126   3.016  10.145 -0.1222 -0.2768 -0.6931
 7608SOL     OW34282   4.110   3.649   1.601 -0.3085 -0.7275  0.0796
 7608SOL    HW134283   4.202   3.626   1.615 -0.9975 -2.0358  2.4935
 7608SOL    HW234284   4.125   3.743   1.592  0.8104 -0.8485  0.7600
 7609SOL     OW34285   0.373   3.368   4.483  0.6488  0.0369 -0.0396
 7609SOL    HW134286   0.381   3.320   4.400 -0.5801 -0.1970 -0.0372
 7609SOL    HW234287   0.283   3.343   4.507  0.2476  1.1534 -0.3614
 7610SOL     OW34288   3.240   3.917   6.857  0.4558 -0.0084  0.0333
 7610SOL    HW134289   3.271   3.872   6.935  0.5228 -1.9648 -1.1022
 7610SOL    HW234290   3.244   3.855   6.783  1.3816  0.9105 -0.6836
 7611SOL     OW34291   0.998   2.156   6.909  0.0932  0.1335 -0.0734
 7611SOL    HW134292   0.912   2.117   6.921 -0.0837  0.0289 -1.6587
 7611SOL    HW234293   1.014   2.173   6.816 -0.4360 -1.8182 -0.5371
 7612SOL     OW34294   3.530   2.619  14.540 -0.1163 -0.4509 -0.2698
 7612SOL    HW134295   3.503   2.697  14.589 -0.3646 -0.2646 -0.7075
 7612SOL    HW234296   3.565   2.654  14.458  0.3408 -0.7506 -0.2029
 7613SOL     OW34297   2.775   3.324   5.167 -0.4450 -0.1340 -0.5475
 7613SOL    HW134298   2.842   3.379   5.207 -1.4314  0.5834  0.1354
 7613SOL    HW234299   2.812   3.241   5.198 -0.7565 -0.0160  0.1540
 7614SOL     OW34300   2.023   0.557   8.547  0.0532 -0.8712  0.1886
 7614SOL    HW134301   2.112   0.566   8.513 -0.4476 -0.3943 -1.0104
 7614SOL    HW234302   1.980   0.577   8.464  0.8893 -0.1652 -0.0722
 7615SOL     OW34303   2.211   3.647  11.118  0.1540 -0.0675  0.6495
 7615SOL    HW134304   2.147   3.710  11.084 -1.0255 -1.7336 -0.2045
 7615SOL    HW234305   2.289   3.702  11.115 -1.3660  2.0119 -0.4190
 7616SOL     OW34306   3.489   3.728   4.210 -0.0640  0.3463 -0.5517
 7616SOL    HW134307   3.506   3.634   4.208 -3.2832 -0.2520  0.0728
 7616SOL    HW234308   3.400   3.743   4.178 -0.1113 -0.0775 -0.6140
 7617SOL     OW34309   1.437   3.343   8.890 -0.1579 -0.5489 -0.3146
 7617SOL    HW134310   1.402   3.264   8.930 -0.5303  0.3705  1.1836
 7617SOL    HW234311   1.407   3.405   8.957 -0.3673  1.2433 -2.0712
 7618SOL     OW34312   0.391   4.384  10.227 -0.0253 -0.1195 -0.0200
 7618SOL    HW134313   0.464   4.332  10.262 -0.6625  0.1330  1.6332
 7618SOL    HW234314   0.330   4.311  10.217 -1.7775  0.7900  4.4771
 7619SOL     OW34315   2.374   2.096  13.686 -0.0485  0.6782  0.1987
 7619SOL    HW134316   2.411   2.072  13.601 -1.0279 -1.2714  0.3269
 7619SOL    HW234317   2.442   2.151  13.723 -0.0938 -0.3511  1.8093
 7620SOL     OW34318   0.001   0.606  15.983 -0.0924 -0.0292  0.2879
 7620SOL    HW134319   4.650   0.573  16.033 -1.7692  0.7779 -1.7064
 7620SOL    HW234320   0.040   0.524  15.952  3.2620  2.2345 -1.4429
 7621SOL     OW34321   3.456   3.359   5.170 -0.4575 -0.1655 -0.0160
 7621SOL    HW134322   3.551   3.343   5.170 -0.4846 -0.3176 -0.0043
 7621SOL    HW234323   3.430   3.377   5.080 -1.5009  0.1954  0.3604
 7622SOL     OW34324   0.394   3.916   3.008  0.2150  0.2556 -0.2078
 7622SOL    HW134325   0.332   3.857   3.052  1.3912  0.7001  2.0449
 7622SOL    HW234326   0.454   3.856   2.963  3.0050  2.3201  0.8051
 7623SOL     OW34327   2.757   3.974   3.269 -0.0018 -0.4552 -0.1330
 7623SOL    HW134328   2.742   3.938   3.356 -0.2596  0.7332  0.3110
 7623SOL    HW234329   2.665   3.992   3.249 -0.3803  0.5522  2.6005
 7624SOL     OW34330   2.659   2.115   4.583 -0.2280 -0.2594 -0.1168
 7624SOL    HW134331   2.645   2.022   4.603 -2.3486 -0.0011 -0.3784
 7624SOL    HW234332   2.570   2.132   4.550  0.3685  3.4687  0.1578
 7625SOL     OW34333   4.390   4.210   6.689 -0.1909  0.2994 -0.4559
 7625SOL    HW134334   4.398   4.138   6.751  0.9252 -0.6159 -1.6534
 7625SOL    HW234335   4.298   4.194   6.666 -0.0313 -0.9978 -0.2141
 7626SOL     OW34336   0.653   4.104   4.579  0.1099  0.4464  0.1611
 7626SOL    HW134337   0.647   4.196   4.553  0.0938 -0.2497 -2.2594
 7626SOL    HW234338   0.689   4.106   4.668  0.0729 -3.4502  0.2569
 7627SOL     OW34339   0.699   1.879   8.194 -0.4645  0.0572 -0.1964
 7627SOL    HW134340   0.625   1.868   8.254 -0.2372 -2.0432 -0.2994
 7627SOL    HW234341   0.751   1.947   8.236 -0.9634 -0.5959  1.4461
 7628SOL     OW34342   4.252   3.212   2.344  1.1610 -0.3653 -0.3844
 7628SOL    HW134343   4.178   3.271   2.327  0.7631 -0.4266  1.1655
 7628SOL    HW234344   4.264   3.218   2.439 -0.4178 -1.8909 -0.0921
 7629SOL     OW34345   1.759   4.308   3.535  0.5219  0.1844 -0.5011
 7629SOL    HW134346   1.750   4.343   3.447 -1.3495  1.0572  0.0631
 7629SOL    HW234347   1.692   4.240   3.530 -0.6158  1.4688 -2.4933
 7630SOL     OW34348   0.426   2.931   0.488 -0.6011 -0.0959  0.3072
 7630SOL    HW134349   0.350   2.965   0.442  0.9926  1.4629 -1.2027
 7630SOL    HW234350   0.409   2.837   0.496  0.6944 -0.2705  1.1187
 7631SOL     OW34351   1.849   4.701   4.593 -0.0091  0.4826  0.2044
 7631SOL    HW134352   1.861   0.071   4.577  0.9936  0.5431  1.3469
 7631SOL    HW234353   1.938   4.674   4.615  0.5147  1.0818 -1.1751
 7632SOL     OW34354   0.194   1.190   2.278 -0.3756 -0.5641  0.4223
 7632SOL    HW134355   0.180   1.282   2.298 -1.0783 -0.5827  0.0227
 7632SOL    HW234356   0.106   1.154   2.265 -0.1158 -0.3704 -1.7823
 7633SOL     OW34357   1.894   3.631   4.944  0.5985  0.4017  0.3093
 7633SOL    HW134358   1.978   3.620   4.988  2.2109 -0.1065 -2.9818
 7633SOL    HW234359   1.906   3.603   4.854 -1.4045  1.4199 -0.2995
 7634SOL     OW34360   2.583   0.607   4.306  0.3798  0.1350  0.1247
 7634SOL    HW134361   2.651   0.593   4.240  1.4941 -2.6145  1.8348
 7634SOL    HW234362   2.601   0.694   4.343  0.2278  0.2337 -0.0337
 7635SOL     OW34363   3.858   1.129   5.257 -0.4968  0.0205 -0.2226
 7635SOL    HW134364   3.927   1.154   5.195 -0.8050  0.9704 -0.1861
 7635SOL    HW234365   3.904   1.079   5.324 -1.6904 -1.0933 -0.2304
 7636SOL     OW34366   0.277   3.119   7.382 -0.0430  0.3649  0.2089
 7636SOL    HW134367   0.310   3.207   7.398 -2.3894  1.3029 -0.0461
 7636SOL    HW234368   0.221   3.106   7.459  2.2720  0.9770  1.9964
 7637SOL     OW34369   2.935   2.095   5.893 -0.2395 -0.1496 -0.1831
 7637SOL    HW134370   2.881   2.142   5.829  3.8700  3.0807 -1.2334
 7637SOL    HW234371   2.869   2.033   5.925 -0.4615 -1.4938 -3.3026
 7638SOL     OW34372   0.296   1.361  13.580  0.4626  0.2697  0.1362
 7638SOL    HW134373   0.363   1.428  13.563 -0.0966  0.5890 -0.8444
 7638SOL    HW234374   0.269   1.379  13.669 -2.3393  0.4846 -0.7751
 7639SOL     OW34375   1.103   1.294   8.461  0.3446  0.0648 -0.0561
 7639SOL    HW134376   1.045   1.220   8.481  1.1534 -0.3286  0.7775
 7639SOL    HW234377   1.170   1.248   8.411  0.6236  1.1826 -0.7113
 7640SOL     OW34378   0.985   1.731   7.882  0.0848 -0.4179  0.3273
 7640SOL    HW134379   0.893   1.710   7.898 -0.4286  1.0208 -0.7258
 7640SOL    HW234380   0.971   1.770   7.796 -1.9519 -1.3528  0.2264
 7641SOL     OW34381   3.486   3.075   2.343  0.5412 -0.0880 -0.2710
 7641SOL    HW134382   3.407   3.118   2.312 -0.4082 -1.3016  0.4493
 7641SOL    HW234383   3.557   3.139   2.345  0.1404  0.3920 -1.8455
 7642SOL     OW34384   1.783   1.990   7.343  0.2864 -0.1970  0.2197
 7642SOL    HW134385   1.817   1.931   7.275 -0.1197 -1.4684  1.1062
 7642SOL    HW234386   1.833   1.949   7.414 -0.1599 -2.0935 -0.5676
 7643SOL     OW34387   4.369   4.418  16.167 -0.2856 -0.4179 -0.3120
 7643SOL    HW134388   4.373   4.500  16.217  1.4681 -1.3569  1.0984
 7643SOL    HW234389   4.462   4.409  16.148 -0.3323  1.2930 -1.3592
 7644SOL     OW34390   1.756   0.477   7.359 -0.1096 -0.1145 -0.3360
 7644SOL    HW134391   1.674   0.519   7.329  0.1198  0.6289  0.0696
 7644SOL    HW234392   1.738   0.386   7.336 -2.0038 -0.5896  3.0720
 7645SOL     OW34393   2.965   2.519  17.198  0.3789 -0.3095 -0.2993
 7645SOL    HW134394   2.979   2.521  17.104 -1.3076 -1.1840 -0.5741
 7645SOL    HW234395   3.032   2.451  17.206  1.0825  0.6337  1.9799
 7646SOL     OW34396   0.394   1.025  17.545 -0.1774 -0.0762  0.3540
 7646SOL    HW134397   0.432   1.107  17.514 -0.0899 -0.2992 -0.1314
 7646SOL    HW234398   0.461   0.985  17.600 -0.6417  0.6743  1.4604
 7647SOL     OW34399   3.952   2.990  16.598  0.0597 -0.3108 -0.1786
 7647SOL    HW134400   3.869   3.033  16.618  0.3870  0.6229 -0.8614
 7647SOL    HW234401   3.983   2.946  16.678  0.7035  0.3244 -0.0811
 7648SOL     OW34402   2.791   3.914   6.232  0.1543  0.4072 -0.8522
 7648SOL    HW134403   2.816   3.822   6.234 -1.2064  0.0543 -0.3914
 7648SOL    HW234404   2.869   3.948   6.276  0.1437  1.6740 -1.8152
 7649SOL     OW34405   4.487   1.612   7.543 -0.3566  0.4931  0.3113
 7649SOL    HW134406   4.424   1.559   7.591 -0.5010  1.2804  0.9994
 7649SOL    HW234407   4.556   1.549   7.527 -1.7415 -0.9602  0.0612
 7650SOL     OW34408   3.927   1.352   9.890  0.3791 -0.1655 -0.4949
 7650SOL    HW134409   3.967   1.367   9.804  2.7032  2.1356  0.9872
 7650SOL    HW234410   3.850   1.408   9.888 -1.3999 -2.6031 -0.3270
 7651SOL     OW34411   3.570   0.691   1.777  0.3453  0.0149 -0.2493
 7651SOL    HW134412   3.653   0.728   1.746 -0.2332  1.8448  0.3862
 7651SOL    HW234413   3.513   0.677   1.701  0.8639  1.9348 -1.0047
 7652SOL     OW34414   3.749   3.185  16.626  0.5171 -0.4000 -0.1019
 7652SOL    HW134415   3.827   3.234  16.653  0.5014 -0.7196  0.5144
 7652SOL    HW234416   3.707   3.182  16.712 -0.1893 -3.1126 -0.5608
 7653SOL     OW34417   1.433   1.469   9.630 -0.4369  0.2216  0.3414
 7653SOL    HW134418   1.381   1.434   9.702  1.1867 -1.1604  0.8445
 7653SOL    HW234419   1.366   1.488   9.564  0.4823  0.3018 -0.5742
 7654SOL     OW34420   1.250   0.973   8.235 -0.1281 -0.2349  0.1561
 7654SOL    HW134421   1.199   0.896   8.262  0.7467 -0.7881  0.2188
 7654SOL    HW234422   1.239   0.979   8.140  1.1577 -0.1281  0.0179
 7655SOL     OW34423   0.791   0.615   3.711 -0.4449 -0.7937 -0.5394
 7655SOL    HW134424   0.860   0.635   3.648 -0.1599 -2.3523 -0.7143
 7655SOL    HW234425   0.801   0.691   3.769  1.3029  0.2123 -2.1576
 7656SOL     OW34426   1.808   0.961   1.399 -0.0088 -0.1628  0.2546
 7656SOL    HW134427   1.845   1.024   1.461 -1.4489  1.0029 -0.0679
 7656SOL    HW234428   1.832   0.874   1.432  1.3827  0.2232  0.2793
 7657SOL     OW34429   0.633   0.604   0.633  0.4414  0.2007  0.3881
 7657SOL    HW134430   0.609   0.625   0.723 -1.2386  1.2401 -0.3071
 7657SOL    HW234431   0.576   0.669   0.593 -1.4105 -1.3714  0.4832
 7658SOL     OW34432   3.582   0.063   8.134  0.3857 -0.5416 -0.4242
 7658SOL    HW134433   3.534   0.136   8.093 -2.1368 -0.7206  2.2336
 7658SOL    HW234434   3.671   0.091   8.113 -0.8605  3.0790 -0.8604
 7659SOL     OW34435   4.181   3.194  16.887  0.8654 -0.0219  0.0339
 7659SOL    HW134436   4.142   3.152  16.964 -1.3944  1.3117 -0.3892
 7659SOL    HW234437   4.214   3.114  16.846  1.2388 -0.4944  1.2555
 7660SOL     OW34438   2.589   0.116  16.375 -1.2274 -0.6091  0.1388
 7660SOL    HW134439   2.618   0.130  16.465  0.8692  0.1157 -0.6572
 7660SOL    HW234440   2.643   0.039  16.361  0.2394  0.7396 -1.6006
 7661SOL     OW34441   4.236   1.900   8.765 -0.1873  0.5760  0.4497
 7661SOL    HW134442   4.159   1.871   8.814 -0.3802  1.0394  0.4223
 7661SOL    HW234443   4.234   1.854   8.681  0.8756  0.3427  0.5527
 7662SOL     OW34444   4.177   3.246   9.570 -0.0658 -0.1337  0.3091
 7662SOL    HW134445   4.199   3.337   9.549 -0.8907 -0.4026 -1.7248
 7662SOL    HW234446   4.250   3.196   9.535  0.7700  0.0481  1.7814
 7663SOL     OW34447   3.924   0.134  16.822  0.5131 -0.0608  0.3419
 7663SOL    HW134448   3.866   0.200  16.859  0.3445 -1.3905  2.4759
 7663SOL    HW234449   3.969   0.094  16.897  0.3028 -0.3348  0.3250
 7664SOL     OW34450   2.852   1.902   8.604 -0.3884  0.0852  0.0877
 7664SOL    HW134451   2.808   1.818   8.588  1.7523 -1.0680  0.2262
 7664SOL    HW234452   2.916   1.884   8.673  0.7318  0.9364 -0.7192
 7665SOL     OW34453   1.587   3.386  12.327  0.1318  0.5084  0.5690
 7665SOL    HW134454   1.659   3.353  12.273  0.3747  1.1899  0.4824
 7665SOL    HW234455   1.577   3.472  12.286  1.5957  0.4535  0.0783
 7666SOL     OW34456   3.084   2.575   4.361  0.4712  0.0809 -0.6314
 7666SOL    HW134457   3.176   2.561   4.385  0.5596 -1.0122 -1.6132
 7666SOL    HW234458   3.059   2.654   4.409  1.8203  0.3348 -0.3321
 7667SOL     OW34459   3.396   4.581  17.333 -0.3267  0.4734 -0.7457
 7667SOL    HW134460   3.397   4.672  17.360  4.0211 -0.1425  1.1621
 7667SOL    HW234461   3.452   4.544  17.402  1.0197  0.7310 -1.6942
 7668SOL     OW34462   2.451   0.489   8.788  0.1092 -0.2340 -0.1696
 7668SOL    HW134463   2.499   0.419   8.833 -2.0900 -0.8525  1.2455
 7668SOL    HW234464   2.441   0.545   8.865 -1.3280  0.5904 -0.9498
 7669SOL     OW34465   3.861   2.712  16.950  0.6333 -0.1711  0.3025
 7669SOL    HW134466   3.811   2.746  17.024  0.4705 -1.3207  0.7203
 7669SOL    HW234467   3.806   2.732  16.874  1.3687 -2.0053 -0.7152
 7670SOL     OW34468   1.371   4.438  17.633  0.1015 -0.5460  0.2155
 7670SOL    HW134469   1.424   4.491  17.573 -1.8928  0.6485 -0.5052
 7670SOL    HW234470   1.434   4.373  17.663  2.5933  2.2181  0.9990
 7671SOL     OW34471   3.329   4.129   4.189 -0.1122  0.0842 -0.3274
 7671SOL    HW134472   3.276   4.204   4.214 -1.2209 -0.8190  0.0288
 7671SOL    HW234473   3.386   4.154   4.116 -1.1678 -0.2556 -1.2733
 7672SOL     OW34474   1.115   3.293   6.523  0.1997  0.7776  0.3250
 7672SOL    HW134475   1.112   3.202   6.492  1.0166  0.2521  1.7980
 7672SOL    HW234476   1.040   3.291   6.583 -0.3360  2.9619 -0.2615
 7673SOL     OW34477   0.917   0.816  16.035  0.1992  0.6634 -0.1866
 7673SOL    HW134478   0.936   0.865  16.115  0.6635 -0.6812  0.5077
 7673SOL    HW234479   0.821   0.808  16.040  0.0441  2.3776 -0.2784
 7674SOL     OW34480   2.418   0.816   2.400 -0.0487 -0.2772 -0.0741
 7674SOL    HW134481   2.349   0.752   2.380  0.1299 -0.1841 -0.9961
 7674SOL    HW234482   2.440   0.826   2.307  2.5466 -1.1920  0.4395
 7675SOL     OW34483   1.136   3.027  10.716 -0.2857 -0.4389 -0.2037
 7675SOL    HW134484   1.091   3.110  10.702  1.1967  0.2793 -0.7603
 7675SOL    HW234485   1.085   2.988  10.786 -1.1764  0.5347 -0.3113
 7676SOL     OW34486   0.176   3.306  11.433 -0.4330 -0.4698 -0.1092
 7676SOL    HW134487   0.230   3.340  11.505  1.2342 -1.9392 -0.6610
 7676SOL    HW234488   0.133   3.234  11.480 -0.3721  0.2671  1.0699
 7677SOL     OW34489   3.151   3.442   1.307  0.4527  0.3167 -0.7407
 7677SOL    HW134490   3.190   3.500   1.372 -1.7326  1.1768 -0.1833
 7677SOL    HW234491   3.132   3.501   1.234  0.7546  0.8459 -0.3926
 7678SOL     OW34492   2.669   0.907  12.559 -0.1833  0.6995 -0.3218
 7678SOL    HW134493   2.595   0.869  12.512  1.4416 -1.2658 -1.2653
 7678SOL    HW234494   2.632   0.916  12.647 -0.5036  3.1791 -0.7049
 7679SOL     OW34495   3.633   4.587   3.280 -0.0364  0.1662 -0.0627
 7679SOL    HW134496   3.685   4.659   3.242 -0.5178 -0.1930 -1.4107
 7679SOL    HW234497   3.705   4.524   3.273 -0.5502 -0.4073 -0.1038
 7680SOL     OW34498   0.805   3.996   2.357  0.0272  0.1806 -0.3920
 7680SOL    HW134499   0.884   3.997   2.412  0.6553 -1.0108 -1.2660
 7680SOL    HW234500   0.794   3.902   2.370 -0.8254  0.4759  0.9630
 7681SOL     OW34501   1.717   1.974   7.725  0.0307 -0.0414 -0.2174
 7681SOL    HW134502   1.699   2.026   7.646 -0.0681 -1.9813 -1.4696
 7681SOL    HW234503   1.742   2.047   7.781 -0.5496 -0.2031  0.2499
 7682SOL     OW34504   2.839   1.641  15.692 -0.2765  0.2893 -0.1465
 7682SOL    HW134505   2.880   1.563  15.730 -0.2007 -0.3818 -1.6035
 7682SOL    HW234506   2.766   1.651  15.752 -0.4488  0.8761 -0.4581
 7683SOL     OW34507   4.695   0.810   7.399 -0.0265  0.4064  0.1776
 7683SOL    HW134508   4.716   0.869   7.326  1.6505  0.6650  0.8794
 7683SOL    HW234509   4.651   0.876   7.452 -1.5826  0.5043 -1.2350
 7684SOL     OW34510   2.921   0.981   7.949 -0.1637  0.1080  0.2441
 7684SOL    HW134511   2.920   0.885   7.959  0.9477  0.0354 -0.2439
 7684SOL    HW234512   2.884   1.005   8.034 -0.5561  0.5992 -0.0681
 7685SOL     OW34513   4.621   2.113   9.347  0.6291  0.2924  0.7349
 7685SOL    HW134514   4.623   2.192   9.400 -0.7553  1.5227 -1.0644
 7685SOL    HW234515   4.544   2.072   9.388  0.3248  0.7487  0.6195
 7686SOL     OW34516   3.682   3.250   6.855  0.3243  0.0227  0.3980
 7686SOL    HW134517   3.665   3.158   6.876  3.0959 -0.9399 -1.4050
 7686SOL    HW234518   3.649   3.252   6.765 -1.9020  1.4778  1.2492
 7687SOL     OW34519   3.956   2.944  15.853 -0.1841  0.4776 -0.8713
 7687SOL    HW134520   4.007   2.884  15.908 -1.2513  0.4225  0.0548
 7687SOL    HW234521   3.935   3.021  15.906 -0.6647  0.3169 -0.8271
 7688SOL     OW34522   1.120   0.460   3.955 -0.2164 -0.9091 -0.2050
 7688SOL    HW134523   1.033   0.450   3.915 -0.4590 -0.2716  0.1827
 7688SOL    HW234524   1.170   0.406   3.894  1.5329  0.3125  0.1727
 7689SOL     OW34525   2.485   0.839  13.659  0.4388 -0.0130  0.1221
 7689SOL    HW134526   2.539   0.891  13.719 -0.6154  0.5875  0.5611
 7689SOL    HW234527   2.401   0.833  13.705  1.4194 -0.4715  1.8443
 7690SOL     OW34528   3.491   3.967   0.938 -0.2406  0.6302 -0.3436
 7690SOL    HW134529   3.421   3.910   0.906  1.6936 -1.6520 -0.5438
 7690SOL    HW234530   3.557   3.971   0.869 -0.3202 -0.1682 -0.4712
 7691SOL     OW34531   3.356   4.528   6.568  0.7508 -0.4903 -0.0144
 7691SOL    HW134532   3.317   4.532   6.656 -0.3919 -0.1600 -0.5280
 7691SOL    HW234533   3.401   4.445   6.584  1.6980  0.0458  0.0768
 7692SOL     OW34534   0.778   3.665   0.209 -0.3646 -0.1539  0.0611
 7692SOL    HW134535   0.797   3.732   0.275 -2.9789  0.9271 -0.2712
 7692SOL    HW234536   0.686   3.688   0.195  0.2854  1.1011 -2.1824
 7693SOL     OW34537   2.647   0.082   2.819  0.6917 -0.3657  0.0485
 7693SOL    HW134538   2.704   0.005   2.817  0.0152 -0.9111  1.6060
 7693SOL    HW234539   2.635   0.094   2.914  2.5568  0.5669  0.1688
 7694SOL     OW34540   4.531   3.954   9.727  1.0661 -0.4873  0.3046
 7694SOL    HW134541   4.547   4.048   9.732  0.2736 -0.3471  0.1517
 7694SOL    HW234542   4.534   3.931   9.820 -0.8370 -2.0492 -0.0247
 7695SOL     OW34543   1.238   1.513  10.117 -0.4397 -0.0076  0.5038
 7695SOL    HW134544   1.188   1.449  10.168 -0.8110  0.2082  0.4122
 7695SOL    HW234545   1.247   1.581  10.183 -0.7091 -0.5478  1.0938
 7696SOL     OW34546   2.987   0.291  10.880 -0.1091  0.2259 -0.2475
 7696SOL    HW134547   2.984   0.363  10.817 -2.1658 -0.7941 -1.3013
 7696SOL    HW234548   3.014   0.222  10.820  0.8641  1.6722 -1.4874
 7697SOL     OW34549   2.211   0.808   2.099  0.0773 -0.6472 -0.2295
 7697SOL    HW134550   2.247   0.752   2.168 -0.9914 -0.0960  0.7795
 7697SOL    HW234551   2.213   0.744   2.027 -0.4630 -1.6833  0.6724
 7698SOL     OW34552   0.252   1.589   8.608 -0.6575 -0.0163  0.0622
 7698SOL    HW134553   0.340   1.564   8.635 -1.0156  0.9887  2.1901
 7698SOL    HW234554   0.254   1.553   8.520  0.5218  0.0501  0.0692
 7699SOL     OW34555   0.109   3.262   0.170 -0.6817  0.0128  0.7654
 7699SOL    HW134556   0.121   3.232   0.080 -1.6263 -0.0310  0.6575
 7699SOL    HW234557   0.020   3.297   0.167 -1.4996 -2.1642 -0.0533
 7700SOL     OW34558   0.020   0.665   0.508 -1.3878 -0.0020  0.4222
 7700SOL    HW134559   0.109   0.655   0.475 -0.9059 -3.3379  2.7266
 7700SOL    HW234560   0.021   0.597   0.575 -4.8745  0.4046  0.9020
 7701SOL     OW34561   2.011   0.940   0.133 -0.0161 -0.3316 -0.3806
 7701SOL    HW134562   2.090   0.896   0.101  0.3458 -1.5645  2.1915
 7701SOL    HW234563   1.979   0.883   0.204 -3.3595  1.7744 -0.1967
 7702SOL     OW34564   1.936   2.918   1.657  0.4457  0.0372 -1.2586
 7702SOL    HW134565   1.996   2.844   1.647  0.7045  0.2916 -1.6459
 7702SOL    HW234566   1.859   2.865   1.675  0.0851  0.6668 -0.9728
 7703SOL     OW34567   2.060   1.906  15.639 -0.3057 -0.8432  0.2264
 7703SOL    HW134568   2.062   1.933  15.731  1.4797  1.7364 -0.5790
 7703SOL    HW234569   2.023   1.981  15.592  1.0489  0.4626  1.2505
 7704SOL     OW34570   0.447   1.475   5.365  0.5466  0.1674  0.1037
 7704SOL    HW134571   0.471   1.559   5.402  1.2504  1.3504 -3.0761
 7704SOL    HW234572   0.533   1.433   5.372  0.2011 -0.2698  1.5819
 7705SOL     OW34573   2.053   3.309  12.955  0.3935 -0.1252 -0.3604
 7705SOL    HW134574   2.139   3.321  12.996  0.7248  0.2710 -1.1670
 7705SOL    HW234575   2.034   3.396  12.921  1.5322 -0.0510 -0.7964
 7706SOL     OW34576   1.960   4.133   6.090 -0.0374 -0.0192 -0.3754
 7706SOL    HW134577   1.976   4.137   5.996 -0.7822 -3.5444 -0.6393
 7706SOL    HW234578   1.922   4.046   6.102  1.2430 -0.4511  0.5256
 7707SOL     OW34579   1.438   2.801   8.939 -0.2163 -0.3328  0.1486
 7707SOL    HW134580   1.452   2.707   8.929 -0.2063 -0.4453  1.2002
 7707SOL    HW234581   1.387   2.821   9.018  0.8314 -1.9994  1.2548
 7708SOL     OW34582   3.851   1.337   4.538 -0.4855 -0.0675 -0.3894
 7708SOL    HW134583   3.941   1.307   4.528 -0.3101 -0.3788  2.1990
 7708SOL    HW234584   3.807   1.252   4.544 -0.0814 -0.2629 -0.2322
 7709SOL     OW34585   1.265   0.873   2.537  0.3545  0.5053  0.1350
 7709SOL    HW134586   1.252   0.783   2.568 -1.3447  0.0851 -1.8479
 7709SOL    HW234587   1.361   0.880   2.530  0.6020 -0.3510  2.5998
 7710SOL     OW34588   4.085   0.076  14.153  0.4916 -0.8798  0.1297
 7710SOL    HW134589   4.114   0.084  14.244 -0.3313 -0.9053  0.3972
 7710SOL    HW234590   3.990   0.071  14.164  0.3932 -0.4056 -0.4971
 7711SOL     OW34591   2.998   3.278   9.270  0.4274 -0.2557  0.1524
 7711SOL    HW134592   3.012   3.195   9.315  0.4368 -0.7969 -0.8359
 7711SOL    HW234593   2.972   3.249   9.183 -1.1550  1.4586  0.0592
 7712SOL     OW34594   1.506   3.395   2.671  0.6057  0.0754  0.4060
 7712SOL    HW134595   1.427   3.341   2.678  1.0961 -0.7239 -0.3781
 7712SOL    HW234596   1.515   3.445   2.752 -0.1786  1.3408 -0.2889
 7713SOL     OW34597   4.590   1.665   5.428  0.2613  0.5098 -0.0840
 7713SOL    HW134598   4.624   1.581   5.459 -0.3460  0.6297  0.9124
 7713SOL    HW234599   4.663   1.689   5.371 -1.1365  0.2928 -1.9262
 7714SOL     OW34600   3.541   4.342  13.571 -0.3011  0.1225  0.2002
 7714SOL    HW134601   3.499   4.353  13.486 -0.6569 -0.7755  0.2690
 7714SOL    HW234602   3.629   4.381  13.563 -0.3096  0.1461  0.2200
 7715SOL     OW34603   4.331   3.694   3.709 -0.1921 -0.1838 -0.3659
 7715SOL    HW134604   4.360   3.780   3.677 -1.5787  0.4809  0.1346
 7715SOL    HW234605   4.249   3.714   3.754  1.6003 -0.2328  2.9195
 7716SOL     OW34606   1.631   3.179   5.543 -0.0060  0.0957  0.5747
 7716SOL    HW134607   1.647   3.114   5.611  1.7012  1.4210  1.4316
 7716SOL    HW234608   1.595   3.252   5.595  0.0344 -0.5657  1.5278
 7717SOL     OW34609   4.356   3.636   9.778 -0.3850  0.1928  0.2768
 7717SOL    HW134610   4.350   3.569   9.710 -2.7799  0.4920  0.1781
 7717SOL    HW234611   4.429   3.691   9.752  1.9393 -1.9057  2.3832
 7718SOL     OW34612   1.108   0.347   6.065 -0.0789  0.1529  0.0745
 7718SOL    HW134613   1.060   0.315   5.989  2.4330 -0.2887 -1.3241
 7718SOL    HW234614   1.174   0.278   6.078  0.7804  0.6345 -1.8180
 7719SOL     OW34615   2.181   3.232  14.752  0.6361  0.4002  0.5122
 7719SOL    HW134616   2.247   3.182  14.800 -0.3685  0.1710  1.6358
 7719SOL    HW234617   2.235   3.311  14.760  0.2830  0.8232 -1.2015
 7720SOL     OW34618   2.144   3.538   6.661 -0.5122  0.1602 -0.0824
 7720SOL    HW134619   2.142   3.497   6.575 -0.1707 -0.8424  0.3854
 7720SOL    HW234620   2.161   3.457   6.708  0.0163 -0.5266 -1.4689
 7721SOL     OW34621   3.952   1.544   7.921 -0.1836 -0.5392 -0.1953
 7721SOL    HW134622   4.001   1.622   7.893  0.0855 -0.0879  1.5555
 7721SOL    HW234623   3.978   1.478   7.858  2.8484  3.1541 -2.8377
 7722SOL     OW34624   2.923   4.098   1.390 -0.4553  0.1309 -0.3450
 7722SOL    HW134625   2.950   4.182   1.427  0.1911 -1.5281  3.0237
 7722SOL    HW234626   2.830   4.097   1.410 -0.5091 -0.2153 -0.6105
 7723SOL     OW34627   3.908   2.926   5.630 -0.3725  0.1906 -0.2208
 7723SOL    HW134628   3.944   2.861   5.691  2.3632  0.9962 -0.9771
 7723SOL    HW234629   3.980   2.990   5.632  0.8332 -1.1413 -0.5798
 7724SOL     OW34630   2.129   2.803  15.448 -0.1457 -0.2863  0.6897
 7724SOL    HW134631   2.129   2.861  15.372 -1.8916 -0.6260  0.4229
 7724SOL    HW234632   2.201   2.839  15.501 -0.1676  3.7987 -2.0738
 7725SOL     OW34633   2.642   2.101  11.774 -0.7616 -0.2654 -0.2370
 7725SOL    HW134634   2.698   2.133  11.845 -0.6848  0.2744 -0.5350
 7725SOL    HW234635   2.681   2.138  11.694 -0.1887 -1.1647 -0.3619
 7726SOL     OW34636   0.510   1.521   9.004 -0.4239  0.4633 -0.3763
 7726SOL    HW134637   0.445   1.569   9.056 -0.1217 -1.5926  1.8911
 7726SOL    HW234638   0.455   1.457   8.958  1.0008 -3.2886  3.1333
 7727SOL     OW34639   1.631   4.391  16.939  0.0884 -0.1122  0.0488
 7727SOL    HW134640   1.617   4.297  16.953 -0.9065 -0.1944 -1.5479
 7727SOL    HW234641   1.698   4.394  16.871  2.4530 -2.2500  2.2978
 7728SOL     OW34642   0.907   3.028   7.684 -0.4513  0.4998  0.0084
 7728SOL    HW134643   0.995   2.993   7.689 -0.2611  1.0468  0.4307
 7728SOL    HW234644   0.866   3.015   7.769 -0.9302 -1.5826 -0.5514
 7729SOL     OW34645   3.868   2.924  14.458 -0.1847 -0.7705  0.2745
 7729SOL    HW134646   3.879   2.980  14.535  0.5960 -0.2866 -0.1947
 7729SOL    HW234647   3.882   2.839  14.498  1.4376 -0.6372 -0.0050
 7730SOL     OW34648   2.072   1.612   3.448 -0.2638 -0.5493  0.0151
 7730SOL    HW134649   2.063   1.637   3.356  1.0992  1.5745  0.4629
 7730SOL    HW234650   2.167   1.615   3.455 -0.3135 -0.1148  0.4813
 7731SOL     OW34651   3.072   2.903   2.705  0.2293 -0.0955 -0.3106
 7731SOL    HW134652   3.028   2.984   2.732 -2.0243 -1.3214 -0.3577
 7731SOL    HW234653   3.123   2.952   2.639 -0.1133  0.6990  0.0176
 7732SOL     OW34654   0.134   2.536   4.897 -0.1601  0.0243  0.1426
 7732SOL    HW134655   0.099   2.469   4.838  2.4651 -0.2018 -1.1733
 7732SOL    HW234656   0.095   2.614   4.858  2.3207  0.2316 -1.9660
 7733SOL     OW34657   2.569   1.858   5.887  0.3586  0.2728 -0.2191
 7733SOL    HW134658   2.642   1.834   5.944  1.4895 -1.1177 -2.2360
 7733SOL    HW234659   2.503   1.874   5.955  1.4273  2.7510  0.2538
 7734SOL     OW34660   2.583   3.352   4.966  0.6259  0.6658 -0.1854
 7734SOL    HW134661   2.655   3.338   5.028  0.4535 -1.3406 -0.4602
 7734SOL    HW234662   2.576   3.448   4.964 -1.6116  0.5691  2.0584
 7735SOL     OW34663   2.139   3.259   7.434 -0.0062 -0.3527 -0.4014
 7735SOL    HW134664   2.135   3.355   7.439 -0.9178 -0.5602  2.5580
 7735SOL    HW234665   2.050   3.229   7.448 -0.1162 -0.3704 -1.1258
 7736SOL     OW34666   2.988   1.124   5.885 -0.4695 -0.2377 -0.1591
 7736SOL    HW134667   2.925   1.053   5.872  1.1289 -2.1407  2.3524
 7736SOL    HW234668   3.045   1.113   5.809 -0.6643  0.1017 -0.3536
 7737SOL     OW34669   1.736   2.237   3.854  0.0722  0.0100  0.2711
 7737SOL    HW134670   1.770   2.242   3.943 -1.0494  0.8345  0.6566
 7737SOL    HW234671   1.746   2.142   3.848  0.7945  0.1668 -1.0304
 7738SOL     OW34672   4.662   2.008   2.769 -0.1376  0.3262 -0.2811
 7738SOL    HW134673   4.582   2.033   2.724 -0.1411  0.2115 -0.3390
 7738SOL    HW234674   0.005   2.072   2.744 -1.0213  1.3558 -0.0025
 7739SOL     OW34675   2.489   2.500   5.848 -0.0183 -0.6488 -0.6453
 7739SOL    HW134676   2.415   2.559   5.832  1.3290  1.6368  1.5472
 7739SOL    HW234677   2.509   2.514   5.941  0.9720 -1.5685 -0.7226
 7740SOL     OW34678   1.401   2.437   2.630  0.3732 -0.1668  0.4606
 7740SOL    HW134679   1.313   2.469   2.650 -0.5785 -0.4149 -3.3573
 7740SOL    HW234680   1.456   2.492   2.686 -0.1853 -0.4720  1.3032
 7741SOL     OW34681   3.764   2.648   2.976  0.3961  0.5502  0.1560
 7741SOL    HW134682   3.701   2.650   3.048 -2.2626 -0.6720 -2.1179
 7741SOL    HW234683   3.832   2.706   3.009  0.7483  0.0499  0.3089
 7742SOL     OW34684   2.542   1.735   9.115  0.8844 -0.2350 -0.5326
 7742SOL    HW134685   2.533   1.673   9.187 -0.0664 -1.5443 -1.7888
 7742SOL    HW234686   2.480   1.804   9.140  0.9385 -0.3588 -0.0570
 7743SOL     OW34687   4.266   2.100   3.049  0.1395 -0.0123 -0.4633
 7743SOL    HW134688   4.173   2.092   3.027  0.5215 -2.3426 -1.2925
 7743SOL    HW234689   4.306   2.034   2.992  2.8501 -0.0718  1.4997
 7744SOL     OW34690   4.608   0.310   6.203 -0.5586  0.1892  0.4746
 7744SOL    HW134691   4.682   0.259   6.238 -0.4612  0.5131  0.7403
 7744SOL    HW234692   4.607   0.291   6.109  2.7462 -1.1926  0.7184
 7745SOL     OW34693   4.263   2.116  10.364 -0.1766  0.0844 -0.3916
 7745SOL    HW134694   4.255   2.123  10.269  0.9755 -0.8266 -0.5634
 7745SOL    HW234695   4.185   2.072  10.397 -0.7800  2.0378  0.7711
 7746SOL     OW34696   4.279   3.002  16.648  0.2359  0.2526 -0.2596
 7746SOL    HW134697   4.331   3.074  16.613  1.1048 -0.2985 -0.1153
 7746SOL    HW234698   4.260   2.946  16.572 -0.0556  1.4728 -1.0791
 7747SOL     OW34699   1.679   4.281   1.278 -0.0484  0.7058  0.3874
 7747SOL    HW134700   1.746   4.249   1.217 -1.2635  0.1997 -0.6823
 7747SOL    HW234701   1.608   4.313   1.221 -0.2521  1.3903  1.0244
 7748SOL     OW34702   0.264   3.592   8.079  0.4128  0.0972 -0.6651
 7748SOL    HW134703   0.272   3.573   8.173 -1.1456 -0.5868 -0.6769
 7748SOL    HW234704   0.169   3.587   8.072  0.3794 -0.2314  0.0339
 7749SOL     OW34705   0.880   4.443   3.262 -0.2388 -0.1109  0.1144
 7749SOL    HW134706   0.938   4.404   3.328  1.5355  0.1559 -1.2924
 7749SOL    HW234707   0.919   4.426   3.177 -0.2458  1.1282 -0.1307
 7750SOL     OW34708   4.295   2.777   4.432  0.0470 -0.8574  0.1234
 7750SOL    HW134709   4.232   2.736   4.373  1.0025 -0.4780 -1.1544
 7750SOL    HW234710   4.288   2.864   4.391 -0.9504 -1.5570 -1.1617
 7751SOL     OW34711   0.926   2.979  17.321 -0.0967  0.3425  0.0753
 7751SOL    HW134712   1.004   2.930  17.347 -0.0821  0.6242  0.5750
 7751SOL    HW234713   0.868   2.977  17.397 -0.5612 -1.3148 -0.3240
 7752SOL     OW34714   0.092   0.598  13.918 -0.0114 -0.3531 -0.0818
 7752SOL    HW134715   0.084   0.551  13.835  1.5251 -0.3505 -0.2292
 7752SOL    HW234716   0.183   0.627  13.918  0.6360 -2.3487  1.6933
 7753SOL     OW34717   0.308   0.173   7.491  0.2936 -0.1568 -0.0727
 7753SOL    HW134718   0.225   0.189   7.535  1.1855  1.3453  1.0907
 7753SOL    HW234719   0.311   0.078   7.486 -2.4358 -0.3020  1.2777
 7754SOL     OW34720   4.140   1.698   8.291  0.3822  0.1737 -0.1402
 7754SOL    HW134721   4.052   1.719   8.325  0.7027  0.8072  0.2998
 7754SOL    HW234722   4.167   1.781   8.252  0.7958  0.4261  0.6715
 7755SOL     OW34723   2.853   1.541   0.529  0.2677 -0.4859 -0.5603
 7755SOL    HW134724   2.853   1.605   0.601  0.5192  0.1177 -1.0978
 7755SOL    HW234725   2.891   1.468   0.576 -0.2620  0.8598  1.9992
 7756SOL     OW34726   4.373   2.501  15.926  0.0833  0.6523 -0.2146
 7756SOL    HW134727   4.313   2.455  15.985  0.0234 -1.4546 -1.9111
 7756SOL    HW234728   4.317   2.548  15.864 -2.0820 -1.2628  0.2867
 7757SOL     OW34729   4.474   4.077   8.266  0.1431 -0.0936 -0.5893
 7757SOL    HW134730   4.439   4.019   8.335  0.0449  0.0077 -0.5539
 7757SOL    HW234731   4.394   4.110   8.225 -0.4275  0.2115  0.7479
 7758SOL     OW34732   1.316   2.293   4.363  0.0905  0.3935  0.4411
 7758SOL    HW134733   1.394   2.269   4.313  0.6982 -0.3154  1.7321
 7758SOL    HW234734   1.254   2.329   4.299 -0.0116 -4.1955 -2.0551
 7759SOL     OW34735   4.645   3.491   4.067 -0.5747  0.2229  0.0133
 7759SOL    HW134736   4.657   3.584   4.046  2.4021 -0.4713 -1.4283
 7759SOL    HW234737   4.689   3.492   4.152 -1.9608 -1.5646  0.7322
 7760SOL     OW34738   2.648   1.423  10.152  0.4505 -0.2669 -0.3453
 7760SOL    HW134739   2.675   1.420  10.244 -0.2308  0.1604 -0.1289
 7760SOL    HW234740   2.635   1.330  10.133  0.3415  0.3794 -3.3786
 7761SOL     OW34741   2.091   1.846  13.466 -0.6178 -0.1914 -0.0242
 7761SOL    HW134742   2.156   1.811  13.405 -0.3061 -3.3808  2.1198
 7761SOL    HW234743   2.143   1.904  13.523 -1.4861  0.6233 -0.0729
 7762SOL     OW34744   3.417   1.321  17.428 -0.6255 -0.0650 -0.2365
 7762SOL    HW134745   3.494   1.322  17.485  0.0988  1.0315 -1.2160
 7762SOL    HW234746   3.423   1.232  17.395  3.2173 -0.3382  1.1607
 7763SOL     OW34747   3.529   3.616   8.742  0.6259  0.0723  0.3160
 7763SOL    HW134748   3.482   3.533   8.730  1.4443 -0.5217  1.1506
 7763SOL    HW234749   3.521   3.624   8.837  1.5250  1.7344  0.2451
 7764SOL     OW34750   2.234   2.420  14.991 -0.0987  0.1481 -0.3032
 7764SOL    HW134751   2.158   2.468  15.023 -0.4814 -0.6397 -0.0152
 7764SOL    HW234752   2.211   2.388  14.903  2.1944  0.3920 -0.9846
 7765SOL     OW34753   2.297   1.010   7.368  0.5206  0.9980  0.2845
 7765SOL    HW134754   2.248   1.008   7.285  2.1602  0.6858 -0.6882
 7765SOL    HW234755   2.296   0.920   7.401  0.6661  0.6001 -0.7777
 7766SOL     OW34756   2.453   1.680   8.841  0.1954 -0.7255 -0.7660
 7766SOL    HW134757   2.480   1.679   8.933  1.9021  0.3370 -1.2546
 7766SOL    HW234758   2.527   1.732   8.809  0.8829 -1.2125  0.0331
 7767SOL     OW34759   0.796   2.700   7.521  0.3281 -0.4215  0.5569
 7767SOL    HW134760   0.760   2.634   7.580  0.0277 -1.3508 -0.6654
 7767SOL    HW234761   0.788   2.777   7.578  1.8366  0.2146 -0.0893
 7768SOL     OW34762   1.933   4.556  16.485 -0.7166 -0.3611  0.5224
 7768SOL    HW134763   1.987   4.635  16.477  0.3321 -1.3626 -2.0545
 7768SOL    HW234764   1.854   4.588  16.442  0.3117  0.4257 -0.7608
 7769SOL     OW34765   4.300   0.801   4.492  0.7001 -0.0575  0.9377
 7769SOL    HW134766   4.331   0.885   4.526 -1.9308  1.1522  0.3435
 7769SOL    HW234767   4.346   0.798   4.408 -1.4720 -0.8093 -0.2397
 7770SOL     OW34768   2.467   1.029   8.686 -0.7333 -0.6489  0.1216
 7770SOL    HW134769   2.448   1.107   8.737 -1.7027 -1.4545  0.9974
 7770SOL    HW234770   2.492   1.067   8.602  2.5614 -1.1141  0.9051
 7771SOL     OW34771   3.306   4.179   7.360  0.1590 -0.3688 -0.0420
 7771SOL    HW134772   3.366   4.160   7.432  1.2586  0.5056 -0.7366
 7771SOL    HW234773   3.241   4.227   7.412 -1.8419 -1.2225 -1.7299
 7772SOL     OW34774   4.599   0.398   3.930  0.2170 -0.0278  0.3905
 7772SOL    HW134775   4.565   0.487   3.936  2.7594  1.0334 -0.9353
 7772SOL    HW234776   4.694   0.403   3.919  0.3051 -0.3503  1.0265
 7773SOL     OW34777   0.697   3.323   2.865  0.0396 -0.4405  0.2770
 7773SOL    HW134778   0.698   3.396   2.803 -2.1729 -0.1040  0.6584
 7773SOL    HW234779   0.612   3.336   2.907  0.6147 -2.1663  1.9445
 7774SOL     OW34780   2.678   4.231   2.425 -0.7810  0.2049  0.1154
 7774SOL    HW134781   2.683   4.309   2.369 -1.0343  0.9662  1.1520
 7774SOL    HW234782   2.772   4.211   2.433 -0.4556  0.3905 -3.0872
 7775SOL     OW34783   2.726   0.059  13.796  0.4753  0.2968 -0.1121
 7775SOL    HW134784   2.762   0.124  13.736  0.8040 -1.0493 -1.3775
 7775SOL    HW234785   2.647   0.107  13.820  0.8729 -0.0483  1.9582
 7776SOL     OW34786   4.542   0.145   4.106  0.5052  0.1836 -0.1945
 7776SOL    HW134787   4.634   0.121   4.104  0.2968 -0.5088 -2.2372
 7776SOL    HW234788   4.529   0.188   4.021 -0.6455  0.2068 -0.0136
 7777SOL     OW34789   1.774   0.997   3.237 -0.1657 -1.0335  0.1622
 7777SOL    HW134790   1.811   0.930   3.179 -2.2457 -3.4884  1.6763
 7777SOL    HW234791   1.721   1.046   3.174 -1.7294 -0.5950  1.8216
 7778SOL     OW34792   2.820   2.455  11.763 -0.0307  0.1189  0.2099
 7778SOL    HW134793   2.911   2.431  11.745  0.1884  1.4138 -0.3703
 7778SOL    HW234794   2.774   2.371  11.774 -0.2475  0.3758  1.2502
 7779SOL     OW34795   4.670   3.088   5.186 -0.0020  0.1347  0.0682
 7779SOL    HW134796   0.038   3.100   5.163 -0.4938  0.2613 -1.7904
 7779SOL    HW234797   4.650   3.173   5.225  1.0887  0.9816 -1.2360
 7780SOL     OW34798   1.031   1.483   7.792 -0.0544 -0.4977 -0.0915
 7780SOL    HW134799   0.957   1.490   7.732  0.4157 -3.0168 -0.9752
 7780SOL    HW234800   1.021   1.566   7.838 -1.2388  0.7106 -2.5625
 7781SOL     OW34801   2.112   1.888   8.885  0.3806  0.1991 -0.0895
 7781SOL    HW134802   2.073   1.975   8.877  0.6058  0.3718  0.6524
 7781SOL    HW234803   2.205   1.909   8.878  0.7467 -1.7023 -0.7795
 7782SOL     OW34804   2.332   2.915  15.597 -0.4560 -0.8562 -0.5825
 7782SOL    HW134805   2.377   2.920  15.681  1.8859 -3.6841 -1.6702
 7782SOL    HW234806   2.307   3.007  15.586 -0.4001 -1.0819 -2.5440
 7783SOL     OW34807   1.483   3.645   8.432 -0.1157 -0.1472 -0.0308
 7783SOL    HW134808   1.418   3.668   8.499  0.1397  0.6313 -0.0554
 7783SOL    HW234809   1.483   3.550   8.445 -3.5870 -0.3678 -1.5045
 7784SOL     OW34810   1.035   1.645   4.453  0.0047  0.1595  0.6305
 7784SOL    HW134811   1.077   1.678   4.533  1.0517 -2.3179  1.0891
 7784SOL    HW234812   1.055   1.552   4.452  1.0686  0.4111 -1.8403
 7785SOL     OW34813   3.496   2.100   0.953 -0.0710 -0.5698 -0.4575
 7785SOL    HW134814   3.589   2.098   0.930 -0.0549 -1.0270 -0.3454
 7785SOL    HW234815   3.501   2.104   1.048 -0.9338  3.2127 -0.5859
 7786SOL     OW34816   2.242   3.455   3.699 -0.0734 -0.1556 -0.4335
 7786SOL    HW134817   2.216   3.392   3.632  0.3552  0.0999 -0.8327
 7786SOL    HW234818   2.334   3.475   3.686 -0.6529  1.1377 -2.5605
 7787SOL     OW34819   0.009   2.470   1.636  0.1806 -0.0859 -0.1788
 7787SOL    HW134820   0.079   2.462   1.700 -0.7497  0.0551  0.8589
 7787SOL    HW234821   4.700   2.382   1.616 -0.1268  0.2405 -1.0857
 7788SOL     OW34822   0.234   3.591   4.810  0.0707  0.1617  0.3287
 7788SOL    HW134823   0.184   3.671   4.826  0.0137 -0.3698  2.8254
 7788SOL    HW234824   0.325   3.608   4.833 -0.6168  1.0790  2.3196
 7789SOL     OW34825   3.503   3.412   4.914  0.5134 -0.0580 -0.0783
 7789SOL    HW134826   3.539   3.438   4.829  1.0044 -0.4799  0.0004
 7789SOL    HW234827   3.485   3.321   4.893 -0.1839  0.5101 -1.9489
 7790SOL     OW34828   3.155   0.173   3.746  0.1308  0.5254 -0.0181
 7790SOL    HW134829   3.241   0.183   3.786  0.8899  0.6050 -1.6840
 7790SOL    HW234830   3.139   0.093   3.797 -2.6353  0.5336 -0.8804
 7791SOL     OW34831   4.276   2.715  15.694  0.3144 -0.4125  0.1934
 7791SOL    HW134832   4.202   2.664  15.726 -0.9906  1.0300 -0.5124
 7791SOL    HW234833   4.305   2.656  15.625 -0.0172  0.8972 -1.0737
 7792SOL     OW34834   2.594   1.770  14.569  0.3173 -0.1472  0.1587
 7792SOL    HW134835   2.586   1.709  14.642  2.1947 -0.3591  0.1936
 7792SOL    HW234836   2.668   1.742  14.515 -1.5449 -0.1621 -2.3836
 7793SOL     OW34837   3.978   4.236   7.527 -0.5063 -0.3952  0.0058
 7793SOL    HW134838   3.917   4.307   7.544 -0.2282 -0.1776  0.1071
 7793SOL    HW234839   3.947   4.167   7.586 -1.7400 -1.1617 -1.5480
 7794SOL     OW34840   2.192   0.924   9.547 -0.0236  0.5285 -0.3004
 7794SOL    HW134841   2.225   1.010   9.520  1.5926 -1.1369 -3.6583
 7794SOL    HW234842   2.171   0.885   9.462 -0.2065  0.3419 -0.1679
 7795SOL     OW34843   4.080   0.320   9.760  0.2688  0.1809 -0.1797
 7795SOL    HW134844   4.001   0.328   9.813 -0.7145 -1.5581 -1.3739
 7795SOL    HW234845   4.139   0.259   9.804 -0.6264 -0.7811 -0.3126
 7796SOL     OW34846   0.928   0.295   2.491  0.1864  0.1532 -0.5800
 7796SOL    HW134847   0.960   0.235   2.424 -0.4135  0.5836 -1.2543
 7796SOL    HW234848   0.976   0.256   2.564 -1.7520 -2.2979 -0.6378
 7797SOL     OW34849   3.181   4.354   2.736  0.2473  0.2100  0.5117
 7797SOL    HW134850   3.188   4.441   2.697 -2.0930 -0.9583 -2.5603
 7797SOL    HW234851   3.211   4.381   2.822 -0.5681  0.9072  0.5779
 7798SOL     OW34852   4.579   2.830   5.061  0.3445  0.2970 -0.7364
 7798SOL    HW134853   4.625   2.893   5.116 -0.6260 -1.6846  2.3138
 7798SOL    HW234854   4.492   2.852   5.094  0.8636 -1.0726  1.5565
 7799SOL     OW34855   1.402   2.742   5.707 -0.4492  0.4142 -0.4191
 7799SOL    HW134856   1.336   2.681   5.672  0.1560  1.1312 -2.8431
 7799SOL    HW234857   1.365   2.784   5.784 -0.4472  1.0561 -0.7661
 7800SOL     OW34858   1.714   3.867  15.167 -0.3132  0.2999 -0.7133
 7800SOL    HW134859   1.761   3.950  15.164  0.2271  0.0056 -0.4646
 7800SOL    HW234860   1.720   3.852  15.073  0.2006  1.1429 -0.8157
 7801SOL     OW34861   2.234   0.342   5.514 -0.3196  0.7017 -0.2900
 7801SOL    HW134862   2.218   0.312   5.604  0.9897  0.0007 -0.2843
 7801SOL    HW234863   2.246   0.255   5.475  3.0516  1.3591 -0.7393
 7802SOL     OW34864   1.222   0.041   5.174 -0.3297  0.3106  0.2787
 7802SOL    HW134865   1.138   0.088   5.172  0.2076  1.2656  0.0623
 7802SOL    HW234866   1.216   4.700   5.104  0.0103  0.3047  0.2554
 7803SOL     OW34867   1.905   0.620   5.365  0.2765 -0.4927  0.4273
 7803SOL    HW134868   1.998   0.615   5.388 -0.1477  2.2642  2.8248
 7803SOL    HW234869   1.865   0.554   5.421 -1.9589  0.1788 -0.3740
 7804SOL     OW34870   1.987   1.080   9.856  0.5273 -0.2311 -0.2457
 7804SOL    HW134871   1.915   1.097   9.916  2.1604  1.5938  1.2102
 7804SOL    HW234872   1.965   1.140   9.786  1.7152  0.7223  0.1911
 7805SOL     OW34873   0.051   2.604   5.458  0.5734 -0.1013  0.1486
 7805SOL    HW134874   0.051   2.567   5.369 -1.6829 -1.8153  0.8847
 7805SOL    HW234875   0.001   2.533   5.499  1.1348 -1.1143 -0.9118
 7806SOL     OW34876   3.042   2.696   8.826  0.4407 -0.2837  0.1884
 7806SOL    HW134877   3.051   2.659   8.914  0.4961  0.1955  0.3803
 7806SOL    HW234878   2.973   2.646   8.781 -0.0620  0.9745 -0.4345
 7807SOL     OW34879   2.209   0.044   3.360  0.2984  0.8697  0.0329
 7807SOL    HW134880   2.130   0.021   3.311  1.2018 -0.0995 -0.9601
 7807SOL    HW234881   2.187   0.037   3.452  1.3815 -0.1936  0.2050
 7808SOL     OW34882   0.861   1.970   4.457 -0.2699  0.4883 -0.2551
 7808SOL    HW134883   0.954   1.958   4.442 -0.3368 -0.2446 -0.0677
 7808SOL    HW234884   0.856   2.060   4.489 -1.0451  0.5916 -0.6599
 7809SOL     OW34885   2.314   0.131  14.288 -0.2810  0.2540  0.2020
 7809SOL    HW134886   2.320   0.202  14.224 -0.5068  0.1150  0.0252
 7809SOL    HW234887   2.404   0.104  14.310  0.3027 -0.5558 -3.0798
 7810SOL     OW34888   4.575   4.131   1.074 -0.3743 -0.1702  0.1496
 7810SOL    HW134889   4.643   4.174   1.022 -0.8214 -2.8119 -2.6391
 7810SOL    HW234890   4.574   4.178   1.157  0.0474  2.5229 -1.3966
 7811SOL     OW34891   1.279   3.913   3.633 -0.2456  0.7721 -0.7175
 7811SOL    HW134892   1.363   3.900   3.590  0.1416 -0.0983  0.3219
 7811SOL    HW234893   1.247   3.992   3.589  0.3133  0.0071 -2.5192
 7812SOL     OW34894   1.108   4.243   2.272  0.2269 -0.0471 -0.2034
 7812SOL    HW134895   1.176   4.192   2.228 -0.5111 -0.5378 -0.7819
 7812SOL    HW234896   1.152   4.327   2.283 -1.7452  0.4150  4.1110
 7813SOL     OW34897   2.593   2.556   6.108 -0.3198  0.1876  0.6862
 7813SOL    HW134898   2.550   2.638   6.087  0.5147  0.0846 -1.4441
 7813SOL    HW234899   2.592   2.549   6.203 -2.2157  1.5021  0.7501
 7814SOL     OW34900   0.341   1.339   8.880  0.3283  0.2002 -0.4242
 7814SOL    HW134901   0.310   1.333   8.790 -2.3251  0.4542  0.4739
 7814SOL    HW234902   0.264   1.368   8.928  1.1000  0.3625  0.7285
 7815SOL     OW34903   4.259   2.855   7.659 -0.3005 -0.5433  0.5884
 7815SOL    HW134904   4.229   2.935   7.702  0.4411  0.3196 -0.4839
 7815SOL    HW234905   4.218   2.783   7.707 -0.2857 -2.7047 -2.6358
 7816SOL     OW34906   0.973   1.464   3.789  0.1657  0.1714  0.1837
 7816SOL    HW134907   0.900   1.525   3.799 -0.1086  0.0927 -1.3203
 7816SOL    HW234908   0.994   1.471   3.696  1.0220 -0.2373  0.3437
 7817SOL     OW34909   0.449   2.824   5.058 -0.0300 -0.2324  0.3148
 7817SOL    HW134910   0.371   2.770   5.072 -0.2388 -0.0145 -0.0166
 7817SOL    HW234911   0.475   2.803   4.969 -0.1549 -1.0235  0.4680
 7818SOL     OW34912   3.963   1.026   5.512  0.3970  0.3062  0.1009
 7818SOL    HW134913   3.939   0.933   5.519  0.7196  0.2245  0.1638
 7818SOL    HW234914   4.053   1.029   5.479  0.6817  1.1004  0.9827
 7819SOL     OW34915   0.884   4.395   4.314 -0.0514 -0.1689  0.1905
 7819SOL    HW134916   0.964   4.354   4.349 -0.0604 -0.1375  0.2475
 7819SOL    HW234917   0.829   4.318   4.301 -1.6239  1.3367 -2.0248
 7820SOL     OW34918   3.777   4.252   0.140 -0.1610  0.2988 -1.0276
 7820SOL    HW134919   3.801   4.336   0.102 -2.3463  1.6707  0.5948
 7820SOL    HW234920   3.843   4.191   0.106  1.2664 -0.9147  3.8111
 7821SOL     OW34921   0.005   0.470   8.252  0.0604  0.0837  0.4784
 7821SOL    HW134922   0.019   0.472   8.347  0.8208  1.3965  0.3365
 7821SOL    HW234923   0.061   0.538   8.215  1.4498 -2.2180 -1.5948
 7822SOL     OW34924   1.359   1.030   2.227 -0.5011 -0.5194 -0.1593
 7822SOL    HW134925   1.391   1.040   2.137  0.8770  2.5995  0.6709
 7822SOL    HW234926   1.411   1.099   2.268 -0.2388 -1.2318  0.7106
 7823SOL     OW34927   4.305   4.676   9.164 -0.3432 -0.1868  0.5231
 7823SOL    HW134928   4.273   4.618   9.233 -0.5309 -0.2529  0.3786
 7823SOL    HW234929   4.246   0.025   9.181  1.6212  1.6533 -0.5941
 7824SOL     OW34930   0.915   1.610   4.878  0.2014 -0.2374  0.7672
 7824SOL    HW134931   0.989   1.565   4.918 -0.6549 -2.1856  0.1757
 7824SOL    HW234932   0.852   1.605   4.950 -0.2728  1.2332  0.4615
 7825SOL     OW34933   1.082   3.043   1.430  0.2387 -0.4290  0.6032
 7825SOL    HW134934   1.163   3.040   1.379  0.1128  0.7137  0.3454
 7825SOL    HW234935   1.058   3.136   1.425  1.3632 -0.0859  1.7279
 7826SOL     OW34936   1.378   0.002   7.539 -0.4238  0.1898  0.1382
 7826SOL    HW134937   1.290   4.697   7.515 -1.4785  2.0552  1.7517
 7826SOL    HW234938   1.391   0.042   7.453  0.4658  0.6059  0.4665
 7827SOL     OW34939   3.077   3.451   5.996  0.3632 -0.2442 -0.0786
 7827SOL    HW134940   3.115   3.520   5.942  0.5142 -1.0724 -1.0420
 7827SOL    HW234941   3.144   3.383   5.998 -1.1747 -1.7017  2.2863
 7828SOL     OW34942   0.599   1.960   7.363  0.1160  0.1850  0.5301
 7828SOL    HW134943   0.609   2.046   7.323  1.8337 -0.5535 -0.6015
 7828SOL    HW234944   0.504   1.972   7.375  0.1597  2.6004 -1.4910
 7829SOL     OW34945   3.627   3.981   6.765 -0.2803  0.1275 -0.3951
 7829SOL    HW134946   3.582   4.037   6.827 -1.3698 -1.3585  0.1765
 7829SOL    HW234947   3.673   3.925   6.828  0.9456  2.9368  1.1930
 7830SOL     OW34948   1.140   0.639  17.633 -0.2183 -0.4842  0.7177
 7830SOL    HW134949   1.140   0.675  17.544 -0.0845  0.3541  1.0546
 7830SOL    HW234950   1.161   0.548  17.612 -1.6450 -0.6008 -0.2278
 7831SOL     OW34951   4.149   1.017   5.096 -0.1880 -0.1675  0.5170
 7831SOL    HW134952   4.096   1.042   5.021 -2.8268 -1.5987  1.9372
 7831SOL    HW234953   4.173   0.928   5.071 -0.9325  0.0195 -0.8223
 7832SOL     OW34954   3.975   4.181  15.416 -0.5999 -0.3745 -0.1801
 7832SOL    HW134955   4.053   4.227  15.447 -0.0294 -0.5909 -1.2845
 7832SOL    HW234956   3.916   4.192  15.491 -1.2356 -1.9961 -0.4465
 7833SOL     OW34957   1.094   1.372   9.581  0.0141 -0.0287 -0.3099
 7833SOL    HW134958   1.156   1.426   9.532 -1.5995  2.7176  0.6217
 7833SOL    HW234959   1.124   1.396   9.669  0.6161 -0.0288 -0.5145
 7834SOL     OW34960   3.424   1.503   5.635 -0.1137 -0.0053 -0.2041
 7834SOL    HW134961   3.434   1.591   5.672  0.9897  0.3125 -1.2721
 7834SOL    HW234962   3.518   1.483   5.636 -0.1938 -0.1974  3.1973
 7835SOL     OW34963   0.421   3.114   7.754 -0.1064 -0.2042  0.4301
 7835SOL    HW134964   0.506   3.144   7.723 -0.0503 -0.0935  0.6908
 7835SOL    HW234965   0.409   3.031   7.709  0.9467 -0.7129  1.1010
 7836SOL     OW34966   1.621   4.479   4.722 -0.2471  0.3090  0.2891
 7836SOL    HW134967   1.682   4.508   4.655  3.6725 -0.8618  3.3730
 7836SOL    HW234968   1.676   4.439   4.789  0.9674  0.9010 -0.3634
 7837SOL     OW34969   0.108   4.350   9.315 -0.0481  0.0317  0.3753
 7837SOL    HW134970   0.060   4.307   9.386  0.4791 -0.9952  0.1073
 7837SOL    HW234971   0.177   4.395   9.363 -0.8128  0.9129  0.6677
 7838SOL     OW34972   3.579   3.200  17.382  0.5300  0.4995 -0.6841
 7838SOL    HW134973   3.559   3.194  17.476  3.6387 -0.5971 -0.1093
 7838SOL    HW234974   3.488   3.194  17.353  0.1938  0.5451  0.3455
 7839SOL     OW34975   0.239   0.996   6.581  0.1393 -0.2010 -0.0071
 7839SOL    HW134976   0.167   1.046   6.544  1.2350  0.8424 -0.7316
 7839SOL    HW234977   0.178   0.960   6.646 -1.4318 -1.1936 -2.0695
 7840SOL     OW34978   0.456   2.049   5.615  0.5230  0.5739 -0.2277
 7840SOL    HW134979   0.372   2.020   5.652  0.5579 -1.3403 -1.6437
 7840SOL    HW234980   0.497   1.963   5.615  1.3835  0.9852 -0.2531
 7841SOL     OW34981   3.128   1.574   4.898 -0.1186 -0.1154  0.7195
 7841SOL    HW134982   3.113   1.484   4.929 -2.2177 -0.6915 -1.9617
 7841SOL    HW234983   3.038   1.601   4.880  0.0324 -0.6257 -0.8034
 7842SOL     OW34984   4.519   3.397  17.402  0.4266 -0.7153 -0.5958
 7842SOL    HW134985   4.496   3.395  17.309 -0.6065 -1.6578 -0.3260
 7842SOL    HW234986   4.564   3.481  17.408 -0.7367 -0.1787  0.6895
 7843SOL     OW34987   2.514   2.815   8.999  0.3887  0.0910  0.5199
 7843SOL    HW134988   2.497   2.813   9.093 -0.1208  0.5427  0.4343
 7843SOL    HW234989   2.445   2.761   8.962  1.5774 -0.1470 -1.3518
 7844SOL     OW34990   0.317   4.210   0.260  0.4641  0.3737  0.3155
 7844SOL    HW134991   0.327   4.146   0.190  2.6018  0.4700  0.5544
 7844SOL    HW234992   0.283   4.290   0.219  2.9753  1.7801  1.0023
 7845SOL     OW34993   3.254   3.218   0.484  0.5806  0.5859  0.3578
 7845SOL    HW134994   3.217   3.293   0.531  1.4258  1.3106 -0.1423
 7845SOL    HW234995   3.343   3.248   0.468  1.3358 -0.5197  2.4927
 7846SOL     OW34996   1.115   2.090   7.146  0.0306 -0.6317  0.4386
 7846SOL    HW134997   1.181   2.150   7.111 -2.3369  1.0303 -1.0966
 7846SOL    HW234998   1.061   2.095   7.067  0.3330  1.3500  0.3642
 7847SOL     OW34999   2.241   0.899   9.037 -0.4261 -0.4500  0.2758
 7847SOL    HW135000   2.307   0.960   9.004 -0.4816 -1.3218 -1.4740
 7847SOL    HW235001   2.233   0.841   8.961 -0.6496 -1.7907  1.3110
 7848SOL     OW35002   1.181   0.833   2.256 -0.0147  0.0837  0.2268
 7848SOL    HW135003   1.248   0.897   2.233 -1.1415  1.2152  0.1119
 7848SOL    HW235004   1.177   0.833   2.352  0.8058 -3.1915  0.2768
 7849SOL     OW35005   2.450   2.468  15.559 -0.0926 -0.2624 -0.5808
 7849SOL    HW135006   2.382   2.507  15.506 -1.8233 -1.5944  0.6340
 7849SOL    HW235007   2.522   2.531  15.561  0.3205 -0.7034 -1.7912
 7850SOL     OW35008   2.000   4.084  13.737 -0.2250  0.1010  0.4075
 7850SOL    HW135009   1.975   4.000  13.697 -1.1455  1.9198 -2.7971
 7850SOL    HW235010   1.927   4.138  13.707  0.2501  0.3924 -0.2101
 7851SOL     OW35011   3.511   3.658   9.041  0.3937  0.5812  0.5024
 7851SOL    HW135012   3.564   3.622   9.111 -1.3228  0.6590  1.8409
 7851SOL    HW235013   3.428   3.656   9.089  0.3862 -1.4283  0.4265
 7852SOL     OW35014   0.942   2.836   2.508  0.2329 -0.3736  0.1190
 7852SOL    HW135015   0.862   2.843   2.560  0.3691 -1.1855  0.4422
 7852SOL    HW235016   0.910   2.797   2.426 -2.3816  1.9030  0.0450
 7853SOL     OW35017   0.094   2.705   8.386  0.4865  0.3573 -0.0446
 7853SOL    HW135018   0.153   2.744   8.451  0.4139  4.4481 -2.4121
 7853SOL    HW235019   0.094   2.613   8.413 -1.7675 -0.1888 -1.9455
 7854SOL     OW35020   2.492   3.944   4.259 -0.2134 -0.1079  0.2526
 7854SOL    HW135021   2.470   3.876   4.196  0.8985 -0.2196 -0.0124
 7854SOL    HW235022   2.550   4.005   4.214 -0.9131  0.4786  0.1373
 7855SOL     OW35023   0.719   1.103   4.897 -0.3833  0.0772 -0.2137
 7855SOL    HW135024   0.674   1.182   4.928 -0.5285 -0.2064  0.2878
 7855SOL    HW235025   0.665   1.070   4.825 -2.3955  2.3338  0.2499
 7856SOL     OW35026   4.121   3.764  10.192  0.1015  0.5619 -0.2730
 7856SOL    HW135027   4.202   3.808  10.217 -0.3833  1.5162 -0.3425
 7856SOL    HW235028   4.122   3.681  10.240  2.9835  0.3696 -0.7199
 7857SOL     OW35029   4.028   4.331   2.213 -0.4230  0.3130 -0.3510
 7857SOL    HW135030   4.080   4.399   2.253  1.6918 -1.1605 -0.6165
 7857SOL    HW235031   4.078   4.344   2.132 -0.3006  1.0626 -0.1539
 7858SOL     OW35032   2.197   2.355  13.948  0.4073 -0.3303  0.0886
 7858SOL    HW135033   2.134   2.322  14.012  0.3063  0.9989  0.6868
 7858SOL    HW235034   2.256   2.404  14.006 -0.2339  1.4895 -0.7852
 7859SOL     OW35035   3.980   3.569   8.205 -0.0732 -0.7420  0.6574
 7859SOL    HW135036   3.911   3.631   8.181  1.0057  0.6166  1.0738
 7859SOL    HW235037   3.988   3.579   8.299  3.2053  0.2385  0.2854
 7860SOL     OW35038   4.414   1.819   1.703  0.1277 -0.3227  0.2217
 7860SOL    HW135039   4.500   1.806   1.741  0.4279 -2.3555 -1.1669
 7860SOL    HW235040   4.388   1.895   1.755  0.1747 -0.6428  0.7085
 7861SOL     OW35041   3.656   1.219   6.659 -0.7578  0.2173  0.3772
 7861SOL    HW135042   3.567   1.182   6.659 -1.1045  1.0229  2.1103
 7861SOL    HW235043   3.697   1.162   6.594  1.0931  0.5349  1.2673
 7862SOL     OW35044   1.076   0.250   2.788  0.0977 -0.2968 -0.7521
 7862SOL    HW135045   1.015   0.178   2.779 -0.8477  0.4750 -0.4910
 7862SOL    HW235046   1.113   0.240   2.876  0.4793 -2.3833 -1.1556
 7863SOL     OW35047   0.486   1.528   6.831  0.5437  0.2626  0.6623
 7863SOL    HW135048   0.518   1.486   6.751  2.0523  0.1217  1.3323
 7863SOL    HW235049   0.395   1.500   6.825  0.1893  1.6845 -0.4756
 7864SOL     OW35050   1.658   4.509   5.861 -0.2252  0.2249  0.2249
 7864SOL    HW135051   1.593   4.478   5.924  1.3166 -3.2548  0.1513
 7864SOL    HW235052   1.616   4.536   5.780  1.7959 -1.2081 -1.3025
 7865SOL     OW35053   0.824   2.464   3.544 -0.9009  0.3561 -0.0246
 7865SOL    HW135054   0.842   2.457   3.638 -0.0050  3.0099  0.0224
 7865SOL    HW235055   0.731   2.484   3.542 -0.9151  0.3494  0.6276
 7866SOL     OW35056   0.526   0.285   5.596 -0.9719 -0.2069 -0.1042
 7866SOL    HW135057   0.551   0.228   5.668  1.4050  2.7454  1.3857
 7866SOL    HW235058   0.575   0.364   5.617 -0.2373 -0.7920  0.3691
 7867SOL     OW35059   4.148   3.457   2.187  0.2828 -0.3875 -0.1704
 7867SOL    HW135060   4.104   3.393   2.131 -1.4091  1.3897 -0.8719
 7867SOL    HW235061   4.067   3.492   2.222  1.1936  1.2416  0.3161
 7868SOL     OW35062   3.301   1.574   3.014  0.2166  0.1193  0.5677
 7868SOL    HW135063   3.323   1.500   3.071  1.7988 -0.7029 -1.0952
 7868SOL    HW235064   3.209   1.580   3.039  0.1822 -1.8765  0.9280
 7869SOL     OW35065   0.788   2.905   1.304  0.1549  0.2262  0.3088
 7869SOL    HW135066   0.769   2.897   1.211  2.0600 -2.0922  0.1280
 7869SOL    HW235067   0.803   3.000   1.304 -0.7996  0.3854  1.4347
 7870SOL     OW35068   0.357   4.176   4.684  0.1636 -0.2775 -0.2584
 7870SOL    HW135069   0.348   4.263   4.646  0.3188 -0.6228 -1.0781
 7870SOL    HW235070   0.389   4.122   4.612  0.2991  1.1019 -1.2159
 7871SOL     OW35071   2.344   4.473   3.450 -0.2371 -0.0046 -0.6907
 7871SOL    HW135072   2.389   4.522   3.519  1.3774  0.5922 -2.1723
 7871SOL    HW235073   2.403   4.400   3.432  0.1465  0.5860 -1.8287
 7872SOL     OW35074   2.210   0.866  12.655 -0.2765 -0.5151 -0.4463
 7872SOL    HW135075   2.127   0.901  12.687  0.7399 -2.0276  3.7871
 7872SOL    HW235076   2.267   0.943  12.662 -1.6273  0.2109  2.5559
 7873SOL     OW35077   4.528   1.328   8.210  0.2209  0.3228 -0.5072
 7873SOL    HW135078   4.599   1.264   8.211  0.8204  1.0034  0.3777
 7873SOL    HW235079   4.568   1.402   8.256 -1.0757 -0.0260  1.1938
 7874SOL     OW35080   1.041   0.740   7.799 -0.3579  0.2244 -0.1398
 7874SOL    HW135081   0.983   0.705   7.867  0.4250  1.3328  1.0883
 7874SOL    HW235082   0.997   0.701   7.723  1.1340  0.1509 -0.9827
 7875SOL     OW35083   2.683   3.839   1.480  0.1706 -0.3863 -0.0808
 7875SOL    HW135084   2.763   3.797   1.514  1.0745  0.9857 -0.5273
 7875SOL    HW235085   2.625   3.783   1.532  1.0428  0.5385  1.8849
 7876SOL     OW35086   2.221   2.620   7.446  0.6081  0.4786 -0.5857
 7876SOL    HW135087   2.139   2.595   7.487  0.9937  0.3441  0.1167
 7876SOL    HW235088   2.274   2.649   7.521  0.1994  0.8213 -0.4273
 7877SOL     OW35089   1.809   3.412   6.616  0.0883  0.4130  0.0978
 7877SOL    HW135090   1.846   3.486   6.569 -0.9724  0.3247 -0.8756
 7877SOL    HW235091   1.791   3.451   6.702  0.0544  1.7497 -0.5187
 7878SOL     OW35092   2.061   2.940  15.212 -0.3652 -0.4876 -0.6602
 7878SOL    HW135093   2.142   2.991  15.222 -0.6188  0.1700 -1.9072
 7878SOL    HW235094   1.992   3.007  15.205  1.7362  1.8221  0.5294
 7879SOL     OW35095   1.237   2.487   2.056  0.1733 -0.1537 -0.0072
 7879SOL    HW135096   1.249   2.542   2.134 -1.7044  0.5349 -0.1882
 7879SOL    HW235097   1.196   2.545   1.992  0.9366 -0.3883 -0.7040
 7880SOL     OW35098   0.366   4.489   6.306 -0.3172  0.1429  0.1060
 7880SOL    HW135099   0.457   4.499   6.335 -0.1045 -2.6042  0.3905
 7880SOL    HW235100   0.343   4.581   6.297 -3.4739 -0.4828  1.8880
 7881SOL     OW35101   3.271   4.659   4.423  0.3198 -0.3337  0.0621
 7881SOL    HW135102   3.321   4.686   4.346  0.3417 -1.9726 -0.4991
 7881SOL    HW235103   3.281   4.564   4.426 -4.0300 -0.7150  2.5063
 7882SOL     OW35104   0.531   3.442   0.436 -0.4451  0.4707  0.0949
 7882SOL    HW135105   0.537   3.363   0.489  1.3964  1.2111  0.9736
 7882SOL    HW235106   0.516   3.399   0.352  2.5231 -1.1594  0.4084
 7883SOL     OW35107   1.417   2.312   2.133  0.0564 -0.0595 -0.5109
 7883SOL    HW135108   1.347   2.355   2.084  1.7126  1.9135 -1.1499
 7883SOL    HW235109   1.419   2.353   2.220 -1.5525 -2.8394  0.8547
 7884SOL     OW35110   0.417   0.591   7.358  0.0599 -0.0719 -0.2625
 7884SOL    HW135111   0.324   0.591   7.380  0.4766 -2.8380  1.4498
 7884SOL    HW235112   0.431   0.499   7.337 -0.7116 -0.6782  1.8883
 7885SOL     OW35113   2.217   3.821   5.643  0.4738  0.3760  0.4607
 7885SOL    HW135114   2.186   3.878   5.713 -3.8765 -1.3469 -0.0607
 7885SOL    HW235115   2.221   3.875   5.564  0.3968  0.4267  0.4916
 7886SOL     OW35116   3.846   2.401  12.813  0.3869 -0.0260 -0.2438
 7886SOL    HW135117   3.782   2.472  12.824 -2.4263 -3.0732  2.9597
 7886SOL    HW235118   3.893   2.433  12.735  3.3381 -0.2135  1.4549
 7887SOL     OW35119   4.526   2.888   6.072  0.7800 -0.0131  0.9470
 7887SOL    HW135120   4.561   2.829   6.005  2.1343  0.8043  0.9318
 7887SOL    HW235121   4.594   2.890   6.140 -0.4488 -0.2861  2.1907
 7888SOL     OW35122   2.179   3.003   4.865 -0.2535 -0.6580  0.0964
 7888SOL    HW135123   2.233   2.924   4.856 -0.8878 -1.0568 -0.1643
 7888SOL    HW235124   2.194   3.017   4.959  1.5773  0.2233 -0.3252
 7889SOL     OW35125   3.974   2.540   4.941 -0.7055 -0.1481  0.5427
 7889SOL    HW135126   4.054   2.587   4.961 -1.2187  0.8337  0.2835
 7889SOL    HW235127   3.929   2.546   5.026 -0.0727  1.0208  0.7930
 7890SOL     OW35128   1.874   3.104   8.332 -0.1229  0.2061  0.5911
 7890SOL    HW135129   1.858   3.134   8.242  0.7622 -4.0137 -0.9695
 7890SOL    HW235130   1.805   3.152   8.378  0.2609  0.9253  0.4182
 7891SOL     OW35131   3.912   3.237   7.002  0.0185  0.1752  0.7193
 7891SOL    HW135132   3.869   3.269   7.081 -2.5631 -1.3666 -0.0504
 7891SOL    HW235133   3.836   3.255   6.947 -0.6710 -0.0245  1.6072
 7892SOL     OW35134   4.435   1.163   9.111  0.2955 -0.2440 -0.2093
 7892SOL    HW135135   4.528   1.183   9.123  0.6042 -1.8400  0.0204
 7892SOL    HW235136   4.449   1.070   9.095  1.8134 -0.0127 -0.2142
 7893SOL     OW35137   1.207   3.304  16.580  0.5935  0.4606  0.3447
 7893SOL    HW135138   1.187   3.324  16.672  2.4889  0.4042  0.7768
 7893SOL    HW235139   1.191   3.382  16.528 -1.5114  0.2513  0.6567
 7894SOL     OW35140   1.304   4.014   1.843 -0.6562  0.3713  0.2107
 7894SOL    HW135141   1.283   4.106   1.856 -0.5771  0.6286 -1.5140
 7894SOL    HW235142   1.231   3.986   1.788 -1.4626  0.6385  1.1395
 7895SOL     OW35143   3.342   4.618  16.561 -0.1772  0.4313 -0.0253
 7895SOL    HW135144   3.434   4.621  16.585 -0.0265 -1.6703 -0.2855
 7895SOL    HW235145   3.315   4.602  16.651  1.3540  1.2806  0.5674
 7896SOL     OW35146   3.516   0.801  16.193  0.3721 -0.2329 -0.4767
 7896SOL    HW135147   3.422   0.817  16.198  0.7356  1.2635  1.4507
 7896SOL    HW235148   3.543   0.834  16.107 -0.8433  3.2474  0.4621
 7897SOL     OW35149   4.352   2.494   2.323  0.4574  0.3995  0.3951
 7897SOL    HW135150   4.301   2.540   2.389 -0.7699 -0.2721 -0.0890
 7897SOL    HW235151   4.339   2.538   2.239 -0.7466 -1.0064 -0.1661
 7898SOL     OW35152   2.045   2.942   8.800 -0.0554  0.3240 -0.2528
 7898SOL    HW135153   1.990   3.020   8.787 -2.3632 -1.4743 -1.2665
 7898SOL    HW235154   1.981   2.882   8.839 -0.6435 -0.3514 -2.2995
 7899SOL     OW35155   2.364   0.092  16.711 -0.7225  0.1043 -0.0305
 7899SOL    HW135156   2.390   0.102  16.803  2.0155 -1.8357 -0.5866
 7899SOL    HW235157   2.307   0.166  16.690  0.2225  0.6477 -0.6461
 7900SOL     OW35158   4.585   0.466  12.696 -0.3215 -0.7968  0.0590
 7900SOL    HW135159   4.572   0.421  12.780 -0.9903  0.8125  0.8301
 7900SOL    HW235160   4.506   0.519  12.690 -0.1939 -0.9023 -2.6895
 7901SOL     OW35161   2.742   3.549  12.253 -0.3320  0.1890  0.1909
 7901SOL    HW135162   2.691   3.588  12.182  0.3892  1.9478  0.6493
 7901SOL    HW235163   2.726   3.612  12.323  2.0811  1.4509 -0.4233
 7902SOL     OW35164   0.303   0.434   5.311 -0.0815 -0.2425  0.0777
 7902SOL    HW135165   0.238   0.505   5.308  1.2832  0.9549 -0.8993
 7902SOL    HW235166   0.372   0.475   5.259  1.1896 -1.9542  0.4461
 7903SOL     OW35167   2.271   3.682  13.209  0.1147 -0.0252  0.2304
 7903SOL    HW135168   2.236   3.765  13.240 -1.1301 -0.0556 -1.1098
 7903SOL    HW235169   2.188   3.635  13.205 -1.6158  3.0680  0.2452
 7904SOL     OW35170   0.246   1.846   2.616 -0.4470  0.2375  0.7546
 7904SOL    HW135171   0.152   1.834   2.605 -0.5546  1.9232 -0.2092
 7904SOL    HW235172   0.288   1.797   2.545 -1.2144 -0.9017  1.0908
 7905SOL     OW35173   2.232   1.631   8.193 -0.5520 -0.1354  0.0767
 7905SOL    HW135174   2.192   1.545   8.178  0.5355 -0.5373 -0.5149
 7905SOL    HW235175   2.219   1.652   8.285  1.4614  1.1707  0.0640
 7906SOL     OW35176   1.020   2.805   4.610 -0.1396 -0.3840  0.5160
 7906SOL    HW135177   0.954   2.849   4.557 -0.1119 -1.4515 -0.3986
 7906SOL    HW235178   1.077   2.770   4.542 -1.6720 -0.4036 -0.7529
 7907SOL     OW35179   4.701   3.933   9.342  0.1549 -0.6728 -0.4596
 7907SOL    HW135180   0.024   3.852   9.322 -0.2244 -0.6708 -1.3344
 7907SOL    HW235181   4.611   3.902   9.355 -0.7102  2.4584  1.0628
 7908SOL     OW35182   3.642   4.024   3.905 -0.5922 -0.4914 -0.2638
 7908SOL    HW135183   3.643   4.098   3.966 -2.1176 -0.1778 -0.6077
 7908SOL    HW235184   3.656   3.945   3.958 -2.2044  0.3719  1.4638
 7909SOL     OW35185   1.531   0.882   2.595 -0.6763 -0.2952 -0.2683
 7909SOL    HW135186   1.558   0.973   2.590 -1.7894  0.0657  0.4056
 7909SOL    HW235187   1.615   0.838   2.581 -0.8165  0.3550 -3.1858
 7910SOL     OW35188   4.537   3.988   7.782 -0.4553 -0.4077  0.0611
 7910SOL    HW135189   4.526   4.068   7.731 -0.9858  0.2787  1.2381
 7910SOL    HW235190   4.567   3.931   7.712  1.2299  0.1144  0.3690
 7911SOL     OW35191   2.039   0.262  15.212  0.1470  0.3474 -1.4044
 7911SOL    HW135192   1.959   0.213  15.230  1.2527 -0.7650  0.4509
 7911SOL    HW235193   2.083   0.246  15.296  0.2350  2.3497 -1.0700
 7912SOL     OW35194   1.475   3.000   2.272  0.4577 -0.4927 -0.0349
 7912SOL    HW135195   1.465   3.029   2.181  1.4982 -1.3195 -0.4159
 7912SOL    HW235196   1.526   3.073   2.306 -0.4516  0.1632 -0.0745
 7913SOL     OW35197   4.674   4.396  10.123  0.3157 -0.6575 -0.2571
 7913SOL    HW135198   0.011   4.436  10.060 -0.1105  1.8484  0.9374
 7913SOL    HW235199   4.714   4.426  10.204 -1.3311  0.2644  0.2032
 7914SOL     OW35200   3.596   1.896   3.895  0.0744 -0.3584 -0.4932
 7914SOL    HW135201   3.579   1.886   3.988 -1.0009  2.3790 -0.4011
 7914SOL    HW235202   3.605   1.990   3.879  0.8183 -0.2390  0.6076
 7915SOL     OW35203   3.247   2.145   2.404  0.1945 -0.5774 -0.6255
 7915SOL    HW135204   3.321   2.172   2.458 -2.1707  0.4873  2.0971
 7915SOL    HW235205   3.188   2.218   2.421  0.2533 -0.8507  0.7522
 7916SOL     OW35206   3.744   3.808  14.136 -0.3745  0.1652 -0.5006
 7916SOL    HW135207   3.753   3.718  14.106 -1.8622 -0.1336 -0.0303
 7916SOL    HW235208   3.653   3.831  14.117 -0.1058  2.6076  1.2000
 7917SOL     OW35209   0.502   3.467  16.410  0.1517  0.5034  0.0932
 7917SOL    HW135210   0.582   3.519  16.408 -0.5802  1.6842  2.3146
 7917SOL    HW235211   0.481   3.445  16.319  0.0322 -0.8768  0.4510
 7918SOL     OW35212   3.903   3.216   9.621 -0.3645 -0.0943  0.2560
 7918SOL    HW135213   3.896   3.128   9.584  1.9340 -0.4238  0.5748
 7918SOL    HW235214   3.997   3.234   9.613  0.0016 -2.0132  0.2347
 7919SOL     OW35215   3.079   0.265   6.666 -0.2965  0.2590 -0.5744
 7919SOL    HW135216   3.136   0.326   6.714 -1.6023 -0.9905  2.5600
 7919SOL    HW235217   3.141   0.239   6.598  0.1885 -0.5945  0.1823
 7920SOL     OW35218   2.609   4.385  17.679  0.0840  0.0004  0.0648
 7920SOL    HW135219   2.554   4.358   0.056  0.9805  0.8417  1.0442
 7920SOL    HW235220   2.636   4.301  17.642 -1.5804 -1.5600  2.3898
 7921SOL     OW35221   1.787   3.834   8.039  0.2253 -0.0599 -0.3105
 7921SOL    HW135222   1.856   3.892   8.007  0.4430  0.4415  1.0736
 7921SOL    HW235223   1.814   3.829   8.131  0.7931 -1.4549 -0.5547
 7922SOL     OW35224   0.840   4.262   7.137 -0.3469  0.1033  0.3511
 7922SOL    HW135225   0.769   4.305   7.090  0.6623  3.0705  1.5571
 7922SOL    HW235226   0.809   4.249   7.226 -1.6036  2.2620  0.2162
 7923SOL     OW35227   0.698   2.266  16.346 -0.2556  0.8794  0.5298
 7923SOL    HW135228   0.762   2.200  16.373 -3.0959 -2.3613 -0.6015
 7923SOL    HW235229   0.733   2.280  16.259 -0.6117 -3.6627 -0.3451
 7924SOL     OW35230   3.388   3.717   5.056  0.2199  0.5175  0.1945
 7924SOL    HW135231   3.479   3.686   5.056 -0.2979 -0.9906 -2.7131
 7924SOL    HW235232   3.361   3.693   4.967 -2.2659  0.8736  0.8579
 7925SOL     OW35233   3.546   0.477   0.572 -0.0688  0.1411 -0.3126
 7925SOL    HW135234   3.470   0.426   0.599  0.8744  1.3229  4.5532
 7925SOL    HW235235   3.516   0.490   0.482 -1.5882 -1.6887 -0.0635
 7926SOL     OW35236   0.211   2.828  16.064 -0.2255 -0.0456  0.0698
 7926SOL    HW135237   0.291   2.782  16.087 -0.5132 -0.3711  0.4231
 7926SOL    HW235238   0.147   2.761  16.038  0.0508 -0.6008  0.8310
 7927SOL     OW35239   4.359   0.589   1.057  0.2748 -0.2421 -0.0237
 7927SOL    HW135240   4.431   0.647   1.035 -1.3605  1.2921 -1.2795
 7927SOL    HW235241   4.365   0.581   1.153  0.0168 -1.8699 -0.1441
 7928SOL     OW35242   0.983   0.294   5.817 -0.5129 -0.4880 -0.3544
 7928SOL    HW135243   1.057   0.275   5.759  0.1878 -0.0265  0.3765
 7928SOL    HW235244   0.963   0.386   5.806  1.5748  0.3188  2.5985
 7929SOL     OW35245   0.117   0.353   3.165  0.4452 -0.0305 -0.1439
 7929SOL    HW135246   0.105   0.313   3.252  2.2271  2.2382  1.1452
 7929SOL    HW235247   0.153   0.287   3.106  2.2844 -0.1841  1.1691
 7930SOL     OW35248   2.545   2.929  16.153  0.4616 -0.0147 -0.4105
 7930SOL    HW135249   2.537   3.003  16.213 -1.0868 -0.5999  0.1041
 7930SOL    HW235250   2.637   2.902  16.157  1.1413  2.4765  0.7369
 7931SOL     OW35251   0.092   2.238  14.763 -0.0935 -0.4424 -0.2056
 7931SOL    HW135252   0.051   2.324  14.749  2.0125  0.5631 -0.1792
 7931SOL    HW235253   0.025   2.193  14.813 -0.7256 -1.8468 -2.2945
 7932SOL     OW35254   1.177   0.836  13.077  0.6225 -0.2417 -0.4874
 7932SOL    HW135255   1.205   0.898  13.144 -0.4607 -1.0225  0.6834
 7932SOL    HW235256   1.117   0.887  13.023 -1.2245 -1.3217  0.5264
 7933SOL     OW35257   1.836   1.055   9.297  0.0768  0.2164  0.0230
 7933SOL    HW135258   1.769   1.091   9.356 -0.7785  1.4138 -1.6913
 7933SOL    HW235259   1.875   1.121   9.241 -0.7269 -0.9382 -1.8936
 7934SOL     OW35260   3.667   2.942   3.750  0.8775 -0.0893  0.1521
 7934SOL    HW135261   3.690   2.885   3.823 -0.6426  1.2680  1.7148
 7934SOL    HW235262   3.625   2.885   3.687  0.6935 -0.9593  1.0583
 7935SOL     OW35263   1.378   4.443  11.644  0.0704  0.0350  0.1293
 7935SOL    HW135264   1.417   4.375  11.698 -0.3043  0.2359  0.6485
 7935SOL    HW235265   1.317   4.388  11.595  0.7981 -1.3076  0.7359
 7936SOL     OW35266   2.911   4.275   1.838  0.1060  0.2191 -0.0158
 7936SOL    HW135267   2.876   4.191   1.807 -0.3237  0.1229  0.7454
 7936SOL    HW235268   2.992   4.241   1.876  0.5622  0.3796 -0.8528
 7937SOL     OW35269   2.758   1.191   5.008  0.0518  0.2963 -0.5728
 7937SOL    HW135270   2.756   1.273   4.958  0.8701 -0.3460 -1.6676
 7937SOL    HW235271   2.728   1.140   4.933 -0.0901 -1.3930  0.6469
 7938SOL     OW35272   1.259   1.571   9.439 -0.2617  0.0285  0.5246
 7938SOL    HW135273   1.242   1.573   9.345  0.7615 -0.2097  0.3275
 7938SOL    HW235274   1.299   1.656   9.454  0.4704  0.2488 -2.5450
 7939SOL     OW35275   0.513   0.055  17.330  0.4638 -0.3664 -0.6146
 7939SOL    HW135276   0.463   0.136  17.330 -0.4505 -0.9220  2.4118
 7939SOL    HW235277   0.480   0.011  17.252 -0.6394 -1.0215  0.2107
 7940SOL     OW35278   2.809   0.495   8.540  0.1849  0.4377  0.1895
 7940SOL    HW135279   2.856   0.433   8.597  1.5010  1.3147  0.0476
 7940SOL    HW235280   2.817   0.580   8.582 -0.0039  1.1231 -1.1533
 7941SOL     OW35281   0.647   1.180  10.985 -0.1146  0.0740  0.6554
 7941SOL    HW135282   0.665   1.273  10.971  0.4759 -0.3680 -1.6316
 7941SOL    HW235283   0.561   1.167  10.945  1.4141 -1.8580 -2.0677
 7942SOL     OW35284   4.586   1.739  13.202 -0.4049 -0.1370 -0.1335
 7942SOL    HW135285   4.568   1.665  13.261  2.9050 -1.3667 -0.6182
 7942SOL    HW235286   4.607   1.697  13.119  0.5840  0.2613 -0.0931
 7943SOL     OW35287   3.645   4.399   5.488  0.1188 -0.1723  0.1260
 7943SOL    HW135288   3.615   4.455   5.559  0.5240 -0.9838  0.9247
 7943SOL    HW235289   3.646   4.462   5.416 -0.2325  0.7631  0.9392
 7944SOL     OW35290   4.085   2.964  15.211  0.2952 -0.0817 -0.1043
 7944SOL    HW135291   4.090   2.884  15.262  2.4583  0.5179  0.6086
 7944SOL    HW235292   4.030   3.028  15.255  0.1915 -0.8521  0.8685
 7945SOL     OW35293   3.738   1.962   0.898 -0.2897 -0.3652  0.0494
 7945SOL    HW135294   3.823   1.965   0.855  0.0659  1.0210  0.8589
 7945SOL    HW235295   3.761   1.984   0.988 -0.6678 -0.9572  0.2928
 7946SOL     OW35296   1.265   2.663  11.208 -0.0945 -0.0206 -0.1507
 7946SOL    HW135297   1.184   2.614  11.194  0.1734 -0.3916 -0.4062
 7946SOL    HW235298   1.307   2.596  11.263  1.4510  1.3810  0.3803
 7947SOL     OW35299   2.511   2.933   0.693  0.1033 -0.4109  0.6702
 7947SOL    HW135300   2.473   2.972   0.613  0.4706  1.8417  1.5855
 7947SOL    HW235301   2.545   2.849   0.662  2.8214  2.1904 -3.4970
 7948SOL     OW35302   4.203   0.079  14.406  0.2265 -0.3780 -0.4830
 7948SOL    HW135303   4.278   0.124  14.367  1.3040 -1.0281  0.8279
 7948SOL    HW235304   4.247   0.034  14.479  0.4564  2.0175  0.8398
 7949SOL     OW35305   0.816   1.541  14.216  0.6892 -0.0886  0.0312
 7949SOL    HW135306   0.873   1.534  14.140 -1.4863  1.2878 -1.7172
 7949SOL    HW235307   0.770   1.457  14.220  0.9674 -0.2713 -0.7935
 7950SOL     OW35308   1.206   1.512   1.299 -0.0387  0.2622  0.0939
 7950SOL    HW135309   1.280   1.545   1.349 -0.4033  2.5368 -0.8818
 7950SOL    HW235310   1.138   1.522   1.366 -0.6597 -1.1744 -0.3216
 7951SOL     OW35311   4.342   3.963  10.232  0.2728  0.3408 -0.0281
 7951SOL    HW135312   4.283   4.037  10.244 -1.2857 -0.7882 -0.6866
 7951SOL    HW235313   4.412   3.988  10.291  0.6904  0.4062 -0.5483
 7952SOL     OW35314   1.574   0.433   6.722 -0.5168  0.0026 -0.2368
 7952SOL    HW135315   1.550   0.425   6.814  1.4853 -0.3003  0.2544
 7952SOL    HW235316   1.667   0.449   6.734 -0.2791 -0.9299 -0.8028
 7953SOL     OW35317   3.904   3.647  10.911 -0.6815  0.2807  0.1851
 7953SOL    HW135318   3.921   3.739  10.890 -0.6406  0.7582  2.3593
 7953SOL    HW235319   3.847   3.638  10.834  1.4901 -1.1942 -1.2679
 7954SOL     OW35320   1.443   4.352  16.659  0.3751  0.0899 -0.6442
 7954SOL    HW135321   1.410   4.310  16.579 -0.7353  2.9276 -1.6804
 7954SOL    HW235322   1.522   4.301  16.675  1.5197  2.4870  1.1199
 7955SOL     OW35323   0.797   0.057   7.793  0.4507  0.2364 -0.3351
 7955SOL    HW135324   0.774   0.149   7.806  0.0561  0.1461 -0.3814
 7955SOL    HW235325   0.783   0.060   7.698  0.5654 -3.3438 -0.4651
 7956SOL     OW35326   2.694   4.368   6.348 -0.5810 -0.7887  0.4169
 7956SOL    HW135327   2.619   4.399   6.399  0.3906 -0.7549  1.8091
 7956SOL    HW235328   2.660   4.366   6.259 -0.4802 -0.1762  0.3643
 7957SOL     OW35329   1.450   3.038  16.462 -0.0704 -0.0189 -0.2845
 7957SOL    HW135330   1.390   3.030  16.536 -2.3265  0.3088 -2.0495
 7957SOL    HW235331   1.500   2.957  16.467  0.0319 -0.0760 -2.0222
 7958SOL     OW35332   2.359   1.097  12.717  0.0733 -0.2145  0.5278
 7958SOL    HW135333   2.322   1.103  12.805 -0.1881  1.2681  0.3083
 7958SOL    HW235334   2.448   1.104  12.751  0.5038 -1.1772 -0.3916
 7959SOL     OW35335   4.552   1.251   6.605 -0.4953  0.2729 -0.7704
 7959SOL    HW135336   4.526   1.202   6.683 -1.2231  2.6652  0.5284
 7959SOL    HW235337   4.474   1.267   6.552 -0.5867 -6.1192 -2.5429
 7960SOL     OW35338   3.739   2.445   7.425  0.1712 -0.0036 -0.2392
 7960SOL    HW135339   3.651   2.472   7.455  0.0503  0.7164 -1.2504
 7960SOL    HW235340   3.775   2.402   7.503 -0.5003 -0.1666 -0.0163
 7961SOL     OW35341   2.829   3.826   8.522  0.5286 -0.4133  0.3330
 7961SOL    HW135342   2.898   3.811   8.457 -0.2173 -1.2966 -0.2494
 7961SOL    HW235343   2.796   3.903   8.476  1.7858 -0.0411  0.0468
 7962SOL     OW35344   4.605   0.815   8.086  0.0219 -0.2947 -0.2049
 7962SOL    HW135345   4.677   0.759   8.058 -0.9349 -0.9728 -1.2930
 7962SOL    HW235346   4.616   0.897   8.038  1.0830 -0.6343 -0.5635
 7963SOL     OW35347   4.440   4.426   4.216  0.0364  0.3053 -0.2333
 7963SOL    HW135348   4.384   4.488   4.263  1.3261 -0.1258  1.8686
 7963SOL    HW235349   4.404   4.430   4.127 -0.4639  0.5011 -0.0248
 7964SOL     OW35350   1.392   4.678  13.583  0.3182  0.0770 -0.4978
 7964SOL    HW135351   1.355   4.627  13.511 -2.6711  2.0059 -0.3314
 7964SOL    HW235352   1.416   0.026  13.525  1.2419 -0.4032 -0.7186
 7965SOL     OW35353   0.553   2.964   2.551  0.3394  0.2945  0.0792
 7965SOL    HW135354   0.520   2.918   2.474  0.3990 -2.0143  1.4495
 7965SOL    HW235355   0.485   2.937   2.613 -0.8907  3.5111  0.1499
 7966SOL     OW35356   3.499   3.199   0.154  0.1277  0.1272 -0.5161
 7966SOL    HW135357   3.578   3.161   0.115  1.7265  1.0196  1.8447
 7966SOL    HW235358   3.445   3.203   0.075 -0.7430 -1.2522  0.0160
 7967SOL     OW35359   2.772   0.218   5.649 -1.1054 -0.1966  0.5356
 7967SOL    HW135360   2.754   0.140   5.597 -0.4562  0.1403 -0.1918
 7967SOL    HW235361   2.683   0.255   5.643 -1.6706 -1.3342  1.9769
 7968SOL     OW35362   1.821   2.949   6.409  0.5546 -0.0903  0.1854
 7968SOL    HW135363   1.847   2.983   6.495 -2.3821 -1.4512  1.5992
 7968SOL    HW235364   1.863   2.865   6.395 -0.3368 -0.2103 -1.7697
 7969SOL     OW35365   1.734   1.967  12.970 -0.2875  0.1774 -0.3777
 7969SOL    HW135366   1.659   1.911  12.989 -0.3260 -0.3087 -1.9463
 7969SOL    HW235367   1.795   1.896  12.989  1.5252  2.5169  2.5561
 7970SOL     OW35368   3.940   4.214  10.796 -0.1696 -0.5604  0.2298
 7970SOL    HW135369   3.873   4.149  10.772 -0.2320  0.0534 -1.2629
 7970SOL    HW235370   4.021   4.163  10.790 -0.7172 -1.3849 -0.2511
 7971SOL     OW35371   1.852   0.528  13.418  0.0944 -0.5495 -0.2973
 7971SOL    HW135372   1.922   0.546  13.481 -0.6149 -2.0622  0.9193
 7971SOL    HW235373   1.786   0.515  13.487 -1.2456 -0.4842 -1.5708
 7972SOL     OW35374   3.208   4.442  14.687 -0.6155 -0.3658  0.4027
 7972SOL    HW135375   3.254   4.360  14.704  0.9744  0.3512 -0.4658
 7972SOL    HW235376   3.189   4.475  14.774  0.3896 -0.6593  0.7308
 7973SOL     OW35377   3.268   1.816   8.673 -0.1992 -1.0472 -0.3608
 7973SOL    HW135378   3.241   1.906   8.687 -2.3141 -1.8933  1.0139
 7973SOL    HW235379   3.344   1.811   8.730 -0.1810  4.7439  0.0805
 7974SOL     OW35380   0.477   1.918   6.930 -0.4291 -0.3659  0.0706
 7974SOL    HW135381   0.492   1.861   7.006  0.0854 -0.0294  0.2204
 7974SOL    HW235382   0.464   1.852   6.862 -2.6029  2.0858 -1.9006
 7975SOL     OW35383   1.988   4.449  10.036 -0.0605 -0.2969 -0.2178
 7975SOL    HW135384   2.001   4.543  10.044  1.4126 -0.6375  1.4956
 7975SOL    HW235385   1.937   4.440   9.955  2.4313  2.3288 -2.0571
 7976SOL     OW35386   1.238   0.332   9.200  0.1935 -0.3338  0.1605
 7976SOL    HW135387   1.293   0.266   9.240  0.0884 -1.0048 -0.7910
 7976SOL    HW235388   1.234   0.310   9.107 -0.2190 -2.3216  0.6576
 7977SOL     OW35389   2.136   3.252   5.240 -0.3348  0.5045 -0.1336
 7977SOL    HW135390   2.111   3.335   5.278 -0.5753  1.3889 -2.2205
 7977SOL    HW235391   2.216   3.272   5.190 -0.9076 -0.1749 -1.3223
 7978SOL     OW35392   0.807   3.759   9.683  0.5063 -0.2502  0.2402
 7978SOL    HW135393   0.872   3.702   9.642  0.6140 -0.4419  0.6797
 7978SOL    HW235394   0.750   3.701   9.733  1.3662 -1.0090  0.3393
 7979SOL     OW35395   0.805   1.924  15.196 -0.1563  0.2025 -0.1785
 7979SOL    HW135396   0.763   2.003  15.161 -0.0059  0.6085  0.5377
 7979SOL    HW235397   0.769   1.919  15.285 -1.2547  0.8863 -0.5761
 7980SOL     OW35398   1.500   0.862   5.507 -0.1232 -0.1382 -0.1552
 7980SOL    HW135399   1.591   0.884   5.487  0.0117 -0.7261 -0.2092
 7980SOL    HW235400   1.506   0.768   5.488 -0.7413 -0.6261  2.0561
 7981SOL     OW35401   3.102   4.526  15.487 -0.3687 -0.2428 -0.0917
 7981SOL    HW135402   3.141   4.534  15.574  0.0521  0.7557 -0.3714
 7981SOL    HW235403   3.117   4.433  15.469 -1.3618 -0.2329 -0.9696
 7982SOL     OW35404   2.387   1.573   1.433  0.1633  0.0557 -0.1389
 7982SOL    HW135405   2.432   1.535   1.508 -2.1709  1.5642  2.0224
 7982SOL    HW235406   2.299   1.536   1.429  0.2988 -0.6350  3.7750
 7983SOL     OW35407   4.341   0.972  11.272  0.0631  0.2881 -0.2460
 7983SOL    HW135408   4.284   0.970  11.195 -0.7768  1.7456  0.3396
 7983SOL    HW235409   4.396   0.894  11.261 -0.8746 -0.4609  0.4322
 7984SOL     OW35410   4.177   0.115   7.344 -0.2246  0.0657  0.2330
 7984SOL    HW135411   4.124   0.146   7.417  0.6576 -1.2241  1.4190
 7984SOL    HW235412   4.221   0.196   7.319  2.3228 -1.9239 -1.7358
 7985SOL     OW35413   2.115   4.318   3.866 -0.1446 -0.8214 -0.6777
 7985SOL    HW135414   2.148   4.341   3.780 -0.1565  0.5545 -0.3104
 7985SOL    HW235415   2.033   4.277   3.841 -1.3663  0.4214  1.2589
 7986SOL     OW35416   2.545   4.713   6.484 -0.4994  0.1360 -0.3373
 7986SOL    HW135417   2.610   4.685   6.548 -0.8575 -0.9929 -0.4721
 7986SOL    HW235418   2.479   4.645   6.501 -0.5033  0.0449 -0.7255
 7987SOL     OW35419   4.677   4.363   6.108  0.1575 -0.2632  0.1041
 7987SOL    HW135420   4.672   4.304   6.184 -3.0080  1.5237  1.2634
 7987SOL    HW235421   4.590   4.362   6.068 -0.2561  0.6619  0.9696
 7988SOL     OW35422   0.611   1.913   4.580  0.0535 -0.1380  0.3054
 7988SOL    HW135423   0.694   1.865   4.578 -0.1603 -0.5109  0.3873
 7988SOL    HW235424   0.597   1.934   4.672  2.3104  1.0028  0.4088
 7989SOL     OW35425   4.034   3.470   0.238  0.0376 -0.0706  0.0994
 7989SOL    HW135426   4.045   3.564   0.252 -0.6655  0.1405 -0.8011
 7989SOL    HW235427   3.985   3.465   0.320 -0.2670  3.7769  0.1232
 7990SOL     OW35428   2.360   4.630   4.299  0.0091 -0.3840 -0.6805
 7990SOL    HW135429   2.347   4.573   4.375 -2.4468  0.2939 -0.5929
 7990SOL    HW235430   2.386   4.560   4.240  1.4185 -0.2658 -0.2075
 7991SOL     OW35431   2.864   2.480   6.825 -0.0122 -0.0808 -0.2218
 7991SOL    HW135432   2.912   2.536   6.886  0.5687 -0.5628 -0.2321
 7991SOL    HW235433   2.820   2.546   6.772  0.8245  2.5725  2.3976
 7992SOL     OW35434   0.116   0.222   0.592  0.1320 -0.7094  0.1742
 7992SOL    HW135435   0.078   0.210   0.505  2.8518  0.4689 -1.1814
 7992SOL    HW235436   0.105   0.137   0.635  0.8814 -0.5657  0.6586
 7993SOL     OW35437   3.242   0.393  13.013  0.3118  0.1416 -0.4762
 7993SOL    HW135438   3.207   0.377  13.101  0.8980 -1.2657 -0.4925
 7993SOL    HW235439   3.326   0.437  13.026 -0.4307  1.2760  0.4488
 7994SOL     OW35440   2.671   1.638  16.479 -0.2076  0.4216  0.5462
 7994SOL    HW135441   2.716   1.574  16.424  0.0751  1.6592 -0.6619
 7994SOL    HW235442   2.625   1.585  16.543  0.4398 -0.6607  0.1189
 7995SOL     OW35443   2.025   1.208   8.375 -0.4331 -0.4362  0.0877
 7995SOL    HW135444   1.989   1.259   8.447  0.1439  0.3134 -0.1630
 7995SOL    HW235445   1.970   1.129   8.374 -2.3346  0.8516  2.0804
 7996SOL     OW35446   0.423   3.853  11.200 -0.8306  0.1574  0.5751
 7996SOL    HW135447   0.395   3.814  11.283 -2.5324  2.1275  0.9232
 7996SOL    HW235448   0.516   3.828  11.200 -1.2902 -1.5400  0.2831
 7997SOL     OW35449   2.101   0.480   6.681  0.0418 -0.1434  0.3221
 7997SOL    HW135450   2.112   0.410   6.617  3.5135  0.6401  0.0338
 7997SOL    HW235451   2.027   0.451   6.733  0.1704 -1.3052 -0.1536
 7998SOL     OW35452   1.927   0.545   8.270  0.8514  0.1387  0.6557
 7998SOL    HW135453   1.928   0.618   8.208 -0.1622  0.1266  0.6259
 7998SOL    HW235454   1.833   0.545   8.291  0.3036  3.0501 -1.7894
 7999SOL     OW35455   2.007   2.361   8.611  0.2831  0.2547 -0.2101
 7999SOL    HW135456   1.919   2.378   8.577 -0.2532 -2.6004 -0.2656
 7999SOL    HW235457   2.054   2.305   8.549  0.8369  0.9552 -0.4268
 8000SOL     OW35458   1.052   4.301   6.544 -0.0138 -0.0757 -0.0327
 8000SOL    HW135459   1.054   4.225   6.602 -1.6574  0.6288  0.9390
 8000SOL    HW235460   1.116   4.355   6.590 -0.5934 -0.4799  1.2293
 8001SOL     OW35461   2.614   1.180   9.586 -0.2077  0.3046 -0.2236
 8001SOL    HW135462   2.571   1.191   9.501  0.4221  1.4359 -0.3934
 8001SOL    HW235463   2.704   1.208   9.572 -0.0484 -0.0646  0.0934
 8002SOL     OW35464   4.685   1.431   6.133  0.2933  0.1165  0.0072
 8002SOL    HW135465   4.695   1.337   6.153 -2.7768 -0.6488 -2.0419
 8002SOL    HW235466   4.639   1.469   6.208  0.7885  1.5232 -0.4104
 8003SOL     OW35467   0.176   4.434   9.943 -0.8835  0.3544 -0.0330
 8003SOL    HW135468   0.145   4.444   9.853  1.4551 -0.1973 -0.8902
 8003SOL    HW235469   0.220   4.350   9.933  0.7892  1.3224 -0.9535
 8004SOL     OW35470   4.366   4.269   5.460 -0.3159  0.6917  0.0367
 8004SOL    HW135471   4.414   4.317   5.527  0.3777  2.4736 -1.7362
 8004SOL    HW235472   4.274   4.291   5.478 -0.5252 -0.5100  0.4314
 8005SOL     OW35473   3.152   0.570   0.595  0.5146 -0.1261  0.2255
 8005SOL    HW135474   3.215   0.501   0.615  0.8763 -0.0473 -0.6327
 8005SOL    HW235475   3.090   0.514   0.547 -0.2632  0.5169  0.4731
 8006SOL     OW35476   1.745   4.274   4.876 -0.0012  0.1380  0.0955
 8006SOL    HW135477   1.799   4.264   4.798 -1.7998 -2.7012 -0.7958
 8006SOL    HW235478   1.754   4.193   4.926 -0.1528 -0.3794 -0.7193
 8007SOL     OW35479   0.056   0.410   4.302 -0.5406 -0.1332 -0.2727
 8007SOL    HW135480   0.075   0.346   4.233 -2.7784  0.7548 -1.7411
 8007SOL    HW235481   0.079   0.349   4.372  1.1522  2.3058  1.3044
 8008SOL     OW35482   1.162   3.057  16.360  0.2270 -0.0798 -0.0983
 8008SOL    HW135483   1.164   3.140  16.313  0.6782 -0.1768 -0.2546
 8008SOL    HW235484   1.231   3.071  16.425  0.8322 -1.0330 -0.5218
 8009SOL     OW35485   4.370   4.269   6.119  0.2928 -0.2863 -0.0928
 8009SOL    HW135486   4.309   4.342   6.123  0.5565  0.0681 -2.4719
 8009SOL    HW235487   4.340   4.223   6.197 -1.7397 -0.6275 -1.0914
 8010SOL     OW35488   3.050   0.057   2.999  0.1474 -0.3478  0.0064
 8010SOL    HW135489   2.985   0.110   3.044 -0.2921 -0.6148 -0.3254
 8010SOL    HW235490   2.996   0.001   2.943  1.5183 -0.8179 -0.8534
 8011SOL     OW35491   0.547   3.770   5.361  0.0949 -0.6412  0.0104
 8011SOL    HW135492   0.640   3.781   5.340 -0.6963  2.3435 -1.9042
 8011SOL    HW235493   0.516   3.745   5.274  0.5517 -0.0181 -0.3315
 8012SOL     OW35494   4.302   2.554   7.951  0.2260 -0.3390  0.2075
 8012SOL    HW135495   4.271   2.587   7.866  1.8390  2.7546  0.8416
 8012SOL    HW235496   4.225   2.575   8.004 -0.3629  0.6464 -1.0405
 8013SOL     OW35497   1.785   0.196   5.396  0.2323 -0.7874 -0.5541
 8013SOL    HW135498   1.730   0.162   5.325  0.1751  0.4917 -1.1180
 8013SOL    HW235499   1.761   0.138   5.468  3.1793 -1.6752 -0.2903
 8014SOL     OW35500   1.000   0.565   5.895  0.2638 -0.0918 -0.1885
 8014SOL    HW135501   1.076   0.568   5.837  0.1383 -2.1644 -0.4491
 8014SOL    HW235502   1.029   0.498   5.957 -0.6900 -0.4887 -0.1684
 8015SOL     OW35503   2.062   2.047  14.348 -0.0996 -0.0547  0.2779
 8015SOL    HW135504   2.073   2.068  14.255  0.2199 -2.6312 -0.2556
 8015SOL    HW235505   2.076   1.952  14.351  5.2598  0.6879 -0.5288
 8016SOL     OW35506   4.505   4.455   5.599 -0.0949 -0.4505 -0.0847
 8016SOL    HW135507   4.487   4.541   5.637  2.3466 -0.1648  0.4485
 8016SOL    HW235508   4.553   4.415   5.672  1.5824  1.6050 -0.0238
 8017SOL     OW35509   1.721   2.458   9.858 -0.4865 -0.1199  0.3786
 8017SOL    HW135510   1.735   2.490   9.948 -0.6768 -1.6010  0.9433
 8017SOL    HW235511   1.628   2.478   9.860 -0.2620  0.9579  0.3110
 8018SOL     OW35512   2.958   4.251   2.569  0.0949  0.0502  0.2094
 8018SOL    HW135513   3.017   4.250   2.643 -0.2230 -0.1739  0.4599
 8018SOL    HW235514   2.919   4.339   2.576 -1.2296 -0.5217  0.1536
 8019SOL     OW35515   2.747   1.957   9.372  0.6923  0.2099 -0.5714
 8019SOL    HW135516   2.759   1.873   9.327  0.8694 -1.1387  1.9884
 8019SOL    HW235517   2.690   1.928   9.444  0.3334  1.7841 -0.2245
 8020SOL     OW35518   1.920   3.064   4.478 -0.6441  0.1776  0.1975
 8020SOL    HW135519   1.932   3.158   4.472  0.6710 -0.0705 -1.0289
 8020SOL    HW235520   1.847   3.048   4.419  0.6854  0.1016 -1.4277
 8021SOL     OW35521   4.300   4.594   5.248  0.6473  0.2268 -0.4819
 8021SOL    HW135522   4.230   4.529   5.240 -0.6770  1.5746  0.0683
 8021SOL    HW235523   4.261   4.662   5.304  0.8277  1.1171 -1.4422
 8022SOL     OW35524   0.432   4.058  11.736  0.0713 -0.0349  0.3707
 8022SOL    HW135525   0.396   4.119  11.672 -1.7396 -2.5464 -1.0288
 8022SOL    HW235526   0.347   4.026  11.767 -0.2111  1.5488  1.1966
 8023SOL     OW35527   0.591   2.096   1.998 -0.3258 -0.3783  0.2679
 8023SOL    HW135528   0.634   2.176   1.969 -2.1196  1.0627  1.5901
 8023SOL    HW235529   0.655   2.074   2.066 -0.1028 -1.0788 -0.1748
 8024SOL     OW35530   4.471   3.061   1.369  0.4551 -0.0459  0.4381
 8024SOL    HW135531   4.443   3.110   1.292  3.4709  1.5401  0.3533
 8024SOL    HW235532   4.502   3.130   1.427  0.6714 -0.4309  0.7807
 8025SOL     OW35533   4.707   1.659   5.011  0.1883 -0.1373 -0.2171
 8025SOL    HW135534   0.026   1.685   4.930  1.4078 -1.7888 -0.1235
 8025SOL    HW235535   4.632   1.718   5.009  1.7085  1.8160 -0.5032
 8026SOL     OW35536   0.844   4.140  12.623 -0.5146 -0.3304 -0.0676
 8026SOL    HW135537   0.754   4.111  12.630 -1.0510  0.8278 -2.0714
 8026SOL    HW235538   0.877   4.076  12.561  1.0171  0.8280 -0.4602
 8027SOL     OW35539   4.118   1.615   5.172  0.9798 -0.1345 -0.6297
 8027SOL    HW135540   4.125   1.589   5.264  0.8458  1.7662 -0.0706
 8027SOL    HW235541   4.061   1.547   5.137  1.2581 -1.0641  0.7545
 8028SOL     OW35542   4.029   4.429   3.937 -0.5816  0.4117  0.7025
 8028SOL    HW135543   4.026   4.350   3.884  1.2322  1.0212 -0.3373
 8028SOL    HW235544   4.031   4.498   3.871  0.4612 -0.7275 -0.4543
 8029SOL     OW35545   2.556   4.384   9.989  0.0605 -0.2664 -0.2081
 8029SOL    HW135546   2.618   4.366  10.060  1.3963 -2.2320 -1.8575
 8029SOL    HW235547   2.478   4.385  10.044 -0.1020  1.7507 -0.4927
 8030SOL     OW35548   3.845   0.759   6.746 -0.2069  0.8682 -0.1851
 8030SOL    HW135549   3.773   0.746   6.683  1.5379 -2.2183 -1.5658
 8030SOL    HW235550   3.796   0.780   6.826 -0.6541 -1.8392  0.2804
 8031SOL     OW35551   4.477   2.658   4.078  0.0412  0.5032  0.7643
 8031SOL    HW135552   4.424   2.714   4.022  3.6748  0.6885 -2.4126
 8031SOL    HW235553   4.406   2.623   4.133 -1.5103  1.1403 -0.8538
 8032SOL     OW35554   1.122   1.826   4.271  0.1917 -0.3192 -0.3515
 8032SOL    HW135555   1.123   1.906   4.324  1.0112  0.7596 -2.0017
 8032SOL    HW235556   1.080   1.763   4.329  2.7068 -0.6106  1.1556
 8033SOL     OW35557   0.160   3.671   3.791  0.0424 -0.1440  0.1114
 8033SOL    HW135558   0.131   3.636   3.707 -1.4058 -0.0075  0.5607
 8033SOL    HW235559   0.255   3.680   3.779  0.3521 -1.3491  1.6842
 8034SOL     OW35560   3.005   0.136  10.660 -0.1088  0.3985  0.2713
 8034SOL    HW135561   3.041   0.052  10.690 -2.2703 -0.6222  0.0014
 8034SOL    HW235562   3.056   0.156  10.583  0.0862  0.4038  0.4024
 8035SOL     OW35563   1.555   1.306   9.105 -0.8171  0.5736  0.1049
 8035SOL    HW135564   1.534   1.313   9.012 -0.4417 -0.1979 -0.0391
 8035SOL    HW235565   1.469   1.290   9.145 -0.1360 -1.1474  0.8744
 8036SOL     OW35566   0.641   1.799   4.275  0.1263  0.2363 -0.1050
 8036SOL    HW135567   0.683   1.859   4.336  0.2107 -2.3583  2.3886
 8036SOL    HW235568   0.700   1.788   4.200 -0.0269  3.0633 -0.6279
 8037SOL     OW35569   4.090   1.542   2.376  0.4196 -0.8430  0.4941
 8037SOL    HW135570   4.001   1.510   2.392 -0.2171  0.7272  0.0467
 8037SOL    HW235571   4.115   1.502   2.293  0.8546 -0.3658  0.3966
 8038SOL     OW35572   1.640   3.978   8.902  0.3071  0.4959  0.1945
 8038SOL    HW135573   1.578   3.912   8.931  2.0072 -1.3553 -0.4099
 8038SOL    HW235574   1.606   4.006   8.817  0.5868 -0.3069 -0.1817
 8039SOL     OW35575   0.916   3.628  14.616  0.1343  0.4472  0.3330
 8039SOL    HW135576   0.921   3.591  14.528 -3.5311  0.4100  0.1641
 8039SOL    HW235577   0.823   3.611  14.627  0.4104  0.8403  3.2708
 8040SOL     OW35578   1.543   0.581  11.356 -0.4896 -0.3875 -0.4749
 8040SOL    HW135579   1.621   0.624  11.321 -0.2893 -1.7438 -1.6843
 8040SOL    HW235580   1.576   0.567  11.444 -0.3288 -0.7391 -0.5928
 8041SOL     OW35581   1.161   4.533   8.633  0.3808 -0.5557 -0.4626
 8041SOL    HW135582   1.121   4.615   8.604 -1.1606 -1.6088 -1.3535
 8041SOL    HW235583   1.255   4.546   8.621  0.2837 -2.0146 -2.7938
 8042SOL     OW35584   1.736   1.520   5.329  0.7279  0.1613  0.5060
 8042SOL    HW135585   1.780   1.584   5.386 -0.3111  1.1605  0.1870
 8042SOL    HW235586   1.769   1.435   5.359  0.1036  0.4497  1.9805
 8043SOL     OW35587   2.850   0.795   3.320  0.0002  0.2519  0.4002
 8043SOL    HW135588   2.772   0.844   3.296  2.0729  1.7571 -3.3059
 8043SOL    HW235589   2.882   0.782   3.231 -0.8608  1.9402 -0.1559
 8044SOL     OW35590   4.038   4.634   4.409  0.1221 -0.0915  0.0909
 8044SOL    HW135591   4.017   4.679   4.491 -2.5709 -1.1330 -0.0195
 8044SOL    HW235592   3.973   4.564   4.419  2.1129 -2.2486 -2.3240
 8045SOL     OW35593   3.450   1.410   7.256  0.3010  0.4706 -0.2479
 8045SOL    HW135594   3.369   1.446   7.291 -0.1412 -0.5277 -0.2256
 8045SOL    HW235595   3.517   1.473   7.282  0.3162 -0.2301  1.3873
 8046SOL     OW35596   3.868   3.431   6.181  0.1978 -0.4222 -0.0547
 8046SOL    HW135597   3.879   3.521   6.211 -0.3466 -0.6356  0.7947
 8046SOL    HW235598   3.931   3.434   6.109  1.5668  0.8863  1.1981
 8047SOL     OW35599   1.547   0.609   7.248 -0.1138 -0.5194  0.5074
 8047SOL    HW135600   1.504   0.657   7.318  1.6520 -2.2457  2.7591
 8047SOL    HW235601   1.475   0.546   7.242  0.3155 -0.7883 -1.8838
 8048SOL     OW35602   4.438   2.967   8.376 -0.2047  0.7921 -0.5643
 8048SOL    HW135603   4.478   3.040   8.329 -0.7875  0.9323 -0.8335
 8048SOL    HW235604   4.350   2.978   8.341 -0.4208 -0.2615 -0.3279
 8049SOL     OW35605   3.376   3.650   6.150  0.3221 -0.0396 -0.2532
 8049SOL    HW135606   3.289   3.667   6.115  0.2443 -0.7120 -0.3813
 8049SOL    HW235607   3.413   3.646   6.061  0.5461  0.9886 -0.2123
 8050SOL     OW35608   3.450   2.920   3.323  0.3939 -0.5271  0.1802
 8050SOL    HW135609   3.391   2.889   3.254 -0.3311  3.7287 -1.1005
 8050SOL    HW235610   3.532   2.947   3.281  0.1109  0.4415  0.2584
 8051SOL     OW35611   4.093   0.743   2.165 -0.6442  0.4377 -0.4856
 8051SOL    HW135612   4.157   0.768   2.232 -1.8506  0.4584  0.6542
 8051SOL    HW235613   4.027   0.708   2.225  1.9443  0.8487  2.5962
 8052SOL     OW35614   2.948   1.149   5.451 -0.1460  0.5525  0.4899
 8052SOL    HW135615   2.933   1.193   5.367 -1.4424 -1.8899 -0.5521
 8052SOL    HW235616   3.026   1.196   5.480 -0.4219 -0.4639  2.9106
 8053SOL     OW35617   1.021   2.916   7.375  0.4826 -0.3750  0.3145
 8053SOL    HW135618   1.043   2.962   7.455  2.0179 -1.0496  0.2953
 8053SOL    HW235619   0.939   2.963   7.363 -0.0821 -1.5435 -0.4858
 8054SOL     OW35620   3.276   0.861   5.451 -0.2685  0.6724 -0.2628
 8054SOL    HW135621   3.361   0.904   5.462  0.3328 -0.0694 -1.9907
 8054SOL    HW235622   3.284   0.787   5.510  1.4677  0.5114 -0.7007
 8055SOL     OW35623   3.969   0.358   2.577 -0.2402  0.3190 -0.1313
 8055SOL    HW135624   3.948   0.266   2.592 -2.0079  0.7751  0.1789
 8055SOL    HW235625   3.997   0.351   2.486  3.2681 -1.2712  1.0437
 8056SOL     OW35626   4.364   4.299   3.856 -0.5166  0.3804  0.2082
 8056SOL    HW135627   4.388   4.392   3.864  0.1698 -0.0989  4.0746
 8056SOL    HW235628   4.442   4.250   3.830  0.8214  1.9969  1.1659
 8057SOL     OW35629   3.148   3.827   3.887  0.0836 -0.3909 -0.1206
 8057SOL    HW135630   3.194   3.747   3.914  0.4225  0.0238  0.5334
 8057SOL    HW235631   3.089   3.791   3.821 -0.4505 -4.6092  2.6505
 8058SOL     OW35632   1.786   4.251   5.528  1.0161 -0.3209  0.2212
 8058SOL    HW135633   1.790   4.264   5.622  3.5509 -0.4098  0.1126
 8058SOL    HW235634   1.785   4.343   5.501 -0.9018 -0.4675 -0.2775
 8059SOL     OW35635   1.355   3.112  14.017  0.5449 -0.1294 -0.1817
 8059SOL    HW135636   1.389   3.022  14.018  1.6832  0.2949 -1.5860
 8059SOL    HW235637   1.413   3.148  14.084  2.1442 -0.8484 -1.1757
 8060SOL     OW35638   4.001   2.792   5.362 -0.2981  0.4150  0.1068
 8060SOL    HW135639   4.048   2.871   5.335 -0.0288  0.3173  0.2997
 8060SOL    HW235640   3.980   2.818   5.452 -0.7633  0.5280 -0.0334
 8061SOL     OW35641   0.260   1.577   0.459 -0.0526 -0.0895 -0.3217
 8061SOL    HW135642   0.312   1.658   0.461 -1.7058  1.0022 -1.1103
 8061SOL    HW235643   0.321   1.515   0.419  1.2009 -0.1837  1.7447
 8062SOL     OW35644   1.699   4.655   0.830  0.5055 -0.6631  0.1338
 8062SOL    HW135645   1.712   4.696   0.744 -1.4925  0.7641  0.5091
 8062SOL    HW235646   1.634   4.710   0.874  1.6879 -0.3441  1.4790
 8063SOL     OW35647   3.794   1.674  11.931  0.2131  0.0327  0.0024
 8063SOL    HW135648   3.700   1.688  11.919  0.1727 -0.1656  0.0822
 8063SOL    HW235649   3.806   1.623  12.012  0.7124 -0.4553 -0.3793
 8064SOL     OW35650   2.708   2.123  13.889 -0.2068  0.0690  0.7868
 8064SOL    HW135651   2.742   2.212  13.889  1.7685 -0.6905 -0.5289
 8064SOL    HW235652   2.704   2.092  13.980 -1.5481  1.4034  1.1852
 8065SOL     OW35653   0.571   0.561  17.159  0.5570  0.9027 -0.0630
 8065SOL    HW135654   0.580   0.470  17.184 -0.2871  1.2572  1.5275
 8065SOL    HW235655   0.656   0.606  17.161  1.4753 -0.8740  0.2351
 8066SOL     OW35656   3.801   0.894   6.303  0.3176 -0.3737 -0.2258
 8066SOL    HW135657   3.893   0.870   6.292  1.1836  3.0156 -0.3534
 8066SOL    HW235658   3.779   0.927   6.216 -3.5011  1.3993  1.4044
 8067SOL     OW35659   4.003   2.762   9.326 -0.2117 -0.0315 -0.1402
 8067SOL    HW135660   4.055   2.762   9.245  0.5104  1.9187  0.3081
 8067SOL    HW235661   4.039   2.840   9.369 -0.9061  0.7775 -1.0069
 8068SOL     OW35662   0.576   4.112   2.826  0.5181 -0.1342  0.3624
 8068SOL    HW135663   0.556   4.033   2.876  0.2760 -0.7328 -0.6863
 8068SOL    HW235664   0.608   4.068   2.747  2.3382  2.5311 -0.3777
 8069SOL     OW35665   1.440   3.141   5.347  0.1517  0.2459  0.1401
 8069SOL    HW135666   1.514   3.177   5.395  0.5644 -1.1599  0.5627
 8069SOL    HW235667   1.391   3.093   5.413 -0.1321  0.2134 -0.0938
 8070SOL     OW35668   1.797   2.868   9.510 -0.2652  0.8718  0.5485
 8070SOL    HW135669   1.826   2.960   9.518  0.1590  0.7432  0.5059
 8070SOL    HW235670   1.801   2.839   9.601 -1.7768 -1.4631 -0.1564
 8071SOL     OW35671   0.579   0.869  10.956  0.7118  0.1041 -0.0387
 8071SOL    HW135672   0.548   0.873  11.046  2.4066  2.2108  0.4325
 8071SOL    HW235673   0.497   0.836  10.918  0.3602 -0.0637  0.8724
 8072SOL     OW35674   3.407   2.511  13.066  0.2825 -0.0117  0.7541
 8072SOL    HW135675   3.314   2.520  13.042  0.1498 -0.8130  0.9861
 8072SOL    HW235676   3.424   2.595  13.023  0.2633  0.0979  0.9638
 8073SOL     OW35677   3.924   4.107   7.753 -0.4325 -0.0857 -0.4316
 8073SOL    HW135678   3.978   4.132   7.828  0.8715  0.8280 -1.6818
 8073SOL    HW235679   3.855   4.069   7.808  0.4671  0.7624  1.2853
 8074SOL     OW35680   3.640   1.226   7.223  0.1062  0.0673 -0.2251
 8074SOL    HW135681   3.657   1.231   7.129 -0.0210 -1.6582 -0.3344
 8074SOL    HW235682   3.581   1.301   7.225 -2.1734 -1.7609  0.6646
 8075SOL     OW35683   2.634   1.535  14.756 -0.1174  0.0546 -0.0554
 8075SOL    HW135684   2.567   1.551  14.823 -0.3510  0.4012 -0.3709
 8075SOL    HW235685   2.670   1.452  14.787 -0.2591  0.0229  0.0228
 8076SOL     OW35686   0.898   2.940   5.594  0.0275 -0.2939  0.0170
 8076SOL    HW135687   0.933   3.023   5.626  0.4269  0.1979 -1.6799
 8076SOL    HW235688   0.820   2.977   5.553 -0.1280 -0.0757  0.5165
 8077SOL     OW35689   4.433   1.678  16.192 -0.2764  0.3343  1.0130
 8077SOL    HW135690   4.350   1.717  16.165 -1.1861 -1.4930  1.1907
 8077SOL    HW235691   4.419   1.659  16.285 -3.7753 -0.2907  0.3358
 8078SOL     OW35692   1.715   2.656   3.316 -0.2243 -0.7252  0.0839
 8078SOL    HW135693   1.698   2.626   3.227 -1.1086 -0.9934  0.3393
 8078SOL    HW235694   1.727   2.583   3.376  0.4818 -1.3077 -0.7671
 8079SOL     OW35695   0.564   4.200  11.131 -0.4092  0.5041  0.6117
 8079SOL    HW135696   0.547   4.205  11.225 -1.0559 -1.0781  0.5800
 8079SOL    HW235697   0.571   4.293  11.112 -0.0844  0.6487  1.4441
 8080SOL     OW35698   2.720   1.734   8.314 -0.0239  0.2665  0.0822
 8080SOL    HW135699   2.766   1.817   8.329  0.2997  0.6108 -2.9223
 8080SOL    HW235700   2.706   1.735   8.220 -0.5715  0.0593  0.1650
 8081SOL     OW35701   1.271   3.723   5.884  0.5040  0.0215  0.3581
 8081SOL    HW135702   1.282   3.777   5.806  0.4670 -0.8569 -0.2511
 8081SOL    HW235703   1.260   3.785   5.956  0.8293 -1.0344  1.3252
 8082SOL     OW35704   0.473   0.301   7.986 -0.0585  0.7698  0.0178
 8082SOL    HW135705   0.542   0.303   7.921  0.1920  1.1474  0.2932
 8082SOL    HW235706   0.478   0.393   8.014  2.6386  1.0220 -1.3337
 8083SOL     OW35707   3.871   3.805  13.387  0.3155  0.0588 -0.0377
 8083SOL    HW135708   3.793   3.840  13.346  1.4159 -0.3267 -2.4458
 8083SOL    HW235709   3.869   3.854  13.469 -0.2713  1.6276 -1.0000
 8084SOL     OW35710   4.435   1.219   4.451 -0.5671  0.0369  0.0529
 8084SOL    HW135711   4.461   1.309   4.433 -2.8258  1.3525  3.2658
 8084SOL    HW235712   4.518   1.184   4.485 -1.2421  1.1780  2.9053
 8085SOL     OW35713   0.255   1.140   3.376  0.3429  0.1009  0.0458
 8085SOL    HW135714   0.319   1.113   3.310  1.0067  0.8078  0.4065
 8085SOL    HW235715   0.262   1.236   3.371 -0.5097  0.3472  3.6655
 8086SOL     OW35716   3.442   1.173   1.286 -0.4859 -0.1719 -0.1622
 8086SOL    HW135717   3.441   1.077   1.293 -3.5034 -0.2614 -1.6131
 8086SOL    HW235718   3.435   1.179   1.381  0.2172 -2.2220  0.0290
 8087SOL     OW35719   1.560   2.587   2.787 -0.1631 -0.1571  0.3076
 8087SOL    HW135720   1.521   2.673   2.804 -0.0517  0.5093 -2.6913
 8087SOL    HW235721   1.635   2.613   2.733 -0.3659 -1.2989 -0.5149
 8088SOL     OW35722   0.510   3.096  16.365 -0.3280  0.1037 -0.7646
 8088SOL    HW135723   0.481   3.120  16.453  0.3852  0.4238 -0.6167
 8088SOL    HW235724   0.602   3.117  16.380 -0.8310  0.8380  1.4661
 8089SOL     OW35725   2.673   3.090   1.136 -0.2575  0.2968  0.3919
 8089SOL    HW135726   2.747   3.114   1.191 -1.2519 -0.1627  1.9220
 8089SOL    HW235727   2.683   3.157   1.068  2.1444  0.1988  0.6446
 8090SOL     OW35728   4.050   0.838   1.899  0.0555  0.3760 -0.3806
 8090SOL    HW135729   4.118   0.792   1.849  0.3132  1.1504 -0.7473
 8090SOL    HW235730   4.072   0.809   1.987 -2.9178 -0.1937  0.1404
 8091SOL     OW35731   4.164   1.428  16.804  0.0612 -0.1400  0.7360
 8091SOL    HW135732   4.081   1.393  16.835 -0.3283 -2.5742 -3.0873
 8091SOL    HW235733   4.214   1.413  16.884  1.9904 -0.0107 -0.4500
 8092SOL     OW35734   1.623   3.900  16.527 -0.0834  0.5776  0.5113
 8092SOL    HW135735   1.679   3.882  16.602  0.1973 -1.0038 -0.0971
 8092SOL    HW235736   1.647   3.836  16.460  0.5216  2.1339 -0.7566
 8093SOL     OW35737   1.001   2.380   4.746 -0.8054  0.0021  0.0774
 8093SOL    HW135738   0.951   2.399   4.826 -1.1678 -1.1409  0.1266
 8093SOL    HW235739   1.073   2.324   4.775 -0.7160  0.0722 -0.0096
 8094SOL     OW35740   3.148   3.519   8.055 -0.4938  0.1773  0.0962
 8094SOL    HW135741   3.087   3.591   8.038 -1.2853 -1.1972 -2.9463
 8094SOL    HW235742   3.085   3.452   8.082 -3.0105  0.8575 -3.9015
 8095SOL     OW35743   4.696   1.259   5.436  0.8366  0.1865  0.5390
 8095SOL    HW135744   4.632   1.311   5.486  1.0247  1.5170 -0.6171
 8095SOL    HW235745   0.056   1.296   5.463  1.2998  0.2907 -1.0881
 8096SOL     OW35746   3.067   2.016  15.448  0.0902  0.4977 -0.2568
 8096SOL    HW135747   3.021   2.089  15.406 -1.5499  0.3162  1.2373
 8096SOL    HW235748   2.996   1.975  15.499  1.0227 -1.6728 -0.6953
 8097SOL     OW35749   4.542   4.305   8.721 -0.1163 -0.1566 -0.0157
 8097SOL    HW135750   4.544   4.362   8.798  2.2963 -0.6470  0.2806
 8097SOL    HW235751   4.487   4.358   8.663  0.7361 -0.0684 -0.7338
 8098SOL     OW35752   1.777   2.192  10.499  0.6818  0.0772  0.2614
 8098SOL    HW135753   1.853   2.165  10.550  0.2281 -0.6040  0.5814
 8098SOL    HW235754   1.784   2.140  10.419 -1.1051  1.7089 -0.9290
 8099SOL     OW35755   1.217   0.806   9.404  0.1142  0.4487 -0.1276
 8099SOL    HW135756   1.197   0.714   9.388  1.0324  0.7014 -2.8033
 8099SOL    HW235757   1.308   0.787   9.429  0.2353 -0.4390 -1.2290
 8100SOL     OW35758   3.026   3.553   9.067 -0.4598  0.7920 -0.0944
 8100SOL    HW135759   3.104   3.524   9.114 -2.4451 -3.4562  0.5742
 8100SOL    HW235760   3.060   3.617   9.004 -1.1382 -0.1332 -1.3953
 8101SOL     OW35761   4.515   0.257   7.143  0.0236 -0.5570  0.1279
 8101SOL    HW135762   4.555   0.187   7.194 -1.6628 -1.5141  0.1405
 8101SOL    HW235763   4.459   0.301   7.207  0.5017 -0.7034  0.6389
 8102SOL     OW35764   1.254   4.693   2.906 -0.3407  0.6791 -0.1996
 8102SOL    HW135765   1.231   4.723   2.993  3.6060 -0.5164  1.2709
 8102SOL    HW235766   1.176   4.721   2.859 -1.5062  0.8726  1.8676
 8103SOL     OW35767   2.162   3.546  17.086 -0.6131  0.4094  0.6457
 8103SOL    HW135768   2.068   3.564  17.089 -0.5772  0.8927 -0.6311
 8103SOL    HW235769   2.184   3.529  17.177 -1.2440 -0.5538  0.6104
 8104SOL     OW35770   3.731   4.611   4.948 -0.3309 -0.7646 -0.0125
 8104SOL    HW135771   3.671   4.678   4.914  0.0757 -2.1033 -3.4066
 8104SOL    HW235772   3.702   4.599   5.038  1.9009 -5.0721  0.1305
 8105SOL     OW35773   2.782   4.159   2.851  0.3646  0.5942  0.3559
 8105SOL    HW135774   2.777   4.234   2.792 -1.3198 -2.1237 -2.9678
 8105SOL    HW235775   2.687   4.149   2.846  0.7067 -1.5371 -2.0381
 8106SOL     OW35776   3.033   3.575   1.065 -0.3027  0.3088 -0.0209
 8106SOL    HW135777   3.086   3.652   1.085 -0.6947  0.6771 -0.3959
 8106SOL    HW235778   3.088   3.526   1.003 -0.1328  1.5357 -0.8321
 8107SOL     OW35779   4.106   3.082   6.841 -0.1304 -0.0244 -0.1538
 8107SOL    HW135780   4.036   3.118   6.896  2.8074  0.5882  3.1711
 8107SOL    HW235781   4.052   3.054   6.767 -0.0610 -3.4361  1.1045
 8108SOL     OW35782   4.719   1.246  11.732 -0.3540  0.3723  0.0643
 8108SOL    HW135783   4.630   1.251  11.695 -0.8057  0.1086  1.1321
 8108SOL    HW235784   0.046   1.212  11.659  1.2905 -1.5184  2.1102
 8109SOL     OW35785   1.944   0.359   5.233 -0.0462 -0.9577  0.4223
 8109SOL    HW135786   1.926   0.297   5.304 -2.1983 -0.1658  0.5755
 8109SOL    HW235787   1.855   0.374   5.201  0.3020  0.1876 -0.0071
 8110SOL     OW35788   2.756   3.330   7.849 -0.3210  0.1485  0.4110
 8110SOL    HW135789   2.676   3.292   7.814 -1.5426  4.8726 -1.9169
 8110SOL    HW235790   2.734   3.347   7.940 -1.4108 -0.6719  0.2960
 8111SOL     OW35791   3.988   1.932   8.459 -0.5168 -0.0433 -0.2070
 8111SOL    HW135792   4.078   1.963   8.444 -0.5034  1.3561  2.9579
 8111SOL    HW235793   4.010   1.854   8.509  1.6422  1.9626  1.9538
 8112SOL     OW35794   1.878   3.182  13.904  0.0379 -0.2733 -0.3823
 8112SOL    HW135795   1.964   3.214  13.876 -0.2702  1.3598  0.5875
 8112SOL    HW235796   1.906   3.091  13.915  1.3010 -0.1135 -2.2704
 8113SOL     OW35797   0.597   2.984   6.228 -0.1494 -0.9326 -0.0982
 8113SOL    HW135798   0.504   2.989   6.205 -0.2474  2.6151  1.0361
 8113SOL    HW235799   0.610   2.894   6.258  2.3036 -0.4122  0.3977
 8114SOL     OW35800   3.610   2.757   4.618  0.3898  0.3297 -0.5282
 8114SOL    HW135801   3.548   2.760   4.691 -1.1808  0.4747 -1.8752
 8114SOL    HW235802   3.694   2.726   4.651  0.5387  3.1385  1.6827
 8115SOL     OW35803   0.013   2.970  16.597 -0.1332 -0.1587  0.0232
 8115SOL    HW135804   0.047   2.930  16.517 -0.0900 -0.9570  0.4384
 8115SOL    HW235805   0.035   2.906  16.665  0.2929 -1.1616 -1.0768
 8116SOL     OW35806   2.818   4.110   6.052  0.2256  0.4839  0.6498
 8116SOL    HW135807   2.767   4.076   5.978  0.0612  0.7876  0.6240
 8116SOL    HW235808   2.816   4.036   6.113 -0.4129 -0.4935 -0.5629
 8117SOL     OW35809   4.294   1.883   5.322  0.3462  0.6302  0.1088
 8117SOL    HW135810   4.299   1.976   5.344 -2.0097  0.8395 -0.2836
 8117SOL    HW235811   4.268   1.881   5.230 -1.7719  0.0069  0.7149
 8118SOL     OW35812   3.726   3.957  10.366 -0.4332  0.0449 -0.3090
 8118SOL    HW135813   3.637   3.989  10.384 -0.0308  0.8913  0.1791
 8118SOL    HW235814   3.719   3.887  10.302 -0.1854  0.1379 -0.4369
 8119SOL     OW35815   4.142   4.530   2.363  0.2971  0.0500 -0.2716
 8119SOL    HW135816   4.063   4.545   2.414  0.6176  1.0522 -0.0791
 8119SOL    HW235817   4.174   4.619   2.352  0.9381 -0.1823 -0.2873
 8120SOL     OW35818   0.684   1.329   5.429 -0.3989  0.2983 -0.3220
 8120SOL    HW135819   0.767   1.289   5.453 -2.5602 -2.3287  2.6796
 8120SOL    HW235820   0.661   1.257   5.370 -2.5305 -1.2740  2.4641
 8121SOL     OW35821   4.605   1.974  12.964 -0.8494 -0.5737 -0.2683
 8121SOL    HW135822   4.695   1.992  12.940 -1.2106  2.2994  0.5649
 8121SOL    HW235823   4.601   1.879  12.978  0.9454 -0.5744  0.1661
 8122SOL     OW35824   4.534   0.171   7.523  0.6474 -0.1985  0.1108
 8122SOL    HW135825   4.541   0.119   7.443  0.7471  2.6253 -1.6960
 8122SOL    HW235826   4.493   0.098   7.570  0.3634 -0.8667 -1.1703
 8123SOL     OW35827   4.029   3.266   1.975  0.2082  0.4905 -0.5544
 8123SOL    HW135828   4.115   3.257   1.934  0.8092  0.2169  0.7416
 8123SOL    HW235829   3.985   3.309   1.902 -0.2386 -0.6793 -0.9659
 8124SOL     OW35830   0.926   1.394   2.031  0.1752  0.1959 -0.3197
 8124SOL    HW135831   0.838   1.422   2.008 -0.3192 -2.1260 -1.1832
 8124SOL    HW235832   0.905   1.325   2.093 -0.5315 -0.3454 -1.1753
 8125SOL     OW35833   3.128   1.827  12.596 -0.2992  0.3557 -0.1038
 8125SOL    HW135834   3.203   1.808  12.653  0.6077  1.9113 -0.7620
 8125SOL    HW235835   3.178   1.880  12.533 -0.7224 -1.4752 -1.9603
 8126SOL     OW35836   0.828   1.533   7.637 -1.0164  0.3617  0.2883
 8126SOL    HW135837   0.830   1.503   7.546  1.1289  0.5984  0.2772
 8126SOL    HW235838   0.799   1.620   7.610 -0.9706 -0.2072 -1.5824
 8127SOL     OW35839   1.409   2.487   3.490 -0.6943  0.6079 -0.3623
 8127SOL    HW135840   1.498   2.481   3.454 -0.4748  0.3286  0.2257
 8127SOL    HW235841   1.370   2.405   3.461  1.3948 -0.1048 -1.1712
 8128SOL     OW35842   3.279   0.808   0.492 -0.3979 -0.0370 -0.5872
 8128SOL    HW135843   3.238   0.732   0.535  0.4782  0.5789  1.3623
 8128SOL    HW235844   3.279   0.861   0.572 -1.7794 -0.3527 -0.3718
 8129SOL     OW35845   3.892   1.196   9.059 -0.0321 -0.0516 -0.3977
 8129SOL    HW135846   3.924   1.267   9.003 -1.2892  0.8698  0.0617
 8129SOL    HW235847   3.966   1.158   9.106 -0.1023  1.2182  0.7228
 8130SOL     OW35848   3.917   4.210   6.351 -0.3561 -0.5039  0.3447
 8130SOL    HW135849   3.853   4.198   6.421 -2.5117 -1.5092 -1.8067
 8130SOL    HW235850   3.916   4.302   6.327  0.4578 -0.7182 -0.5113
 8131SOL     OW35851   0.129   2.576  12.766 -0.1262 -0.0355  0.0957
 8131SOL    HW135852   0.053   2.550  12.713  1.5779 -2.2545 -1.2619
 8131SOL    HW235853   0.107   2.664  12.799  1.8551 -0.0730  1.4994
 8132SOL     OW35854   3.710   2.900   2.325 -0.0096  0.3633 -0.6865
 8132SOL    HW135855   3.739   2.988   2.348 -0.3014 -0.3187  2.2159
 8132SOL    HW235856   3.618   2.926   2.331 -0.1345  0.1032 -1.4812
 8133SOL     OW35857   4.594   0.986   6.792  0.0900 -0.4933  0.1820
 8133SOL    HW135858   4.535   1.055   6.822  0.3282  0.2604 -1.0720
 8133SOL    HW235859   4.556   0.942   6.716 -0.9663  0.7616 -0.0110
 8134SOL     OW35860   2.013   0.230   4.634 -0.3796 -0.0108 -0.4705
 8134SOL    HW135861   2.072   0.194   4.701 -2.0053  2.0012  2.0529
 8134SOL    HW235862   1.937   0.249   4.689 -0.2799 -0.4118 -0.1872
 8135SOL     OW35863   2.807   3.847   7.329 -0.0807  0.0647  0.4477
 8135SOL    HW135864   2.768   3.762   7.350 -0.3711  1.0160  3.6411
 8135SOL    HW235865   2.759   3.857   7.247  0.1425  4.6350  0.9105
 8136SOL     OW35866   1.878   0.018   6.386 -0.0817 -0.1449 -0.5178
 8136SOL    HW135867   1.824   4.664   6.405  1.6018 -1.4375 -0.9996
 8136SOL    HW235868   1.944   4.709   6.325 -1.0884 -1.7983 -0.7262
 8137SOL     OW35869   1.997   1.650   5.910  0.1967 -0.2314  0.8724
 8137SOL    HW135870   1.984   1.696   5.993 -3.1672 -1.5447  1.0653
 8137SOL    HW235871   1.944   1.572   5.930 -0.7454 -0.1746 -1.4896
 8138SOL     OW35872   3.645   2.917   6.880 -0.5441  0.0660  0.2768
 8138SOL    HW135873   3.681   2.907   6.968  0.0339  1.8392  0.2520
 8138SOL    HW235874   3.707   2.880   6.817  1.4698 -0.8143  2.7836
 8139SOL     OW35875   1.792   4.068   2.174  0.3880 -0.2803  0.3951
 8139SOL    HW135876   1.793   3.986   2.222  0.5232 -1.0248 -0.8664
 8139SOL    HW235877   1.884   4.090   2.163 -0.2577  1.0820 -2.4771
 8140SOL     OW35878   4.426   1.456  12.223 -0.1734 -0.1154 -0.2132
 8140SOL    HW135879   4.477   1.494  12.151 -2.1572  1.5088 -0.7696
 8140SOL    HW235880   4.420   1.372  12.176  1.3117 -0.0718 -0.4809
 8141SOL     OW35881   2.798   0.665   8.798  0.1220  0.6854 -0.5230
 8141SOL    HW135882   2.807   0.656   8.893  1.6458  0.4138 -0.7012
 8141SOL    HW235883   2.892   0.680   8.786  0.1331  2.7236  2.0397
 8142SOL     OW35884   3.650   1.995   0.298 -0.3698 -0.0583 -0.1822
 8142SOL    HW135885   3.685   1.949   0.374 -1.7654 -1.6183 -0.5090
 8142SOL    HW235886   3.721   2.047   0.259  0.1029  0.3598  1.2340
 8143SOL     OW35887   3.486   4.086   4.719 -0.3864  0.2358  0.5659
 8143SOL    HW135888   3.430   4.147   4.767  0.8895  1.0223  1.0430
 8143SOL    HW235889   3.554   4.070   4.784  0.6808 -2.4515 -1.1987
 8144SOL     OW35890   0.614   0.461   5.881  0.1659 -0.4136 -0.2899
 8144SOL    HW135891   0.666   0.520   5.827 -2.0507  1.3285 -0.5167
 8144SOL    HW235892   0.564   0.516   5.941 -0.7610 -0.3594 -1.1156
 8145SOL     OW35893   3.392   1.196   9.350  0.2540 -0.1960  0.2544
 8145SOL    HW135894   3.482   1.213   9.378  0.2585 -0.9883  0.7103
 8145SOL    HW235895   3.354   1.142   9.420 -0.1361 -1.1131 -0.6711
 8146SOL     OW35896   2.809   2.512   3.927 -0.1401 -0.3613  0.0979
 8146SOL    HW135897   2.720   2.547   3.923 -0.5125 -1.2097  0.8616
 8146SOL    HW235898   2.838   2.532   4.016 -0.7847  0.3343  0.1492
 8147SOL     OW35899   4.696   2.741   5.893 -0.4087  0.1246  0.8586
 8147SOL    HW135900   4.721   2.649   5.901 -0.4825  0.1618  1.5212
 8147SOL    HW235901   0.052   2.771   5.848 -0.4438  2.1373  2.1336
 8148SOL     OW35902   0.631   0.731   8.300 -0.9356  0.2345 -0.4656
 8148SOL    HW135903   0.723   0.731   8.273 -1.3416  0.6606 -1.8386
 8148SOL    HW235904   0.637   0.704   8.391 -4.0733  1.7882  0.1761
 8149SOL     OW35905   0.976   4.713  13.071  0.6258  0.3230  0.0941
 8149SOL    HW135906   0.997   4.639  13.014 -2.1434  0.7345 -1.4321
 8149SOL    HW235907   1.010   4.686  13.157 -0.7051  0.0722  0.5361
 8150SOL     OW35908   3.279   1.848  11.618  0.5411 -0.3869 -0.2004
 8150SOL    HW135909   3.336   1.876  11.689  1.9922  0.4185 -1.6955
 8150SOL    HW235910   3.190   1.867  11.650 -0.0308 -0.3536 -1.7962
 8151SOL     OW35911   0.600   3.201  17.428  0.5712 -0.6667  0.0364
 8151SOL    HW135912   0.531   3.249  17.473  1.2501 -0.2099  0.5896
 8151SOL    HW235913   0.627   3.130  17.487 -1.8063 -1.7139 -0.1493
 8152SOL     OW35914   3.212   3.767   1.163 -0.2017 -0.6642 -0.0020
 8152SOL    HW135915   3.228   3.846   1.213  0.5161  0.2273 -1.6557
 8152SOL    HW235916   3.262   3.703   1.214  0.7043  0.1196  0.0844
 8153SOL     OW35917   1.281   4.511  12.468 -0.1808 -0.2829 -0.5220
 8153SOL    HW135918   1.240   4.442  12.521  1.1010 -0.6143  0.0438
 8153SOL    HW235919   1.370   4.504  12.502  0.7417  0.0278 -2.9060
 8154SOL     OW35920   2.403   3.746   6.928  0.0835  0.2515  0.2486
 8154SOL    HW135921   2.311   3.742   6.902  0.8300 -1.2002 -2.1974
 8154SOL    HW235922   2.439   3.813   6.870  0.7080 -1.3422 -1.2350
 8155SOL     OW35923   3.455   2.433  10.557  0.0650 -0.4864  0.4331
 8155SOL    HW135924   3.421   2.345  10.543 -2.5741  0.3587  1.5898
 8155SOL    HW235925   3.547   2.418  10.578  0.2639 -2.3099 -1.7891
 8156SOL     OW35926   3.291   4.139   5.590  0.1405 -0.3158 -0.0919
 8156SOL    HW135927   3.330   4.200   5.653  0.2608 -1.1118  0.6028
 8156SOL    HW235928   3.201   4.143   5.624  0.3676  0.1470  0.4585
 8157SOL     OW35929   1.088   0.089   4.890 -0.4259 -0.8549  0.1487
 8157SOL    HW135930   1.119   0.060   4.805 -1.2208  1.3223 -0.8896
 8157SOL    HW235931   1.134   0.171   4.908 -0.4576 -0.8834  0.3627
 8158SOL     OW35932   4.099   4.407   5.286 -0.0239 -0.0992  0.0296
 8158SOL    HW135933   4.056   4.324   5.268 -0.9801 -0.1035  2.4262
 8158SOL    HW235934   4.065   4.429   5.372  0.3898  0.5186  0.0349
 8159SOL     OW35935   0.950   3.469   5.809  0.1805 -0.5044  0.6332
 8159SOL    HW135936   0.997   3.464   5.892  0.1307 -0.7500  0.6466
 8159SOL    HW235937   0.876   3.421   5.845  0.0160 -0.1739  0.7379
 8160SOL     OW35938   1.426   4.546   6.039 -0.2413  0.3463  0.5159
 8160SOL    HW135939   1.406   4.498   6.119 -1.1992 -0.2221 -0.0719
 8160SOL    HW235940   1.496   4.603   6.072  1.3486 -2.4924  1.9992
 8161SOL     OW35941   3.486   0.877   7.168 -0.3182  0.4245 -0.0715
 8161SOL    HW135942   3.541   0.874   7.246 -0.6466  0.6496  0.1634
 8161SOL    HW235943   3.438   0.960   7.169  1.2056  1.2920  1.2223
 8162SOL     OW35944   4.346   4.071   1.316 -0.3634 -0.1323  0.0282
 8162SOL    HW135945   4.340   4.035   1.405 -2.0121  1.4806  0.5783
 8162SOL    HW235946   4.402   4.147   1.330  1.8161 -1.7713  0.3423
 8163SOL     OW35947   2.443   4.666   5.484  0.0878 -0.4622 -0.4328
 8163SOL    HW135948   2.450   4.584   5.435  2.2462  0.5591 -1.8461
 8163SOL    HW235949   2.534   4.697   5.484  0.0081 -0.2360  1.5737
 8164SOL     OW35950   2.012   4.485   2.663 -0.5929 -0.2188  0.2285
 8164SOL    HW135951   2.044   4.395   2.670 -1.5567 -0.3523  3.2939
 8164SOL    HW235952   2.049   4.526   2.742  0.3533 -0.6651  0.0146
 8165SOL     OW35953   3.651   4.714   5.871  0.0523  0.0336 -0.4252
 8165SOL    HW135954   3.666   0.070   5.923  0.4787 -0.2123 -0.1636
 8165SOL    HW235955   3.701   4.643   5.912 -0.6654 -0.1517  0.1189
 8166SOL     OW35956   0.257   3.540   1.255  0.0569 -0.2388 -0.1044
 8166SOL    HW135957   0.177   3.575   1.217 -0.3409 -0.3332  0.6441
 8166SOL    HW235958   0.228   3.486   1.328  2.8828 -0.4151  0.8921
 8167SOL     OW35959   0.614   3.049   6.975 -0.5821  0.4670  0.0843
 8167SOL    HW135960   0.625   2.963   6.933 -0.9304  0.0943  0.7616
 8167SOL    HW235961   0.671   3.034   7.050  0.8413 -0.4231 -1.1742
 8168SOL     OW35962   3.599   4.665   4.491 -0.4390  0.3368 -0.1685
 8168SOL    HW135963   3.536   4.641   4.559  1.4946 -1.1314  1.1070
 8168SOL    HW235964   3.621   0.031   4.518  0.3746  0.3309 -0.8247
 8169SOL     OW35965   4.335   2.075   8.944 -0.3162  0.9769 -0.1146
 8169SOL    HW135966   4.425   2.100   8.924  0.0838  1.6474  2.4411
 8169SOL    HW235967   4.329   2.012   8.873 -2.3452  0.7240  0.2879
 8170SOL     OW35968   3.931   3.838   3.463  0.0514  0.0206 -0.1230
 8170SOL    HW135969   3.872   3.862   3.534  1.8687  2.7651  0.4303
 8170SOL    HW235970   3.903   3.749   3.441  1.8783  0.0193 -2.4516
 8171SOL     OW35971   0.800   1.742   4.035  0.3038 -0.5526  0.2774
 8171SOL    HW135972   0.807   1.655   4.075 -0.3638 -0.9490 -0.4647
 8171SOL    HW235973   0.785   1.708   3.946 -0.4399  2.0023 -0.5823
 8172SOL     OW35974   0.144   4.246   2.248 -0.1159 -0.0770 -0.3697
 8172SOL    HW135975   0.217   4.296   2.212  0.9796 -0.0209  1.8722
 8172SOL    HW235976   0.091   4.250   2.169  0.4356 -0.2982 -0.7497
 8173SOL     OW35977   3.294   2.342  14.798 -0.5823  0.2873  0.0530
 8173SOL    HW135978   3.268   2.377  14.884 -0.4782  0.4398  0.0227
 8173SOL    HW235979   3.374   2.386  14.770 -1.1708 -1.5501 -4.4714
 8174SOL     OW35980   2.163   2.150  17.031 -0.0072 -0.5920  0.0027
 8174SOL    HW135981   2.174   2.091  17.105 -3.0975 -1.2994 -0.1040
 8174SOL    HW235982   2.106   2.217  17.068  0.6245  0.5123 -1.0122
 8175SOL     OW35983   2.869   0.198   7.316  0.1596 -0.3310 -0.3332
 8175SOL    HW135984   2.775   0.185   7.303 -0.0156 -0.4428  0.9827
 8175SOL    HW235985   2.872   0.230   7.406 -1.1294 -1.0244 -0.0363
 8176SOL     OW35986   1.730   1.643  10.616 -0.2351  0.0201 -0.2753
 8176SOL    HW135987   1.708   1.606  10.701 -1.5863 -1.2372 -1.1725
 8176SOL    HW235988   1.666   1.710  10.594 -1.4415 -0.8265  0.6828
 8177SOL     OW35989   4.041   0.465   8.126 -0.6641  0.0360  0.2485
 8177SOL    HW135990   4.098   0.407   8.177 -1.2311 -1.4029 -0.7867
 8177SOL    HW235991   3.952   0.439   8.150 -1.6476  1.4885 -1.8545
 8178SOL     OW35992   2.498   4.234   3.983  0.6132 -0.1382 -0.0106
 8178SOL    HW135993   2.457   4.173   3.922  1.2122 -1.9139  1.3714
 8178SOL    HW235994   2.554   4.180   4.039 -1.5486 -0.0481  2.2539
 8179SOL     OW35995   3.239   2.360   8.132  0.0166 -0.1562 -0.0652
 8179SOL    HW135996   3.292   2.413   8.191  1.2139 -1.0729 -0.3223
 8179SOL    HW235997   3.169   2.340   8.195  0.1206 -0.3959 -0.0245
 8180SOL     OW35998   0.465   1.936   8.311 -0.3984  0.1463  0.0434
 8180SOL    HW135999   0.451   1.971   8.399  1.5881  0.8763  0.0713
 8180SOL    HW236000   0.385   1.886   8.296  1.4866 -2.6026 -0.7582
 8181SOL     OW36001   4.473   3.524   2.684  0.0028  0.0189 -0.0674
 8181SOL    HW136002   4.467   3.514   2.779  0.6739 -0.2915 -0.0581
 8181SOL    HW236003   4.557   3.564   2.661 -0.1462 -0.3324 -1.2253
 8182SOL     OW36004   2.980   0.553  10.786  0.2870 -0.3770  0.2271
 8182SOL    HW136005   2.962   0.604  10.865 -0.3469 -3.1927  1.9325
 8182SOL    HW236006   2.892   0.547  10.749  0.6930 -1.0002 -0.6332
 8183SOL     OW36007   1.210   3.686  12.714  0.2300  0.2631 -0.3544
 8183SOL    HW136008   1.248   3.607  12.752 -0.9143 -0.7517 -1.3186
 8183SOL    HW236009   1.258   3.689  12.631 -0.0722 -2.8308 -0.6233
 8184SOL     OW36010   0.265   4.341   4.382  0.0259 -0.3420 -0.1377
 8184SOL    HW136011   0.266   4.316   4.289  0.1288  0.1696 -0.2739
 8184SOL    HW236012   0.349   4.384   4.397 -0.2325 -0.4608  1.6009
 8185SOL     OW36013   4.339   3.845  15.566 -0.4498  0.2266  0.7875
 8185SOL    HW136014   4.407   3.865  15.501 -0.8283 -1.0871 -0.0067
 8185SOL    HW236015   4.275   3.890  15.511 -1.1057 -2.0427 -0.3032
 8186SOL     OW36016   1.922   0.941   4.486 -0.5737 -0.5668  0.4316
 8186SOL    HW136017   1.897   0.910   4.573 -0.2311  2.9262  1.7661
 8186SOL    HW236018   1.940   0.859   4.439  1.7387 -0.7804  1.7220
 8187SOL     OW36019   3.538   3.343   3.352  0.0123  0.4421 -0.5300
 8187SOL    HW136020   3.513   3.324   3.262 -0.1112  1.1145 -0.6423
 8187SOL    HW236021   3.633   3.333   3.342 -0.0512 -0.3557 -0.2893
 8188SOL     OW36022   2.939   1.760   2.230  0.1562  0.3601  0.4292
 8188SOL    HW136023   2.898   1.847   2.222  0.3745  0.5950  1.9390
 8188SOL    HW236024   2.937   1.747   2.324 -0.5952  0.1102  0.3763
 8189SOL     OW36025   1.545   3.950   9.513 -0.4140  0.3011  0.3270
 8189SOL    HW136026   1.497   3.988   9.587  1.3834  0.2904  1.5231
 8189SOL    HW236027   1.469   3.916   9.466 -0.3053  1.7362 -0.8687
 8190SOL     OW36028   2.015   0.190   5.982  0.5285  0.6942 -0.2916
 8190SOL    HW136029   1.932   0.207   6.027  0.4847 -1.3944  0.4340
 8190SOL    HW236030   2.073   0.199   6.057 -0.1409 -0.7672  0.4046
 8191SOL     OW36031   4.501   0.148   1.138  0.0620  0.3768  0.6365
 8191SOL    HW136032   4.512   0.164   1.044  0.8756 -0.5269  0.5853
 8191SOL    HW236033   4.589   0.124   1.166 -0.2927 -0.5363  0.9637
 8192SOL     OW36034   1.113   1.196   4.987  0.1921  0.2710  0.3212
 8192SOL    HW136035   1.194   1.147   5.002  0.2228  0.5540  1.0704
 8192SOL    HW236036   1.077   1.140   4.918  0.8754 -0.2804  0.4140
 8193SOL     OW36037   3.544   4.679   1.685  0.2914  0.7149  0.1978
 8193SOL    HW136038   3.577   4.590   1.677  1.4981  1.4535 -3.0034
 8193SOL    HW236039   3.470   4.665   1.744  0.3942  1.2374  0.4499
 8194SOL     OW36040   0.969   0.221   6.348  0.2901 -0.1393  0.0550
 8194SOL    HW136041   1.047   0.172   6.375  0.5733  0.6490  0.6649
 8194SOL    HW236042   0.953   0.273   6.426 -3.6073 -0.2848 -0.6394
 8195SOL     OW36043   1.485   3.875   6.326 -0.2344 -0.4590  0.5066
 8195SOL    HW136044   1.537   3.794   6.328  0.8507  0.2761  1.9061
 8195SOL    HW236045   1.479   3.878   6.422  0.2104 -2.0954  0.5912
 8196SOL     OW36046   2.099   4.224   0.549  0.0365 -0.1149  0.4581
 8196SOL    HW136047   2.039   4.252   0.619  1.8380  0.9588  1.5698
 8196SOL    HW236048   2.055   4.143   0.522  0.0162  0.4602 -1.2292
 8197SOL     OW36049   4.335   0.887   1.727 -0.1104  0.0348  0.0699
 8197SOL    HW136050   4.259   0.831   1.715  1.8259 -2.1958 -1.9727
 8197SOL    HW236051   4.316   0.948   1.656  1.4347 -1.5037 -1.6712
 8198SOL     OW36052   2.614   4.391   7.148 -0.5207  0.1236 -0.0341
 8198SOL    HW136053   2.530   4.436   7.161 -1.3708 -1.7451  1.0022
 8198SOL    HW236054   2.635   4.351   7.233 -0.8198  0.9373  0.4288
 8199SOL     OW36055   1.543   3.920  14.375 -0.1311  0.0930 -0.5221
 8199SOL    HW136056   1.525   3.856  14.306 -1.4194 -0.5153  0.3718
 8199SOL    HW236057   1.499   3.997  14.339 -1.1768 -0.4642 -0.4342
 8200SOL     OW36058   3.252   4.343   7.140  0.4644  0.4706 -0.1673
 8200SOL    HW136059   3.160   4.367   7.149  0.2505 -1.0858  1.8149
 8200SOL    HW236060   3.268   4.278   7.209 -2.2183 -0.3756 -0.3614
 8201SOL     OW36061   3.616   1.712   6.050 -0.0710 -0.0533 -0.4249
 8201SOL    HW136062   3.613   1.805   6.030  0.5851  0.0672  0.0345
 8201SOL    HW236063   3.530   1.694   6.088  0.2507  0.5182  0.5818
 8202SOL     OW36064   3.660   3.702   7.630  0.0177  0.5472 -0.1299
 8202SOL    HW136065   3.736   3.758   7.648 -0.8490  1.6540  0.0902
 8202SOL    HW236066   3.644   3.669   7.718  0.9351 -2.1046 -0.9549
 8203SOL     OW36067   2.706   1.965   4.070 -0.0947 -0.3889  0.2566
 8203SOL    HW136068   2.641   2.027   4.038 -1.9961 -2.7690 -0.5106
 8203SOL    HW236069   2.656   1.888   4.042 -0.3346 -0.2426  0.2797
 8204SOL     OW36070   2.251   3.520   9.919 -0.1471 -0.3151  0.0436
 8204SOL    HW136071   2.278   3.452   9.980  0.1585 -1.0534 -0.9146
 8204SOL    HW236072   2.259   3.597   9.975 -2.9756 -1.2968  1.8252
 8205SOL     OW36073   4.698   3.652   8.082  0.2557  0.1298  0.0976
 8205SOL    HW136074   4.680   3.583   8.146  0.5738  1.0222  1.1492
 8205SOL    HW236075   4.672   3.727   8.135  1.2577  1.1845 -0.9149
 8206SOL     OW36076   0.225   3.727   4.554  0.3048  0.2401  0.0140
 8206SOL    HW136077   0.302   3.700   4.504 -0.8947  1.5459 -2.5284
 8206SOL    HW236078   0.253   3.672   4.627  0.5010 -2.2781 -1.9676
 8207SOL     OW36079   0.082   1.137  12.103 -0.3498 -0.0119  0.4011
 8207SOL    HW136080   0.152   1.072  12.096 -0.5585 -0.0350 -1.5128
 8207SOL    HW236081   0.077   1.150  12.198  1.7762 -1.6064  0.7216
 8208SOL     OW36082   0.930   1.799  14.331  0.6580  0.5575  0.3224
 8208SOL    HW136083   0.914   1.712  14.295  0.1750  0.3069  1.1380
 8208SOL    HW236084   0.997   1.832  14.271 -0.2496  1.1045 -0.3928
 8209SOL     OW36085   4.612   3.820   1.860 -0.1455 -0.1353 -0.6703
 8209SOL    HW136086   4.653   3.790   1.780 -0.2464  2.3710 -1.6576
 8209SOL    HW236087   4.539   3.872   1.827 -0.0892  0.2173 -0.2480
 8210SOL     OW36088   4.288   0.307   5.839  0.0595  0.3115 -0.3568
 8210SOL    HW136089   4.298   0.311   5.934 -0.2051 -0.4280 -0.3000
 8210SOL    HW236090   4.338   0.387   5.824  1.9781 -0.3610  2.4494
 8211SOL     OW36091   0.689   4.288   6.166 -0.3538 -0.5678  0.8511
 8211SOL    HW136092   0.658   4.207   6.206  0.0539 -0.3740  1.5492
 8211SOL    HW236093   0.784   4.279   6.166 -0.1351  1.7797 -2.6842
 8212SOL     OW36094   1.648   2.445  17.190  0.0908 -0.6396  0.4530
 8212SOL    HW136095   1.581   2.509  17.214 -1.7821 -1.8319 -1.4971
 8212SOL    HW236096   1.682   2.483  17.109 -0.7059 -0.1098  0.3631
 8213SOL     OW36097   0.242   3.436  14.966  0.2279  0.1632 -0.1164
 8213SOL    HW136098   0.299   3.365  14.994  0.5540  0.2620 -0.5329
 8213SOL    HW236099   0.160   3.409  15.008 -0.9586  0.9601 -1.9170
 8214SOL     OW36100   3.205   4.493   0.622 -0.3603 -0.0159 -0.4108
 8214SOL    HW136101   3.230   4.541   0.701 -2.1664  0.9651 -0.4137
 8214SOL    HW236102   3.205   4.558   0.551 -0.5432  1.2017  0.6947
 8215SOL     OW36103   2.532   4.375   7.641 -0.2596  0.2026 -0.2761
 8215SOL    HW136104   2.530   4.369   7.737  1.5693 -2.3000 -0.3906
 8215SOL    HW236105   2.444   4.347   7.616 -0.0193  1.5317 -2.5442
 8216SOL     OW36106   3.983   0.385   2.290 -0.0406 -0.1084 -0.7140
 8216SOL    HW136107   3.895   0.415   2.315 -0.0331 -0.6258 -0.0651
 8216SOL    HW236108   3.956   0.325   2.220 -0.3052  0.1031 -0.7931
 8217SOL     OW36109   2.587   2.636   2.692 -0.3405 -0.5524  0.0006
 8217SOL    HW136110   2.572   2.672   2.779 -0.1778  0.1537 -0.2637
 8217SOL    HW236111   2.669   2.682   2.676 -1.0997  1.2691  1.3282
 8218SOL     OW36112   1.693   1.071  10.920 -0.3640  0.4739 -0.0809
 8218SOL    HW136113   1.719   1.105  11.005 -0.4599  1.1516 -0.3240
 8218SOL    HW236114   1.750   0.994  10.918 -0.2059  0.6288 -1.7432
 8219SOL     OW36115   1.100   4.220  17.596  0.2749 -0.3151  0.0170
 8219SOL    HW136116   1.163   4.164  17.552  0.4363  0.3081 -0.5314
 8219SOL    HW236117   1.126   4.308  17.568 -2.2628  0.2585 -0.5499
 8220SOL     OW36118   2.150   0.166  10.232  1.1107  0.0843  0.4815
 8220SOL    HW136119   2.151   0.249  10.279 -0.1656 -0.7554  2.0043
 8220SOL    HW236120   2.133   0.097  10.297  1.1097 -2.4722 -2.2221
 8221SOL     OW36121   4.718   2.007  16.098  0.1711  0.1392 -0.0368
 8221SOL    HW136122   4.625   1.994  16.076  0.6038 -2.1895 -0.4725
 8221SOL    HW236123   0.004   2.101  16.116 -0.1669 -0.3230  2.6091
 8222SOL     OW36124   2.760   0.748   2.833 -0.0454 -0.2673 -0.5812
 8222SOL    HW136125   2.846   0.755   2.792  0.3381  1.9098  0.6112
 8222SOL    HW236126   2.711   0.709   2.761  0.6172 -0.8983 -0.7003
 8223SOL     OW36127   1.270   3.541   2.121 -0.2621  0.0973 -0.3684
 8223SOL    HW136128   1.223   3.459   2.103 -0.7690  0.1458  0.7746
 8223SOL    HW236129   1.214   3.560   2.196  0.9386  0.0722  0.5351
 8224SOL     OW36130   1.511   4.237   0.055  0.3351 -0.5029 -0.0594
 8224SOL    HW136131   1.482   4.197   0.138 -0.2801 -0.4675 -0.2570
 8224SOL    HW236132   1.530   4.155   0.009  2.6941 -1.1642  2.0786
 8225SOL     OW36133   3.629   3.815  13.186 -0.3672 -0.1082  0.3341
 8225SOL    HW136134   3.621   3.746  13.251  0.5525 -1.3222 -0.8484
 8225SOL    HW236135   3.578   3.785  13.111  1.2963 -0.2962 -0.7281
 8226SOL     OW36136   3.858   4.623   9.014 -0.0597  0.2013  0.2140
 8226SOL    HW136137   3.787   4.597   9.072  2.3572 -0.1764  3.0419
 8226SOL    HW236138   3.916   4.553   9.044  2.0581  1.3420 -1.2227
 8227SOL     OW36139   0.342   0.913   2.439  0.0511  0.0012 -0.0700
 8227SOL    HW136140   0.368   0.853   2.369 -0.1170  2.1523 -1.9808
 8227SOL    HW236141   0.324   0.997   2.396  1.7144 -0.1027 -1.0051
 8228SOL     OW36142   2.286   3.286   0.510  0.3615  0.0637  0.1978
 8228SOL    HW136143   2.210   3.326   0.468 -0.4190  2.2593  3.6305
 8228SOL    HW236144   2.346   3.358   0.527  0.6485  0.1293 -1.1321
 8229SOL     OW36145   2.079   1.245   3.633  0.6349 -0.0149 -0.1829
 8229SOL    HW136146   2.101   1.283   3.548 -0.2807  0.9008 -0.0100
 8229SOL    HW236147   2.038   1.163   3.606 -1.3521  0.8352  0.2502
 8230SOL     OW36148   4.503   2.272   0.699 -0.4649 -0.0518  0.0155
 8230SOL    HW136149   4.484   2.217   0.775  0.5475 -1.9896 -1.1381
 8230SOL    HW236150   4.503   2.358   0.743  0.6821 -2.4436  4.6673
 8231SOL     OW36151   0.241   1.007   5.822 -0.3294  0.1321 -0.0395
 8231SOL    HW136152   0.257   0.925   5.774  2.7986 -1.0241  2.9757
 8231SOL    HW236153   0.326   1.049   5.809  0.1895 -0.8201  0.2128
 8232SOL     OW36154   4.723   0.375  14.371 -0.2571  0.4227 -0.5418
 8232SOL    HW136155   4.653   0.437  14.350 -1.3170 -0.6560 -0.2488
 8232SOL    HW236156   4.662   0.301  14.374  0.8465 -0.3873  2.0523
 8233SOL     OW36157   2.888   3.324   9.544  0.0596 -0.1582  0.1484
 8233SOL    HW136158   2.837   3.284   9.614  0.6239  0.0561  0.6714
 8233SOL    HW236159   2.865   3.268   9.469 -0.3356 -0.3646  0.4252
 8234SOL     OW36160   1.073   3.882   7.778 -0.2429 -0.1258 -0.2047
 8234SOL    HW136161   1.022   3.852   7.703  0.5287 -3.8402  0.7337
 8234SOL    HW236162   1.043   3.973   7.785 -1.9602 -0.6855 -0.4320
 8235SOL     OW36163   0.519   0.546   8.155  0.0607  0.4281 -0.1551
 8235SOL    HW136164   0.566   0.470   8.191 -0.5197  0.5157  0.8081
 8235SOL    HW236165   0.567   0.619   8.192  0.9790  1.3200 -3.1461
 8236SOL     OW36166   2.957   4.433   3.139 -0.5485  0.2838  0.1153
 8236SOL    HW136167   2.962   4.337   3.149  0.7540  0.3522  0.1238
 8236SOL    HW236168   2.946   4.464   3.229  1.2339  0.2728  0.3470
 8237SOL     OW36169   1.787   2.451   8.480  0.0641  0.2858 -0.2451
 8237SOL    HW136170   1.740   2.374   8.449  0.0344  0.2465 -0.1033
 8237SOL    HW236171   1.767   2.518   8.414  0.0479  2.3120  1.8053
 8238SOL     OW36172   4.370   3.893   2.599  0.1827 -0.1535  0.2164
 8238SOL    HW136173   4.387   3.818   2.542 -0.1737 -0.8742  1.0679
 8238SOL    HW236174   4.321   3.952   2.541 -0.1477 -0.3471  0.2984
 8239SOL     OW36175   1.347   3.820  12.224 -1.1821  0.2429 -0.3646
 8239SOL    HW136176   1.286   3.838  12.153  0.6440  0.7263 -1.8017
 8239SOL    HW236177   1.388   3.906  12.236  1.8194 -1.5052  1.8205
 8240SOL     OW36178   0.407   1.169   2.851 -0.5553 -0.2096  0.0939
 8240SOL    HW136179   0.443   1.226   2.783 -2.1165 -0.5844 -1.0360
 8240SOL    HW236180   0.314   1.173   2.832 -0.3406 -0.5269 -0.9793
 8241SOL     OW36181   0.112   0.023  16.729  0.1501  0.0834 -0.4153
 8241SOL    HW136182   0.205   0.005  16.741 -0.2471 -0.1142  2.3644
 8241SOL    HW236183   0.104   0.050  16.637  2.0916 -1.5267 -1.0463
 8242SOL     OW36184   0.912   2.346   0.101 -0.5224  0.6330 -0.1985
 8242SOL    HW136185   0.964   2.330   0.022  1.2958  0.7571  0.9646
 8242SOL    HW236186   0.971   2.299   0.160  0.3312  0.5625 -1.0997
 8243SOL     OW36187   1.878   3.163   7.121  0.8309  0.7557 -0.0101
 8243SOL    HW136188   1.885   3.069   7.139 -0.4237  0.6850  0.1390
 8243SOL    HW236189   1.844   3.194   7.205 -0.3498 -0.5812  0.0087
 8244SOL     OW36190   3.991   3.318   1.307 -0.0090 -0.2129 -0.3564
 8244SOL    HW136191   4.023   3.311   1.217  1.9035 -0.6278  0.3521
 8244SOL    HW236192   4.068   3.361   1.344 -0.9467  0.3784  0.9118
 8245SOL     OW36193   0.731   0.930  10.742 -0.3714 -0.3962  0.4730
 8245SOL    HW136194   0.700   0.902  10.829 -0.0923  1.8134  1.2796
 8245SOL    HW236195   0.787   1.004  10.764 -1.3374  0.4037  0.2387
 8246SOL     OW36196   4.509   1.951   3.903  0.0412  0.1525 -0.1187
 8246SOL    HW136197   4.489   1.929   3.994 -2.1302 -1.6727 -1.0600
 8246SOL    HW236198   4.481   1.872   3.859 -2.3302 -0.3646  2.3072
 8247SOL     OW36199   3.391   1.791  12.141 -0.7269  0.3780 -0.4696
 8247SOL    HW136200   3.333   1.851  12.093 -1.2271 -0.0533 -0.4121
 8247SOL    HW236201   3.434   1.753  12.065 -1.3866 -0.9289 -0.1861
 8248SOL     OW36202   1.542   1.233   9.861  0.1560  0.5394 -0.2123
 8248SOL    HW136203   1.475   1.198   9.802 -0.9663  2.9284 -0.3509
 8248SOL    HW236204   1.491   1.244   9.942  1.4223  3.0987  0.2189
 8249SOL     OW36205   0.928   2.020   4.865 -0.8186 -0.5966  0.4045
 8249SOL    HW136206   0.976   1.967   4.929 -1.1355 -2.2347 -0.7196
 8249SOL    HW236207   0.978   2.025   4.783 -0.0475 -0.4710  0.8736
 8250SOL     OW36208   1.648   0.967  17.658 -0.2057 -0.1884 -0.2303
 8250SOL    HW136209   1.628   1.060  17.646 -0.6015 -0.0746  1.3503
 8250SOL    HW236210   1.565   0.938  17.696 -1.5397  2.2443 -1.3088
 8251SOL     OW36211   2.554   1.789  15.627  0.3564 -0.3665  0.3354
 8251SOL    HW136212   2.573   1.761  15.716  0.4715  0.3665  0.5414
 8251SOL    HW236213   2.568   1.707  15.580  0.9284  1.4738 -2.7441
 8252SOL     OW36214   1.246   4.051   6.465 -0.6533  0.3701  0.3002
 8252SOL    HW136215   1.286   3.969   6.493  2.3737  1.1779 -1.6986
 8252SOL    HW236216   1.291   4.110   6.525 -0.9650  2.1087 -1.1918
 8253SOL     OW36217   2.553   1.036   7.648  0.5085  0.0109 -0.1430
 8253SOL    HW136218   2.598   1.097   7.590  2.0276 -0.9357  0.0427
 8253SOL    HW236219   2.570   0.953   7.603 -2.2136 -0.7469  0.2451
 8254SOL     OW36220   2.639   3.909  17.696  0.1016 -0.3035 -0.5355
 8254SOL    HW136221   2.634   3.887  17.603 -1.8015 -3.1170  0.2601
 8254SOL    HW236222   2.580   3.847   0.041  1.0658 -1.4326 -0.8428
 8255SOL     OW36223   1.658   3.749  16.307  0.3132 -0.2957 -0.2103
 8255SOL    HW136224   1.636   3.670  16.258  1.7767 -0.2084 -1.0273
 8255SOL    HW236225   1.725   3.779  16.245  0.0284 -1.4143 -1.0693
 8256SOL     OW36226   2.845   1.375   3.551  0.0049 -0.2200 -0.4131
 8256SOL    HW136227   2.753   1.401   3.554 -0.3760 -1.4897 -0.9444
 8256SOL    HW236228   2.880   1.451   3.506 -0.7892  0.8175  0.7055
 8257SOL     OW36229   2.926   4.552   9.210  0.2980 -0.0768 -0.3101
 8257SOL    HW136230   2.932   4.639   9.250  4.4217  0.8229 -2.8892
 8257SOL    HW236231   2.924   4.496   9.288 -3.6905 -0.9027 -1.0074
 8258SOL     OW36232   2.979   4.496  16.354  0.3439  0.1518 -0.4616
 8258SOL    HW136233   2.969   4.483  16.449  2.9636  0.6037 -0.1249
 8258SOL    HW236234   3.041   4.425  16.335  0.3121 -0.1517  0.5515
 8259SOL     OW36235   2.972   0.808  10.581  0.5044 -0.3402 -0.4171
 8259SOL    HW136236   2.971   0.718  10.549  1.7854 -1.0859  1.6103
 8259SOL    HW236237   2.942   0.847  10.499 -1.2646  1.1286  0.9501
 8260SOL     OW36238   0.506   4.564  13.603  0.5375  0.4557  0.0353
 8260SOL    HW136239   0.504   4.660  13.597  1.7345  0.4440 -0.6945
 8260SOL    HW236240   0.567   4.553  13.530  0.1778  1.0070 -0.3440
 8261SOL     OW36241   4.596   1.468  16.366 -0.2731 -0.2115  0.2172
 8261SOL    HW136242   4.641   1.549  16.390 -0.4214 -0.1548  0.3046
 8261SOL    HW236243   4.665   1.418  16.408 -1.4090 -2.1664 -0.2604
 8262SOL     OW36244   3.497   1.033  14.095  0.6238  0.5857 -0.0229
 8262SOL    HW136245   3.426   0.992  14.143 -0.1140  0.8200 -0.9184
 8262SOL    HW236246   3.455   1.116  14.071  1.1389  0.6589 -0.6889
 8263SOL     OW36247   0.694   0.195   4.427 -0.3779  0.3561 -0.3336
 8263SOL    HW136248   0.702   0.100   4.420 -0.4537  0.3135  0.1910
 8263SOL    HW236249   0.599   0.206   4.428 -0.4959 -0.6842 -0.0260
 8264SOL     OW36250   3.762   1.113  15.939  0.0500 -0.2200  0.4269
 8264SOL    HW136251   3.776   1.045  16.005  0.8089 -1.2345 -0.7789
 8264SOL    HW236252   3.855   1.134  15.931  0.3492 -1.9431 -0.5366
 8265SOL     OW36253   1.549   3.818   4.525 -0.9907  0.4947  0.4384
 8265SOL    HW136254   1.642   3.808   4.547 -0.8412 -1.3619 -1.0560
 8265SOL    HW236255   1.520   3.750   4.585  0.0904 -0.8266 -0.5405
 8266SOL     OW36256   1.603   1.880   4.047  0.1331 -0.1907  0.1720
 8266SOL    HW136257   1.508   1.878   4.046  0.0870  1.0165  1.1955
 8266SOL    HW236258   1.624   1.787   4.043 -0.1405 -0.1058 -3.1008
 8267SOL     OW36259   1.310   2.723   2.165  0.0631 -0.2663 -0.4922
 8267SOL    HW136260   1.219   2.753   2.167  0.7597  1.8552  0.0560
 8267SOL    HW236261   1.333   2.724   2.072  0.0124  0.3134 -0.5006
 8268SOL     OW36262   3.114   4.533   2.183 -0.3856 -0.1566 -0.4136
 8268SOL    HW136263   3.087   4.613   2.229  0.2071 -1.0967  1.5825
 8268SOL    HW236264   3.098   4.558   2.092  2.1267 -0.9534 -1.0777
 8269SOL     OW36265   1.059   0.722   3.774 -0.3857  0.2059 -0.0367
 8269SOL    HW136266   1.105   0.806   3.771  1.8331 -1.1096 -2.8163
 8269SOL    HW236267   1.085   0.685   3.689  0.7990  0.0981  0.3811
 8270SOL     OW36268   3.000   1.232   2.232 -0.5148  0.5106 -0.2344
 8270SOL    HW136269   2.978   1.309   2.285  2.6215  2.1276 -1.2394
 8270SOL    HW236270   2.914   1.213   2.195 -0.1184  1.4951 -1.6699
 8271SOL     OW36271   0.375   1.271  10.351  0.1503 -0.7233  0.2281
 8271SOL    HW136272   0.309   1.235  10.410 -0.4727 -1.2541 -0.7825
 8271SOL    HW236273   0.432   1.328  10.402 -0.0146 -0.2336 -0.1277
 8272SOL     OW36274   4.648   3.365  16.656 -0.8058  0.0217  0.2048
 8272SOL    HW136275   4.681   3.404  16.737  4.7802 -0.5962 -1.8169
 8272SOL    HW236276   4.589   3.430  16.618 -0.7336  0.2198  0.4352
 8273SOL     OW36277   1.570   3.155  13.442  0.0200  0.3096 -0.1665
 8273SOL    HW136278   1.489   3.205  13.441  0.3745  0.8780 -1.6350
 8273SOL    HW236279   1.540   3.065  13.426  0.6142  0.3235 -1.4420
 8274SOL     OW36280   3.033   2.132   3.474  0.5940  0.2693  0.0974
 8274SOL    HW136281   2.944   2.101   3.488  0.2679  0.3404 -1.7451
 8274SOL    HW236282   3.025   2.168   3.386  1.5050  0.5748  0.1389
 8275SOL     OW36283   0.100   0.594   4.688 -0.1952 -0.2577  0.1451
 8275SOL    HW136284   0.195   0.580   4.685 -0.1887 -0.4025  0.8958
 8275SOL    HW236285   0.088   0.623   4.598  1.2281  0.1642  0.0927
 8276SOL     OW36286   1.839   4.452  17.383 -0.2495 -0.1139  0.4362
 8276SOL    HW136287   1.789   4.373  17.403 -0.4862  0.0336  0.4157
 8276SOL    HW236288   1.798   4.484  17.303  0.7583 -1.4467 -0.6154
 8277SOL     OW36289   3.353   2.641   5.220  0.1890 -0.2609  0.2381
 8277SOL    HW136290   3.364   2.549   5.245  0.7038 -0.1571  0.3997
 8277SOL    HW236291   3.426   2.645   5.158  0.1574  0.0196  0.2186
 8278SOL     OW36292   1.313   2.864   3.600  0.3243 -0.1042  0.0634
 8278SOL    HW136293   1.223   2.894   3.614  0.3836  0.2370 -0.3036
 8278SOL    HW236294   1.340   2.917   3.525 -0.7436  0.8753  0.3776
 8279SOL     OW36295   0.781   0.815   2.917 -0.5007  0.2257  0.1085
 8279SOL    HW136296   0.718   0.760   2.964 -0.7729  0.5291  0.1018
 8279SOL    HW236297   0.718   0.873   2.874  1.2239  1.9055 -0.1629
 8280SOL     OW36298   4.001   3.723   7.355  0.7698 -0.1376  0.0167
 8280SOL    HW136299   4.008   3.696   7.446  0.0124 -1.5005 -0.3243
 8280SOL    HW236300   3.986   3.642   7.306 -0.7349  1.2299 -1.8058
 8281SOL     OW36301   4.447   2.384   6.805  0.0823  0.1590 -0.5688
 8281SOL    HW136302   4.379   2.318   6.797 -1.1710  1.5177 -1.0945
 8281SOL    HW236303   4.435   2.407   6.897  1.7623 -2.1684  0.2391
 8282SOL     OW36304   1.042   2.529  11.939 -0.2659 -0.0747  0.3733
 8282SOL    HW136305   1.065   2.535  12.031 -0.5167 -0.7433  0.4829
 8282SOL    HW236306   1.093   2.458  11.901  1.1965 -0.3144  2.7803
 8283SOL     OW36307   2.207   4.369   4.110  0.1208  0.3887  0.2664
 8283SOL    HW136308   2.215   4.293   4.168 -2.7681  0.2193  0.4252
 8283SOL    HW236309   2.155   4.326   4.042 -1.8029  1.2446  1.2130
 8284SOL     OW36310   0.018   4.246  10.484  0.3254  0.1539  0.0849
 8284SOL    HW136311   0.003   4.340  10.479 -3.1135 -0.4211 -0.6349
 8284SOL    HW236312   0.046   4.224  10.573  1.6278  0.8958 -0.1411
 8285SOL     OW36313   3.301   0.079   3.232 -0.4535 -0.0133  0.2028
 8285SOL    HW136314   3.349   0.096   3.151  0.0233 -2.1488  0.0590
 8285SOL    HW236315   3.225   0.135   3.216  1.4559  1.8127 -2.5497
 8286SOL     OW36316   4.183   3.174   4.746  0.2311 -0.3141 -0.3485
 8286SOL    HW136317   4.222   3.207   4.666  3.2308 -2.0411  0.4161
 8286SOL    HW236318   4.236   3.095   4.758 -1.1973 -0.6830  3.8072
 8287SOL     OW36319   0.023   2.773  11.329  0.2737 -0.1819 -0.4091
 8287SOL    HW136320   0.048   2.749  11.239 -1.5855 -1.8910 -0.4814
 8287SOL    HW236321   0.111   2.768  11.366  0.3380  0.1279 -0.5195
 8288SOL     OW36322   2.052   1.395   5.720 -0.5314 -0.6643  0.2911
 8288SOL    HW136323   1.965   1.421   5.690 -0.4666 -2.2037 -1.1845
 8288SOL    HW236324   2.058   1.300   5.718 -0.2510 -0.5908 -2.1476
 8289SOL     OW36325   4.583   3.945   1.459 -0.0637 -0.0671  0.0176
 8289SOL    HW136326   4.515   4.000   1.499  0.1117 -1.3849  2.1160
 8289SOL    HW236327   4.615   3.993   1.383  2.4966  0.9862  1.7547
 8290SOL     OW36328   2.606   4.693   6.795  0.3866 -0.1690 -0.3093
 8290SOL    HW136329   2.612   0.044   6.854 -0.1953 -0.2368 -0.1629
 8290SOL    HW236330   2.663   4.626   6.831  0.8361  0.8134  0.7953
 8291SOL     OW36331   0.869   3.512  14.363 -0.0635 -0.1486  0.8741
 8291SOL    HW136332   0.935   3.525  14.295  1.7807  0.5857  2.7960
 8291SOL    HW236333   0.812   3.444  14.327 -0.3972  0.5593  0.0588
 8292SOL     OW36334   0.326   1.972   4.286  0.1696  0.2503 -0.3163
 8292SOL    HW136335   0.349   1.888   4.325 -0.4454  0.4360  0.4390
 8292SOL    HW236336   0.394   2.026   4.326 -1.4835  1.5942  0.6669
 8293SOL     OW36337   3.134   3.769  17.165 -0.4821  0.3590  0.3789
 8293SOL    HW136338   3.083   3.705  17.116  0.0983  0.2750 -0.1210
 8293SOL    HW236339   3.158   3.840  17.105  0.1678  1.0702  1.4639
 8294SOL     OW36340   2.218   3.928   2.024 -0.8500  0.2344  0.1809
 8294SOL    HW136341   2.162   4.005   2.019  0.6464  1.3502  0.7371
 8294SOL    HW236342   2.158   3.854   2.029  0.6968 -1.1807 -2.0484
 8295SOL     OW36343   3.848   0.037   6.333 -0.0854  0.9482 -0.4145
 8295SOL    HW136344   3.856   0.111   6.394  0.0928  1.4545 -1.0534
 8295SOL    HW236345   3.768   0.060   6.285 -0.7507 -2.0774 -0.7156
 8296SOL     OW36346   3.842   3.581   3.439 -0.5051 -0.1826 -0.0529
 8296SOL    HW136347   3.856   3.530   3.518 -1.4405  0.7963  0.7490
 8296SOL    HW236348   3.748   3.599   3.439 -0.2610  1.1584 -0.6027
 8297SOL     OW36349   0.235   4.271   6.392  0.4585  0.4261 -0.1239
 8297SOL    HW136350   0.283   4.354   6.392  2.3469 -0.6821  0.7009
 8297SOL    HW236351   0.261   4.229   6.310  0.4479 -1.9992  1.1325
 8298SOL     OW36352   1.287   4.198  16.170 -0.1597 -0.0161 -0.4800
 8298SOL    HW136353   1.206   4.217  16.121 -0.2724  0.3371 -0.1576
 8298SOL    HW236354   1.354   4.229  16.109  1.8875 -0.2322  1.6443
 8299SOL     OW36355   2.747   0.692  14.058  0.4778 -0.2403 -0.1484
 8299SOL    HW136356   2.719   0.645  14.137  0.8484  1.2183  0.8434
 8299SOL    HW236357   2.841   0.688  14.076  0.4429  1.0175  0.3197
 8300SOL     OW36358   3.932   4.637   5.709 -0.0526 -0.2784  0.1016
 8300SOL    HW136359   3.921   4.705   5.776  0.4376  1.3294 -1.4571
 8300SOL    HW236360   3.999   4.588   5.757 -1.0731 -2.0263 -0.2701
 8301SOL     OW36361   2.101   4.458   8.849 -0.3326  0.5266  0.1702
 8301SOL    HW136362   2.134   4.445   8.938  0.9387  2.8080  0.0259
 8301SOL    HW236363   2.058   4.374   8.833  1.2280 -0.3692  0.6657
 8302SOL     OW36364   0.623   2.251   2.783 -1.2351  0.0826 -0.1571
 8302SOL    HW136365   0.704   2.261   2.733 -2.5950 -0.0405 -2.3757
 8302SOL    HW236366   0.590   2.173   2.737 -1.5406  1.1124 -1.6672
 8303SOL     OW36367   2.305   0.623   2.250 -0.3514 -0.1523  0.2837
 8303SOL    HW136368   2.368   0.563   2.210  1.0530  1.6538 -0.2382
 8303SOL    HW236369   2.256   0.563   2.304 -1.4127  2.4244  2.1699
 8304SOL     OW36370   0.387   2.636  15.026 -0.2235  0.4946 -0.3845
 8304SOL    HW136371   0.297   2.665  15.040 -0.1324  0.8443 -0.5163
 8304SOL    HW236372   0.390   2.557  15.080  1.3658  0.0927 -1.0528
 8305SOL     OW36373   1.971   3.857   8.868 -0.4614  0.3272 -0.1234
 8305SOL    HW136374   1.992   3.783   8.926 -4.0333  0.6240  1.5739
 8305SOL    HW236375   1.905   3.907   8.915  0.6872  0.9140  0.8712
 8306SOL     OW36376   3.478   2.891   2.098 -0.1781 -0.1233 -0.4394
 8306SOL    HW136377   3.561   2.853   2.068  0.6035  1.1000  0.1970
 8306SOL    HW236378   3.442   2.826   2.158  0.5813  1.1229  1.3436
 8307SOL     OW36379   2.664   1.126   7.919 -0.3174  0.1283 -0.0611
 8307SOL    HW136380   2.745   1.076   7.905  0.6801  1.4542  0.9488
 8307SOL    HW236381   2.612   1.105   7.841  0.3921  0.3071 -0.5852
 8308SOL     OW36382   0.030   3.853   8.985  0.3366 -0.2632 -0.2450
 8308SOL    HW136383   0.109   3.862   9.039 -0.1070  0.5104  0.2847
 8308SOL    HW236384   0.055   3.904   8.908 -1.8098 -0.0995 -0.8072
 8309SOL     OW36385   2.543   0.160  15.624  0.3795 -0.0659  0.3153
 8309SOL    HW136386   2.516   0.251  15.616 -1.1343 -0.5496 -0.0982
 8309SOL    HW236387   2.530   0.131  15.533 -3.8718  1.3618  0.4836
 8310SOL     OW36388   0.205   1.350   5.530 -0.2859 -0.3792 -0.1563
 8310SOL    HW136389   0.246   1.417   5.584  0.7245 -0.1466 -1.1991
 8310SOL    HW236390   0.258   1.364   5.451  1.5685  1.4156  1.4303
 8311SOL     OW36391   2.467   2.433  11.728  0.2124 -0.8564 -0.1206
 8311SOL    HW136392   2.531   2.387  11.782 -1.4954 -3.2724 -0.1412
 8311SOL    HW236393   2.520   2.507  11.697  1.1129 -1.5184 -0.1569
 8312SOL     OW36394   4.485   1.420  15.234  0.0139  0.2182 -0.2472
 8312SOL    HW136395   4.406   1.372  15.212  1.2066 -2.6828  1.7927
 8312SOL    HW236396   4.512   1.423  15.142 -0.5596 -1.0884 -0.4499
 8313SOL     OW36397   1.879   2.600   4.435 -0.2372  0.2108 -0.2255
 8313SOL    HW136398   1.806   2.647   4.475 -0.9297  1.0252 -2.4425
 8313SOL    HW236399   1.940   2.606   4.508  0.4596  5.4334 -1.2377
 8314SOL     OW36400   1.592   2.505   4.022 -0.3046  0.0306 -0.3413
 8314SOL    HW136401   1.528   2.567   4.059 -0.0777 -0.2911  0.5809
 8314SOL    HW236402   1.632   2.468   4.100 -0.0520 -4.0277 -2.4061
 8315SOL     OW36403   0.579   1.141   6.497 -0.3985  0.0223  0.2315
 8315SOL    HW136404   0.641   1.116   6.429 -0.5459 -1.6798  0.7303
 8315SOL    HW236405   0.522   1.067   6.477  2.4691 -1.2759 -3.1456
 8316SOL     OW36406   0.125   1.933  14.328  0.2412 -0.5032 -0.5182
 8316SOL    HW136407   0.055   1.984  14.285  0.1061  1.1193  1.6203
 8316SOL    HW236408   0.182   2.007  14.351  0.5985 -0.3681 -1.8186
 8317SOL     OW36409   1.981   0.373   5.769 -0.0747 -0.7186 -0.1680
 8317SOL    HW136410   2.065   0.412   5.791 -1.5998  3.0797 -1.0886
 8317SOL    HW236411   1.974   0.302   5.833  2.1601 -2.3174 -1.7257
 8318SOL     OW36412   1.897   0.832  10.683 -0.0192 -0.0788 -0.3875
 8318SOL    HW136413   1.973   0.825  10.625  0.6165 -1.6345  0.6440
 8318SOL    HW236414   1.917   0.759  10.742 -1.4338  1.3839  1.8873
 8319SOL     OW36415   2.967   3.133   2.798  0.1986 -0.0052 -0.0793
 8319SOL    HW136416   2.972   3.221   2.760 -2.7083  1.5599  3.1492
 8319SOL    HW236417   2.989   3.150   2.890  1.1915  2.0871 -0.6919
 8320SOL     OW36418   3.586   1.591   7.433  0.8801  0.2568  0.4216
 8320SOL    HW136419   3.535   1.661   7.474  2.9010  1.7681  0.2913
 8320SOL    HW236420   3.669   1.635   7.418 -1.2480  4.0582 -0.2277
 8321SOL     OW36421   4.056   1.021   8.337 -0.5536  0.2006 -0.1034
 8321SOL    HW136422   4.067   1.027   8.242 -2.3447  1.4993 -0.2157
 8321SOL    HW236423   4.140   1.055   8.369 -1.0000  1.0957  0.1083
 8322SOL     OW36424   0.507   3.453   1.266  0.2850  0.1934  0.4577
 8322SOL    HW136425   0.426   3.502   1.248  0.3385  0.2705  0.4271
 8322SOL    HW236426   0.497   3.400   1.186 -1.2190  1.0313  0.0891
 8323SOL     OW36427   4.218   1.530  15.379 -0.2736 -0.4409  0.4105
 8323SOL    HW136428   4.254   1.451  15.419  0.2415 -0.4844 -0.1426
 8323SOL    HW236429   4.281   1.601  15.368  0.4624 -1.1096  0.3121
 8324SOL     OW36430   0.643   2.772   9.725  0.1706  0.2228 -0.3451
 8324SOL    HW136431   0.628   2.678   9.715 -1.3282  0.0900  3.0634
 8324SOL    HW236432   0.611   2.783   9.815  0.8795  0.3033 -0.1004
 8325SOL     OW36433   2.679   2.714   0.573 -0.7981 -0.2427  0.1760
 8325SOL    HW136434   2.650   2.658   0.645 -1.4318  1.5346  1.3103
 8325SOL    HW236435   2.763   2.748   0.605  0.1037  0.9316 -3.4438
 8326SOL     OW36436   0.798   2.122   6.071  0.0269  0.0825  0.0252
 8326SOL    HW136437   0.796   2.037   6.116 -1.4556  0.4386  0.6363
 8326SOL    HW236438   0.879   2.152   6.113  0.2501  0.6383 -0.8090
 8327SOL     OW36439   3.268   2.846  13.242 -0.0414  0.2677 -0.3815
 8327SOL    HW136440   3.288   2.755  13.263  2.5191  0.7733 -0.5896
 8327SOL    HW236441   3.236   2.830  13.154  0.5652  1.4195 -0.8083
 8328SOL     OW36442   3.159   4.708   8.384  0.5293  0.0354 -0.1125
 8328SOL    HW136443   3.133   0.063   8.337  0.4638 -0.4340 -0.8655
 8328SOL    HW236444   3.253   4.708   8.369  0.2698 -4.5148 -1.8677
 8329SOL     OW36445   4.015   1.040   2.248 -0.1766 -0.0228  1.0980
 8329SOL    HW136446   4.074   1.068   2.178 -1.8012  3.7320  1.2382
 8329SOL    HW236447   3.989   0.958   2.207  0.3700 -0.7702  2.2607
 8330SOL     OW36448   3.933   0.471  12.290  0.2822  0.0857 -0.1574
 8330SOL    HW136449   3.971   0.417  12.220 -1.7808  1.1498 -2.0938
 8330SOL    HW236450   3.977   0.432  12.366  0.3996  2.4248  0.9621
 8331SOL     OW36451   1.545   1.347   5.631  0.1016 -0.6905 -0.5847
 8331SOL    HW136452   1.514   1.436   5.649  2.0132 -0.4812  1.6465
 8331SOL    HW236453   1.510   1.340   5.542  2.4243 -1.0105 -1.4709
 8332SOL     OW36454   4.420   3.384   6.598 -0.4287  0.5759  0.0890
 8332SOL    HW136455   4.475   3.319   6.641 -1.3943 -0.8467 -0.8519
 8332SOL    HW236456   4.337   3.338   6.593  0.0928 -0.4616  0.8365
 8333SOL     OW36457   2.066   3.203   0.294  0.3213  0.0280  0.0745
 8333SOL    HW136458   2.011   3.202   0.372 -2.0126 -2.8251 -1.6084
 8333SOL    HW236459   2.102   3.290   0.310  0.9603  0.2866 -2.6429
 8334SOL     OW36460   4.365   1.297  14.753 -0.5351  0.4705 -0.0401
 8334SOL    HW136461   4.318   1.223  14.791  1.2115 -0.4973  0.2212
 8334SOL    HW236462   4.454   1.265  14.761  0.2946  2.2022 -2.4003
 8335SOL     OW36463   0.345   0.223   4.237  0.5014 -0.0954 -0.6627
 8335SOL    HW136464   0.315   0.244   4.326  1.6023  1.2604 -0.6047
 8335SOL    HW236465   0.364   0.307   4.196 -0.5911  0.0364 -0.9139
 8336SOL     OW36466   2.218   2.461   4.340 -0.1816  0.8978  0.3407
 8336SOL    HW136467   2.246   2.398   4.273  0.1187  1.6424 -0.2455
 8336SOL    HW236468   2.126   2.437   4.351  0.2475 -0.3868  1.1312
 8337SOL     OW36469   4.230   2.457  14.054 -0.0090  0.6096 -0.5110
 8337SOL    HW136470   4.178   2.520  14.004  0.7171  1.6439  0.0519
 8337SOL    HW236471   4.187   2.382  14.011 -0.9422  0.6843  0.2791
 8338SOL     OW36472   2.371   2.366   3.599  0.1470  0.1315  0.1290
 8338SOL    HW136473   2.294   2.403   3.643  0.1844  0.2116  0.1266
 8338SOL    HW236474   2.354   2.398   3.511  0.4493 -1.4481 -0.5024
 8339SOL     OW36475   0.319   0.332   8.491  0.0075 -0.4719 -0.2527
 8339SOL    HW136476   0.332   0.296   8.404 -1.6549 -1.0831 -0.2447
 8339SOL    HW236477   0.302   0.425   8.475 -0.3709 -0.5535 -0.3165
 8340SOL     OW36478   1.062   2.169   2.641  0.1417 -0.3960  0.1450
 8340SOL    HW136479   1.116   2.204   2.570 -1.5082  2.4033  0.2860
 8340SOL    HW236480   1.129   2.160   2.708  1.7869 -0.4993 -1.5252
 8341SOL     OW36481   3.454   0.105   7.048  0.1965  0.2673  1.0511
 8341SOL    HW136482   3.457   0.014   7.077 -1.0474 -0.6636 -1.7246
 8341SOL    HW236483   3.549   0.113   7.039  0.0931 -1.4172 -1.5908
 8342SOL     OW36484   0.874   3.112   6.801 -0.1379 -0.2434 -0.0973
 8342SOL    HW136485   0.924   3.194   6.802  1.9355 -1.5021 -0.0956
 8342SOL    HW236486   0.786   3.135   6.770 -0.1086 -0.9876 -0.7312
 8343SOL     OW36487   4.287   4.541  16.432 -0.2221 -0.0745 -0.2680
 8343SOL    HW136488   4.362   4.485  16.452 -0.3045  0.1070  0.5643
 8343SOL    HW236489   4.301   4.616  16.490 -0.0440  2.5312 -3.6518
 8344SOL     OW36490   4.480   3.102  11.625 -0.4395  0.1670  0.1580
 8344SOL    HW136491   4.486   3.041  11.698  0.0047 -0.7184 -0.6103
 8344SOL    HW236492   4.547   3.062  11.569  0.5659  0.7371  0.9469
 8345SOL     OW36493   4.038   1.659   4.261  0.2328 -0.1514  0.0600
 8345SOL    HW136494   4.101   1.633   4.328  2.1072  0.4389 -1.4717
 8345SOL    HW236495   4.072   1.603   4.192  2.8524  0.1305  1.1188
 8346SOL     OW36496   2.268   0.022   5.728 -0.4015 -0.0613  0.1318
 8346SOL    HW136497   2.307   4.675   5.780 -1.2061 -0.3452  0.3441
 8346SOL    HW236498   2.311   0.016   5.642 -0.9184 -1.5754 -0.0258
 8347SOL     OW36499   3.766   4.328  10.009  0.1288 -0.3563 -0.6373
 8347SOL    HW136500   3.777   4.286  10.094 -2.3693  1.1824  0.4308
 8347SOL    HW236501   3.768   4.417  10.046 -0.4805 -0.3559 -0.6127
 8348SOL     OW36502   2.395   0.485   0.594 -0.2194  0.2576  0.0707
 8348SOL    HW136503   2.466   0.448   0.541 -1.2563 -0.6727 -0.6564
 8348SOL    HW236504   2.429   0.501   0.682  2.7443 -1.1434 -0.8018
 8349SOL     OW36505   3.851   4.256  10.508  0.4993  0.3785 -0.3270
 8349SOL    HW136506   3.765   4.266  10.550  1.9268 -0.7522  2.8767
 8349SOL    HW236507   3.891   4.338  10.536 -0.2378  0.8291 -0.5920
 8350SOL     OW36508   1.885   0.055   7.097  0.0722  0.1287  0.0125
 8350SOL    HW136509   1.833   0.067   7.177 -0.2941 -1.0309 -0.0515
 8350SOL    HW236510   1.944   4.710   7.128  0.5071  0.6115  0.2479
 8351SOL     OW36511   3.628   0.853  11.680 -0.9263  0.7208 -0.2715
 8351SOL    HW136512   3.654   0.944  11.690  1.3708 -0.1478  1.5919
 8351SOL    HW236513   3.554   0.859  11.620 -1.0956 -0.7054 -0.2029
 8352SOL     OW36514   0.648   2.743   2.055 -0.1277 -0.2316 -0.1317
 8352SOL    HW136515   0.656   2.649   2.070 -1.4026 -0.4185 -0.6250
 8352SOL    HW236516   0.707   2.751   1.980 -0.7756  0.7580 -0.5384
 8353SOL     OW36517   1.334   3.712   7.685 -0.0703  0.7493  0.4531
 8353SOL    HW136518   1.340   3.618   7.702  0.0395  0.3684 -1.6774
 8353SOL    HW236519   1.248   3.738   7.717 -1.3256  0.8237 -3.0783
 8354SOL     OW36520   4.037   4.250   8.006 -0.2770 -0.1099  0.0552
 8354SOL    HW136521   4.065   4.333   8.044  4.3432 -2.1093  1.0096
 8354SOL    HW236522   3.989   4.211   8.080 -1.1808  1.7706  0.4677
 8355SOL     OW36523   1.516   4.398   7.970  0.2489 -0.0814 -0.0016
 8355SOL    HW136524   1.537   4.438   7.886  1.4359  1.0054  0.8126
 8355SOL    HW236525   1.587   4.422   8.030 -1.0425  1.6577  0.8118
 8356SOL     OW36526   1.275   1.064   4.513  0.2213  0.4854 -0.5108
 8356SOL    HW136527   1.192   1.035   4.474  1.5867 -2.3721 -1.3506
 8356SOL    HW236528   1.252   1.154   4.533 -0.1376  0.2240  0.2747
 8357SOL     OW36529   3.534   4.269  14.194  0.4473  0.3631  0.2770
 8357SOL    HW136530   3.477   4.346  14.195 -0.3293 -0.2023  0.3390
 8357SOL    HW236531   3.487   4.218  14.260  1.0863 -0.6327 -0.0394
 8358SOL     OW36532   2.512   2.543   4.508  0.6933  0.6714  0.1858
 8358SOL    HW136533   2.555   2.589   4.580 -0.5205  0.9826  0.7130
 8358SOL    HW236534   2.481   2.608   4.445  1.4653  1.3358  0.4874
 8359SOL     OW36535   4.023   2.693   2.252  0.0390  0.2160  0.0648
 8359SOL    HW136536   4.090   2.676   2.318  3.4703  1.9744 -2.9084
 8359SOL    HW236537   4.057   2.777   2.220 -2.2128  1.2610  0.4069
 8360SOL     OW36538   3.929   2.384   1.765  0.4288 -0.3226  0.1957
 8360SOL    HW136539   4.013   2.338   1.755 -0.0738 -1.3907  0.8983
 8360SOL    HW236540   3.893   2.352   1.847 -1.8894  1.6248 -0.0692
 8361SOL     OW36541   2.151   1.448  16.062  0.2019  0.1876  0.3515
 8361SOL    HW136542   2.118   1.442  15.973  0.3563 -1.3901  0.4072
 8361SOL    HW236543   2.212   1.522  16.051  1.3552 -0.8740 -0.4354
 8362SOL     OW36544   4.108   0.924   0.653 -0.0357 -0.1140 -0.1790
 8362SOL    HW136545   4.185   0.876   0.622  0.4646  0.0643  0.7988
 8362SOL    HW236546   4.136   0.955   0.739 -0.7347  0.2200 -0.0677
 8363SOL     OW36547   1.377   3.079   4.392 -0.7891  0.0255  0.2287
 8363SOL    HW136548   1.383   3.155   4.334 -2.6357 -0.3011 -0.4115
 8363SOL    HW236549   1.282   3.076   4.401 -0.6383  0.2068  1.8817
 8364SOL     OW36550   0.598   3.759   5.859 -0.6348 -0.0986  0.4531
 8364SOL    HW136551   0.510   3.740   5.825 -1.6341  1.6924  2.0171
 8364SOL    HW236552   0.572   3.796   5.944  1.4065  0.7304  0.7215
 8365SOL     OW36553   0.183   2.273   5.741  0.4816 -0.1608 -0.3514
 8365SOL    HW136554   0.155   2.195   5.693  2.5168 -1.1742  0.0990
 8365SOL    HW236555   0.279   2.278   5.736  0.5797 -2.2712 -0.9065
 8366SOL     OW36556   3.682   0.093   2.425 -0.4450 -0.3085 -0.2790
 8366SOL    HW136557   3.706   0.067   2.514 -3.2085  0.7649  0.7742
 8366SOL    HW236558   3.592   0.120   2.442 -0.4349 -1.2034  1.2394
 8367SOL     OW36559   0.942   3.262  13.730  0.5210  0.4115 -0.2953
 8367SOL    HW136560   0.896   3.212  13.798 -0.0447 -0.9857 -1.7052
 8367SOL    HW236561   0.964   3.192  13.669  0.4157  0.6830 -0.6436
 8368SOL     OW36562   1.313   0.625   7.674  0.0421  0.0395  0.0456
 8368SOL    HW136563   1.265   0.656   7.751  0.6071 -2.4477  1.3900
 8368SOL    HW236564   1.399   0.607   7.712  0.5372  1.3959 -0.4386
 8369SOL     OW36565   2.283   4.154   9.590 -0.3151 -0.1012 -0.8134
 8369SOL    HW136566   2.261   4.206   9.667  2.2326  2.1573 -1.5990
 8369SOL    HW236567   2.217   4.183   9.526  0.1196 -0.0756 -1.2545
 8370SOL     OW36568   2.748   2.240  10.241 -0.2524 -0.3315  0.9066
 8370SOL    HW136569   2.793   2.244  10.325 -0.0393  0.2266  0.7631
 8370SOL    HW236570   2.821   2.234  10.179 -1.2496 -1.1177 -0.1875
 8371SOL     OW36571   3.589   0.714   4.190 -0.6256 -0.8061 -0.1452
 8371SOL    HW136572   3.521   0.665   4.143  0.4659 -0.6952 -1.8684
 8371SOL    HW236573   3.602   0.662   4.269 -2.0587 -1.4418 -0.3202
 8372SOL     OW36574   2.703   1.593  13.559  1.0144  0.1290  0.5254
 8372SOL    HW136575   2.757   1.661  13.519 -1.1599  1.5650  0.0263
 8372SOL    HW236576   2.693   1.631  13.647 -0.4283  3.4273 -1.0712
 8373SOL     OW36577   0.615   2.893   1.619 -0.4839  0.2020  0.1416
 8373SOL    HW136578   0.529   2.858   1.594 -1.3206  1.5270  1.1812
 8373SOL    HW236579   0.621   2.975   1.570  2.5935 -0.3636 -0.4686
 8374SOL     OW36580   3.478   4.307   6.687  0.5112  0.1280  0.1229
 8374SOL    HW136581   3.472   4.228   6.741  1.3337 -0.9097 -1.2799
 8374SOL    HW236582   3.424   4.367   6.738  0.1737 -0.5999  0.6215
 8375SOL     OW36583   4.596   3.007  17.616 -0.1574  0.1099 -0.1581
 8375SOL    HW136584   4.605   2.999   0.014  0.6533  0.9935 -0.1610
 8375SOL    HW236585   4.599   2.914  17.592  0.0932 -0.4374  1.9770
 8376SOL     OW36586   2.714   0.398   5.263  0.0116  0.0112  0.2598
 8376SOL    HW136587   2.647   0.346   5.308  1.0310  0.4382  2.2867
 8376SOL    HW236588   2.668   0.416   5.182  0.3514 -1.9495 -0.3632
 8377SOL     OW36589   4.413   4.720   9.892  0.7852 -0.6608 -0.3241
 8377SOL    HW136590   4.429   0.042   9.975 -0.7210  0.3949 -0.6208
 8377SOL    HW236591   4.394   4.634   9.927  2.5106 -0.7953  0.3184
 8378SOL     OW36592   0.893   1.299   4.647 -0.0469  0.2438 -0.2252
 8378SOL    HW136593   0.924   1.219   4.689 -0.3807  0.1391 -0.1795
 8378SOL    HW236594   0.799   1.299   4.660  0.0181  1.0784  0.3043
 8379SOL     OW36595   3.681   1.437   0.505 -0.2719 -0.0520 -0.2457
 8379SOL    HW136596   3.738   1.419   0.580  0.4075  1.5297 -0.3837
 8379SOL    HW236597   3.633   1.354   0.503 -0.4775  0.0132  1.6641
 8380SOL     OW36598   0.722   0.084  14.751  0.1555 -0.0670 -0.0951
 8380SOL    HW136599   0.754   4.718  14.752 -0.4722 -0.3169 -3.1114
 8380SOL    HW236600   0.669   0.089  14.831 -1.6586  0.2954 -1.3158
 8381SOL     OW36601   4.325   4.238   8.019 -0.0569  0.3288 -0.1332
 8381SOL    HW136602   4.236   4.216   7.989 -0.2648  1.3955 -0.2813
 8381SOL    HW236603   4.318   4.330   8.043  1.0250  0.9237 -2.1032
 8382SOL     OW36604   3.565   2.620   6.362 -0.6443 -0.3750  0.3981
 8382SOL    HW136605   3.650   2.638   6.401 -1.2288  1.0646  1.0153
 8382SOL    HW236606   3.586   2.580   6.277  1.0194  0.0511  0.6095
 8383SOL     OW36607   2.284   1.484   4.703 -0.6380 -0.5247  0.0583
 8383SOL    HW136608   2.304   1.426   4.630 -0.8594 -0.6724  0.1143
 8383SOL    HW236609   2.290   1.434   4.785  0.6767 -1.0572 -0.3738
 8384SOL     OW36610   1.328   3.339   9.530 -0.5525 -0.1656  0.1647
 8384SOL    HW136611   1.254   3.290   9.567  0.4301 -2.4619 -0.9306
 8384SOL    HW236612   1.320   3.317   9.438  1.8276 -1.6889  0.3159
 8385SOL     OW36613   0.528   3.317  16.166 -0.0031  0.5164 -0.4590
 8385SOL    HW136614   0.467   3.245  16.148  2.2804 -1.8093  1.2076
 8385SOL    HW236615   0.589   3.281  16.230 -1.3894 -0.0938  0.5162
 8386SOL     OW36616   3.854   2.433   4.440  0.0197  0.3127 -0.0649
 8386SOL    HW136617   3.890   2.442   4.352 -2.0950 -0.8933 -1.0522
 8386SOL    HW236618   3.831   2.340   4.436 -1.5338  0.7825 -1.9035
 8387SOL     OW36619   2.732   3.718  13.622  0.0075  0.1482  0.1416
 8387SOL    HW136620   2.773   3.804  13.631 -1.2707  0.8175 -0.4850
 8387SOL    HW236621   2.814   3.669  13.620 -0.0678  0.1016 -1.5758
 8388SOL     OW36622   4.254   3.717   5.465 -0.5289  0.6182 -0.7020
 8388SOL    HW136623   4.233   3.776   5.393  0.4006  1.5161 -0.2312
 8388SOL    HW236624   4.230   3.635   5.421  0.5384 -0.5622  0.9091
 8389SOL     OW36625   3.682   1.520   3.108 -0.2485 -0.3186  0.2452
 8389SOL    HW136626   3.695   1.606   3.067 -0.0781 -0.8617 -0.8258
 8389SOL    HW236627   3.745   1.520   3.181 -0.6747 -2.3176  0.6008
 8390SOL     OW36628   0.385   0.073  15.880 -0.0114 -0.3795 -0.2765
 8390SOL    HW136629   0.441   0.022  15.938  0.8797 -0.3364 -1.1008
 8390SOL    HW236630   0.453   0.076  15.813 -0.5266  1.5794 -0.7022
 8391SOL     OW36631   1.032   2.726   2.802 -0.2218  0.1021 -0.1455
 8391SOL    HW136632   0.963   2.793   2.796  0.1359  0.4978  0.2167
 8391SOL    HW236633   1.071   2.757   2.883  0.6967 -2.1289  0.2727
 8392SOL     OW36634   3.406   2.141  10.507 -0.2299  0.2192  0.8334
 8392SOL    HW136635   3.426   2.073  10.572 -2.4747 -0.2291  1.0779
 8392SOL    HW236636   3.395   2.086  10.429 -2.4610  1.1954  0.4473
 8393SOL     OW36637   3.485   0.496   7.511 -0.1962 -0.4315  0.4507
 8393SOL    HW136638   3.394   0.493   7.481 -0.2503 -2.5382  0.8079
 8393SOL    HW236639   3.529   0.452   7.438  0.3367  0.7671  0.0614
 8394SOL     OW36640   3.139   3.699  11.240  0.3408 -0.6270  0.0388
 8394SOL    HW136641   3.233   3.681  11.233  0.8923  1.1511  2.7704
 8394SOL    HW236642   3.112   3.764  11.176  2.2214 -0.6937 -0.8333
 8395SOL     OW36643   4.374   0.194   5.279  0.7321  0.1764 -0.2755
 8395SOL    HW136644   4.286   0.233   5.279  0.1814 -1.0621  0.1066
 8395SOL    HW236645   4.420   0.260   5.331  0.2627  0.5351 -0.3104
 8396SOL     OW36646   1.039   3.412   7.384  0.0315  0.1270 -0.3174
 8396SOL    HW136647   1.118   3.376   7.344  1.7997  1.0023  2.4015
 8396SOL    HW236648   1.028   3.488   7.327  0.3184  1.3366  1.2688
 8397SOL     OW36649   0.702   1.606   8.841 -0.4617  0.1035  0.0250
 8397SOL    HW136650   0.784   1.575   8.881  0.0256 -1.6882 -2.3260
 8397SOL    HW236651   0.635   1.590   8.907 -0.9575 -2.4239 -1.0828
 8398SOL     OW36652   3.534   4.311   8.082  0.3845  0.4758  0.1251
 8398SOL    HW136653   3.581   4.393   8.096 -0.7285  1.2170 -0.5066
 8398SOL    HW236654   3.599   4.248   8.113 -2.2364 -2.7989 -1.1038
 8399SOL     OW36655   3.939   1.983  17.656  0.0895 -0.1295  0.3817
 8399SOL    HW136656   3.903   1.923   0.025 -1.1055  0.8805  0.6370
 8399SOL    HW236657   4.018   1.996   0.013 -0.0013  1.5743  0.1211
 8400SOL     OW36658   3.411   3.624   8.483  0.4267  0.1428 -0.1569
 8400SOL    HW136659   3.373   3.708   8.457  1.7930  0.7657 -0.1576
 8400SOL    HW236660   3.430   3.646   8.574  1.3798  0.9218 -0.5431
 8401SOL     OW36661   3.557   2.903   1.787  0.0739 -0.2384  0.0290
 8401SOL    HW136662   3.619   2.851   1.837 -1.1015 -0.9806  0.7206
 8401SOL    HW236663   3.561   2.858   1.702 -2.9003  0.7235 -0.6463
 8402SOL     OW36664   4.088   0.112   5.011  0.2384  0.2843  0.1019
 8402SOL    HW136665   4.066   0.019   5.011  2.6928 -0.2890  0.8322
 8402SOL    HW236666   4.157   0.122   4.945  0.5903  0.0244  0.4314
 8403SOL     OW36667   3.611   4.328   4.350  0.0673  0.4204 -0.1688
 8403SOL    HW136668   3.617   4.239   4.382  1.1074  0.4216 -0.3777
 8403SOL    HW236669   3.588   4.314   4.258  1.5669 -1.6561 -0.2029
 8404SOL     OW36670   4.402   3.686  13.819 -0.0183  0.2021  0.2127
 8404SOL    HW136671   4.307   3.698  13.815  0.0772  0.6649 -0.6472
 8404SOL    HW236672   4.423   3.693  13.726  1.9761 -0.5081  0.6007
 8405SOL     OW36673   2.626   0.527   6.162  0.2140 -0.7437 -0.7112
 8405SOL    HW136674   2.534   0.509   6.179  0.0888 -1.8223 -2.5091
 8405SOL    HW236675   2.662   0.466   6.227 -1.6642 -1.3605 -0.2491
 8406SOL     OW36676   1.579   4.284   1.839 -0.2471  0.1204  0.0275
 8406SOL    HW136677   1.499   4.312   1.794 -0.8951  0.8497  1.6260
 8406SOL    HW236678   1.637   4.359   1.825 -1.3698  1.5300  2.7709
 8407SOL     OW36679   2.552   1.469   1.656  0.1309 -0.2255 -0.0281
 8407SOL    HW136680   2.611   1.402   1.690  0.4297 -0.2443 -0.5985
 8407SOL    HW236681   2.500   1.502   1.730 -2.4168 -0.4039 -1.7179
 8408SOL     OW36682   3.750   3.786   1.003  0.2776  0.2372  0.0779
 8408SOL    HW136683   3.782   3.730   0.933  1.0702 -1.3072  1.6789
 8408SOL    HW236684   3.792   3.752   1.082 -2.1695 -0.6923  0.9766
 8409SOL     OW36685   4.293   2.036   1.817  0.2619  0.1994  0.4183
 8409SOL    HW136686   4.238   2.099   1.770  0.0934 -0.1575  0.1403
 8409SOL    HW236687   4.335   2.096   1.879 -1.1583  0.6909  0.9224
 8410SOL     OW36688   2.182   2.319  13.671  0.1229 -0.3283 -0.0284
 8410SOL    HW136689   2.189   2.351  13.761 -0.9345 -0.4246  0.0889
 8410SOL    HW236690   2.247   2.248  13.677 -1.0284 -1.2886  0.9947
 8411SOL     OW36691   1.080   2.831   2.066  0.0764 -0.1701  0.2205
 8411SOL    HW136692   1.048   2.791   1.986 -1.7198 -3.7391  2.6972
 8411SOL    HW236693   1.105   2.915   2.030 -3.0576  0.2562 -0.8765
 8412SOL     OW36694   1.564   1.530  17.593 -0.3530  0.9890  0.1918
 8412SOL    HW136695   1.575   1.625  17.584 -0.5754  0.9127 -0.8270
 8412SOL    HW236696   1.648   1.501  17.557 -1.7713 -0.9135 -1.5487
 8413SOL     OW36697   2.310   4.328   7.379  0.1295 -0.0747 -0.8492
 8413SOL    HW136698   2.222   4.359   7.401 -0.7814 -1.6218 -2.2989
 8413SOL    HW236699   2.283   4.247   7.336  1.0444 -0.2295 -1.1325
 8414SOL     OW36700   2.957   0.018  12.730 -0.0436 -0.0277 -0.0094
 8414SOL    HW136701   3.024   0.067  12.777 -0.8775 -0.4027  1.5790
 8414SOL    HW236702   2.937   0.081  12.661 -0.4487 -0.0908  0.0457
 8415SOL     OW36703   0.284   1.514   5.169 -0.2842 -0.3786 -0.1827
 8415SOL    HW136704   0.340   1.493   5.244  0.0941  0.8555 -0.1179
 8415SOL    HW236705   0.345   1.534   5.098 -1.2572  2.2441 -0.2649
 8416SOL     OW36706   1.346   3.038   8.151 -0.1147  0.3774 -0.2219
 8416SOL    HW136707   1.422   3.093   8.128  0.0888  0.0884 -0.2415
 8416SOL    HW236708   1.357   3.032   8.246 -0.4349 -0.4956 -0.2417
 8417SOL     OW36709   3.057   1.698   8.793 -0.5579 -0.5314 -0.6370
 8417SOL    HW136710   3.137   1.722   8.747 -0.2468  0.5499  0.4670
 8417SOL    HW236711   3.027   1.786   8.818  1.9026  0.7513 -2.1545
 8418SOL     OW36712   3.586   2.494   3.775 -0.6451 -0.3078  0.0043
 8418SOL    HW136713   3.566   2.407   3.811  0.4377  0.4385  2.4451
 8418SOL    HW236714   3.557   2.552   3.846  0.5936 -1.0275  1.0951
 8419SOL     OW36715   0.274   4.615   3.662  0.6094  0.2636  0.0139
 8419SOL    HW136716   0.300   4.684   3.601 -0.4729 -1.0984 -1.9935
 8419SOL    HW236717   0.288   4.539   3.605 -1.7846  0.1236 -0.3715
 8420SOL     OW36718   2.326   3.650   7.228  0.6408  0.4964  0.6429
 8420SOL    HW136719   2.252   3.625   7.172 -0.6557 -0.8099  2.9687
 8420SOL    HW236720   2.288   3.732   7.260 -2.7433 -0.7541 -0.1336
 8421SOL     OW36721   4.559   4.347   7.942 -0.0511  0.7708  0.4653
 8421SOL    HW136722   4.637   4.301   7.974 -0.3043 -0.1421 -0.2665
 8421SOL    HW236723   4.489   4.291   7.975  0.8373  0.6225  2.1449
 8422SOL     OW36724   1.922   2.965   0.161  0.1859  0.6508 -0.5093
 8422SOL    HW136725   1.835   3.003   0.176 -0.7289 -1.6797  0.1559
 8422SOL    HW236726   1.911   2.894   0.224 -2.3146  1.9092  0.4463
 8423SOL     OW36727   1.446   0.668   3.141  0.1726 -0.3132 -0.4016
 8423SOL    HW136728   1.362   0.687   3.184  0.2819 -0.1263 -0.2718
 8423SOL    HW236729   1.495   0.646   3.220  2.4149  3.4180 -0.7329
 8424SOL     OW36730   1.904   4.606  12.134 -0.1165 -0.4048  0.1078
 8424SOL    HW136731   1.834   4.551  12.100  0.3962 -1.9687  1.6267
 8424SOL    HW236732   1.937   4.641  12.051 -1.1478 -1.7330 -0.8588
 8425SOL     OW36733   2.382   2.369   9.228  0.3309  0.6431  0.2096
 8425SOL    HW136734   2.444   2.440   9.210  1.9027 -0.4786  1.1912
 8425SOL    HW236735   2.315   2.408   9.285 -1.0634 -1.0735 -0.2774
 8426SOL     OW36736   3.681   1.170   7.490  0.4377 -0.6107 -0.0541
 8426SOL    HW136737   3.678   1.207   7.402 -0.8783 -1.2031 -0.2522
 8426SOL    HW236738   3.623   1.234   7.532 -1.3049 -2.5625  0.5398
 8427SOL     OW36739   3.467   0.096  17.460 -0.0271  0.3930 -0.3536
 8427SOL    HW136740   3.561   0.085  17.445 -0.2199  0.0256 -1.3119
 8427SOL    HW236741   3.454   0.189  17.444 -1.4970 -0.0850 -2.0069
 8428SOL     OW36742   1.972   0.506  10.079 -0.3143  0.6009  0.4644
 8428SOL    HW136743   1.928   0.580  10.121 -0.1378  0.6649  0.5406
 8428SOL    HW236744   2.051   0.549  10.044  0.5722 -1.8423 -0.5211
 8429SOL     OW36745   1.878   1.530   0.297  0.1038  0.5206  0.2409
 8429SOL    HW136746   1.884   1.563   0.387 -2.0637  1.3443  0.0844
 8429SOL    HW236747   1.852   1.439   0.308 -0.1286  0.7390  1.5411
 8430SOL     OW36748   3.128   2.413   5.809  0.2896 -0.6214 -0.5580
 8430SOL    HW136749   3.209   2.456   5.782 -0.3742  0.7940 -0.3065
 8430SOL    HW236750   3.142   2.337   5.752 -1.4565 -2.3226  1.2703
 8431SOL     OW36751   3.012   2.451  15.289 -0.5785 -0.2697 -0.2102
 8431SOL    HW136752   3.003   2.529  15.235  2.2999 -0.7945 -1.4603
 8431SOL    HW236753   3.047   2.482  15.372 -0.3388  2.5604 -1.3839
 8432SOL     OW36754   4.470   1.231   7.650 -0.1466  0.4035 -0.3668
 8432SOL    HW136755   4.377   1.220   7.671 -0.2734  0.8217 -0.7125
 8432SOL    HW236756   4.508   1.258   7.733  1.8781 -1.5241 -0.6783
 8433SOL     OW36757   0.017   2.163   3.631 -0.2661 -0.2551  0.3132
 8433SOL    HW136758   0.007   2.197   3.720 -0.0302 -1.5459  0.8249
 8433SOL    HW236759   0.113   2.165   3.624 -0.3135 -1.0943 -0.5956
 8434SOL     OW36760   2.671   1.418   8.382  0.1434  0.2598 -0.1866
 8434SOL    HW136761   2.598   1.472   8.410 -0.6610 -0.4718 -0.8947
 8434SOL    HW236762   2.636   1.359   8.316 -0.5731  1.6143 -1.0102
 8435SOL     OW36763   3.293   2.195  15.643  0.0087 -0.2136 -0.5836
 8435SOL    HW136764   3.287   2.116  15.591 -1.5509 -1.0966  0.9298
 8435SOL    HW236765   3.347   2.251  15.588  1.9850 -0.4514  1.0998
 8436SOL     OW36766   1.920   3.450   3.719  0.0085 -0.0528 -0.0830
 8436SOL    HW136767   1.891   3.478   3.633 -1.4482  0.5847  0.6257
 8436SOL    HW236768   1.978   3.525   3.734 -0.5124  0.5552 -1.1799
 8437SOL     OW36769   0.399   1.226   6.759 -0.0286  0.2958 -0.2959
 8437SOL    HW136770   0.379   1.146   6.807 -0.0148  0.6475  0.2923
 8437SOL    HW236771   0.431   1.195   6.674  1.2432 -2.6120  1.2365
 8438SOL     OW36772   4.159   0.343   5.281 -0.5649 -0.3659  0.4040
 8438SOL    HW136773   4.116   0.339   5.366  0.4632  0.0695  0.9477
 8438SOL    HW236774   4.088   0.379   5.228  1.4019 -0.1853 -2.1412
 8439SOL     OW36775   3.562   2.545   3.216  0.7266 -0.5484  0.4170
 8439SOL    HW136776   3.531   2.479   3.154 -0.0080 -0.6240  0.8742
 8439SOL    HW236777   3.480   2.558   3.262 -0.0252 -2.0672 -0.5015
 8440SOL     OW36778   3.251   2.746   6.032 -0.3576  0.2486 -0.0219
 8440SOL    HW136779   3.158   2.721   6.035 -0.7393  1.5533 -0.8550
 8440SOL    HW236780   3.284   2.721   6.118  0.4599 -0.8742 -0.6709
 8441SOL     OW36781   0.392   3.519   7.857  0.4077  0.0845  0.9104
 8441SOL    HW136782   0.352   3.552   7.937 -2.9700 -1.6207 -0.0773
 8441SOL    HW236783   0.483   3.528   7.883  0.5286  2.1094 -0.1364
 8442SOL     OW36784   3.487   2.869   0.821 -0.6286  0.1777 -0.6962
 8442SOL    HW136785   3.433   2.858   0.899 -0.1000  0.8121 -0.2429
 8442SOL    HW236786   3.563   2.906   0.866 -1.5054  1.3209 -0.1461
 8443SOL     OW36787   1.122   2.028   2.931  0.7444  0.5345 -0.6557
 8443SOL    HW136788   1.197   2.051   2.986  1.3660 -3.0800  0.0088
 8443SOL    HW236789   1.064   2.103   2.942 -1.5961 -1.2795 -0.6469
 8444SOL     OW36790   4.179   2.938   8.336 -0.1206 -0.5061 -0.5648
 8444SOL    HW136791   4.178   2.844   8.355 -1.5510 -0.0717  1.5201
 8444SOL    HW236792   4.093   2.950   8.295  0.8302  2.3031 -1.7033
 8445SOL     OW36793   2.850   3.807   2.436  0.0149  0.8222  0.8842
 8445SOL    HW136794   2.821   3.839   2.350 -1.6198 -1.1758  0.6990
 8445SOL    HW236795   2.786   3.843   2.497 -2.6232  0.8954 -1.9129
 8446SOL     OW36796   1.841   0.812   3.972  0.4566 -0.2444  0.0661
 8446SOL    HW136797   1.774   0.789   3.907 -2.0679  2.3311  1.7585
 8446SOL    HW236798   1.803   0.777   4.052  0.3082  1.0089  0.5363
 8447SOL     OW36799   2.857   0.630   1.868 -0.1102 -0.0804  0.7950
 8447SOL    HW136800   2.900   0.646   1.784 -0.1591 -1.2058  0.5500
 8447SOL    HW236801   2.844   0.535   1.863 -1.1257  0.1404 -0.5180
 8448SOL     OW36802   0.715   1.045  17.215 -0.2410 -0.3839 -0.0504
 8448SOL    HW136803   0.772   1.100  17.270 -0.0461  0.5931 -1.2328
 8448SOL    HW236804   0.765   0.965  17.232  1.8269  1.1835  1.2217
 8449SOL     OW36805   1.726   1.806  14.845 -0.0896  0.1567  0.5512
 8449SOL    HW136806   1.772   1.862  14.782 -2.0179  0.9772 -0.1435
 8449SOL    HW236807   1.656   1.769  14.791 -0.1670 -0.0936  0.8261
 8450SOL     OW36808   0.897   0.270   4.708  0.1597  0.1530  0.4601
 8450SOL    HW136809   0.934   0.194   4.663  0.6806 -0.4261  1.8813
 8450SOL    HW236810   0.810   0.267   4.667  0.6834 -3.3418 -0.3390
 8451SOL     OW36811   0.084   2.950  16.327  0.7141  0.1914 -0.4913
 8451SOL    HW136812   4.715   2.931  16.317  0.3686  1.8162 -0.3701
 8451SOL    HW236813   0.120   2.900  16.254 -0.3583 -0.9474 -0.2263
 8452SOL     OW36814   2.588   4.668   3.955  0.1860 -0.3207  0.2520
 8452SOL    HW136815   2.541   4.615   4.018 -0.1551 -0.3701 -0.0443
 8452SOL    HW236816   2.570   0.035   3.978 -0.7746 -0.0106 -1.6832
 8453SOL     OW36817   1.581   4.690   4.007  0.2088 -0.4278 -0.1002
 8453SOL    HW136818   1.538   4.609   4.034  0.4214  0.1169  1.8705
 8453SOL    HW236819   1.555   0.018   4.084 -0.3244  1.5672 -1.6131
 8454SOL     OW36820   2.427   0.725   3.114 -0.5215  0.3777  0.4696
 8454SOL    HW136821   2.451   0.685   3.030 -1.4676  2.0479 -0.5936
 8454SOL    HW236822   2.336   0.698   3.108 -0.8653  2.0957 -1.9377
 8455SOL     OW36823   1.381   2.998   2.644  0.3090  0.2443  0.3817
 8455SOL    HW136824   1.322   2.936   2.600  0.6540 -0.5963  1.1153
 8455SOL    HW236825   1.461   2.947   2.655  0.1813  0.0793  0.5307
 8456SOL     OW36826   0.834   3.051   1.734 -0.4595 -1.1088 -0.3504
 8456SOL    HW136827   0.858   2.977   1.678 -0.5163 -1.7589  0.4772
 8456SOL    HW236828   0.858   3.122   1.675 -3.4844 -0.2031 -0.4820
 8457SOL     OW36829   2.919   1.786   7.838 -0.1413  0.3025 -0.7091
 8457SOL    HW136830   2.845   1.796   7.898 -1.6897  3.8787 -3.2073
 8457SOL    HW236831   2.913   1.867   7.788  2.1839  0.6303 -0.4552
 8458SOL     OW36832   3.735   0.448   4.849  0.3324  0.0323  0.7578
 8458SOL    HW136833   3.642   0.450   4.870  0.5053 -0.2443  1.5669
 8458SOL    HW236834   3.732   0.531   4.802  0.6167 -0.0055  0.6724
 8459SOL     OW36835   2.497   2.270   6.051 -0.1619 -0.6791  0.2583
 8459SOL    HW136836   2.588   2.284   6.075 -0.7169  2.7741  0.2644
 8459SOL    HW236837   2.495   2.308   5.964 -1.0234 -0.2941  0.4509
 8460SOL     OW36838   2.459   0.622   6.835  0.5404  0.0807  0.3252
 8460SOL    HW136839   2.471   0.534   6.799  1.9395  0.8132 -1.0269
 8460SOL    HW236840   2.367   0.612   6.860 -0.3665 -1.4036 -3.6095
 8461SOL     OW36841   2.622   2.363   4.319 -0.4567 -0.2082  0.3684
 8461SOL    HW136842   2.616   2.405   4.405  2.0271 -0.1788  0.5403
 8461SOL    HW236843   2.539   2.399   4.289 -0.4841 -0.3383  0.2904
 8462SOL     OW36844   1.313   1.465   2.809  0.1506 -0.0639 -0.2525
 8462SOL    HW136845   1.331   1.417   2.890  0.6850  0.1443 -0.2483
 8462SOL    HW236846   1.402   1.498   2.799  0.5530 -1.1972 -0.3969
 8463SOL     OW36847   4.005   1.797   2.476  0.2834  0.1991  0.2828
 8463SOL    HW136848   4.015   1.720   2.419 -1.7697 -0.2532  0.5386
 8463SOL    HW236849   3.910   1.804   2.491  0.1839  0.3840 -0.4154
 8464SOL     OW36850   2.662   1.128   3.943 -0.0901  0.7416  0.3740
 8464SOL    HW136851   2.684   1.159   4.031  2.4254 -1.8259  0.6472
 8464SOL    HW236852   2.737   1.069   3.933 -1.2951 -0.3357 -2.0820
 8465SOL     OW36853   3.017   4.237   4.786  0.4488 -0.5847  0.4779
 8465SOL    HW136854   3.071   4.160   4.807  0.3688 -1.1030 -1.1965
 8465SOL    HW236855   3.048   4.251   4.697 -1.2287 -1.7971 -0.3024
 8466SOL     OW36856   2.296   2.126   0.487  0.2097 -0.1818 -0.1829
 8466SOL    HW136857   2.227   2.106   0.423  0.6527 -1.2141 -0.3309
 8466SOL    HW236858   2.335   2.044   0.514  0.7832 -0.1222 -0.8188
 8467SOL     OW36859   2.636   1.742   3.026  0.0062 -0.0381 -0.4424
 8467SOL    HW136860   2.544   1.765   3.016 -0.5538 -2.1438 -0.1425
 8467SOL    HW236861   2.675   1.828   3.014  2.8281 -1.2090  0.4090
 8468SOL     OW36862   0.192   4.266   0.576  0.5493  1.1429  0.3374
 8468SOL    HW136863   0.271   4.268   0.522 -1.1714 -0.5740 -2.1980
 8468SOL    HW236864   0.233   4.314   0.649 -0.5290 -1.0788  2.3904
 8469SOL     OW36865   2.983   3.754   3.662  0.0028 -0.4126 -0.2054
 8469SOL    HW136866   2.902   3.726   3.619  1.6615 -4.8823 -0.4093
 8469SOL    HW236867   2.979   3.843   3.627 -0.0310 -0.2393  0.2386
 8470SOL     OW36868   0.540   4.454   4.297  0.8653 -0.2864  0.6009
 8470SOL    HW136869   0.559   4.395   4.224 -0.6676  1.2012 -1.0203
 8470SOL    HW236870   0.538   4.537   4.250 -0.7002 -1.0749 -0.7434
 8471SOL     OW36871   2.606   1.709   3.897 -0.2852 -0.0983  0.8494
 8471SOL    HW136872   2.604   1.645   3.969 -4.3228 -0.3059  0.5529
 8471SOL    HW236873   2.514   1.728   3.878  0.2986  2.8005  0.9197
 8472SOL     OW36874   0.769   2.981   7.220 -0.4389  0.6485 -0.0090
 8472SOL    HW136875   0.783   3.076   7.223  1.0645  0.4363 -0.0401
 8472SOL    HW236876   0.682   2.969   7.258 -1.5023  2.8286 -1.7318
 8473SOL     OW36877   1.959   2.247   8.134  0.4001 -0.5284  0.3330
 8473SOL    HW136878   1.901   2.316   8.165 -0.0252 -0.1604 -1.2881
 8473SOL    HW236879   2.045   2.273   8.169  1.1912 -1.5884 -0.8149
 8474SOL     OW36880   4.641   0.276   5.952 -0.1681  0.6971  0.4436
 8474SOL    HW136881   4.691   0.200   5.920 -0.4926  0.4256  0.5819
 8474SOL    HW236882   4.638   0.332   5.875 -0.5950  0.2766  0.1551
 8475SOL     OW36883   3.246   2.718   8.067 -0.0877 -0.0850 -0.0113
 8475SOL    HW136884   3.167   2.674   8.097  0.4491 -0.0231  1.4548
 8475SOL    HW236885   3.297   2.696   8.144  0.2200  0.6920  0.0022
 8476SOL     OW36886   4.216   4.566   1.216  0.3440 -0.2243  0.3096
 8476SOL    HW136887   4.165   4.554   1.296  1.3192 -2.4634  0.5832
 8476SOL    HW236888   4.254   4.479   1.202 -0.5684 -0.6532  0.5110
 8477SOL     OW36889   2.808   2.943   8.111 -0.3594  0.0981 -0.0722
 8477SOL    HW136890   2.851   2.909   8.033 -0.3089 -1.4259  0.6236
 8477SOL    HW236891   2.806   2.864   8.165 -0.0221  0.4168  0.4086
 8478SOL     OW36892   4.568   2.142   0.306 -0.1857 -0.5508 -0.4823
 8478SOL    HW136893   4.541   2.226   0.343 -2.3034 -1.5904  0.3004
 8478SOL    HW236894   4.562   2.157   0.212  2.3994 -3.8777 -1.1717
 8479SOL     OW36895   3.817   4.090  14.128 -0.3351  0.0718 -0.6198
 8479SOL    HW136896   3.756   4.134  14.069 -0.3567  0.5606 -0.2304
 8479SOL    HW236897   3.785   4.003  14.105  2.5188 -0.4728 -2.6723
 8480SOL     OW36898   3.822   0.643  11.738 -0.2942  0.3876  0.0676
 8480SOL    HW136899   3.826   0.635  11.833  0.4721 -0.4101 -0.0332
 8480SOL    HW236900   3.739   0.691  11.727  0.0065  0.9663  0.3278
 8481SOL     OW36901   2.324   3.488   3.399 -0.0157 -0.1094 -0.1684
 8481SOL    HW136902   2.261   3.416   3.390  2.3361 -2.2419  0.1417
 8481SOL    HW236903   2.387   3.465   3.330 -0.9565 -0.1139 -1.0183
 8482SOL     OW36904   2.502   1.830  16.107  0.1261 -0.3582 -0.2774
 8482SOL    HW136905   2.440   1.888  16.151  1.4822 -0.4748  1.7788
 8482SOL    HW236906   2.579   1.842  16.163 -1.0615 -0.7708  1.4303
 8483SOL     OW36907   2.993   1.849   3.224 -0.2153  0.7517 -0.0394
 8483SOL    HW136908   3.072   1.875   3.272  0.7764 -0.3436 -1.0982
 8483SOL    HW236909   2.983   1.924   3.165  2.3064  1.9147  1.0420
 8484SOL     OW36910   4.408   1.798  11.614  0.0193  0.2321  0.4448
 8484SOL    HW136911   4.316   1.781  11.591 -0.6159  0.9804  2.4483
 8484SOL    HW236912   4.403   1.893  11.612  2.3674  0.3562  0.6183
 8485SOL     OW36913   3.089   0.939  11.288  0.5863  0.3433  0.2086
 8485SOL    HW136914   3.042   0.874  11.340  0.7976  1.3009  1.6114
 8485SOL    HW236915   3.061   0.906  11.203  0.4402  0.2539  0.2917
 8486SOL     OW36916   1.524   0.010   1.835 -0.3351  0.1296  0.3797
 8486SOL    HW136917   1.490   0.088   1.879 -3.1239 -0.1547 -1.2467
 8486SOL    HW236918   1.486   0.027   1.749  1.8516  1.3832 -0.3441
 8487SOL     OW36919   3.015   1.440   9.754 -0.3135  0.6981 -0.4836
 8487SOL    HW136920   2.921   1.425   9.747  0.3047 -3.5087  0.2647
 8487SOL    HW236921   3.012   1.465   9.847 -1.1105  0.9793 -0.5916
 8488SOL     OW36922   3.462   4.112   7.582  1.1451 -0.5075  0.4695
 8488SOL    HW136923   3.516   4.127   7.659  1.6849  2.6593 -0.5024
 8488SOL    HW236924   3.497   4.031   7.544  1.2571 -0.6858  0.9589
 8489SOL     OW36925   3.137   1.836   3.762  0.0564  0.0732 -0.1472
 8489SOL    HW136926   3.057   1.804   3.721 -1.5450  4.6482 -0.6549
 8489SOL    HW236927   3.197   1.763   3.749 -1.3019 -1.3478  1.5428
 8490SOL     OW36928   0.732   0.275   7.107 -0.2670  0.1630 -0.1310
 8490SOL    HW136929   0.713   0.368   7.090  1.5397  0.8623  1.6759
 8490SOL    HW236930   0.655   0.236   7.065 -0.6610 -0.5941  1.2938
 8491SOL     OW36931   2.099   1.868   7.231  0.1551 -0.3477 -0.1470
 8491SOL    HW136932   2.167   1.888   7.296  0.7320 -1.2548 -0.4738
 8491SOL    HW236933   2.134   1.930   7.166 -2.0360 -0.5220 -1.4878
 8492SOL     OW36934   1.307   1.938  13.605  0.9219  0.2657  0.4738
 8492SOL    HW136935   1.398   1.955  13.626  1.9197 -0.6570 -3.0213
 8492SOL    HW236936   1.269   1.898  13.683  2.5238  0.5796  1.4032
 8493SOL     OW36937   1.516   2.770   8.142  0.0911  0.1381  0.3774
 8493SOL    HW136938   1.549   2.703   8.202 -0.3772  0.2631  0.7694
 8493SOL    HW236939   1.439   2.793   8.193 -2.3437 -1.2666 -2.6913
 8494SOL     OW36940   0.748   0.661   6.934  0.6266 -0.6180 -0.5747
 8494SOL    HW136941   0.716   0.682   7.021 -0.2744 -1.4553 -0.7029
 8494SOL    HW236942   0.674   0.691   6.882 -0.3408 -1.3562  0.3858
 8495SOL     OW36943   4.001   4.095   5.846 -0.0775  0.2813 -0.5178
 8495SOL    HW136944   4.070   4.124   5.786  0.5295 -2.5381 -1.1515
 8495SOL    HW236945   3.929   4.150   5.814  0.9233  0.9487 -1.6229
 8496SOL     OW36946   1.078   3.179   5.271 -0.5244 -1.0838 -0.2162
 8496SOL    HW136947   1.151   3.127   5.236  0.0968 -1.5920  1.8363
 8496SOL    HW236948   1.118   3.206   5.354 -0.1852 -1.5459 -0.2287
 8497SOL     OW36949   0.514   0.493   0.987  0.4935  0.3035 -0.2938
 8497SOL    HW136950   0.542   0.576   0.948  2.3791 -0.0382  0.3504
 8497SOL    HW236951   0.594   0.444   0.967  0.9018 -0.4199  3.0823
 8498SOL     OW36952   4.108   3.849  11.216 -0.2545 -0.1403 -0.2999
 8498SOL    HW136953   4.101   3.769  11.269  2.6915  0.3585  0.8315
 8498SOL    HW236954   4.203   3.861  11.218 -0.1834 -0.6145 -0.9802
 8499SOL     OW36955   4.305   4.534   2.767  0.2284  0.3585 -0.1926
 8499SOL    HW136956   4.268   4.580   2.842  0.1784  1.1856 -0.7177
 8499SOL    HW236957   4.368   4.594   2.727  0.5107  0.0183 -0.2502
 8500SOL     OW36958   0.809   0.504  14.134  0.0636  0.2864  0.4725
 8500SOL    HW136959   0.765   0.423  14.160  0.6497 -0.0347  0.4452
 8500SOL    HW236960   0.776   0.572  14.193  0.2464  1.2120 -0.5006
 8501SOL     OW36961   2.454   4.468   3.002  0.0359 -0.0491 -0.4141
 8501SOL    HW136962   2.500   4.502   2.925 -1.9374 -2.7333 -2.7542
 8501SOL    HW236963   2.481   4.539   3.059  2.8361  0.7768 -2.7247
 8502SOL     OW36964   2.836   3.420  14.392 -0.6432  0.3722  0.2597
 8502SOL    HW136965   2.901   3.479  14.431  2.3620 -2.9228  0.2451
 8502SOL    HW236966   2.755   3.470  14.390  0.4265  2.0539 -0.9435
 8503SOL     OW36967   3.062   0.933  13.008  0.2295  0.4419  0.1548
 8503SOL    HW136968   3.074   0.840  13.024 -1.0920  0.5021  1.4419
 8503SOL    HW236969   3.104   0.966  13.087  2.1669 -1.6622 -0.0195
 8504SOL     OW36970   0.153   1.428   2.404 -0.7595  0.9639 -0.5859
 8504SOL    HW136971   0.094   1.414   2.479  1.6861 -0.3027  1.0989
 8504SOL    HW236972   0.163   1.522   2.414 -2.1101  0.8637  1.8518
 8505SOL     OW36973   1.435   2.591   6.065  0.3471  0.2451 -0.4108
 8505SOL    HW136974   1.360   2.620   6.014 -1.2934  0.1028  1.9431
 8505SOL    HW236975   1.439   2.668   6.122 -0.6939  0.2332 -0.3292
 8506SOL     OW36976   3.316   4.336   3.921 -0.3826  0.2027  0.4137
 8506SOL    HW136977   3.391   4.367   3.870 -2.0540 -0.8288 -2.7386
 8506SOL    HW236978   3.280   4.418   3.952  2.0226  0.7164  1.8727
 8507SOL     OW36979   1.604   3.029  12.902 -0.2632 -0.4788  0.1413
 8507SOL    HW136980   1.594   3.124  12.897 -1.8387 -0.8276 -3.3672
 8507SOL    HW236981   1.690   3.016  12.862  1.5189  3.1026  2.7774
 8508SOL     OW36982   1.962   2.052   6.887  0.0099  0.8372  0.1487
 8508SOL    HW136983   1.920   2.135   6.908 -0.5348  0.8043 -0.8179
 8508SOL    HW236984   1.892   1.990   6.907 -0.0668  0.2002 -2.0973
 8509SOL     OW36985   4.139   1.153   9.215  0.0564 -0.4482 -0.4546
 8509SOL    HW136986   4.136   1.237   9.262  0.7109  0.1575 -1.5132
 8509SOL    HW236987   4.233   1.164   9.202 -0.1174  1.6359 -0.0730
 8510SOL     OW36988   3.257   2.044   4.345 -0.2290  0.0956  0.4680
 8510SOL    HW136989   3.234   2.134   4.320 -0.7724 -0.5695 -1.3726
 8510SOL    HW236990   3.175   2.005   4.376 -0.4558  0.5536  0.4562
 8511SOL     OW36991   1.957   3.684  15.427  0.6088 -0.6928 -0.5314
 8511SOL    HW136992   1.956   3.610  15.367  0.1875 -2.1247  1.2451
 8511SOL    HW236993   1.864   3.684  15.451  0.4132  0.5119 -1.2981
 8512SOL     OW36994   2.931   2.960   8.879  0.7601 -0.4516  0.1330
 8512SOL    HW136995   2.853   2.908   8.861 -0.8000  1.6241  0.9034
 8512SOL    HW236996   2.996   2.890   8.885  1.3738 -0.0324 -1.8782
 8513SOL     OW36997   3.226   3.616   5.802  0.0401 -0.1846 -0.1443
 8513SOL    HW136998   3.264   3.704   5.806  1.1173 -0.6387 -0.2874
 8513SOL    HW236999   3.189   3.609   5.714  0.1675 -0.7951 -0.1478
 8514SOL     OW37000   0.266   4.383   7.653 -0.0830  0.5146  0.1374
 8514SOL    HW137001   0.315   4.386   7.735 -0.5488 -1.7403  0.5050
 8514SOL    HW237002   0.184   4.354   7.693 -0.2572 -0.7241 -1.1108
 8515SOL     OW37003   2.360   2.175   9.613 -0.2710  0.1598  0.5886
 8515SOL    HW137004   2.342   2.260   9.652  1.8978  0.0076  1.9155
 8515SOL    HW237005   2.402   2.128   9.685  1.2404  1.5904  0.6115
 8516SOL     OW37006   2.773   0.212   3.918  0.1096 -0.6769  0.4589
 8516SOL    HW137007   2.685   0.207   3.956 -0.8488  1.1681 -1.5248
 8516SOL    HW237008   2.756   0.185   3.828  0.5854  2.0547 -0.4283
 8517SOL     OW37009   3.328   3.389  16.727 -0.2959 -0.0312  0.1035
 8517SOL    HW137010   3.326   3.372  16.633 -0.9523  2.0195 -0.2557
 8517SOL    HW237011   3.419   3.400  16.755 -0.4494 -0.2162  0.6654
 8518SOL     OW37012   1.795   4.254   5.791  0.3324 -0.3643  0.2402
 8518SOL    HW137013   1.748   4.327   5.830  0.4094 -0.6727  0.8990
 8518SOL    HW237014   1.764   4.184   5.848 -0.3496 -0.1316  0.1441
 8519SOL     OW37015   0.491   3.644   9.339  0.3652 -0.4872  0.0326
 8519SOL    HW137016   0.503   3.552   9.315  2.6395 -0.1340 -0.1516
 8519SOL    HW237017   0.490   3.646   9.435 -0.9021  2.7261 -0.0682
 8520SOL     OW37018   3.278   2.577   8.337 -0.1632 -0.1717  0.6592
 8520SOL    HW137019   3.371   2.557   8.342  0.1258  0.7530 -1.2765
 8520SOL    HW237020   3.277   2.660   8.383  2.3556 -0.4955  1.2700
 8521SOL     OW37021   1.705   3.309   5.029  0.3247  0.0060  0.2380
 8521SOL    HW137022   1.778   3.333   4.972 -0.8049  1.1965 -0.6801
 8521SOL    HW237023   1.749   3.268   5.104 -1.7910 -0.1518  1.3847
 8522SOL     OW37024   0.541   4.651   0.631 -0.5472 -0.6157  0.1219
 8522SOL    HW137025   0.636   4.636   0.622 -0.1018  0.5620  3.0743
 8522SOL    HW237026   0.513   4.717   0.568  0.8095 -1.3145 -1.2358
 8523SOL     OW37027   3.019   2.862   1.854  0.2010 -0.1356  0.2846
 8523SOL    HW137028   2.953   2.883   1.788  1.7219 -1.6176 -1.6928
 8523SOL    HW237029   3.021   2.768   1.837 -0.9563 -0.3491  1.3481
 8524SOL     OW37030   4.423   3.737   8.741  0.2325  0.9784  0.1087
 8524SOL    HW137031   4.408   3.670   8.675  3.6777  1.8564 -1.5489
 8524SOL    HW237032   4.426   3.680   8.817 -1.0329 -0.0081 -0.5829
 8525SOL     OW37033   0.362   2.606   6.521  0.1638  0.0188  0.1468
 8525SOL    HW137034   0.304   2.601   6.597  1.7939 -2.3950  1.2318
 8525SOL    HW237035   0.401   2.519   6.522 -1.9023 -0.8949  0.2053
 8526SOL     OW37036   0.701   0.003   3.650  0.3107 -0.4074  0.2701
 8526SOL    HW137037   0.650   4.668   3.594 -0.7645  0.8214 -0.0487
 8526SOL    HW237038   0.651   0.008   3.732  0.7002 -0.4424  0.5112
 8527SOL     OW37039   3.120   4.618   2.590  0.2840  0.4571  0.1836
 8527SOL    HW137040   3.034   4.594   2.556 -0.5876  1.0733  1.9640
 8527SOL    HW237041   3.127   4.708   2.559  0.5827 -0.3418 -2.0662
 8528SOL     OW37042   1.925   2.884  10.471 -0.5809  0.6777  0.2604
 8528SOL    HW137043   2.014   2.863  10.445 -0.8104  2.9973 -2.3466
 8528SOL    HW237044   1.930   2.850  10.561  2.3175 -0.2000 -0.2270
 8529SOL     OW37045   0.155   2.701   7.386 -0.2854 -0.5119 -0.0373
 8529SOL    HW137046   0.135   2.635   7.453  0.5137 -0.2100  0.4971
 8529SOL    HW237047   0.165   2.783   7.434 -2.0634 -0.4516  0.2333
 8530SOL     OW37048   0.906   3.885  11.537  0.0056 -0.1611  0.1259
 8530SOL    HW137049   0.900   3.867  11.631 -0.0623 -1.1679 -0.0660
 8530SOL    HW237050   0.950   3.803  11.512 -1.0300 -1.4436  2.4815
 8531SOL     OW37051   1.088   1.086  11.993  0.0596  0.2498 -1.1703
 8531SOL    HW137052   1.050   1.012  12.040  1.2621 -0.4652 -1.3428
 8531SOL    HW237053   1.175   1.080  12.031 -1.3700  0.8121  2.1309
 8532SOL     OW37054   3.341   0.231   8.489 -0.3028  0.4486  0.0970
 8532SOL    HW137055   3.368   0.237   8.580 -0.9243 -0.1686  0.3249
 8532SOL    HW237056   3.389   0.154   8.458  0.2643  0.6779  0.4226
 8533SOL     OW37057   2.007   0.317   8.142 -0.0665  0.2492 -0.0746
 8533SOL    HW137058   1.960   0.345   8.064  0.7035 -0.1339 -0.6847
 8533SOL    HW237059   1.992   0.397   8.192 -0.2536 -0.6210  1.2540
 8534SOL     OW37060   1.617   0.801   5.127 -0.0467  0.5993  0.3428
 8534SOL    HW137061   1.578   0.749   5.197  0.7718 -0.0801  0.3011
 8534SOL    HW237062   1.571   0.772   5.048 -2.0228 -0.2908  1.8237
 8535SOL     OW37063   0.308   1.042   5.433 -0.0995  0.4666 -0.1884
 8535SOL    HW137064   0.359   0.981   5.380  0.3735  0.1072  0.6799
 8535SOL    HW237065   0.371   1.056   5.503  0.8331 -0.9014 -0.7538
 8536SOL     OW37066   2.768   3.876  13.940  0.3098 -0.0862 -0.1974
 8536SOL    HW137067   2.829   3.812  13.903 -0.4920  0.1757 -1.9598
 8536SOL    HW237068   2.724   3.913  13.863 -2.0725 -2.4125  0.0256
 8537SOL     OW37069   1.799   3.144  13.214 -0.0980  0.3859 -0.2848
 8537SOL    HW137070   1.726   3.087  13.236  0.2373  0.4488  1.0048
 8537SOL    HW237071   1.819   3.125  13.122  0.2271  1.0729 -0.3608
 8538SOL     OW37072   3.071   3.082   6.567 -0.0695 -0.4110 -0.3210
 8538SOL    HW137073   3.008   3.107   6.500  0.1201 -0.9625 -0.7019
 8538SOL    HW237074   3.015   3.025   6.621 -2.9611  4.0216  1.3106
 8539SOL     OW37075   3.701   1.706   0.744 -0.3892 -0.0966 -0.4719
 8539SOL    HW137076   3.650   1.769   0.795 -1.2984 -1.8170  0.7587
 8539SOL    HW237077   3.791   1.721   0.773 -0.2094 -0.9566 -0.5934
 8540SOL     OW37078   2.207   2.521   5.980 -0.8904  0.0263 -0.1590
 8540SOL    HW137079   2.162   2.449   5.938 -0.3868  0.5279 -1.5502
 8540SOL    HW237080   2.215   2.583   5.907 -1.3199 -0.8323 -0.9201
 8541SOL     OW37081   2.437   0.283   6.105 -0.1464  0.1534 -0.1681
 8541SOL    HW137082   2.451   0.255   6.196  2.4456 -0.0870 -0.6540
 8541SOL    HW237083   2.490   0.217   6.061 -1.3617 -1.2787  0.5290
 8542SOL     OW37084   2.118   3.456  11.318 -0.3216  0.0938  0.1685
 8542SOL    HW137085   2.159   3.389  11.264  0.3304 -0.9391  1.9688
 8542SOL    HW237086   2.123   3.526  11.252  0.9867 -0.6339 -0.4892
 8543SOL     OW37087   0.051   4.205   4.073 -0.1234  0.1054 -0.3934
 8543SOL    HW137088   4.708   4.206   4.141  1.6350  1.4048  1.3145
 8543SOL    HW237089   0.127   4.165   4.116  0.8352 -0.2448 -2.3916
 8544SOL     OW37090   4.591   3.558  11.720  0.3117  0.2803  0.1031
 8544SOL    HW137091   4.615   3.469  11.746  2.0310  0.8130  0.3756
 8544SOL    HW237092   4.628   3.612  11.790  1.3339 -1.3113  0.7872
 8545SOL     OW37093   0.662   2.405   3.793 -0.2089 -0.4886  0.1883
 8545SOL    HW137094   0.621   2.350   3.727  0.8926 -1.1949  0.0877
 8545SOL    HW237095   0.621   2.371   3.873 -0.3667  0.7904  0.6462
 8546SOL     OW37096   0.357   4.500  11.224 -0.2734  0.2094  0.1541
 8546SOL    HW137097   0.447   4.482  11.251 -0.2299  0.1630 -0.0207
 8546SOL    HW237098   0.338   4.589  11.255 -0.6299  0.4564 -0.7731
 8547SOL     OW37099   1.126   2.862   3.014  0.6149  0.6815 -0.1822
 8547SOL    HW137100   1.156   2.817   3.093 -1.4926 -1.8058 -0.7892
 8547SOL    HW237101   1.087   2.940   3.052  2.5571  1.9432 -0.7945
 8548SOL     OW37102   0.644   1.049   7.907  0.2594 -0.1675  0.4067
 8548SOL    HW137103   0.560   1.014   7.877 -0.9484  1.1986  2.2296
 8548SOL    HW237104   0.685   1.063   7.822 -0.5210 -1.0860 -0.1257
 8549SOL     OW37105   3.985   3.026   2.473 -0.6465  0.7673 -0.2151
 8549SOL    HW137106   3.971   3.100   2.531  2.6552  1.6204 -0.5182
 8549SOL    HW237107   3.941   3.057   2.394  0.2570  0.8202 -0.7014
 8550SOL     OW37108   2.743   1.539   1.437 -0.1391  0.1166  0.6579
 8550SOL    HW137109   2.805   1.466   1.440 -1.3299 -1.0729 -3.1360
 8550SOL    HW237110   2.668   1.501   1.484 -1.1573  2.5126  0.9665
 8551SOL     OW37111   0.206   4.426   4.663 -0.0246  1.0052 -0.3101
 8551SOL    HW137112   0.169   4.421   4.575 -1.0021  2.4108  0.0216
 8551SOL    HW237113   0.284   4.474   4.633  0.9284 -1.4631 -1.7150
 8552SOL     OW37114   3.365   2.192   7.225  0.1028  0.4799 -0.0364
 8552SOL    HW137115   3.457   2.205   7.247  0.4969  1.7014 -2.3594
 8552SOL    HW237116   3.341   2.123   7.286  0.7676 -0.7166 -1.1156
 8553SOL     OW37117   0.954   4.033   7.081  0.2693 -0.1986  0.1267
 8553SOL    HW137118   0.928   4.123   7.100 -1.5613 -0.8297  0.6311
 8553SOL    HW237119   0.883   3.998   7.026 -0.4089  1.6613 -0.1806
 8554SOL     OW37120   0.178   4.246  10.736 -0.0246  0.0167  0.3941
 8554SOL    HW137121   0.207   4.333  10.762  3.0552 -1.2280  1.2222
 8554SOL    HW237122   0.125   4.228  10.814 -0.7489  2.5628  0.4753
 8555SOL     OW37123   1.250   2.887   2.410  0.3597  0.2194  0.3768
 8555SOL    HW137124   1.220   2.975   2.432 -2.7151 -0.2430 -2.0039
 8555SOL    HW237125   1.284   2.909   2.323  0.3303 -1.1547  0.0093
 8556SOL     OW37126   0.057   4.562   6.274 -0.3013  0.7215 -0.0091
 8556SOL    HW137127   0.022   4.516   6.197 -1.9790 -1.7919  2.2818
 8556SOL    HW237128   0.146   4.585   6.246  0.5535 -1.0216  1.3077
 8557SOL     OW37129   0.149   4.561  10.297  0.0458 -0.0059  0.2728
 8557SOL    HW137130   0.159   4.654  10.277 -0.1086 -0.1504 -0.4773
 8557SOL    HW237131   0.233   4.525  10.268  0.4823  0.1693  1.3088
 8558SOL     OW37132   2.048   1.782  14.444 -0.3796  0.3987 -1.3144
 8558SOL    HW137133   2.007   1.701  14.412  0.5944 -1.8137  3.0389
 8558SOL    HW237134   1.983   1.797  14.512 -0.0260 -0.1434 -0.8491
 8559SOL     OW37135   4.404   0.983   6.041 -0.1289  0.5573 -0.4710
 8559SOL    HW137136   4.389   0.978   5.946 -1.2879 -1.6195 -0.1712
 8559SOL    HW237137   4.450   0.900   6.045 -2.4665 -0.7231 -0.2604
 8560SOL     OW37138   4.027   1.202  15.386 -0.1311  0.5166  0.4978
 8560SOL    HW137139   4.096   1.251  15.430 -0.3513 -0.0960  1.5229
 8560SOL    HW237140   3.968   1.273  15.363  0.7108  1.3545  0.9358
 8561SOL     OW37141   0.806   3.084  13.888 -0.6625 -0.2634 -0.2483
 8561SOL    HW137142   0.876   3.064  13.950  0.1214  0.9161 -0.7624
 8561SOL    HW237143   0.750   3.011  13.915 -1.9065  1.0870  0.8303
 8562SOL     OW37144   1.787   1.793  11.840 -0.6724 -0.3945 -0.0207
 8562SOL    HW137145   1.735   1.838  11.906  3.5894  2.1572  1.6032
 8562SOL    HW237146   1.823   1.872  11.801 -0.9771 -0.9679 -1.4612
 8563SOL     OW37147   1.403   1.817   7.295 -0.4196  0.2874  0.0350
 8563SOL    HW137148   1.366   1.755   7.358 -1.4786 -0.0200 -0.8836
 8563SOL    HW237149   1.354   1.795   7.216 -1.0635 -1.7316  0.9931
 8564SOL     OW37150   1.779   1.101   7.000  0.2490 -0.3544  0.3017
 8564SOL    HW137151   1.700   1.155   6.995  0.7730  0.4587  0.8240
 8564SOL    HW237152   1.854   1.158   7.016  1.5374 -1.1901 -2.7375
 8565SOL     OW37153   2.610   0.236  16.146  0.4728  0.2710 -0.3560
 8565SOL    HW137154   2.630   0.192  16.063  1.1815 -1.5727  0.7788
 8565SOL    HW237155   2.607   0.165  16.210 -1.5876  0.9164  0.2728
 8566SOL     OW37156   1.056   2.770   1.794  0.5093  0.4524  0.6491
 8566SOL    HW137157   1.027   2.791   1.705  1.5820 -1.3798 -0.1238
 8566SOL    HW237158   1.133   2.713   1.791  0.8208  0.8787  0.3687
 8567SOL     OW37159   2.357   3.092   2.547 -0.2027 -0.7579  0.0173
 8567SOL    HW137160   2.270   3.113   2.514  0.3505  0.9814 -0.3062
 8567SOL    HW237161   2.389   3.033   2.479  0.1888 -1.0739  0.4718
 8568SOL     OW37162   1.640   4.446   1.474  0.4352  0.7076 -0.6120
 8568SOL    HW137163   1.682   4.523   1.436  3.8853  0.6552  3.1256
 8568SOL    HW237164   1.672   4.380   1.412  1.8729  2.0969 -1.3612
 8569SOL     OW37165   3.626   1.106  12.867  0.1962  0.4294 -0.4216
 8569SOL    HW137166   3.691   1.040  12.889 -1.2194 -0.4298  1.2293
 8569SOL    HW237167   3.589   1.133  12.951  0.0467  0.4390 -0.4893
 8570SOL     OW37168   2.351   1.609   6.759 -0.2432 -0.1387  0.3544
 8570SOL    HW137169   2.283   1.610   6.692  1.2438 -0.7661 -1.1776
 8570SOL    HW237170   2.363   1.699   6.789  1.1657 -0.5082  0.9263
 8571SOL     OW37171   4.280   0.271   6.119 -0.6619 -0.0010  0.3017
 8571SOL    HW137172   4.334   0.302   6.192  0.5795  1.8236 -1.4210
 8571SOL    HW237173   4.196   0.259   6.164 -0.1542  1.7812  1.7567
 8572SOL     OW37174   2.268   2.949   2.774  0.7930  0.4634 -0.2174
 8572SOL    HW137175   2.201   3.012   2.803  0.2885 -0.1625 -0.0302
 8572SOL    HW237176   2.267   2.977   2.682  1.9120  0.9575 -0.0786
 8573SOL     OW37177   0.507   0.529   4.756 -0.0928 -0.4346 -0.2654
 8573SOL    HW137178   0.584   0.580   4.732 -0.6527  0.0408 -1.0802
 8573SOL    HW237179   0.459   0.536   4.673  0.2832  1.3165 -0.3211
 8574SOL     OW37180   4.577   2.772   5.543  0.3253  0.4502  0.9999
 8574SOL    HW137181   4.622   2.697   5.505 -0.4768 -0.2085  1.3302
 8574SOL    HW237182   4.653   2.811   5.585  1.0574 -0.8083  0.8552
 8575SOL     OW37183   2.773   3.281  10.053 -0.2618  0.0916  0.0502
 8575SOL    HW137184   2.820   3.360  10.079 -0.9469  0.0676  1.3263
 8575SOL    HW237185   2.803   3.227  10.127 -2.6761 -1.6471 -0.2480
 8576SOL     OW37186   1.375   0.140  15.483  0.0535  0.4956  0.4232
 8576SOL    HW137187   1.297   0.105  15.527  0.6784 -0.8104  0.4956
 8576SOL    HW237188   1.428   0.159  15.560  1.4018  0.4498 -0.5039
 8577SOL     OW37189   3.233   0.459   5.098 -0.3891  0.5019  0.2724
 8577SOL    HW137190   3.200   0.549   5.091 -1.0954  0.0783 -1.6031
 8577SOL    HW237191   3.190   0.433   5.180 -1.9206 -0.2035 -0.7727
 8578SOL     OW37192   4.048   1.736   8.629 -0.1270  0.5798  0.5684
 8578SOL    HW137193   4.102   1.660   8.608 -0.8209  0.4293 -0.6830
 8578SOL    HW237194   4.020   1.693   8.710  3.7687  0.0158  1.6017
 8579SOL     OW37195   0.739   1.278   1.694  0.0645 -0.6252  0.2074
 8579SOL    HW137196   0.761   1.366   1.722  1.9021 -0.5061 -1.6433
 8579SOL    HW237197   0.665   1.249   1.747  0.1544 -0.3824  0.4609
 8580SOL     OW37198   0.343   2.617  12.597  0.5318  0.2162 -0.2994
 8580SOL    HW137199   0.269   2.583  12.647 -1.7198  0.9353 -3.1555
 8580SOL    HW237200   0.293   2.671  12.536  1.7297  2.1086  0.3884
 8581SOL     OW37201   3.705   2.095   2.523  0.0649  0.0023  0.0505
 8581SOL    HW137202   3.662   2.014   2.550 -2.0134  0.6508 -1.2963
 8581SOL    HW237203   3.631   2.156   2.521 -0.4991 -0.7244 -0.8894
 8582SOL     OW37204   0.372   4.253   6.158  0.7086  0.3034  0.3612
 8582SOL    HW137205   0.415   4.333   6.189  0.6980  0.5227 -0.2013
 8582SOL    HW237206   0.338   4.270   6.071 -0.9216 -0.4815  0.8402
 8583SOL     OW37207   0.630   2.390   5.918 -0.3699  0.6666  0.0042
 8583SOL    HW137208   0.690   2.462   5.898  0.8332 -0.3862 -0.1750
 8583SOL    HW237209   0.627   2.352   5.831 -1.4728 -1.0790  0.8158
 8584SOL     OW37210   2.822   1.591  16.884 -0.3652 -0.8833  0.4787
 8584SOL    HW137211   2.786   1.531  16.818  0.4794  0.1176 -0.9047
 8584SOL    HW237212   2.859   1.664  16.834 -0.3317 -1.0645  0.2389
 8585SOL     OW37213   2.760   4.566   2.980 -0.9332  0.1954  0.2014
 8585SOL    HW137214   2.695   4.545   3.046 -0.0425 -0.2716  0.9394
 8585SOL    HW237215   2.828   4.510   3.020  0.9095  1.0551 -1.7411
 8586SOL     OW37216   3.109   2.563   4.093 -0.5008 -0.0869  0.0363
 8586SOL    HW137217   3.069   2.571   4.179 -0.5181 -0.4352  0.0599
 8586SOL    HW237218   3.066   2.629   4.038  1.8246  1.1424 -0.2897
 8587SOL     OW37219   2.111   4.600   4.597 -0.0230 -0.6920 -0.4441
 8587SOL    HW137220   2.180   4.537   4.577  0.1134 -0.4813 -0.6328
 8587SOL    HW237221   2.166   4.673   4.626 -0.0563 -0.8166 -0.0653
 8588SOL     OW37222   1.829   0.012   4.194  0.5632 -0.4012  0.3558
 8588SOL    HW137223   1.795   4.678   4.262  2.0445 -2.3391 -0.5499
 8588SOL    HW237224   1.919   0.023   4.224  0.6382 -0.9169  0.3174
 8589SOL     OW37225   0.428   1.644   2.770 -0.4907 -0.2592  0.2746
 8589SOL    HW137226   0.495   1.672   2.832 -1.2743  0.8587  0.6137
 8589SOL    HW237227   0.379   1.725   2.755 -0.0710 -0.3039 -1.3186
 8590SOL     OW37228   2.525   4.342   8.535 -0.4871 -0.0387  0.7500
 8590SOL    HW137229   2.536   4.323   8.442  1.1014  0.9666  0.7446
 8590SOL    HW237230   2.432   4.328   8.554 -0.1069 -2.8090  0.6625
 8591SOL     OW37231   2.033   0.106   6.640  0.3174 -0.1856  0.3683
 8591SOL    HW137232   2.066   0.168   6.575  2.0095 -2.5211 -0.9802
 8591SOL    HW237233   1.940   0.115   6.617  0.4519 -3.1490 -1.2840
 8592SOL     OW37234   1.535   4.371   2.414  0.0219  0.3566  0.1056
 8592SOL    HW137235   1.594   4.440   2.444  0.9350 -0.5138  0.3217
 8592SOL    HW237236   1.577   4.327   2.340  0.5396  0.7413  0.1738
 8593SOL     OW37237   0.808   3.121   6.384  0.8407 -0.6673 -0.4148
 8593SOL    HW137238   0.757   3.113   6.465 -1.1006 -0.4669 -1.6222
 8593SOL    HW237239   0.752   3.071   6.325  0.1637  0.1373 -0.4488
 8594SOL     OW37240   3.468   4.038  17.255 -0.0523  0.7799 -0.2183
 8594SOL    HW137241   3.513   3.965  17.211 -1.0461  0.2280 -0.3222
 8594SOL    HW237242   3.434   3.999  17.335 -1.2217 -0.3667 -1.2679
 8595SOL     OW37243   2.277   0.802   7.564  0.1978  0.2091 -0.4012
 8595SOL    HW137244   2.219   0.730   7.540 -0.3421  0.1822  0.9663
 8595SOL    HW237245   2.278   0.795   7.659  2.1289  0.1268 -0.4209
 8596SOL     OW37246   0.888   2.311   7.990  0.0582 -0.2972 -0.0015
 8596SOL    HW137247   0.823   2.311   8.059  0.3869 -0.2536  0.3080
 8596SOL    HW237248   0.830   2.322   7.915  1.2143 -0.3564 -0.9081
 8597SOL     OW37249   0.725   3.507  17.350  0.0585  0.0781 -0.0465
 8597SOL    HW137250   0.654   3.502  17.414 -0.4815  2.1432 -0.5010
 8597SOL    HW237251   0.794   3.506  17.417 -0.8294  0.5966  0.8538
 8598SOL     OW37252   4.521   4.311  17.257 -0.5988 -0.3426  0.2077
 8598SOL    HW137253   4.528   4.345  17.168 -0.6003 -0.1345  0.2888
 8598SOL    HW237254   4.517   4.397  17.297  1.2358  0.6308 -1.7123
 8599SOL     OW37255   1.550   4.641  15.566  0.8376  0.3922 -0.2265
 8599SOL    HW137256   1.531   4.587  15.489  0.3412 -0.1286  0.2593
 8599SOL    HW237257   1.531   0.001  15.523 -0.3823  0.3732  0.2632
 8600SOL     OW37258   0.965   2.587   6.840  0.0635  0.0239 -0.2898
 8600SOL    HW137259   1.026   2.643   6.887  1.3349 -0.0653 -1.8354
 8600SOL    HW237260   0.956   2.512   6.900  1.0114 -0.7064 -1.0605
 8601SOL     OW37261   4.117   4.140   6.641 -0.3110  0.2025 -0.3955
 8601SOL    HW137262   4.115   4.202   6.568 -0.7979 -2.0684 -2.3068
 8601SOL    HW237263   4.022   4.128   6.651 -0.2307  0.2616  0.4649
 8602SOL     OW37264   3.096   3.523   3.667 -0.1868 -0.1711  0.6146
 8602SOL    HW137265   3.019   3.491   3.621  0.7786 -0.0616 -1.0669
 8602SOL    HW237266   3.091   3.618   3.656  0.5657 -0.2722 -0.5673
 8603SOL     OW37267   4.097   0.646   4.124  0.2394 -0.5592 -0.4989
 8603SOL    HW137268   4.122   0.738   4.137  2.0150 -1.4821  2.3962
 8603SOL    HW237269   4.002   0.654   4.125  0.2862 -0.0258 -0.0306
 8604SOL     OW37270   0.051   3.278  15.724  0.1777  0.6081 -0.6277
 8604SOL    HW137271   0.045   3.369  15.754 -0.4602  0.7134 -1.0656
 8604SOL    HW237272   0.033   3.234  15.807 -1.0828  1.9007 -0.2142
 8605SOL     OW37273   1.619   1.351   4.153  0.2501  0.1853  0.3550
 8605SOL    HW137274   1.597   1.272   4.104  0.7099 -1.1925  2.3850
 8605SOL    HW237275   1.699   1.323   4.196  0.0396 -1.2279 -0.1988
 8606SOL     OW37276   2.587   4.193   9.728 -0.3278  0.7822  0.3894
 8606SOL    HW137277   2.528   4.166   9.799  0.9361  1.7554  1.8115
 8606SOL    HW237278   2.548   4.276   9.701 -3.9153 -0.5780  1.3577
 8607SOL     OW37279   2.537   4.662   3.153 -0.5761 -0.5353  0.4134
 8607SOL    HW137280   2.564   0.029   3.145 -0.7285 -0.4295  1.0778
 8607SOL    HW237281   2.512   4.661   3.246 -0.2670 -0.6012  0.4973
 8608SOL     OW37282   4.613   4.193   3.441  0.1887 -0.1068  0.2245
 8608SOL    HW137283   4.682   4.181   3.376 -0.7650  0.5594 -0.9258
 8608SOL    HW237284   4.540   4.195   3.378 -0.0257 -0.2090  0.4682
 8609SOL     OW37285   2.147   0.943   4.124  0.9105  0.1103 -0.0249
 8609SOL    HW137286   2.206   0.939   4.199  2.0866 -0.7989 -0.9906
 8609SOL    HW237287   2.075   0.997   4.157 -0.3795 -0.3613 -2.0655
 8610SOL     OW37288   1.190   0.200  17.052 -0.0044 -0.2486  0.0991
 8610SOL    HW137289   1.253   0.164  16.989 -0.8512 -1.2549 -0.1686
 8610SOL    HW237290   1.170   0.285  17.014  2.1703  0.2422  0.0243
 8611SOL     OW37291   1.818   1.333   8.138 -0.7044 -0.0015  0.2202
 8611SOL    HW137292   1.753   1.404   8.141 -3.3238 -2.3637 -0.3347
 8611SOL    HW237293   1.785   1.267   8.199  2.1443  0.4956  2.3213
 8612SOL     OW37294   2.319   2.611   5.456 -0.0764 -0.7188 -0.1990
 8612SOL    HW137295   2.400   2.561   5.449 -0.1863 -1.0721  1.0187
 8612SOL    HW237296   2.324   2.659   5.374  2.5009  0.4769  0.6544
 8613SOL     OW37297   1.455   4.225   8.358 -0.6495 -0.0055  0.2078
 8613SOL    HW137298   1.418   4.294   8.414 -0.3459  0.1659  0.2007
 8613SOL    HW237299   1.528   4.271   8.316 -1.8102 -0.7890 -2.6677
 8614SOL     OW37300   2.198   1.970   5.852 -0.1658 -0.5405 -0.0127
 8614SOL    HW137301   2.194   1.886   5.897  0.3620 -0.5271  0.0582
 8614SOL    HW237302   2.106   1.992   5.862 -0.5040 -2.3429  0.9100
 8615SOL     OW37303   3.000   0.053   9.341  0.0125 -0.3305  0.0876
 8615SOL    HW137304   2.938   0.119   9.373  1.0512  0.9983 -0.6434
 8615SOL    HW237305   3.077   0.109   9.331  0.5021 -0.8748  0.8717
 8616SOL     OW37306   0.064   3.940  10.678  0.4307  0.6758 -0.2174
 8616SOL    HW137307   0.123   3.986  10.738  0.5605  2.3410 -1.6362
 8616SOL    HW237308   4.722   3.906  10.739 -0.1412  1.7671 -0.2285
 8617SOL     OW37309   1.094   0.266  13.137  0.2971 -0.9412 -0.2008
 8617SOL    HW137310   1.009   0.238  13.105  0.1281  1.1671 -1.6281
 8617SOL    HW237311   1.080   0.278  13.231 -0.6123  1.1084 -0.5835
 8618SOL     OW37312   4.454   3.524   5.895 -0.6215  0.8162  0.2203
 8618SOL    HW137313   4.446   3.579   5.973  0.7220  0.7141  0.4387
 8618SOL    HW237314   4.374   3.545   5.847 -0.6709 -1.2581 -0.6193
 8619SOL     OW37315   2.936   2.551   6.354  0.0563  0.5258  0.2379
 8619SOL    HW137316   2.850   2.593   6.349  0.6510  1.5950 -1.1465
 8619SOL    HW237317   2.981   2.626   6.316  1.4296 -0.2760  0.2864
 8620SOL     OW37318   2.949   1.088   3.408  0.0913 -0.5242  0.3472
 8620SOL    HW137319   2.901   1.125   3.483 -0.9220 -1.9883  0.4159
 8620SOL    HW237320   2.938   0.994   3.421 -0.1788 -0.6455 -0.7283
 8621SOL     OW37321   2.013   0.465   0.707 -0.4597 -0.0746  0.2896
 8621SOL    HW137322   2.042   0.462   0.798  0.4540 -1.1670 -0.0442
 8621SOL    HW237323   1.984   0.556   0.699 -1.2041 -0.6017 -2.9280
 8622SOL     OW37324   2.782   2.559   4.718 -0.3958  0.1483  0.6315
 8622SOL    HW137325   2.749   2.469   4.727 -1.8984  0.8280  1.9903
 8622SOL    HW237326   2.715   2.619   4.752 -0.1917 -0.1075  1.4932
 8623SOL     OW37327   3.247   1.584   1.793  0.4182  0.4740 -0.1268
 8623SOL    HW137328   3.301   1.573   1.872  1.9095 -0.1612 -1.2276
 8623SOL    HW237329   3.228   1.677   1.785  0.1112  0.4906  0.7741
 8624SOL     OW37330   2.404   4.534   5.824  1.0072 -0.4417  0.0936
 8624SOL    HW137331   2.393   4.517   5.918 -1.3928  1.1616  0.0992
 8624SOL    HW237332   2.493   4.570   5.820  0.0090  1.7995 -1.6466
 8625SOL     OW37333   0.113   3.659  14.855  0.7262 -0.2692 -0.2394
 8625SOL    HW137334   0.166   3.593  14.901 -0.1688  0.2020  1.4715
 8625SOL    HW237335   0.154   3.634  14.773  1.2271  1.2444 -0.4476
 8626SOL     OW37336   3.087   3.712   7.066 -0.5404  0.8250 -0.2540
 8626SOL    HW137337   3.079   3.659   7.146  0.9586  1.0510  0.0416
 8626SOL    HW237338   3.129   3.651   7.005 -0.4654 -0.2738  0.8968
 8627SOL     OW37339   2.105   2.514   6.323  0.3508 -0.4271  0.2630
 8627SOL    HW137340   2.169   2.505   6.253  0.0215  2.0096 -0.3740
 8627SOL    HW237341   2.095   2.421   6.341  1.0194 -0.5300  0.0730
 8628SOL     OW37342   1.009   4.367   3.542  0.0078 -0.4027  0.2358
 8628SOL    HW137343   1.094   4.399   3.574  0.7608 -2.3373  0.1512
 8628SOL    HW237344   0.957   4.443   3.568 -1.6635 -0.1995 -3.6807
 8629SOL     OW37345   0.112   2.808  10.385 -0.2719 -0.2705  0.0078
 8629SOL    HW137346   0.177   2.822  10.455  1.2851 -0.4214 -1.4068
 8629SOL    HW237347   0.175   2.791  10.315 -0.2164 -0.1661  0.0329
 8630SOL     OW37348   0.133   1.555   2.751 -0.0299  0.1797  0.7070
 8630SOL    HW137349   0.218   1.594   2.731 -0.4583  1.6383  1.7268
 8630SOL    HW237350   0.116   1.494   2.680  2.3692 -0.5031  0.7347
 8631SOL     OW37351   4.254   3.179   7.446  0.2733 -0.5338  0.5865
 8631SOL    HW137352   4.246   3.099   7.394 -2.7223 -0.0217  0.2429
 8631SOL    HW237353   4.295   3.239   7.383  0.9892  0.6925  2.2308
 8632SOL     OW37354   4.215   3.852   7.566  0.3082  0.1633  0.3452
 8632SOL    HW137355   4.223   3.757   7.580 -1.9311 -0.3551 -1.8359
 8632SOL    HW237356   4.193   3.883   7.654  2.4660  1.3703  0.4509
 8633SOL     OW37357   0.425   0.835   8.928  0.7871 -0.1718 -0.0403
 8633SOL    HW137358   0.372   0.882   8.993 -1.4127 -1.5686 -0.8462
 8633SOL    HW237359   0.447   0.903   8.864  0.1481  0.6729  0.6234
 8634SOL     OW37360   1.380   4.358  17.202 -0.1738  0.0849 -0.6255
 8634SOL    HW137361   1.303   4.356  17.145 -0.8155 -0.3205  0.2353
 8634SOL    HW237362   1.422   4.273  17.186  0.7689  0.2307  1.1235
 8635SOL     OW37363   2.176   0.803   9.290  0.1054  0.0618  0.0268
 8635SOL    HW137364   2.229   0.814   9.211 -0.9098  0.0399 -0.6474
 8635SOL    HW237365   2.115   0.739   9.255 -2.2365  1.4489  1.6028
 8636SOL     OW37366   1.721   3.517   7.471  0.4555  0.9666  0.5101
 8636SOL    HW137367   1.789   3.564   7.422  2.0411  0.1760  1.9305
 8636SOL    HW237368   1.669   3.592   7.499 -0.5026  0.8932 -1.0595
 8637SOL     OW37369   4.587   0.244   7.866 -0.3600  0.1404 -0.7939
 8637SOL    HW137370   4.498   0.242   7.832 -1.5197  2.4120  2.0351
 8637SOL    HW237371   4.572   0.288   7.950 -0.2150 -0.5146 -0.4276
 8638SOL     OW37372   2.123   3.676   0.101 -0.1319 -0.0507  0.9133
 8638SOL    HW137373   2.086   3.744   0.158 -0.3527  1.2053 -0.7371
 8638SOL    HW237374   2.047   3.639   0.057 -0.2225  0.5495  0.5606
 8639SOL     OW37375   0.846   4.656   4.925 -0.0297  0.5353 -0.7149
 8639SOL    HW137376   0.933   4.691   4.907  0.8941 -1.2253  0.3516
 8639SOL    HW237377   0.837   4.651   5.020 -0.7023  2.6413 -0.6765
 8640SOL     OW37378   2.048   4.269   9.404 -0.0983 -0.3325  0.5534
 8640SOL    HW137379   1.958   4.237   9.408 -0.4107  0.7527  2.3973
 8640SOL    HW237380   2.037   4.363   9.391 -0.0077 -0.5936 -1.3574
 8641SOL     OW37381   0.219   2.673  13.460  0.1848  0.1260 -0.2178
 8641SOL    HW137382   0.160   2.621  13.516 -1.2675  2.1727  0.1689
 8641SOL    HW237383   0.210   2.619  13.381 -1.5848 -0.6206  0.4925
 8642SOL     OW37384   0.034   2.787   4.113 -0.1000  0.2099 -0.1338
 8642SOL    HW137385   4.689   2.776   4.047 -0.8135  0.0933  0.6270
 8642SOL    HW237386   0.018   2.882   4.121  0.4623  0.2850  0.0999
 8643SOL     OW37387   3.450   0.037   9.144  0.0413 -0.0086 -0.5636
 8643SOL    HW137388   3.503   4.701   9.197  1.5865  2.0545  0.2396
 8643SOL    HW237389   3.511   0.096   9.100  0.2138 -0.0117 -0.3298
 8644SOL     OW37390   3.041   0.470  12.605  0.2333  0.2989  0.9007
 8644SOL    HW137391   2.973   0.537  12.602 -1.4527 -1.4508  0.2294
 8644SOL    HW237392   3.119   0.501  12.559 -0.1774  0.4170  0.2871
 8645SOL     OW37393   4.191   4.717   6.951 -0.8756  0.2024 -0.0027
 8645SOL    HW137394   4.275   4.678   6.929 -0.8074  1.3063 -1.7768
 8645SOL    HW237395   4.161   4.670   7.028 -1.1319  0.3281 -0.0255
 8646SOL     OW37396   3.543   2.069   5.441 -0.3531 -0.2500 -1.1988
 8646SOL    HW137397   3.590   2.124   5.378 -0.7497  1.7083  0.2425
 8646SOL    HW237398   3.614   2.056   5.504 -2.2054 -2.6194  0.3744
 8647SOL     OW37399   3.049   2.917   1.157 -0.6541 -0.2922 -0.0460
 8647SOL    HW137400   3.084   2.883   1.075  1.7141  2.2423 -0.0799
 8647SOL    HW237401   3.015   3.000   1.125  0.6285  0.0373 -0.5512
 8648SOL     OW37402   2.434   3.095   9.655 -0.1456  0.5493 -0.5530
 8648SOL    HW137403   2.450   3.073   9.747 -4.2451  0.5448  0.1222
 8648SOL    HW237404   2.390   3.014   9.629 -1.1357  1.0291 -0.3353
 8649SOL     OW37405   1.302   4.502   8.225 -0.6486  0.0646 -0.1300
 8649SOL    HW137406   1.397   4.513   8.232 -0.7620  0.2923  1.0999
 8649SOL    HW237407   1.281   4.476   8.136 -0.0981  0.0415 -0.2559
 8650SOL     OW37408   1.316   0.367  14.046 -0.7346 -0.8155 -0.5899
 8650SOL    HW137409   1.277   0.329  14.125 -1.9731 -0.1733 -0.8997
 8650SOL    HW237410   1.272   0.451  14.042 -1.2644 -1.0286  0.8455
 8651SOL     OW37411   3.993   0.030   8.025 -0.0010 -0.2733  0.2697
 8651SOL    HW137412   4.082   0.065   8.028 -0.1495 -0.0010  1.3632
 8651SOL    HW237413   3.995   4.699   8.103 -0.7388 -0.7238 -0.0263
 8652SOL     OW37414   0.489   3.538   2.209  0.0106 -0.5144 -0.4351
 8652SOL    HW137415   0.421   3.502   2.267 -0.5879 -0.8164 -1.3321
 8652SOL    HW237416   0.567   3.509   2.258 -0.7034  0.2111  1.1487
 8653SOL     OW37417   4.157   2.422   1.497 -0.2502 -0.3474 -0.0831
 8653SOL    HW137418   4.231   2.446   1.552 -1.2763  0.7127  0.8399
 8653SOL    HW237419   4.117   2.354   1.551  0.6817 -1.8838 -1.3024
 8654SOL     OW37420   4.337   3.644  11.868 -0.1827  0.2259 -0.0216
 8654SOL    HW137421   4.313   3.588  11.941 -3.6286  1.2426 -0.4001
 8654SOL    HW237422   4.264   3.699  11.895 -0.2815  0.7584 -1.3966
 8655SOL     OW37423   4.431   2.057  16.013  0.0010  0.0722  0.0819
 8655SOL    HW137424   4.437   2.082  16.105 -1.6704 -0.1163  0.2414
 8655SOL    HW237425   4.354   2.109  15.990  0.6887  1.0130 -0.1040
 8656SOL     OW37426   1.883   1.572   9.172  0.2687  0.4115 -0.5715
 8656SOL    HW137427   1.864   1.546   9.262 -0.4981 -0.4323 -0.9826
 8656SOL    HW237428   1.977   1.579   9.187  0.2456  0.6774 -0.5543
 8657SOL     OW37429   2.002   1.317   9.372 -0.0845  0.0072 -0.6001
 8657SOL    HW137430   1.934   1.376   9.405  0.1502 -0.7257  1.2092
 8657SOL    HW237431   2.036   1.389   9.319  0.3794  0.9469  0.9869
 8658SOL     OW37432   2.199   0.080   2.242 -0.3203  0.5389 -0.3044
 8658SOL    HW137433   2.278   0.092   2.190 -1.3276 -1.0100 -2.2115
 8658SOL    HW237434   2.138   0.102   2.171 -1.1564  0.8291  0.5032
 8659SOL     OW37435   0.765   1.460   8.028 -0.2710 -0.4107  0.0740
 8659SOL    HW137436   0.717   1.422   7.955  0.4415  0.7602 -0.9949
 8659SOL    HW237437   0.726   1.547   8.026  1.5535  0.3456 -1.6778
 8660SOL     OW37438   1.183   1.583   9.164  0.6254 -0.6152 -0.5756
 8660SOL    HW137439   1.265   1.608   9.121  1.6380  1.0221  2.2850
 8660SOL    HW237440   1.123   1.648   9.127  1.9807  2.1060  1.9998
 8661SOL     OW37441   0.735   3.975  10.731  0.7273  0.3479 -0.3035
 8661SOL    HW137442   0.671   4.037  10.765  2.9091  2.3167  0.2830
 8661SOL    HW237443   0.762   4.014  10.648  1.5024 -0.5206 -0.4581
 8662SOL     OW37444   1.909   2.982   6.081 -0.3661 -0.5238 -0.3730
 8662SOL    HW137445   1.884   2.927   6.007 -0.1970  2.3384 -2.5348
 8662SOL    HW237446   1.912   2.918   6.152 -1.1670 -0.3183 -0.1535
 8663SOL     OW37447   4.253   1.974   8.135  0.0264  0.1877 -0.0927
 8663SOL    HW137448   4.158   1.971   8.148  0.1519 -0.5426  0.6528
 8663SOL    HW237449   4.282   2.055   8.177 -1.2051 -0.9075  2.8526
 8664SOL     OW37450   0.010   2.923   6.263 -0.7675  0.1050  0.0076
 8664SOL    HW137451   4.674   2.953   6.331 -0.8880 -0.2299  0.0438
 8664SOL    HW237452   0.067   3.000   6.272 -0.0365 -0.1780 -2.0710
 8665SOL     OW37453   4.368   3.598   1.850  0.1035  0.3770  0.0862
 8665SOL    HW137454   4.444   3.579   1.904  0.4184  0.9654 -0.1520
 8665SOL    HW237455   4.327   3.671   1.896 -3.7974 -1.2018 -0.8889
 8666SOL     OW37456   1.665   3.867  10.911  0.5700 -0.1754 -0.3328
 8666SOL    HW137457   1.605   3.936  10.939  0.5465 -0.6576  0.8012
 8666SOL    HW237458   1.645   3.873  10.817 -1.6989  1.6631  0.2517
 8667SOL     OW37459   1.973   1.072   1.608  0.1494 -0.1956 -0.3540
 8667SOL    HW137460   2.004   0.981   1.610  1.9987  0.4700  0.8941
 8667SOL    HW237461   2.024   1.107   1.535 -1.2232 -1.0852 -1.7519
 8668SOL     OW37462   3.897   1.547   9.527  0.1925  0.3267 -0.1861
 8668SOL    HW137463   3.809   1.512   9.540 -0.3194  1.2187 -1.2669
 8668SOL    HW237464   3.945   1.473   9.564  1.3260  0.4318 -1.4708
 8669SOL     OW37465   2.251   4.237   8.300 -0.2635  0.4958 -0.1351
 8669SOL    HW137466   2.231   4.156   8.348 -0.5226  1.3941  1.2656
 8669SOL    HW237467   2.238   4.305   8.365 -2.1236  0.1434 -0.1487
 8670SOL     OW37468   3.795   2.561   4.688 -0.0020 -0.0655 -0.4371
 8670SOL    HW137469   3.835   2.514   4.615  0.6554 -0.4644  0.1734
 8670SOL    HW237470   3.870   2.594   4.737  1.2947 -1.2393 -1.6511
 8671SOL     OW37471   2.785   4.614   7.588 -0.3211 -0.1655  0.3413
 8671SOL    HW137472   2.808   4.647   7.674  3.7302  1.5227 -1.4309
 8671SOL    HW237473   2.806   4.691   7.535  0.1526 -0.8482 -0.4574
 8672SOL     OW37474   0.191   4.401   3.983 -0.9914  0.2323 -0.0929
 8672SOL    HW137475   0.138   4.323   3.996 -2.8234  1.8470  2.1766
 8672SOL    HW237476   0.259   4.368   3.925 -1.7184  0.6892 -1.1864
 8673SOL     OW37477   2.696   2.806   3.985  0.2535 -0.1218  0.7569
 8673SOL    HW137478   2.675   2.824   4.077  0.6966  0.4232  0.7514
 8673SOL    HW237479   2.744   2.888   3.973 -0.2203  0.0591  0.1122
 8674SOL     OW37480   1.509   0.357   4.021 -0.0004  0.1409 -0.5951
 8674SOL    HW137481   1.526   0.365   4.114  1.2569 -2.7354 -0.5884
 8674SOL    HW237482   1.552   0.275   3.997 -0.6343 -0.7577  1.4109
 8675SOL     OW37483   0.516   2.704   6.008  0.4293 -0.1805  0.0501
 8675SOL    HW137484   0.521   2.724   6.102 -1.0019 -0.8457  0.2646
 8675SOL    HW237485   0.507   2.609   6.005 -1.2321 -0.0359  0.2808
 8676SOL     OW37486   1.524   3.798   3.598 -0.4417 -0.3188  0.5189
 8676SOL    HW137487   1.609   3.841   3.594 -1.0468  0.8740  0.5890
 8676SOL    HW237488   1.531   3.731   3.530  0.7185 -0.5489  0.8540
 8677SOL     OW37489   3.659   2.627  10.399 -0.4047 -0.1367 -0.3971
 8677SOL    HW137490   3.670   2.718  10.370  1.2166  0.2186  1.3288
 8677SOL    HW237491   3.690   2.626  10.490  2.1658 -1.0532 -1.2828
 8678SOL     OW37492   2.390   3.364   2.608  0.6407  0.3291 -0.9120
 8678SOL    HW137493   2.312   3.401   2.566 -1.0440 -0.8195  1.2054
 8678SOL    HW237494   2.377   3.269   2.599 -1.3592  0.2549  2.6691
 8679SOL     OW37495   4.679   4.301   0.441 -0.3375 -0.2275  0.1294
 8679SOL    HW137496   4.681   4.264   0.352  2.2952 -3.8878  1.7265
 8679SOL    HW237497   0.041   4.291   0.482 -0.1209 -0.5078 -0.3790
 8680SOL     OW37498   2.770   2.860   6.178 -0.3454  0.1754  0.2024
 8680SOL    HW137499   2.691   2.863   6.232 -1.2257 -0.9186 -1.0396
 8680SOL    HW237500   2.743   2.940   6.135  1.2725  1.8461  2.2469
 8681SOL     OW37501   0.034   2.105   0.991  0.8359 -0.0966  0.5771
 8681SOL    HW137502   4.663   2.117   0.983  1.0694  0.6946 -0.9956
 8681SOL    HW237503   0.069   2.137   0.908 -1.1171  2.7769  0.8586
 8682SOL     OW37504   3.114   0.720   5.090 -0.3482  0.5429  0.0388
 8682SOL    HW137505   3.120   0.802   5.137 -1.7166  2.0243 -2.3569
 8682SOL    HW237506   3.024   0.724   5.057 -0.6573 -0.1520  0.7920
 8683SOL     OW37507   3.694   0.728   2.789 -0.4203 -0.0997 -0.2249
 8683SOL    HW137508   3.775   0.693   2.752  1.3051  3.2590  0.4298
 8683SOL    HW237509   3.706   0.822   2.782 -0.6372 -0.0469  0.0899
 8684SOL     OW37510   3.765   1.557   8.107  0.4585  0.5390 -0.3381
 8684SOL    HW137511   3.697   1.599   8.054 -0.8842 -1.4972 -0.2103
 8684SOL    HW237512   3.842   1.546   8.051  1.0754  0.4384  0.5359
 8685SOL     OW37513   0.532   0.002   4.197  0.3081  0.2081  0.2587
 8685SOL    HW137514   0.576   0.071   4.147 -0.3083 -1.0536 -1.9995
 8685SOL    HW237515   0.463   0.051   4.242  0.6755 -1.1493  2.3105
 8686SOL     OW37516   4.244   3.916   8.387 -0.4347 -0.0188 -0.7767
 8686SOL    HW137517   4.246   3.835   8.439  0.2387 -0.2532 -1.1656
 8686SOL    HW237518   4.235   3.879   8.299 -0.1504  0.6085 -1.0674
 8687SOL     OW37519   1.289   1.726   3.154 -0.2316 -0.3377  0.1035
 8687SOL    HW137520   1.344   1.804   3.166  2.0234 -2.1855  1.7762
 8687SOL    HW237521   1.342   1.682   3.088  2.3728  0.3128  1.7421
 8688SOL     OW37522   3.572   4.480   8.362  0.3046  0.4274 -0.3720
 8688SOL    HW137523   3.654   4.486   8.412 -0.4060  2.7760  0.5293
 8688SOL    HW237524   3.529   4.397   8.382  0.9198  1.0695  3.7221
 8689SOL     OW37525   3.790   4.538   1.324  0.0305  0.2671 -0.5430
 8689SOL    HW137526   3.833   4.607   1.375  0.0656  0.5230 -0.9114
 8689SOL    HW237527   3.844   4.462   1.346  1.0750  1.3838  0.8172
 8690SOL     OW37528   3.828   1.593  12.228 -0.6553 -0.1008 -0.2285
 8690SOL    HW137529   3.782   1.659  12.280  1.7623  0.5983  1.0127
 8690SOL    HW237530   3.863   1.551  12.306 -0.8239 -0.1090 -0.1585
 8691SOL     OW37531   2.917   3.170   3.736 -0.1052 -0.0256  0.6918
 8691SOL    HW137532   2.833   3.127   3.753 -0.4959  0.2169 -0.5897
 8691SOL    HW237533   2.930   3.161   3.641  1.2820 -0.2930  0.9093
 8692SOL     OW37534   0.555   2.632  12.794 -0.0115 -0.1694  0.1892
 8692SOL    HW137535   0.482   2.629  12.733  0.9954 -1.9400 -0.9476
 8692SOL    HW237536   0.619   2.583  12.742 -0.0788 -0.3830  0.3069
 8693SOL     OW37537   3.999   1.369  11.307 -0.4406 -0.0335  0.3694
 8693SOL    HW137538   3.905   1.369  11.325 -0.4661  1.0932  0.1884
 8693SOL    HW237539   4.025   1.283  11.341 -1.1279 -0.2379  0.3621
 8694SOL     OW37540   2.910   0.436   3.879 -0.2504 -0.5666 -0.6551
 8694SOL    HW137541   2.831   0.490   3.891 -0.3104 -0.2648 -2.4599
 8694SOL    HW237542   2.869   0.353   3.905  1.4519 -1.5552 -1.1641
 8695SOL     OW37543   4.393   0.696   4.965  0.1424 -0.2271 -0.6862
 8695SOL    HW137544   4.451   0.735   4.900 -0.0123  1.0484 -0.0649
 8695SOL    HW237545   4.401   0.601   4.955  1.8087 -0.4147  2.4621
 8696SOL     OW37546   2.017   3.766   5.301 -0.2445  0.7461  0.0510
 8696SOL    HW137547   1.972   3.810   5.229  0.8703  0.1190 -1.0292
 8696SOL    HW237548   2.058   3.836   5.352  0.7022  1.3556 -1.5482
 8697SOL     OW37549   0.813   1.848   5.556  0.0649  0.3747 -0.4637
 8697SOL    HW137550   0.789   1.874   5.645 -1.4428  1.8684 -1.2995
 8697SOL    HW237551   0.898   1.806   5.572  0.0060  0.4046 -0.0593
 8698SOL     OW37552   3.591   1.563  11.392  0.3887  0.5020 -0.1098
 8698SOL    HW137553   3.662   1.522  11.442 -0.0229 -0.9397 -0.7013
 8698SOL    HW237554   3.623   1.552  11.302  0.9843  2.7968 -0.1766
 8699SOL     OW37555   1.078   1.641  13.702  0.1330 -0.1152  0.2098
 8699SOL    HW137556   1.123   1.584  13.764  2.5903  1.7788  0.1720
 8699SOL    HW237557   1.077   1.585  13.624 -0.6184 -2.2257  1.7330
 8700SOL     OW37558   2.742   3.159  11.988 -0.1248 -0.1386  0.3412
 8700SOL    HW137559   2.669   3.205  12.028  1.3364  0.4188  2.3625
 8700SOL    HW237560   2.768   3.109  12.065 -0.2080 -0.9326 -0.1368
 8701SOL     OW37561   3.057   2.591   5.494  0.2740  0.0696  0.1671
 8701SOL    HW137562   3.004   2.558   5.566  0.3596  0.5966  0.4703
 8701SOL    HW237563   3.066   2.508   5.448  0.5299  0.6096 -0.7554
 8702SOL     OW37564   3.235   1.225  10.928 -0.0926  0.1298 -0.5609
 8702SOL    HW137565   3.201   1.279  10.858 -0.4881  0.6608  0.0410
 8702SOL    HW237566   3.325   1.257  10.922  0.0409  0.2019  1.6018
 8703SOL     OW37567   1.212   0.628   7.078 -0.4272 -0.0400  0.3862
 8703SOL    HW137568   1.129   0.631   7.030 -0.7296  1.6562  0.9978
 8703SOL    HW237569   1.214   0.714   7.120 -1.9143 -0.5829  1.5417
 8704SOL     OW37570   4.477   3.469   3.668  0.0733  0.2568  0.0782
 8704SOL    HW137571   4.432   3.553   3.675 -0.8309 -0.1017 -1.3312
 8704SOL    HW237572   4.542   3.486   3.736 -0.8367  1.6927  0.5882
 8705SOL     OW37573   1.015   3.041  14.114  0.7368  0.0335 -0.2031
 8705SOL    HW137574   1.006   3.057  14.208  2.7361 -1.5445  0.2624
 8705SOL    HW237575   1.110   3.049  14.114  0.8290 -0.9889 -0.3260
 8706SOL     OW37576   2.033   0.158   0.745 -0.5662 -0.1382 -0.3873
 8706SOL    HW137577   1.944   0.169   0.713  0.2018  0.3062 -2.3818
 8706SOL    HW237578   2.064   0.248   0.732 -1.8670  0.2393 -0.8574
 8707SOL     OW37579   0.602   4.578   3.371 -0.1254 -0.9069 -0.0311
 8707SOL    HW137580   0.686   4.535   3.353  1.1679  0.5316  2.5151
 8707SOL    HW237581   0.546   4.500   3.373 -0.9185 -0.2867  3.1492
 8708SOL     OW37582   4.001   2.280   8.376  0.1016  0.1157 -0.3767
 8708SOL    HW137583   4.072   2.218   8.393 -0.0223 -0.3704 -1.5786
 8708SOL    HW237584   3.920   2.234   8.401  1.4621 -0.8793  2.1437
 8709SOL     OW37585   2.224   3.185   8.707 -0.5454  0.0371 -0.3933
 8709SOL    HW137586   2.139   3.198   8.665 -1.9578 -0.4216  2.3154
 8709SOL    HW237587   2.220   3.091   8.722 -1.7012  0.4310  1.8609
 8710SOL     OW37588   3.284   3.470   9.168  0.1084  0.8500 -0.1264
 8710SOL    HW137589   3.280   3.560   9.201 -1.2181  0.9250 -0.5120
 8710SOL    HW237590   3.323   3.429   9.246  0.6557  0.5727 -0.5493
 8711SOL     OW37591   2.035   2.375  16.505  0.2242  0.6832 -0.4204
 8711SOL    HW137592   1.978   2.333  16.569 -0.9825  0.2912 -1.7488
 8711SOL    HW237593   1.970   2.389  16.437  0.4292 -0.5518 -0.8609
 8712SOL     OW37594   2.704   2.409  13.950  0.0428  0.2259 -0.3170
 8712SOL    HW137595   2.768   2.480  13.953 -0.3078  0.5507 -0.5929
 8712SOL    HW237596   2.687   2.398  14.044  1.4480  0.8279  0.0141
 8713SOL     OW37597   4.005   4.563   4.965  0.2408 -0.1160  0.0020
 8713SOL    HW137598   3.913   4.577   4.943 -0.2660 -2.6024  0.6403
 8713SOL    HW237599   3.997   4.494   5.030  0.3544 -0.6179 -0.5224
 8714SOL     OW37600   3.670   2.004  17.195  0.4257  0.6731 -0.0520
 8714SOL    HW137601   3.617   1.924  17.200  2.4092 -0.7630 -1.9748
 8714SOL    HW237602   3.749   1.984  17.246 -0.3369  1.1584  1.3145
 8715SOL     OW37603   2.866   3.377   4.051 -0.3297 -0.3080 -0.1946
 8715SOL    HW137604   2.826   3.455   4.089 -0.8388 -1.0917  0.8639
 8715SOL    HW237605   2.864   3.317   4.126  0.9024  0.9879  0.8609
 8716SOL     OW37606   4.227   4.545  16.892 -0.4290  0.4477 -0.1942
 8716SOL    HW137607   4.138   4.525  16.861 -0.0061 -1.3413 -0.2455
 8716SOL    HW237608   4.285   4.480  16.853 -0.6809  0.6343 -0.8942
 8717SOL     OW37609   0.141   2.526   0.010  0.3845 -0.0579  0.0215
 8717SOL    HW137610   0.232   2.532   0.040  1.5838 -1.4656 -3.3850
 8717SOL    HW237611   0.141   2.452  17.647 -0.1745  0.7164 -0.9323
 8718SOL     OW37612   4.660   0.816  11.013 -0.5799 -0.4009 -0.1221
 8718SOL    HW137613   4.673   0.721  11.019 -3.8474 -0.9248 -1.5249
 8718SOL    HW237614   4.642   0.836  11.105 -0.5701  0.2656 -0.2678
 8719SOL     OW37615   4.150   1.015   8.005  0.4264  0.0107  0.3911
 8719SOL    HW137616   4.216   0.963   8.051  0.5611 -0.9997 -0.9227
 8719SOL    HW237617   4.106   0.952   7.948  2.3311  1.1104 -2.3146
 8720SOL     OW37618   4.587   1.237  11.969 -0.2244  0.0568  0.2287
 8720SOL    HW137619   4.619   1.245  11.880  0.5151 -0.0346  0.4860
 8720SOL    HW237620   4.666   1.223  12.022 -0.0691  1.8553  0.4939
 8721SOL     OW37621   3.464   2.553   9.144  0.1448 -0.0664 -0.1862
 8721SOL    HW137622   3.473   2.579   9.053 -0.8065  1.8478  0.2619
 8721SOL    HW237623   3.551   2.572   9.178  0.1289  1.3710 -0.9761
 8722SOL     OW37624   3.708   4.644   2.657  0.4712 -0.1532  0.1226
 8722SOL    HW137625   3.630   4.603   2.694  1.0337  1.3387  2.9100
 8722SOL    HW237626   3.740   4.672   2.742  0.8520 -1.3272  0.3738
 8723SOL     OW37627   0.038   1.736   3.507  0.4563 -0.0926  0.3385
 8723SOL    HW137628   4.702   1.698   3.443  0.5146  1.0887 -0.3998
 8723SOL    HW237629   4.703   1.800   3.547  1.0002  1.0875 -0.7727
 8724SOL     OW37630   0.830   4.673   0.132 -0.0743 -0.3115 -0.4909
 8724SOL    HW137631   0.867   4.704   0.049  1.5343 -0.5443  0.1484
 8724SOL    HW237632   0.898   4.609   0.154 -0.2180  0.3252  1.7970
 8725SOL     OW37633   4.066   1.600   1.327  0.3841 -0.2128 -0.0612
 8725SOL    HW137634   4.059   1.524   1.385  3.2093 -0.8084 -0.4964
 8725SOL    HW237635   4.133   1.641   1.382  0.4179 -0.4484  0.0716
 8726SOL     OW37636   4.141   1.781   1.949 -0.1887 -0.4534  0.2955
 8726SOL    HW137637   4.136   1.698   1.902 -1.8420 -0.1096 -0.1362
 8726SOL    HW237638   4.147   1.851   1.883  2.5133  1.4858  2.6189
 8727SOL     OW37639   3.809   4.347   7.908 -0.1490  0.1579  0.6341
 8727SOL    HW137640   3.803   4.422   7.967  1.9576  0.4220  0.5064
 8727SOL    HW237641   3.895   4.315   7.935  0.0682  0.1087 -0.1323
 8728SOL     OW37642   0.440   4.481  14.305  0.1608  0.2196  0.6381
 8728SOL    HW137643   0.463   4.433  14.385 -0.7467 -1.7362 -0.2870
 8728SOL    HW237644   0.505   4.551  14.300  1.1992 -0.5896  2.6309
 8729SOL     OW37645   3.047   1.885  12.158 -0.1448 -0.0074  0.2506
 8729SOL    HW137646   3.069   1.798  12.194 -1.7068 -1.2761 -1.9117
 8729SOL    HW237647   2.998   1.924  12.231 -0.7406  1.6380 -1.0319
 8730SOL     OW37648   3.211   3.872  14.811  0.0045  0.4324 -0.2758
 8730SOL    HW137649   3.239   3.784  14.785 -0.1955  0.6977 -1.4151
 8730SOL    HW237650   3.291   3.918  14.835  0.5974 -0.6525 -0.1808
 8731SOL     OW37651   0.076   1.725   8.786 -0.2890  0.3842  0.2203
 8731SOL    HW137652   4.713   1.686   8.787 -0.8048  1.5313 -0.2505
 8731SOL    HW237653   0.132   1.678   8.724  1.0325  0.9738  0.9635
 8732SOL     OW37654   1.393   3.880   1.387 -0.1272  0.2181  0.3358
 8732SOL    HW137655   1.442   3.960   1.407 -0.6175  0.5669  0.1455
 8732SOL    HW237656   1.405   3.885   1.292  0.8558 -1.6706  0.3514
 8733SOL     OW37657   1.821   3.478  11.018 -0.4058  0.5906  0.1043
 8733SOL    HW137658   1.835   3.511  11.107  0.7419 -0.1069  0.1913
 8733SOL    HW237659   1.886   3.408  11.004 -0.2489  0.6074  0.7354
 8734SOL     OW37660   1.804   1.346   4.392  0.3979 -0.6013 -0.2625
 8734SOL    HW137661   1.788   1.364   4.484  0.6681 -1.2951 -0.0822
 8734SOL    HW237662   1.824   1.432   4.354  1.1866 -0.2992  0.8316
 8735SOL     OW37663   0.859   0.758   6.640  0.4306  0.3604  0.2707
 8735SOL    HW137664   0.777   0.807   6.638  1.0944  1.3691 -2.0442
 8735SOL    HW237665   0.896   0.781   6.555 -1.4194 -0.9748 -0.8904
 8736SOL     OW37666   0.143   1.797  16.182 -0.0660 -0.0523  0.2572
 8736SOL    HW137667   0.084   1.748  16.241  2.2971  1.2306  3.7084
 8736SOL    HW237668   0.090   1.869  16.148  1.9165  0.7258 -1.1163
 8737SOL     OW37669   3.789   0.978   2.751  0.0267 -0.5134  0.2152
 8737SOL    HW137670   3.843   0.987   2.673 -0.0756  0.3557  0.2414
 8737SOL    HW237671   3.711   1.023   2.719 -0.3738 -0.7751  0.8192
 8738SOL     OW37672   4.569   3.523   0.788 -0.0166 -0.6106 -0.1274
 8738SOL    HW137673   4.639   3.473   0.830 -0.9677 -2.6174 -0.9735
 8738SOL    HW237674   4.497   3.491   0.841 -1.1958 -1.6871 -2.4047
 8739SOL     OW37675   3.220   1.661   9.030 -0.2339  0.1072  0.6130
 8739SOL    HW137676   3.207   1.649   8.935  2.1310  0.7063  0.2210
 8739SOL    HW237677   3.132   1.672   9.065 -0.2444  1.1062  0.2666
 8740SOL     OW37678   2.537   4.657  12.757 -0.2718 -1.0771  0.5241
 8740SOL    HW137679   2.601   4.587  12.747  1.1928  0.2577  0.4938
 8740SOL    HW237680   2.462   4.620  12.712 -0.5554  1.4763 -1.0754
 8741SOL     OW37681   2.007   3.469   5.875  0.0687  0.0127 -0.2617
 8741SOL    HW137682   1.912   3.476   5.886  0.1245 -1.2167  1.0178
 8741SOL    HW237683   2.018   3.495   5.783  1.2891 -1.1748 -0.4455
 8742SOL     OW37684   2.889   4.683   8.619 -0.3785  0.0544  0.2258
 8742SOL    HW137685   2.806   4.651   8.654  0.4484  0.0208  2.1364
 8742SOL    HW237686   2.852   4.713   8.536 -0.8754 -1.5918 -0.1483
 8743SOL     OW37687   3.153   3.572   6.818 -0.0253 -0.1214 -0.0342
 8743SOL    HW137688   3.162   3.625   6.739  0.9151  0.4627  0.4607
 8743SOL    HW237689   3.211   3.497   6.805  3.2394  2.1296  1.4875
 8744SOL     OW37690   1.340   4.200  12.202  0.2445  0.0021  0.1339
 8744SOL    HW137691   1.292   4.266  12.152  1.9232  0.1464 -1.2853
 8744SOL    HW237692   1.429   4.231  12.185  0.1496 -0.2279 -0.7835
 8745SOL     OW37693   3.370   0.414   2.768  0.1991  0.5580 -0.2517
 8745SOL    HW137694   3.316   0.339   2.794 -0.7493  0.6908 -1.8030
 8745SOL    HW237695   3.431   0.433   2.839 -1.6034  0.2596  1.3719
 8746SOL     OW37696   1.661   4.230  10.946 -0.4543  0.2713  0.1155
 8746SOL    HW137697   1.638   4.185  11.028  0.7361 -1.2307 -0.3738
 8746SOL    HW237698   1.749   4.197  10.930  0.0667  1.0111  1.4107
 8747SOL     OW37699   4.050   3.005   9.511 -0.5708  0.0747  0.7741
 8747SOL    HW137700   4.115   3.021   9.580  0.8861 -0.9798 -0.3393
 8747SOL    HW237701   4.080   3.059   9.439  1.0965  0.5986  1.8435
 8748SOL     OW37702   2.566   2.205   9.995 -0.2287  0.1829 -0.2028
 8748SOL    HW137703   2.620   2.190  10.073  0.1521 -0.2509 -0.5476
 8748SOL    HW237704   2.569   2.300   9.996 -1.3653  0.2383 -1.5744
 8749SOL     OW37705   2.545   1.957   5.222  0.1031  0.4512  0.0366
 8749SOL    HW137706   2.539   1.872   5.267 -1.6137  2.0756  2.8273
 8749SOL    HW237707   2.611   2.008   5.268  1.5573 -1.8140  0.4488
 8750SOL     OW37708   1.465   3.501   9.714 -0.5117 -0.3838 -0.2230
 8750SOL    HW137709   1.398   3.454   9.664 -0.0463  0.3714 -1.5458
 8750SOL    HW237710   1.544   3.484   9.663  1.0445  0.2761  1.9925
 8751SOL     OW37711   2.221   3.443   0.206 -0.0021  0.5985  0.2637
 8751SOL    HW137712   2.192   3.516   0.152 -1.6766  0.5131  1.0751
 8751SOL    HW237713   2.203   3.480   0.292  1.0827  1.1812  0.2517
 8752SOL     OW37714   2.420   4.313   8.996  0.1026  0.0497  0.2289
 8752SOL    HW137715   2.330   4.282   9.008 -0.1417  1.1219  1.1413
 8752SOL    HW237716   2.404   4.403   8.968  1.8069 -0.1165 -1.3361
 8753SOL     OW37717   1.108   2.867  15.406 -0.1477 -0.2348 -0.7229
 8753SOL    HW137718   1.173   2.839  15.342 -1.3849 -1.6866 -1.3436
 8753SOL    HW237719   1.028   2.852  15.357 -1.1705  0.3074  0.7767
 8754SOL     OW37720   2.546   2.217   9.407  0.5323 -0.6561 -1.1092
 8754SOL    HW137721   2.479   2.244   9.345  1.5186 -0.9874 -2.3226
 8754SOL    HW237722   2.493   2.192   9.483 -2.9598  2.4337 -2.5455
 8755SOL     OW37723   1.885   2.985  11.184 -0.3439  0.9582  0.3473
 8755SOL    HW137724   1.922   3.067  11.152  2.1263 -0.0519  0.6267
 8755SOL    HW237725   1.940   2.994  11.262  0.0193 -0.1953  0.2283
 8756SOL     OW37726   4.180   2.141   4.954  0.1612 -0.2823 -0.0570
 8756SOL    HW137727   4.125   2.191   4.894 -0.3442  0.3201  0.9023
 8756SOL    HW237728   4.131   2.073   5.000  2.2728 -0.7277  1.5620
 8757SOL     OW37729   1.486   4.501  17.394  0.0370 -0.1737  0.0432
 8757SOL    HW137730   1.552   4.539  17.338 -2.1473 -0.1170 -2.4933
 8757SOL    HW237731   1.447   4.441  17.330  2.1414 -0.0013 -1.3535
 8758SOL     OW37732   4.422   0.389   6.357  0.3771  0.2667  0.2972
 8758SOL    HW137733   4.499   0.382   6.300 -0.3233  0.7767 -0.7055
 8758SOL    HW237734   4.456   0.342   6.433 -2.0852  1.0673  1.8693
 8759SOL     OW37735   3.353   3.307   8.967  0.2179  0.0529 -0.2161
 8759SOL    HW137736   3.347   3.223   9.012 -3.5427  0.3553 -0.1762
 8759SOL    HW237737   3.320   3.363   9.037  1.3561  1.3349 -0.7054
 8760SOL     OW37738   4.203   2.037  11.674  0.5994 -0.2949 -0.0104
 8760SOL    HW137739   4.136   2.098  11.642 -0.4358 -0.0407  2.6083
 8760SOL    HW237740   4.169   1.951  11.650  0.5648 -0.2683 -0.0577
 8761SOL     OW37741   3.306   2.609   8.735 -0.3373  0.1364  0.4277
 8761SOL    HW137742   3.304   2.671   8.808 -2.3482 -0.1429  0.6067
 8761SOL    HW237743   3.219   2.630   8.699 -0.1316 -2.1626 -1.3678
 8762SOL     OW37744   3.854   4.319   5.751  0.4054 -0.3366 -0.1015
 8762SOL    HW137745   3.896   4.350   5.831 -0.8043  0.9203  0.0383
 8762SOL    HW237746   3.774   4.284   5.790  1.4653 -1.8242  0.7766
 8763SOL     OW37747   0.212   1.923  16.799 -0.3317 -0.0054  0.6664
 8763SOL    HW137748   0.240   1.867  16.871  1.8161 -0.9708 -0.9372
 8763SOL    HW237749   0.146   1.976  16.843  1.2087  1.2277  1.4764
 8764SOL     OW37750   0.263   4.444   0.812 -0.0822  0.7392  0.2632
 8764SOL    HW137751   0.253   4.482   0.899 -4.1723 -2.1017  1.0510
 8764SOL    HW237752   0.355   4.460   0.791 -0.2204  1.6287  0.3228
 8765SOL     OW37753   1.894   0.314   9.374 -0.0030 -0.4820 -0.3406
 8765SOL    HW137754   1.827   0.371   9.337  0.1378 -0.2919 -0.3041
 8765SOL    HW237755   1.970   0.372   9.376  1.3415 -2.2377 -0.8037
 8766SOL     OW37756   0.199   2.154  10.850 -0.1571 -0.3511 -0.2633
 8766SOL    HW137757   0.252   2.206  10.790 -1.8241  1.7805  0.1251
 8766SOL    HW237758   0.212   2.064  10.819  2.7567 -0.5360  1.4862
 8767SOL     OW37759   4.317   3.216   5.376 -0.2246 -0.0187  0.1031
 8767SOL    HW137760   4.312   3.307   5.404  0.3858  0.4505 -1.3049
 8767SOL    HW237761   4.404   3.197   5.341  0.3178  2.0873  0.3540
 8768SOL     OW37762   0.325   4.363  12.656 -0.0582 -0.1378 -0.1243
 8768SOL    HW137763   0.237   4.366  12.618  0.0272  0.7735 -0.2377
 8768SOL    HW237764   0.375   4.316  12.589 -2.5280 -1.5793 -0.9736
 8769SOL     OW37765   2.180   4.699   3.613  0.4070  0.1285 -0.3243
 8769SOL    HW137766   2.124   4.625   3.589  1.2965 -0.4162 -0.6756
 8769SOL    HW237767   2.235   4.665   3.684  1.7088 -0.8792 -1.8251
 8770SOL     OW37768   3.087   1.072   2.896  0.8854 -0.0027 -0.0699
 8770SOL    HW137769   3.167   1.114   2.866  0.5614  0.3144 -0.4813
 8770SOL    HW237770   3.063   1.138   2.961 -0.1755 -0.3034 -0.1634
 8771SOL     OW37771   0.855   0.930   3.356  0.0559  0.7087  0.8523
 8771SOL    HW137772   0.771   0.972   3.374 -0.9215 -0.5790 -0.7065
 8771SOL    HW237773   0.897   0.938   3.442  0.4451 -1.3828  0.8695
 8772SOL     OW37774   1.278   2.635   5.303 -0.3146 -0.0466 -0.5238
 8772SOL    HW137775   1.220   2.699   5.344  0.9746  0.0390  1.1736
 8772SOL    HW237776   1.231   2.621   5.221 -1.8432 -0.1819  0.3708
 8773SOL     OW37777   4.431   4.517  11.334  0.2632 -0.4800  0.0960
 8773SOL    HW137778   4.380   4.448  11.291  0.4436 -1.0586  0.8089
 8773SOL    HW237779   4.455   4.475  11.417 -0.5997  0.4726  0.8258
 8774SOL     OW37780   2.797   3.703   6.463  0.5572 -0.4864 -0.5138
 8774SOL    HW137781   2.867   3.699   6.398 -0.0197 -1.5065 -1.0871
 8774SOL    HW237782   2.742   3.626   6.448 -1.8137  1.0750  0.1794
 8775SOL     OW37783   4.202   1.836   5.059 -0.3505  0.2705 -0.5998
 8775SOL    HW137784   4.208   1.795   4.972  0.2070 -3.3729  1.1714
 8775SOL    HW237785   4.184   1.757   5.110 -0.1680  0.2663 -0.5439
 8776SOL     OW37786   2.617   3.329  12.159  0.2377  0.3488 -0.2838
 8776SOL    HW137787   2.605   3.311  12.253 -0.4446 -0.4633 -0.5258
 8776SOL    HW237788   2.662   3.413  12.167 -0.2479  0.7501 -1.8283
 8777SOL     OW37789   1.539   4.189   4.368 -0.1536 -1.0903 -0.1744
 8777SOL    HW137790   1.530   4.263   4.308 -2.0674 -1.0411  0.1799
 8777SOL    HW237791   1.482   4.122   4.329 -0.3004 -1.3659  0.5142
 8778SOL     OW37792   4.396   3.598   1.538 -0.5412  0.1544  0.1573
 8778SOL    HW137793   4.394   3.591   1.634  0.0383 -0.8103  0.1037
 8778SOL    HW237794   4.490   3.611   1.531 -0.4235 -0.1622  1.0340
 8779SOL     OW37795   4.114   2.236   7.654  0.0969 -0.3225  0.2482
 8779SOL    HW137796   4.154   2.249   7.740 -0.2372 -1.3875  0.5688
 8779SOL    HW237797   4.169   2.302   7.611 -0.1153 -0.9576 -1.0197
 8780SOL     OW37798   0.315   1.713   4.442 -0.2395 -0.0829 -0.8157
 8780SOL    HW137799   0.388   1.651   4.433 -0.3219 -0.5967  2.0993
 8780SOL    HW237800   0.249   1.650   4.412  0.8413 -1.2813 -0.6900
 8781SOL     OW37801   3.873   1.089   5.776  0.1537 -0.3996  0.0563
 8781SOL    HW137802   3.811   1.018   5.793  0.0692 -1.0810 -3.0694
 8781SOL    HW237803   3.898   1.076   5.684  1.2477 -3.6123  0.8442
 8782SOL     OW37804   3.540   1.361   7.607 -0.3023  0.5742 -0.0645
 8782SOL    HW137805   3.585   1.438   7.571  1.6807  0.0856  1.3941
 8782SOL    HW237806   3.481   1.399   7.671  0.6287 -0.3340  1.3494
 8783SOL     OW37807   3.292   0.981   0.716  0.3300 -0.3574  0.0916
 8783SOL    HW137808   3.348   1.058   0.710 -2.3274  1.5691 -0.3396
 8783SOL    HW237809   3.327   0.930   0.788 -1.6393 -0.1269  1.2053
 8784SOL     OW37810   2.285   3.613  10.346  0.0334 -0.1319  0.0132
 8784SOL    HW137811   2.267   3.660  10.264  0.3700 -0.2996 -0.1551
 8784SOL    HW237812   2.343   3.545  10.313  0.9166  0.5423  0.1920
 8785SOL     OW37813   2.224   3.480  10.902  0.5167 -0.0242 -0.3057
 8785SOL    HW137814   2.174   3.522  10.831 -0.1059 -0.5609 -0.1896
 8785SOL    HW237815   2.223   3.535  10.980  2.5819  1.3343 -1.2435
 8786SOL     OW37816   2.535   0.753   9.074 -0.3879 -0.3007  0.1208
 8786SOL    HW137817   2.525   0.791   8.986  2.4007  0.8732  0.3243
 8786SOL    HW237818   2.464   0.689   9.070  1.4059 -2.4140  2.7079
 8787SOL     OW37819   2.036   3.474   5.582 -0.4570 -0.4764  0.6244
 8787SOL    HW137820   1.983   3.402   5.548 -1.4487  0.1664  0.8142
 8787SOL    HW237821   1.975   3.546   5.573 -0.6574 -0.5341  1.5324
 8788SOL     OW37822   2.227   1.382   6.823  0.4493  0.3105  0.0803
 8788SOL    HW137823   2.273   1.465   6.812 -0.2270  0.8700  1.4993
 8788SOL    HW237824   2.151   1.419   6.869  1.1297 -0.0386  1.4701
 8789SOL     OW37825   3.644   3.632   7.870 -0.4190  0.1722 -0.0973
 8789SOL    HW137826   3.730   3.591   7.883 -0.3968  0.3213  0.2016
 8789SOL    HW237827   3.615   3.655   7.958  0.7545  0.8291  0.1191
 8790SOL     OW37828   0.095   0.007   5.099 -0.0277 -0.0668 -0.4114
 8790SOL    HW137829   0.015   4.722   5.150 -0.3750  0.8606 -0.7957
 8790SOL    HW237830   0.166   4.722   5.163 -0.3499  2.2128  0.2643
 8791SOL     OW37831   4.206   0.956  11.020 -0.0112  0.2085  0.1060
 8791SOL    HW137832   4.167   0.982  10.937  3.5393  2.5043 -0.8017
 8791SOL    HW237833   4.298   0.974  11.003 -0.5889  2.7555 -0.3571
 8792SOL     OW37834   1.584   0.936   0.345  0.4338  0.0655  0.3693
 8792SOL    HW137835   1.599   0.845   0.372  1.0535 -0.0144 -0.2433
 8792SOL    HW237836   1.659   0.986   0.378  0.4616 -0.3624  0.9543
 8793SOL     OW37837   1.468   1.560   4.583 -0.1788 -0.7535  0.1365
 8793SOL    HW137838   1.477   1.600   4.669  1.1581  1.0468 -0.8432
 8793SOL    HW237839   1.468   1.640   4.532 -3.1116 -1.4439 -0.9529
 8794SOL     OW37840   0.148   2.678   9.412 -0.5856 -0.1047 -0.3249
 8794SOL    HW137841   0.104   2.596   9.391  0.1424 -0.3528 -0.9146
 8794SOL    HW237842   0.086   2.722   9.470  0.5706  0.7215  0.2971
 8795SOL     OW37843   0.302   1.648   9.128  0.2262 -0.4542  0.0967
 8795SOL    HW137844   0.298   1.653   9.223 -0.3380  0.5919  0.0277
 8795SOL    HW237845   0.326   1.738   9.104 -0.7772 -0.2491 -0.1456
 8796SOL     OW37846   1.978   3.157  14.907 -0.1174  0.3790  0.1580
 8796SOL    HW137847   1.960   3.234  14.961 -1.7151  1.6776 -2.2638
 8796SOL    HW237848   2.047   3.194  14.852 -0.0528 -2.5650 -1.7329
 8797SOL     OW37849   1.079   4.289   1.571 -0.1765 -0.3223 -0.0437
 8797SOL    HW137850   0.984   4.277   1.570  0.0671 -2.0714 -1.8309
 8797SOL    HW237851   1.107   4.226   1.637  1.6500 -1.3363 -1.7930
 8798SOL     OW37852   0.635   2.719   6.299  0.4844 -0.2338  0.3198
 8798SOL    HW137853   0.725   2.738   6.326  0.4268  1.4359 -0.5931
 8798SOL    HW237854   0.589   2.725   6.382  1.5914  0.1600  0.9050
 8799SOL     OW37855   2.084   3.804   6.278  0.6245 -0.0264  0.3546
 8799SOL    HW137856   2.111   3.769   6.193  1.0415 -0.4049  0.6434
 8799SOL    HW237857   2.160   3.858   6.297 -0.0584  0.8639  0.5176
 8800SOL     OW37858   4.469   4.460   0.747 -0.2023 -0.0389 -0.2930
 8800SOL    HW137859   4.422   4.526   0.797 -0.2287 -1.0341  0.9862
 8800SOL    HW237860   4.451   4.380   0.796  0.6190 -0.2003 -0.2460
 8801SOL     OW37861   4.645   1.020   3.716 -0.2479  0.3448  0.0793
 8801SOL    HW137862   4.586   1.038   3.790 -2.1141 -2.0252 -0.8587
 8801SOL    HW237863   4.623   1.089   3.654  2.4524  0.0425 -1.1847
 8802SOL     OW37864   2.277   3.292   3.934  0.2495  0.3087 -0.4285
 8802SOL    HW137865   2.257   3.348   3.859  0.1417 -1.6558 -1.8667
 8802SOL    HW237866   2.238   3.210   3.903 -0.7674  0.7707 -0.3756
 8803SOL     OW37867   4.081   4.120   5.217  0.0718  1.0466  0.3603
 8803SOL    HW137868   4.066   4.119   5.311 -1.0016  0.4690  0.1869
 8803SOL    HW237869   4.021   4.048   5.197 -0.1537  0.6613  2.5014
 8804SOL     OW37870   4.303   3.021   6.682  0.8146  0.2980 -0.0371
 8804SOL    HW137871   4.261   3.046   6.765  2.6455 -0.1137  1.0012
 8804SOL    HW237872   4.292   2.926   6.681  1.6568  0.2073 -0.3441
 8805SOL     OW37873   1.466   2.771   6.266  0.0507  0.3553  0.5266
 8805SOL    HW137874   1.481   2.866   6.263 -0.1798  0.3667 -0.3923
 8805SOL    HW237875   1.524   2.747   6.337 -1.1718  0.9129  1.7165
 8806SOL     OW37876   3.538   1.112   8.709 -0.4692  0.4505  0.0250
 8806SOL    HW137877   3.444   1.095   8.705 -0.4620 -0.1087  2.3755
 8806SOL    HW237878   3.560   1.022   8.687  1.8551  1.0643 -0.1895
 8807SOL     OW37879   1.569   4.503  12.534  0.2341 -0.3053 -0.0484
 8807SOL    HW137880   1.605   4.415  12.520  2.7119  0.4492  1.4880
 8807SOL    HW237881   1.644   4.542  12.580 -1.5367  1.4435  1.3101
 8808SOL     OW37882   4.335   2.929   2.885  0.3098 -0.8484  0.5727
 8808SOL    HW137883   4.357   2.843   2.921 -1.1136 -1.3611  0.2187
 8808SOL    HW237884   4.397   2.912   2.815  0.7920 -0.2522  0.8591
 8809SOL     OW37885   4.229   4.515  17.565  0.2639  0.5797 -0.3319
 8809SOL    HW137886   4.214   4.496  17.657 -4.5473 -0.2400 -1.2783
 8809SOL    HW237887   4.323   4.498  17.557 -0.2561 -3.4612  1.9231
 8810SOL     OW37888   3.905   3.695   6.332 -0.1779  0.2352 -0.1842
 8810SOL    HW137889   3.992   3.657   6.345 -0.5617  0.4856  3.0922
 8810SOL    HW237890   3.922   3.768   6.391  1.7786 -1.4511  1.3366
 8811SOL     OW37891   0.870   0.539  17.210 -0.2723  0.8534 -0.2121
 8811SOL    HW137892   0.887   0.488  17.131  0.5080  1.3536 -0.3628
 8811SOL    HW237893   0.958   0.575  17.220  0.6388 -1.5637  0.6294
 8812SOL     OW37894   0.937   3.472  11.078 -0.3344 -0.3604  0.2507
 8812SOL    HW137895   0.986   3.541  11.034 -0.9332 -1.1448 -1.6377
 8812SOL    HW237896   0.849   3.508  11.086  0.2149  0.9824  0.1384
 8813SOL     OW37897   2.233   3.508   8.042 -0.5471  0.0442  0.2661
 8813SOL    HW137898   2.156   3.562   8.026 -0.3217 -0.3328 -2.0598
 8813SOL    HW237899   2.269   3.533   8.127  1.4448  1.6997 -1.0710
 8814SOL     OW37900   3.078   2.042   6.148 -0.4675  0.7962  0.1115
 8814SOL    HW137901   3.029   2.097   6.087 -1.4429 -0.9170 -0.6656
 8814SOL    HW237902   3.055   1.955   6.115 -0.5389  0.8319  0.0670
 8815SOL     OW37903   1.338   0.152   6.839  0.6585  0.0372  0.0984
 8815SOL    HW137904   1.291   0.206   6.903 -2.4901 -1.8103 -0.6471
 8815SOL    HW237905   1.327   0.211   6.764 -0.8729  1.1183  1.1752
 8816SOL     OW37906   4.085   0.092  10.440  0.2192  0.3798 -0.2869
 8816SOL    HW137907   4.144   0.165  10.420  0.6549 -0.3099 -1.5791
 8816SOL    HW237908   4.062   0.094  10.532 -0.6655  0.9437 -0.5286
 8817SOL     OW37909   4.500   3.003  13.047 -0.2314  0.5265 -0.2218
 8817SOL    HW137910   4.584   3.026  13.087  0.7929  0.0729 -2.1439
 8817SOL    HW237911   4.495   2.908  13.057 -1.8039  0.4059 -2.1172
 8818SOL     OW37912   1.051   3.748   5.085 -0.4757  0.5587  0.8825
 8818SOL    HW137913   1.123   3.809   5.071  0.0152  0.3247  2.3769
 8818SOL    HW237914   1.037   3.716   4.996  2.4878  0.1582  0.5490
 8819SOL     OW37915   4.148   2.767   4.910 -0.0462  0.3069  0.0790
 8819SOL    HW137916   4.126   2.762   4.817 -0.3799  1.2294  0.1182
 8819SOL    HW237917   4.163   2.861   4.922  2.2254 -0.1002  0.6332
 8820SOL     OW37918   0.013   2.017   2.112 -0.0155  0.2238  0.3768
 8820SOL    HW137919   4.711   2.027   2.204 -0.0960 -0.3700  0.4226
 8820SOL    HW237920   0.097   2.062   2.122 -0.9590  1.9203  0.4819
 8821SOL     OW37921   1.596   3.869   5.847 -0.3596 -0.2070  0.2452
 8821SOL    HW137922   1.608   3.835   5.759  0.9496  0.1621  0.2924
 8821SOL    HW237923   1.648   3.805   5.895  0.3795 -0.4387 -0.8708
 8822SOL     OW37924   3.607   2.622   6.768 -0.3050  0.4069 -0.0753
 8822SOL    HW137925   3.681   2.561   6.766  0.4430  1.1602  3.3902
 8822SOL    HW237926   3.650   2.700   6.732  1.5142 -0.4058  0.3294
 8823SOL     OW37927   2.181   2.970   5.734 -0.2662 -0.2532 -0.2908
 8823SOL    HW137928   2.123   3.023   5.788 -0.5534 -0.1314 -0.7209
 8823SOL    HW237929   2.205   3.039   5.672 -0.1975 -1.6445 -1.8260
 8824SOL     OW37930   2.849   2.005  17.233 -0.0625  0.2230  0.0021
 8824SOL    HW137931   2.791   2.069  17.273  1.5597  1.8345 -0.2100
 8824SOL    HW237932   2.902   1.980  17.309  0.2484  1.0950  0.0778
 8825SOL     OW37933   0.049   0.966   5.990  0.0223 -0.2102  0.1672
 8825SOL    HW137934   0.115   0.961   5.921  2.3836 -0.8802  2.4796
 8825SOL    HW237935   4.694   0.941   5.941  0.7195  2.3978 -2.3404
 8826SOL     OW37936   3.297   1.474  15.415 -0.2598 -0.4736 -0.3333
 8826SOL    HW137937   3.220   1.452  15.363  0.1508 -2.6120 -0.0374
 8826SOL    HW237938   3.330   1.552  15.370 -0.8969 -0.0625 -0.0815
 8827SOL     OW37939   3.232   2.915  11.080  0.2122  0.4036  0.2454
 8827SOL    HW137940   3.186   2.837  11.111  0.4840 -0.3017 -1.0924
 8827SOL    HW237941   3.317   2.918  11.124  0.2517 -0.0569  0.1981
 8828SOL     OW37942   3.187   3.272   4.946  0.7441 -0.3768  0.0014
 8828SOL    HW137943   3.175   3.326   5.024 -0.1414  1.5189 -1.4557
 8828SOL    HW237944   3.264   3.224   4.976  0.0776 -1.1375  0.5189
 8829SOL     OW37945   2.764   2.845   2.668  0.2293 -0.0607 -0.5809
 8829SOL    HW137946   2.704   2.917   2.690  1.8347  0.3162  2.6382
 8829SOL    HW237947   2.819   2.889   2.603 -0.0612  0.1469 -0.6851
 8830SOL     OW37948   2.214   1.482   1.636 -0.1491 -0.8645 -0.2830
 8830SOL    HW137949   2.173   1.408   1.679 -0.9041 -0.5029 -0.3779
 8830SOL    HW237950   2.275   1.501   1.707  1.5028 -3.3154 -1.0606
 8831SOL     OW37951   2.960   3.145   5.306  0.4209  0.7185 -0.1268
 8831SOL    HW137952   2.990   3.151   5.397 -1.1938  0.2319  0.4418
 8831SOL    HW237953   3.033   3.096   5.268  0.4513 -1.2547  2.4168
 8832SOL     OW37954   1.989   3.184   3.649  0.7272 -0.0724 -0.0880
 8832SOL    HW137955   2.027   3.140   3.725 -0.0881 -0.2262  0.2387
 8832SOL    HW237956   1.964   3.269   3.687  1.7281  0.6628 -1.0718
 8833SOL     OW37957   3.502   0.621   5.826  0.3903 -0.0500 -0.1193
 8833SOL    HW137958   3.414   0.613   5.863  0.6450  0.0806  0.5147
 8833SOL    HW237959   3.519   0.532   5.793  0.1206 -0.1308 -0.0384
 8834SOL     OW37960   1.527   2.543  13.217 -0.0443 -0.1959 -0.5981
 8834SOL    HW137961   1.469   2.474  13.247 -0.2030  1.4725  2.8804
 8834SOL    HW237962   1.589   2.495  13.162  0.4261 -1.0709  0.7040
 8835SOL     OW37963   3.774   3.188   3.378  0.1191 -1.0919  0.1446
 8835SOL    HW137964   3.806   3.141   3.455 -0.8545 -0.1476  1.1180
 8835SOL    HW237965   3.728   3.112   3.341 -0.2327 -0.5462 -0.5458
 8836SOL     OW37966   2.093   1.311   2.474 -0.0830 -0.2497  0.0640
 8836SOL    HW137967   2.003   1.293   2.444  0.2185 -0.0665 -0.9637
 8836SOL    HW237968   2.096   1.263   2.557 -0.6969 -0.2816  0.0729
 8837SOL     OW37969   2.297   4.006   6.563 -0.7660 -0.4441 -0.3581
 8837SOL    HW137970   2.359   4.077   6.578 -0.5657 -0.7150  0.0892
 8837SOL    HW237971   2.302   3.989   6.468 -2.6258 -0.9295 -0.3643
 8838SOL     OW37972   1.813   2.089   0.604  0.1465  0.4749  0.0694
 8838SOL    HW137973   1.786   2.167   0.653 -0.4024 -2.7808  4.8966
 8838SOL    HW237974   1.755   2.092   0.528 -1.5644  0.0371  1.3605
 8839SOL     OW37975   0.321   1.178  12.868  0.0463 -0.8826 -0.7763
 8839SOL    HW137976   0.297   1.241  12.801 -0.9829 -0.8249 -0.3596
 8839SOL    HW237977   0.273   1.105  12.829 -0.5225 -0.9395  0.0281
 8840SOL     OW37978   0.777   1.855   8.505  0.1232  0.6804  0.1871
 8840SOL    HW137979   0.824   1.885   8.583 -3.1460  4.1537  0.8283
 8840SOL    HW237980   0.731   1.937   8.484  0.4037  0.6297 -0.6171
 8841SOL     OW37981   4.162   2.146   5.964  0.1170 -0.1430 -0.5278
 8841SOL    HW137982   4.182   2.080   5.899  0.4334  0.4188 -1.0031
 8841SOL    HW237983   4.192   2.218   5.909  0.6571  0.2203  0.2363
 8842SOL     OW37984   4.439   4.640   8.356  0.1507 -0.0642 -0.1900
 8842SOL    HW137985   4.470   4.698   8.286 -1.9779  1.1955 -0.0735
 8842SOL    HW237986   4.418   4.698   8.429 -0.5620  1.3066 -1.4868
 8843SOL     OW37987   2.852   2.926   5.624  0.4073 -0.3463 -0.5901
 8843SOL    HW137988   2.782   2.861   5.618 -1.0971  1.2708 -0.6438
 8843SOL    HW237989   2.908   2.912   5.547 -2.1602 -0.5593 -2.4468
 8844SOL     OW37990   1.935   0.814  17.546 -0.5197  0.8404 -0.3244
 8844SOL    HW137991   1.944   0.779  17.458 -4.3866  1.3520 -0.9487
 8844SOL    HW237992   1.944   0.735  17.600  0.6709  2.2334  1.5340
 8845SOL     OW37993   4.279   1.181   0.587  0.0919 -0.0036 -0.2046
 8845SOL    HW137994   4.365   1.170   0.627  0.4281 -0.9185 -1.2082
 8845SOL    HW237995   4.230   1.188   0.670  2.4069 -3.0361  1.4276
 8846SOL     OW37996   4.673   4.530   5.367  0.9707  0.2229  0.6981
 8846SOL    HW137997   4.608   4.520   5.437 -1.6848 -0.0380 -1.7977
 8846SOL    HW237998   4.644   4.614   5.332  1.7673 -0.0983 -0.7353
 8847SOL     OW37999   1.432   3.339   1.775 -0.1575 -0.1516  0.1761
 8847SOL    HW138000   1.355   3.348   1.718 -0.3685  1.9348  0.7859
 8847SOL    HW238001   1.444   3.428   1.809 -0.2333 -0.6788  1.5693
 8848SOL     OW38002   0.910   0.828  13.980 -0.4090  0.2589 -0.3508
 8848SOL    HW138003   0.958   0.862  14.056 -0.7599  1.6811 -0.7642
 8848SOL    HW238004   0.821   0.861  13.990 -0.4792 -0.4006  1.1710
 8849SOL     OW38005   2.012   0.177   2.060  0.0733 -0.1215 -0.3309
 8849SOL    HW138006   1.991   0.104   2.002  3.5574 -2.3723  1.2783
 8849SOL    HW238007   1.929   0.223   2.043 -0.6186 -1.2636  0.0210
 8850SOL     OW38008   0.493   1.795   1.864  0.2735  0.1795  0.2354
 8850SOL    HW138009   0.485   1.873   1.809  2.7297 -0.4780 -1.0781
 8850SOL    HW238010   0.399   1.780   1.873  0.2144  1.0223  0.9471
 8851SOL     OW38011   4.619   1.179   7.242 -0.3400 -0.1591  0.4631
 8851SOL    HW138012   4.627   1.214   7.153 -1.9810  0.3709  0.5217
 8851SOL    HW238013   4.533   1.137   7.239  0.3390 -1.6464  1.5418
 8852SOL     OW38014   2.952   4.164  12.673  0.7654  0.0424  0.0387
 8852SOL    HW138015   2.898   4.143  12.597 -1.8496 -0.1215  1.9415
 8852SOL    HW238016   2.974   4.256  12.657 -0.3489  0.0067 -1.6465
 8853SOL     OW38017   3.739   1.427  14.042 -0.6339 -0.3235  0.1367
 8853SOL    HW138018   3.766   1.340  14.074 -4.3174 -2.5484 -2.8656
 8853SOL    HW238019   3.702   1.400  13.958 -1.3113 -1.6971  0.8691
 8854SOL     OW38020   4.628   1.865   3.087  0.3069 -0.1438 -0.2134
 8854SOL    HW138021   4.609   1.886   2.996  0.2107  0.5238 -0.0363
 8854SOL    HW238022   4.565   1.799   3.117 -1.3468  1.7046  0.3694
 8855SOL     OW38023   0.884   2.009   1.836  0.0260  0.1545  0.2832
 8855SOL    HW138024   0.926   2.078   1.888  2.3951  0.6601 -2.2730
 8855SOL    HW238025   0.865   1.933   1.892 -1.8718  0.8815  0.6056
 8856SOL     OW38026   4.359   4.346   2.261  0.1982 -0.4537  0.5677
 8856SOL    HW138027   4.280   4.387   2.295 -0.2366  0.4726 -1.5295
 8856SOL    HW238028   4.404   4.317   2.341 -0.5639 -0.6544  0.9186
 8857SOL     OW38029   0.448   3.529  13.821  0.4817  0.1158 -0.6695
 8857SOL    HW138030   0.532   3.514  13.864 -0.3552  1.2325  1.3643
 8857SOL    HW238031   0.401   3.446  13.813 -2.1514  1.6415 -0.9757
 8858SOL     OW38032   2.123   4.200   6.299  0.1933 -0.1312 -0.4022
 8858SOL    HW138033   2.047   4.178   6.244 -0.2962 -0.3408  0.3664
 8858SOL    HW238034   2.192   4.172   6.239  2.4834  3.4683  0.5320
 8859SOL     OW38035   2.684   2.647  12.761  0.0815 -0.0051 -0.7380
 8859SOL    HW138036   2.642   2.562  12.776  1.6351 -0.7095 -0.2660
 8859SOL    HW238037   2.621   2.706  12.721 -0.0201  0.8454  0.6850
 8860SOL     OW38038   2.227   2.355  17.274  1.0427 -0.6548  0.6524
 8860SOL    HW138039   2.222   2.407  17.354 -0.6474  0.7330 -0.3496
 8860SOL    HW238040   2.322   2.352  17.269  1.0733  0.1463  0.7068
 8861SOL     OW38041   3.044   1.346   0.640 -0.1843 -0.4440  0.1055
 8861SOL    HW138042   3.092   1.428   0.647  1.2784 -1.2873  0.0917
 8861SOL    HW238043   3.033   1.331   0.734 -1.5732 -0.9868 -0.1502
 8862SOL     OW38044   2.697   2.837   6.796  0.4884 -0.0749  0.0729
 8862SOL    HW138045   2.680   2.760   6.741  0.8279  1.5212 -2.2626
 8862SOL    HW238046   2.612   2.881   6.800 -0.0451 -1.0544 -0.4236
 8863SOL     OW38047   3.428   3.668  11.201 -0.0648 -0.1883  0.1799
 8863SOL    HW138048   3.478   3.684  11.121 -1.8234 -1.0959 -1.0893
 8863SOL    HW238049   3.485   3.608  11.250  0.5968  2.7398  3.0512
 8864SOL     OW38050   0.927   2.467   6.601 -0.5473  0.6160 -0.5875
 8864SOL    HW138051   0.868   2.400   6.636  1.1688 -0.2142  0.7255
 8864SOL    HW238052   0.962   2.509   6.680  0.4852 -0.5441 -0.4365
 8865SOL     OW38053   1.009   3.753  11.905 -0.0335 -0.0476 -0.0820
 8865SOL    HW138054   0.954   3.742  11.983  0.6179 -0.0871  0.3751
 8865SOL    HW238055   1.093   3.787  11.936 -0.1784 -1.1027  1.4508
 8866SOL     OW38056   0.113   0.174   6.323  0.1000 -0.3713 -0.0347
 8866SOL    HW138057   0.187   0.233   6.334 -0.4808  0.2757  0.3635
 8866SOL    HW238058   0.140   0.127   6.244  1.0265 -0.4468  0.3297
 8867SOL     OW38059   2.990   0.063  13.902 -0.7246  0.5412  0.1759
 8867SOL    HW138060   2.902   0.045  13.867  0.4971 -1.7068 -1.7196
 8867SOL    HW238061   2.962   0.113  13.979 -0.0005  1.5794 -0.2332
 8868SOL     OW38062   2.659   0.132  16.633 -0.0484 -0.1331 -0.1986
 8868SOL    HW138063   2.734   0.123  16.692  0.7371 -2.5945 -1.5628
 8868SOL    HW238064   2.620   0.204  16.683 -0.4362  2.0031 -3.5000
 8869SOL     OW38065   3.960   1.798   3.006 -0.4528 -0.4620  0.2121
 8869SOL    HW138066   4.035   1.749   2.971  0.8100  0.4983  1.5351
 8869SOL    HW238067   3.965   1.789   3.101  1.1117 -0.4449  0.1366
 8870SOL     OW38068   0.850   2.952   9.025 -0.7165  0.0520  0.3222
 8870SOL    HW138069   0.784   2.970   9.091 -1.6223  0.9655 -0.8204
 8870SOL    HW238070   0.800   2.981   8.949  0.2380 -1.1014 -0.7410
 8871SOL     OW38071   1.531   0.411   6.982 -0.3349  0.1809  0.3217
 8871SOL    HW138072   1.464   0.349   7.011  0.4780 -0.6916  0.3349
 8871SOL    HW238073   1.594   0.411   7.054  2.2769  3.4894 -1.9960
 8872SOL     OW38074   3.073   0.685   7.923 -0.2566  0.2624  0.6093
 8872SOL    HW138075   3.024   0.684   8.005  1.0015  1.5309  1.3776
 8872SOL    HW238076   3.159   0.723   7.941  1.4599 -2.6018 -1.5190
 8873SOL     OW38077   0.967   0.551   4.649 -0.1594 -0.0850  0.2066
 8873SOL    HW138078   0.956   0.470   4.699 -1.7360 -0.4970 -0.8129
 8873SOL    HW238079   0.952   0.523   4.559 -2.3413  4.3865 -0.8576
 8874SOL     OW38080   3.197   2.193   2.120 -0.0863  0.3455  0.0910
 8874SOL    HW138081   3.154   2.274   2.149 -0.5359  0.0603  0.2077
 8874SOL    HW238082   3.242   2.164   2.199 -1.7096 -1.2948  0.4017
 8875SOL     OW38083   3.740   3.986   7.512  0.0682 -0.0530  0.2640
 8875SOL    HW138084   3.764   4.079   7.520 -0.4372 -0.0324  1.5572
 8875SOL    HW238085   3.798   3.944   7.576 -2.0026 -1.4517  1.2102
 8876SOL     OW38086   1.500   1.459   3.690  0.0517 -0.1769 -0.9159
 8876SOL    HW138087   1.587   1.437   3.725 -0.8657 -1.0027  0.8777
 8876SOL    HW238088   1.443   1.446   3.766  2.3302 -0.4428  0.7669
 8877SOL     OW38089   0.969   4.330   4.788  0.2638  0.1673  0.5742
 8877SOL    HW138090   1.004   4.343   4.700 -2.7593  0.5125 -0.5593
 8877SOL    HW238091   0.910   4.404   4.799 -1.3784 -1.4409  2.7963
 8878SOL     OW38092   0.756   4.029   8.007 -0.1770 -0.4411  0.0669
 8878SOL    HW138093   0.747   3.997   7.917  1.8336 -1.3139  0.1765
 8878SOL    HW238094   0.715   3.956   8.053 -2.0999  0.4750 -0.1507
 8879SOL     OW38095   2.952   3.481  13.065 -0.7496  0.3116  0.4708
 8879SOL    HW138096   2.948   3.515  13.154  3.1796  2.2260 -0.0601
 8879SOL    HW238097   3.033   3.430  13.074 -2.3859 -1.9830  2.3878
 8880SOL     OW38098   2.269   1.094   2.942 -1.0619 -0.1811  0.1469
 8880SOL    HW138099   2.308   1.170   2.985 -1.0824 -0.1075  0.0366
 8880SOL    HW238100   2.251   1.033   3.013  2.2893 -0.6747  0.5858
 8881SOL     OW38101   3.641   3.408   0.510 -0.1117 -0.0154  0.3212
 8881SOL    HW138102   3.703   3.409   0.438  2.2565  1.3348  2.3814
 8881SOL    HW238103   3.557   3.429   0.468 -1.8215 -0.0816  3.7159
 8882SOL     OW38104   0.852   1.623   9.898 -0.4512 -0.0613 -0.0358
 8882SOL    HW138105   0.906   1.635   9.820  1.7476 -3.1545  1.0182
 8882SOL    HW238106   0.789   1.692   9.878 -1.7715 -1.5422 -1.0230
 8883SOL     OW38107   4.379   0.274   2.900 -0.2803  0.1988 -0.0527
 8883SOL    HW138108   4.345   0.268   2.989 -0.5039  0.6938 -0.1080
 8883SOL    HW238109   4.445   0.205   2.899  1.5291  1.9558 -0.6040
 8884SOL     OW38110   2.491   3.219  17.551 -0.3008 -0.1974 -0.1866
 8884SOL    HW138111   2.399   3.205  17.527  0.4465  0.1929 -3.2440
 8884SOL    HW238112   2.506   3.131  17.587 -2.0664 -0.9672 -1.3195
 8885SOL     OW38113   1.158   1.679  15.944 -0.2072 -0.2458  0.0470
 8885SOL    HW138114   1.241   1.693  15.991  0.4246 -3.1967 -0.2055
 8885SOL    HW238115   1.146   1.772  15.924 -1.6163 -0.5573 -0.5452
 8886SOL     OW38116   4.356   1.002   3.095  0.0658  0.4786 -0.2527
 8886SOL    HW138117   4.268   0.966   3.092  0.6967 -0.9212 -1.7435
 8886SOL    HW238118   4.403   0.938   3.149 -0.0645 -0.6882 -1.5539
 8887SOL     OW38119   0.511   2.497  14.802 -0.1312  0.4073  0.4059
 8887SOL    HW138120   0.433   2.460  14.759 -0.5554  2.8870 -0.9668
 8887SOL    HW238121   0.466   2.567  14.849 -2.8285 -0.4326 -0.9039
 8888SOL     OW38122   3.882   1.373   8.841 -0.0331  0.6570  0.0447
 8888SOL    HW138123   3.790   1.373   8.867  0.1978 -1.3313  0.9079
 8888SOL    HW238124   3.882   1.284   8.804 -0.1131  0.0484  1.5089
 8889SOL     OW38125   4.387   3.239   7.123  0.4371 -0.1029 -0.2779
 8889SOL    HW138126   4.354   3.156   7.089 -0.7121  0.3495 -0.2553
 8889SOL    HW238127   4.473   3.243   7.081  0.0882  1.1659 -0.8790
 8890SOL     OW38128   1.943   0.814   8.081 -0.6559  0.0754 -0.7836
 8890SOL    HW138129   1.858   0.857   8.070 -0.8122  0.0592  0.3181
 8890SOL    HW238130   1.957   0.780   7.993 -0.2100  3.3864 -2.0098
 8891SOL     OW38131   4.069   2.793  16.049  0.5101 -0.1560  0.3466
 8891SOL    HW138132   4.140   2.841  16.093  0.3774  1.4097 -1.1407
 8891SOL    HW238133   4.024   2.758  16.125  1.4258 -0.9789  0.5199
 8892SOL     OW38134   1.037   1.216   7.652 -0.2456  0.1602  0.0213
 8892SOL    HW138135   1.056   1.256   7.736  3.8888 -0.7451 -0.5093
 8892SOL    HW238136   0.970   1.151   7.675 -1.1142  1.6442  1.6497
 8893SOL     OW38137   0.712   4.152   0.231 -0.4648  0.3512  0.6993
 8893SOL    HW138138   0.682   4.237   0.261  0.9523  0.6313  1.2891
 8893SOL    HW238139   0.679   4.163   0.142  3.6280 -2.3864 -1.1422
 8894SOL     OW38140   1.878   4.482   9.779 -0.3045  0.0516 -0.0622
 8894SOL    HW138141   1.900   4.548   9.714 -0.0320 -0.0021 -0.0273
 8894SOL    HW238142   1.789   4.462   9.751  0.6716 -2.0538 -1.6931
 8895SOL     OW38143   4.008   4.079   0.707 -0.2883 -0.4491 -0.1921
 8895SOL    HW138144   4.068   4.091   0.634  0.5223  0.3823  0.6068
 8895SOL    HW238145   4.065   4.102   0.780  0.2165 -0.9062 -0.4495
 8896SOL     OW38146   0.035   2.778  11.046 -0.1859 -0.1581  0.2460
 8896SOL    HW138147   0.072   2.863  11.067 -0.3480  0.6060 -2.5790
 8896SOL    HW238148   0.019   2.786  10.952 -1.7320  3.1248  0.7936
 8897SOL     OW38149   1.666   3.719   6.097  0.0751  0.2407  0.2176
 8897SOL    HW138150   1.582   3.761   6.079 -0.9448 -1.2506  1.5194
 8897SOL    HW238151   1.644   3.630   6.125 -0.2850  0.4303  0.5227
 8898SOL     OW38152   4.155   1.784   9.243 -0.3836  0.8915  0.2330
 8898SOL    HW138153   4.203   1.752   9.166  0.3982  0.8818  0.7253
 8898SOL    HW238154   4.211   1.858   9.269 -1.3079  1.1275  1.5563
 8899SOL     OW38155   1.815   0.283   2.991  0.4282  0.6642  0.2103
 8899SOL    HW138156   1.848   0.294   2.902 -2.6804  0.5292 -0.9502
 8899SOL    HW238157   1.745   0.349   2.989  0.8318  1.1208  1.1815
 8900SOL     OW38158   2.070   1.401   7.466 -0.1837  0.6405  0.1752
 8900SOL    HW138159   2.144   1.411   7.526  0.9097 -0.9703 -0.9255
 8900SOL    HW238160   2.114   1.425   7.385 -0.9702 -0.7599 -0.6488
 8901SOL     OW38161   3.980   2.523  12.599 -0.4359 -0.1827 -0.0990
 8901SOL    HW138162   3.901   2.491  12.553 -0.4941  0.1759 -0.2476
 8901SOL    HW238163   4.011   2.588  12.536  0.8062  0.1622  0.8758
 8902SOL     OW38164   0.037   0.564   6.096 -0.0699  0.2622  0.3253
 8902SOL    HW138165   0.066   0.573   6.187 -1.6225  4.2391  0.4001
 8902SOL    HW238166   0.006   0.473   6.104  1.9537 -0.3953  0.6696
 8903SOL     OW38167   1.533   1.429   7.998 -0.0092  0.3157 -0.0373
 8903SOL    HW138168   1.541   1.451   7.905  0.3117 -2.3527 -0.6323
 8903SOL    HW238169   1.470   1.497   8.025  2.4023  1.4534  2.6829
 8904SOL     OW38170   1.085   1.577  10.960  0.8460  0.2568  0.6796
 8904SOL    HW138171   0.999   1.556  10.924  1.6305 -1.8280  0.0458
 8904SOL    HW238172   1.091   1.539  11.047 -2.2686  1.0719  1.2234
 8905SOL     OW38173   2.169   3.497   6.404 -0.4082 -0.6782  0.6151
 8905SOL    HW138174   2.205   3.583   6.380  0.3318 -0.7748  1.3380
 8905SOL    HW238175   2.127   3.470   6.323  2.6401 -1.3244 -0.7305
 8906SOL     OW38176   3.829   3.857   0.023 -0.1157 -0.2206  0.7418
 8906SOL    HW138177   3.920   3.825   0.021 -0.4021 -0.7919 -3.2757
 8906SOL    HW238178   3.801   3.826   0.110  0.0238  2.0291  1.5743
 8907SOL     OW38179   3.242   3.519   7.683  0.4159 -0.2787 -0.2013
 8907SOL    HW138180   3.288   3.529   7.766  0.3070 -2.4342  0.1073
 8907SOL    HW238181   3.154   3.539   7.714 -0.7562 -0.7631 -3.1557
 8908SOL     OW38182   1.866   1.793   7.179 -0.0480 -0.2625  0.3826
 8908SOL    HW138183   1.857   1.813   7.086 -0.0758  1.5944  0.7858
 8908SOL    HW238184   1.957   1.816   7.196 -0.2673  0.9313 -0.0542
 8909SOL     OW38185   4.388   2.877   3.945  0.1411  0.3813  0.0689
 8909SOL    HW138186   4.403   2.960   3.990  2.5758  0.6911 -1.3061
 8909SOL    HW238187   4.306   2.899   3.900  1.2679  0.3940 -1.9640
 8910SOL     OW38188   1.696   1.134   5.263  0.0585  0.2103 -0.6669
 8910SOL    HW138189   1.693   1.213   5.317 -1.8282  1.2733 -2.3358
 8910SOL    HW238190   1.602   1.126   5.247 -0.0006 -0.4145  0.0203
 8911SOL     OW38191   0.888   1.778   1.992  0.2381 -0.0424  0.2033
 8911SOL    HW138192   0.812   1.800   2.047 -0.0462  0.0476 -0.2311
 8911SOL    HW238193   0.852   1.718   1.927 -0.5445 -0.3463  0.9136
 8912SOL     OW38194   2.496   3.737   4.433  0.5229  0.0587  0.1748
 8912SOL    HW138195   2.499   3.810   4.371  0.3675 -0.2906 -0.2531
 8912SOL    HW238196   2.571   3.754   4.490  0.2714  1.8083 -0.0181
 8913SOL     OW38197   0.119   3.046   4.722 -0.3712 -0.4785 -0.0330
 8913SOL    HW138198   0.171   3.028   4.643 -0.0315 -1.3015  0.3697
 8913SOL    HW238199   0.146   3.136   4.738  2.4105 -1.4437  0.7479
 8914SOL     OW38200   4.339   2.365   4.146 -0.0598 -0.1846  0.5737
 8914SOL    HW138201   4.271   2.353   4.212  0.7832  0.0812  1.4986
 8914SOL    HW238202   4.411   2.313   4.181  1.3813  2.4454  1.4828
 8915SOL     OW38203   1.036   1.535   5.988 -0.7698 -0.3890 -0.5021
 8915SOL    HW138204   1.079   1.510   5.906  0.8116 -1.3445  0.6064
 8915SOL    HW238205   1.092   1.492   6.052 -2.6462  2.1437  2.8180
 8916SOL     OW38206   1.415   4.535   2.763 -0.3166  0.0434  0.0405
 8916SOL    HW138207   1.489   4.595   2.756  0.3576 -0.9265 -1.2699
 8916SOL    HW238208   1.349   4.585   2.810  0.9459  0.3268  1.4866
 8917SOL     OW38209   0.175   2.356   6.631 -0.4098  0.1602  0.8919
 8917SOL    HW138210   0.163   2.273   6.677 -1.1690  0.1445  0.6631
 8917SOL    HW238211   0.086   2.391   6.641 -0.5157 -0.0582  0.7006
 8918SOL     OW38212   1.808   2.202   7.888  0.5886  0.3685  0.0111
 8918SOL    HW138213   1.722   2.241   7.903 -0.9996 -2.5516 -1.5918
 8918SOL    HW238214   1.858   2.283   7.897 -0.0666  0.9241 -1.3192
 8919SOL     OW38215   3.310   2.190   6.582  0.1425 -0.5477  0.5236
 8919SOL    HW138216   3.320   2.254   6.652 -0.2989  0.7469 -0.5782
 8919SOL    HW238217   3.326   2.103   6.618 -1.2784 -1.1500 -0.2649
 8920SOL     OW38218   3.002   4.298   7.192  0.0299 -0.0267  0.5150
 8920SOL    HW138219   2.996   4.204   7.211  2.8108  0.4411  3.6459
 8920SOL    HW238220   2.940   4.337   7.252 -0.0268  0.4564  0.1363
 8921SOL     OW38221   1.004   0.037   2.604  0.0900 -0.6154  0.4245
 8921SOL    HW138222   0.956   4.688   2.565  0.3707 -0.5975  0.0458
 8921SOL    HW238223   1.098   0.019   2.594 -0.6098 -3.0890 -1.5726
 8922SOL     OW38224   1.449   1.153   3.845 -0.0639  0.0434  0.4788
 8922SOL    HW138225   1.524   1.212   3.854  0.7058 -0.8520 -0.0160
 8922SOL    HW238226   1.467   1.099   3.922  1.3906 -0.8277 -0.4585
 8923SOL     OW38227   4.017   1.547  10.169 -0.6479 -0.3842  0.0478
 8923SOL    HW138228   3.949   1.575  10.231 -1.5857 -1.2392 -0.5868
 8923SOL    HW238229   4.013   1.612  10.099  1.8416  0.7148  0.9317
 8924SOL     OW38230   1.430   0.475   2.071  0.0587 -0.1203  0.2678
 8924SOL    HW138231   1.399   0.550   2.019  0.2799 -1.4090 -1.7377
 8924SOL    HW238232   1.369   0.486   2.143 -1.0140 -2.0964 -0.3347
 8925SOL     OW38233   2.454   1.961   3.686 -0.8985  0.3939  0.0764
 8925SOL    HW138234   2.539   1.950   3.730 -0.9983 -0.4745  0.0531
 8925SOL    HW238235   2.472   2.031   3.623 -0.6256  1.0403  0.8753
 8926SOL     OW38236   2.292   2.827  11.337 -0.5699 -0.3683 -0.6084
 8926SOL    HW138237   2.239   2.748  11.347 -1.6949  0.3397 -0.9844
 8926SOL    HW238238   2.369   2.776  11.312  0.0102  0.1135  0.1609
 8927SOL     OW38239   2.302   2.537  10.065  1.1680 -0.6008  0.1810
 8927SOL    HW138240   2.398   2.545  10.070  1.2663 -2.7393  1.6016
 8927SOL    HW238241   2.293   2.449  10.028 -1.2367 -2.1786  4.5837
 8928SOL     OW38242   2.051   3.700   8.028  0.1175 -0.1022  0.1781
 8928SOL    HW138243   2.108   3.776   8.018 -0.6472  0.3454 -0.6346
 8928SOL    HW238244   2.022   3.714   8.118  0.2457 -1.1671  0.3851
 8929SOL     OW38245   3.659   4.344   9.201  0.1736  0.1338  0.0079
 8929SOL    HW138246   3.607   4.275   9.243  0.1024  0.0223 -0.2686
 8929SOL    HW238247   3.742   4.298   9.211 -0.1790 -0.1691  1.5716
 8930SOL     OW38248   0.371   2.647   2.994  0.0320  0.6218 -0.5842
 8930SOL    HW138249   0.458   2.686   3.000  1.1752 -2.3659  1.7836
 8930SOL    HW238250   0.388   2.558   2.966  0.7105  1.4566 -2.8400
 8931SOL     OW38251   2.013   4.692   5.800 -0.5556 -0.3263 -0.0512
 8931SOL    HW138252   2.095   4.711   5.754 -0.6533 -2.0619 -0.9545
 8931SOL    HW238253   2.005   0.057   5.835  2.4770  0.1665 -0.5645
 8932SOL     OW38254   0.538   1.312   6.140 -0.3495 -0.5300  0.3751
 8932SOL    HW138255   0.472   1.307   6.209 -0.5824  1.6110  0.2899
 8932SOL    HW238256   0.481   1.339   6.068  1.6940  1.4623 -0.4724
 8933SOL     OW38257   3.920   0.771   5.521 -0.2769 -0.4593  0.1877
 8933SOL    HW138258   3.834   0.731   5.533  0.0682 -0.6209  2.0593
 8933SOL    HW238259   3.938   0.718   5.443  1.3120 -1.8376  1.4849
 8934SOL     OW38260   2.103   2.704   1.642 -0.3952  0.1704 -0.4106
 8934SOL    HW138261   2.189   2.743   1.657  0.5813 -1.7662 -0.9306
 8934SOL    HW238262   2.107   2.674   1.552 -0.0024 -0.8725 -0.0559
 8935SOL     OW38263   4.192   3.814   8.095  0.2362 -1.0264 -0.6392
 8935SOL    HW138264   4.286   3.795   8.087  0.7812  0.3184  2.4097
 8935SOL    HW238265   4.165   3.723   8.105  2.2906 -1.6071 -0.4699
 8936SOL     OW38266   0.801   3.090   3.165 -0.0639 -0.4015  0.3124
 8936SOL    HW138267   0.861   3.050   3.228 -0.7964 -1.0204  0.6144
 8936SOL    HW238268   0.729   3.027   3.173 -0.4813  0.0419  0.0543
 8937SOL     OW38269   3.228   3.714   9.017  0.5580 -0.6878 -0.3957
 8937SOL    HW138270   3.270   3.788   8.973 -0.4099 -0.3652 -0.7727
 8937SOL    HW238271   3.180   3.742   9.095  1.9400  3.4269 -1.0243
 8938SOL     OW38272   1.490   1.569  16.966 -0.2562  0.8389 -0.3244
 8938SOL    HW138273   1.576   1.565  16.922  0.4966  3.0920  0.9584
 8938SOL    HW238274   1.492   1.491  17.021  0.5378  0.3316 -1.0759
 8939SOL     OW38275   1.861   3.551   6.849  0.3746  0.2498  0.1564
 8939SOL    HW138276   1.777   3.556   6.895  0.9636 -0.1198  1.2732
 8939SOL    HW238277   1.892   3.642   6.848  0.8922  0.0662 -0.3954
 8940SOL     OW38278   3.148   0.470   5.742  0.3784 -0.1050  0.6351
 8940SOL    HW138279   3.066   0.518   5.730 -0.3326 -1.2044  1.0512
 8940SOL    HW238280   3.204   0.519   5.681 -0.1938  1.1797  1.1453
 8941SOL     OW38281   2.802   1.138  10.594 -0.0297 -0.2759 -0.0226
 8941SOL    HW138282   2.712   1.138  10.629 -0.4168  1.3125 -1.0207
 8941SOL    HW238283   2.789   1.121  10.501 -0.5707 -1.6567  0.3015
 8942SOL     OW38284   0.596   3.999   1.678 -0.4816 -0.2124 -0.4803
 8942SOL    HW138285   0.530   4.068   1.685 -0.5697 -0.3413 -0.0491
 8942SOL    HW238286   0.595   3.964   1.767 -1.3354  1.6711  0.2647
 8943SOL     OW38287   1.011   0.257  13.870 -0.0664 -0.4344 -0.1619
 8943SOL    HW138288   0.918   0.235  13.874 -0.1154  0.2909  2.5692
 8943SOL    HW238289   1.023   0.344  13.907  2.4250 -1.4578  1.4396
 8944SOL     OW38290   1.558   2.075  11.005 -0.3711  0.6799 -0.4485
 8944SOL    HW138291   1.515   2.101  10.924 -1.6974 -0.7976 -0.2044
 8944SOL    HW238292   1.528   2.142  11.067 -0.6170  0.1518  0.0011
 8945SOL     OW38293   0.088   3.135  10.052 -0.4363  0.2547  0.4678
 8945SOL    HW138294   0.179   3.150  10.079  0.1435 -3.5406  0.5187
 8945SOL    HW238295   0.077   3.042  10.069  2.1908 -0.2337 -0.4565
 8946SOL     OW38296   1.920   4.303   4.663  0.0368  0.0294  0.0309
 8946SOL    HW138297   1.993   4.357   4.632  0.5011 -0.6555 -0.0583
 8946SOL    HW238298   1.873   4.296   4.580  0.3774 -0.9070 -0.0788
 8947SOL     OW38299   0.911   4.718  17.565  0.2877 -0.0049 -0.5451
 8947SOL    HW138300   1.000   4.683  17.571 -0.1820 -0.7233  2.6181
 8947SOL    HW238301   0.930   0.055  17.494  0.0532  0.4082 -0.2577
 8948SOL     OW38302   0.997   1.714   8.877  0.1994 -0.0945 -0.4532
 8948SOL    HW138303   0.989   1.772   8.953  0.5369  0.8497 -1.1420
 8948SOL    HW238304   0.970   1.628   8.910  0.0849 -0.8359 -2.4769
 8949SOL     OW38305   0.384   0.046   6.291  0.1040 -0.2815 -0.3698
 8949SOL    HW138306   0.431   0.080   6.215 -2.0727  1.9969 -0.7061
 8949SOL    HW238307   0.402   0.104   6.365 -1.2752 -0.3064 -0.0093
 8950SOL     OW38308   3.091   0.256   3.235 -0.1015 -0.9162 -0.4095
 8950SOL    HW138309   3.099   0.193   3.307  0.3684 -1.3328 -0.8290
 8950SOL    HW238310   2.998   0.276   3.242  0.0476  0.2574 -1.6692
 8951SOL     OW38311   2.083   1.715   6.744 -0.2765  0.7503 -0.0077
 8951SOL    HW138312   2.063   1.730   6.652  3.5670 -1.1323 -1.1382
 8951SOL    HW238313   2.125   1.797   6.767  0.0277  0.4523  0.5142
 8952SOL     OW38314   2.598   3.249   0.719 -0.0401 -0.2470  0.0561
 8952SOL    HW138315   2.558   3.281   0.638 -0.1409 -0.4944  0.0078
 8952SOL    HW238316   2.601   3.154   0.709 -1.6613 -0.2919 -0.0860
 8953SOL     OW38317   3.939   3.809   7.932  0.2806  0.1052  0.3335
 8953SOL    HW138318   3.923   3.805   8.026 -0.3672 -3.2791  0.0855
 8953SOL    HW238319   4.009   3.744   7.922  1.7154  2.0192 -2.1621
 8954SOL     OW38320   2.268   2.793   6.983  0.2920  0.3770  0.2457
 8954SOL    HW138321   2.238   2.710   6.945 -1.8068 -0.2410  3.2903
 8954SOL    HW238322   2.287   2.758   7.070  0.0121 -2.6495 -0.9088
 8955SOL     OW38323   0.980   0.361   0.119 -0.2007 -0.2398  0.7305
 8955SOL    HW138324   1.006   0.300   0.188  0.0494  0.5119  1.3044
 8955SOL    HW238325   1.056   0.357   0.061 -0.7239  1.1941 -0.0593
 8956SOL     OW38326   1.108   1.157   3.393 -0.1183  0.1072  0.3853
 8956SOL    HW138327   1.077   1.217   3.325  0.4616 -1.9284 -1.6823
 8956SOL    HW238328   1.188   1.118   3.358 -0.6945  0.1452 -0.9802
 8957SOL     OW38329   3.698   3.570   3.006 -0.0946  0.3407 -0.3252
 8957SOL    HW138330   3.779   3.573   3.058 -0.2557 -0.2418 -0.0383
 8957SOL    HW238331   3.674   3.663   3.004 -3.0177 -0.3703  1.6280
 8958SOL     OW38332   2.751   4.514   6.922 -0.1577  0.5431  0.3269
 8958SOL    HW138333   2.717   4.495   7.010 -0.7739 -1.4639 -0.3580
 8958SOL    HW238334   2.823   4.451   6.927  0.2166  0.9950  0.6842
 8959SOL     OW38335   4.356   3.631   4.072 -0.1539 -0.2494 -0.1779
 8959SOL    HW138336   4.348   3.661   3.982  0.7101  1.0642  0.1715
 8959SOL    HW238337   4.387   3.705   4.125 -1.8875 -0.8723  1.7449
 8960SOL     OW38338   0.189   2.630  16.908  0.0395 -0.1881 -0.4177
 8960SOL    HW138339   0.152   2.657  16.824  0.3099 -0.4267 -0.6168
 8960SOL    HW238340   0.206   2.537  16.892  0.0326 -0.4022  0.8911
 8961SOL     OW38341   3.354   3.104   8.387 -0.0721  0.0364 -0.1557
 8961SOL    HW138342   3.375   3.194   8.409  0.0035  0.4487 -1.9357
 8961SOL    HW238343   3.278   3.123   8.332  0.1133  0.2953 -0.3180
 8962SOL     OW38344   3.950   3.786  13.015 -0.0380  0.1040 -0.6458
 8962SOL    HW138345   3.926   3.878  13.002  0.6277  0.3280 -0.2905
 8962SOL    HW238346   3.954   3.753  12.925 -3.6022  0.7739 -1.0285
 8963SOL     OW38347   0.339   2.207  11.771 -0.2276 -0.0508 -0.3631
 8963SOL    HW138348   0.426   2.168  11.770  0.7699  2.1335  0.0709
 8963SOL    HW238349   0.358   2.282  11.714  1.6664 -1.3636 -1.4266
 8964SOL     OW38350   0.261   2.531   3.777  0.0270 -0.0766  0.5640
 8964SOL    HW138351   0.297   2.541   3.689 -1.8084 -0.0714 -0.1817
 8964SOL    HW238352   0.234   2.439   3.775  0.3696 -0.1162 -1.5244
 8965SOL     OW38353   4.024   0.860   7.822 -0.4994 -0.1838 -0.4440
 8965SOL    HW138354   3.965   0.796   7.781 -0.8417 -0.4986  0.5292
 8965SOL    HW238355   3.995   0.942   7.783 -1.2407  0.3195  1.1970
 8966SOL     OW38356   3.960   1.034   4.920 -0.4511 -0.3659 -0.8828
 8966SOL    HW138357   3.918   0.950   4.905 -0.1791 -0.9968  1.9038
 8966SOL    HW238358   3.881   1.085   4.903 -0.3890 -0.3420 -1.1004
 8967SOL     OW38359   0.431   0.124  13.877  0.3259 -0.2440 -0.0831
 8967SOL    HW138360   0.368   0.094  13.811  1.0440 -2.2758  0.1522
 8967SOL    HW238361   0.452   0.039  13.917 -1.9442 -0.4042  0.8092
 8968SOL     OW38362   0.741   1.472   2.550  0.0700 -0.2309 -0.0908
 8968SOL    HW138363   0.769   1.381   2.564 -1.8110 -0.8669 -0.4301
 8968SOL    HW238364   0.827   1.508   2.529 -0.7257  0.5833 -1.9744
 8969SOL     OW38365   0.659   1.067   8.312 -0.3556  0.3628 -0.0246
 8969SOL    HW138366   0.639   1.100   8.225  1.3362  2.4691  0.3824
 8969SOL    HW238367   0.668   1.150   8.360 -1.1107  0.1566  0.4769
 8970SOL     OW38368   1.588   0.903   8.371 -0.5233  0.0551  0.1636
 8970SOL    HW138369   1.527   0.963   8.327  0.3290  1.0851  0.3947
 8970SOL    HW238370   1.586   0.818   8.327 -1.4415  0.0168  0.2719
 8971SOL     OW38371   2.420   3.519  12.298  0.5958  0.4097 -0.1363
 8971SOL    HW138372   2.333   3.479  12.307  0.4416  1.0378  1.0971
 8971SOL    HW238373   2.421   3.532  12.203 -0.1359 -0.1422 -0.2179
 8972SOL     OW38374   0.983   0.955  16.286 -0.5545  0.0844 -0.5254
 8972SOL    HW138375   0.901   0.976  16.332 -1.3590 -0.7665 -1.5747
 8972SOL    HW238376   1.039   0.927  16.359  0.4291  3.3987 -0.0377
 8973SOL     OW38377   2.722   0.990   7.295 -0.7614 -0.3556 -0.4991
 8973SOL    HW138378   2.633   0.998   7.258 -1.0177  0.3183  0.2732
 8973SOL    HW238379   2.766   0.948   7.221  1.3388  0.4823  0.2790
 8974SOL     OW38380   0.947   1.693   7.083 -0.4818 -0.1336 -0.1939
 8974SOL    HW138381   0.867   1.645   7.059 -0.0280 -0.7032 -0.5660
 8974SOL    HW238382   0.977   1.718   6.995  0.8748  1.2636  0.6645
 8975SOL     OW38383   0.196   4.628   1.021 -0.5225  0.9757 -0.0883
 8975SOL    HW138384   0.234   4.680   0.951  0.4335  5.7688  4.0078
 8975SOL    HW238385   0.102   4.630   1.004 -0.5326  4.3485  0.4957
 8976SOL     OW38386   2.063   3.435   6.131 -0.1900 -0.2635  0.2441
 8976SOL    HW138387   2.058   3.405   6.040 -1.8423 -3.1137  1.2729
 8976SOL    HW238388   2.005   3.372   6.175 -1.3871  0.1781 -0.6914
 8977SOL     OW38389   1.178   4.337   6.811  0.4644 -0.3735 -0.1263
 8977SOL    HW138390   1.157   4.318   6.903  0.2152 -0.5162 -0.2140
 8977SOL    HW238391   1.156   4.252   6.774 -1.6491 -1.3727  3.4295
 8978SOL     OW38392   3.816   0.948   6.033 -0.2773  0.2149  0.4173
 8978SOL    HW138393   3.841   0.858   6.014 -2.1758 -0.1032 -0.6021
 8978SOL    HW238394   3.752   0.953   5.962  0.1341 -0.6072  0.0094
 8979SOL     OW38395   0.699   4.304   0.703 -0.4330  0.0470 -0.6130
 8979SOL    HW138396   0.645   4.246   0.651 -0.1847  0.0372 -0.8606
 8979SOL    HW238397   0.636   4.312   0.774  0.3971 -0.3563  0.1810
 8980SOL     OW38398   3.969   3.870   6.517  0.1688 -0.4876 -0.3649
 8980SOL    HW138399   3.925   3.952   6.539 -1.0302 -0.7098 -1.8551
 8980SOL    HW238400   3.970   3.824   6.601 -3.7786  1.4318  0.7473
 8981SOL     OW38401   1.554   2.005   7.181 -0.1838  0.3932  0.3759
 8981SOL    HW138402   1.622   2.020   7.247  0.4677  1.5746 -0.5559
 8981SOL    HW238403   1.483   1.961   7.228 -0.0755  1.6968  1.7733
 8982SOL     OW38404   0.548   2.199   4.940  0.4644 -0.0908 -0.0107
 8982SOL    HW138405   0.454   2.188   4.929  0.3124  0.7393  0.4796
 8982SOL    HW238406   0.563   2.272   4.881 -0.4909 -1.4294 -1.8853
 8983SOL     OW38407   2.488   1.275   8.861 -0.3882  0.1179 -0.7579
 8983SOL    HW138408   2.534   1.251   8.942  0.2185  0.5687 -0.9708
 8983SOL    HW238409   2.557   1.299   8.799 -0.4302 -2.1424 -1.6722
 8984SOL     OW38410   1.606   2.267   8.448  0.7581  0.4696  0.5274
 8984SOL    HW138411   1.674   2.208   8.482  1.1260  0.7930  0.3516
 8984SOL    HW238412   1.522   2.237   8.482  0.5135  0.1680 -0.3324
 8985SOL     OW38413   1.467   3.811  16.957  0.3795  0.0888  0.4422
 8985SOL    HW138414   1.474   3.759  17.037  3.7100  1.3433  0.9669
 8985SOL    HW238415   1.395   3.865  16.990 -1.0407 -0.3206 -2.0222
 8986SOL     OW38416   4.631   3.607   2.015 -0.5100 -0.3203  0.0633
 8986SOL    HW138417   4.718   3.578   1.987 -0.1346  1.1692 -0.3081
 8986SOL    HW238418   4.628   3.687   1.963  3.3220  0.2607  0.7277
 8987SOL     OW38419   3.699   0.218  10.161  0.0493  0.3646  0.1719
 8987SOL    HW138420   3.725   0.228  10.253  2.0588 -2.3964 -0.1068
 8987SOL    HW238421   3.617   0.268  10.166 -0.6210 -0.6462 -0.6456
 8988SOL     OW38422   4.247   3.649   6.037  0.3438  0.3965  0.0834
 8988SOL    HW138423   4.330   3.643   6.084  0.7250  0.0481 -0.6260
 8988SOL    HW238424   4.253   3.728   5.982 -1.6048  1.9245  2.0675
 8989SOL     OW38425   3.809   3.823  16.370  0.3224  0.1139 -0.4492
 8989SOL    HW138426   3.851   3.907  16.352 -2.7489  1.2230 -2.4422
 8989SOL    HW238427   3.873   3.758  16.342 -0.1633 -0.9269  0.8938
 8990SOL     OW38428   1.561   4.092   1.485  0.1721  0.2947  0.0663
 8990SOL    HW138429   1.488   4.153   1.483 -0.1988 -0.1916 -1.0813
 8990SOL    HW238430   1.618   4.139   1.425  1.7582 -0.0787  1.2664
 8991SOL     OW38431   3.091   4.257  10.525  0.2501  0.0867 -0.3556
 8991SOL    HW138432   3.084   4.163  10.509  0.5866  0.3161 -1.8263
 8991SOL    HW238433   3.015   4.271  10.581  0.4339  1.1460 -0.3687
 8992SOL     OW38434   3.780   2.358   2.313 -0.2565  0.1758 -0.2035
 8992SOL    HW138435   3.694   2.397   2.332 -1.0198 -2.2234  1.2642
 8992SOL    HW238436   3.762   2.267   2.334 -0.6860  1.0776  3.2403
 8993SOL     OW38437   0.787   2.749   0.839  0.3902 -0.4961  0.5485
 8993SOL    HW138438   0.748   2.797   0.766  2.5793 -0.5169 -0.6613
 8993SOL    HW238439   0.858   2.708   0.789 -0.2382  0.4839 -1.1622
 8994SOL     OW38440   1.326   4.172  13.500 -0.0068 -0.2527 -0.0741
 8994SOL    HW138441   1.280   4.168  13.417 -0.3691 -1.9302  0.2013
 8994SOL    HW238442   1.254   4.176  13.562 -1.4520 -1.2916 -1.7029
 8995SOL     OW38443   1.348   1.806   0.241 -0.1202 -0.2923  0.0431
 8995SOL    HW138444   1.278   1.764   0.292  0.3171  1.1749  1.8651
 8995SOL    HW238445   1.417   1.808   0.307  0.7867  0.0948 -0.9220
 8996SOL     OW38446   2.698   2.959   3.427  0.8611 -0.0881  0.2093
 8996SOL    HW138447   2.730   2.918   3.347 -1.3069  0.6191 -1.0383
 8996SOL    HW238448   2.757   2.918   3.491 -0.9238 -1.0111  1.2899
 8997SOL     OW38449   0.092   3.543   0.253  0.4760 -0.1596  0.0430
 8997SOL    HW138450   0.015   3.600   0.254  0.2349 -0.4671 -1.9831
 8997SOL    HW238451   0.051   3.462   0.222 -1.4182  1.4382 -1.6283
 8998SOL     OW38452   1.896   1.966   3.013 -0.4334  0.3339 -0.3205
 8998SOL    HW138453   1.860   1.966   2.925 -1.1332 -2.2169 -0.0526
 8998SOL    HW238454   1.830   1.913   3.059  1.9275 -0.1507  2.5115
 8999SOL     OW38455   2.081   4.070   2.214 -0.0647 -0.2539 -0.7733
 8999SOL    HW138456   2.141   3.997   2.224  0.8870  0.2716 -2.7088
 8999SOL    HW238457   2.098   4.104   2.302  0.0678 -3.1953  0.3364
 9000SOL     OW38458   0.216   3.078   4.102  0.2321 -0.3707  0.5218
 9000SOL    HW138459   0.125   3.098   4.078  0.3573 -1.4491 -0.8857
 9000SOL    HW238460   0.223   3.015   4.030  0.9952 -2.1514  2.1828
 9001SOL     OW38461   3.583   1.109   8.080 -0.0088 -0.3342 -0.4187
 9001SOL    HW138462   3.583   1.077   8.171 -0.3439 -0.6939 -0.5459
 9001SOL    HW238463   3.591   1.201   8.106  2.4611 -0.3067 -1.2139
 9002SOL     OW38464   2.644   3.855   2.589  0.0515  0.6341 -0.5953
 9002SOL    HW138465   2.686   3.853   2.675 -1.3991 -1.0913  0.0834
 9002SOL    HW238466   2.561   3.897   2.612 -0.1933 -0.8643  1.2714
 9003SOL     OW38467   0.791   0.417   0.546  0.3153  0.5202  0.3255
 9003SOL    HW138468   0.864   0.475   0.565 -0.7502  0.9220  3.2194
 9003SOL    HW238469   0.726   0.466   0.596  0.5540 -0.8134  1.9356
 9004SOL     OW38470   3.535   2.532   2.508 -0.3078  0.6318  0.4282
 9004SOL    HW138471   3.573   2.488   2.585  3.4851  0.5499 -1.4887
 9004SOL    HW238472   3.610   2.579   2.472  0.0270 -0.4745 -0.2953
 9005SOL     OW38473   1.714   0.407  10.075  0.3710 -0.3957  0.2213
 9005SOL    HW138474   1.800   0.446  10.059 -0.7789  2.3189  0.7216
 9005SOL    HW238475   1.686   0.403   9.984 -1.1789 -3.1711  0.8203
 9006SOL     OW38476   2.694   2.071   1.650 -0.8189 -0.0891  0.0830
 9006SOL    HW138477   2.656   1.984   1.641 -0.1955 -0.3901  0.3493
 9006SOL    HW238478   2.778   2.054   1.608 -0.9536 -0.0526 -0.1976
 9007SOL     OW38479   0.753   3.362  10.271  0.5753 -0.2286  0.8585
 9007SOL    HW138480   0.663   3.372  10.304  0.0669 -1.6029 -0.1073
 9007SOL    HW238481   0.772   3.272  10.295  0.7460 -0.9360 -1.9341
 9008SOL     OW38482   2.150   4.496   3.163 -0.1026  0.0420 -0.3501
 9008SOL    HW138483   2.236   4.528   3.191 -0.4159  0.1631  0.4839
 9008SOL    HW238484   2.098   4.506   3.243 -0.2129 -0.7014 -0.3285
 9009SOL     OW38485   2.067   1.760   9.600 -0.3127  0.5452  0.4738
 9009SOL    HW138486   2.023   1.736   9.519  0.2309  1.9797 -0.2595
 9009SOL    HW238487   2.096   1.677   9.637  0.5614  0.2483 -0.8958
 9010SOL     OW38488   1.835   2.763  13.636  0.1128  0.3527  0.6944
 9010SOL    HW138489   1.869   2.846  13.602 -4.8928  2.0823 -0.1105
 9010SOL    HW238490   1.780   2.744  13.560  0.4822  0.1485  0.4771
 9011SOL     OW38491   1.393   1.812   9.498  0.1756 -0.9652  0.3818
 9011SOL    HW138492   1.402   1.773   9.585 -1.8278 -0.9497  0.5922
 9011SOL    HW238493   1.476   1.857   9.482 -0.8301  0.7554  0.0170
 9012SOL     OW38494   1.401   2.658  13.007 -0.0554 -0.2595 -0.4751
 9012SOL    HW138495   1.437   2.606  12.934  0.1755 -0.4276 -0.2417
 9012SOL    HW238496   1.442   2.618  13.084 -1.1245  3.4418  1.9910
 9013SOL     OW38497   1.074   0.190   1.683 -0.0015 -0.3746  0.1221
 9013SOL    HW138498   0.997   0.242   1.707  1.0915  2.0090 -1.5099
 9013SOL    HW238499   1.047   0.098   1.683 -1.7802  0.1482  1.0277
 9014SOL     OW38500   4.686   4.107   4.748  0.4643  0.4643 -0.3978
 9014SOL    HW138501   4.676   4.200   4.768  0.5255  0.3479  0.1661
 9014SOL    HW238502   0.007   4.125   4.665 -0.3699 -0.1875 -0.9868
 9015SOL     OW38503   3.209   3.353   2.242 -0.3560 -0.1804 -0.4891
 9015SOL    HW138504   3.165   3.353   2.327  2.2794 -2.2682  0.8540
 9015SOL    HW238505   3.201   3.445   2.218  0.2280 -0.8032 -3.0498
 9016SOL     OW38506   3.757   4.451   9.512 -0.1142  0.3715  0.9471
 9016SOL    HW138507   3.745   4.405   9.595  1.6354 -2.4421 -0.3357
 9016SOL    HW238508   3.688   4.517   9.513 -0.4102  0.0921 -0.4480
 9017SOL     OW38509   1.055   3.065   1.937  0.1585 -1.0764 -0.2826
 9017SOL    HW138510   1.111   3.064   1.860  0.2931  0.0810 -0.2047
 9017SOL    HW238511   0.968   3.092   1.906  0.7031  0.3041 -0.5916
 9018SOL     OW38512   0.711   0.021  17.036  0.1464  0.3176 -0.2276
 9018SOL    HW138513   0.629   4.712  16.999 -0.0994  0.4881  0.1624
 9018SOL    HW238514   0.782   4.686  17.009 -1.5829 -1.5306 -0.7190
 9019SOL     OW38515   4.454   0.425   7.592 -0.2084  0.0556 -0.1594
 9019SOL    HW138516   4.485   0.334   7.589  0.1223  0.2135 -1.4667
 9019SOL    HW238517   4.538   0.471   7.585  0.3078 -1.3907 -3.5366
 9020SOL     OW38518   0.620   3.357   7.367  0.9091  0.0749  0.8047
 9020SOL    HW138519   0.536   3.382   7.330  1.0110  1.6339  1.6035
 9020SOL    HW238520   0.645   3.439   7.411  4.0108 -0.2128 -0.3964
 9021SOL     OW38521   0.567   3.865   1.935 -0.2796  0.1904  0.4404
 9021SOL    HW138522   0.627   3.791   1.945  1.2779  1.2567 -1.1880
 9021SOL    HW238523   0.608   3.927   1.996  1.5800 -2.5198  1.9681
 9022SOL     OW38524   1.267   4.034  17.468 -0.7751  0.0068  0.3176
 9022SOL    HW138525   1.335   4.090  17.430 -1.0965 -0.6327 -1.1882
 9022SOL    HW238526   1.316   3.958  17.498  0.8948  1.3454  0.9849
 9023SOL     OW38527   3.222   3.490   0.834 -0.2563 -0.0118  0.7195
 9023SOL    HW138528   3.298   3.543   0.813 -0.0107 -0.4374  0.5396
 9023SOL    HW238529   3.181   3.475   0.749  1.2976 -0.2224  0.0113
 9024SOL     OW38530   4.498   2.654  10.198 -0.3611 -0.3720  0.2374
 9024SOL    HW138531   4.444   2.655  10.120 -1.9730 -1.7127  1.3370
 9024SOL    HW238532   4.573   2.616  10.153 -2.3306  1.0779 -4.2473
 9025SOL     OW38533   4.611   2.083   8.890 -0.1621 -0.0651 -0.3907
 9025SOL    HW138534   4.622   2.174   8.866 -0.0117  0.0709  0.2002
 9025SOL    HW238535   4.701   2.061   8.914 -0.0008 -0.2523 -1.1754
 9026SOL     OW38536   2.199   3.514  17.348 -0.5224  0.3113 -0.1444
 9026SOL    HW138537   2.232   3.576  17.412  0.6346 -0.5414  0.0889
 9026SOL    HW238538   2.169   3.444  17.406  0.8258  0.3418  0.5696
 9027SOL     OW38539   2.595   3.893   5.059 -0.7789 -0.1978 -0.1432
 9027SOL    HW138540   2.565   3.863   5.145 -1.3486 -0.8088 -0.5519
 9027SOL    HW238541   2.527   3.953   5.030  0.8195  1.8477  0.3758
 9028SOL     OW38542   0.448   1.088  14.058 -0.4201 -0.5052 -0.4618
 9028SOL    HW138543   0.361   1.105  14.023  0.6239  0.9745 -2.3571
 9028SOL    HW238544   0.434   1.022  14.125  4.0116 -0.9993 -0.0329
 9029SOL     OW38545   2.371   0.117  12.938 -0.1180 -0.0140  0.1201
 9029SOL    HW138546   2.434   0.107  12.867  0.3695 -0.6056  0.6492
 9029SOL    HW238547   2.376   0.212  12.951  0.5179 -0.3497  2.3545
 9030SOL     OW38548   4.228   0.208   0.920  0.0908 -0.1785 -0.4773
 9030SOL    HW138549   4.237   0.297   0.885 -0.6608  0.6008  1.2707
 9030SOL    HW238550   4.270   0.222   1.005  0.8933  0.8910 -1.0452
 9031SOL     OW38551   0.117   0.907   6.815 -0.0498 -0.3590 -0.2681
 9031SOL    HW138552   0.029   0.945   6.813 -0.3473 -1.0001  0.9743
 9031SOL    HW238553   0.119   0.861   6.898  1.3835  1.5578  0.7564
 9032SOL     OW38554   3.721   0.396   5.486 -0.1163 -0.2655  0.5739
 9032SOL    HW138555   3.708   0.467   5.424 -0.3935 -0.5605  0.2921
 9032SOL    HW238556   3.816   0.403   5.493 -0.0411 -0.4521 -0.2216
 9033SOL     OW38557   4.335   1.357   8.640 -0.1042 -0.9366 -0.3079
 9033SOL    HW138558   4.321   1.344   8.734  1.2123 -0.0126  0.0071
 9033SOL    HW238559   4.254   1.405   8.622  1.5826  1.8551 -0.3128
 9034SOL     OW38560   1.963   1.499   6.204  0.4671  0.0219  0.0150
 9034SOL    HW138561   1.986   1.584   6.242 -1.6029  0.8018 -0.4690
 9034SOL    HW238562   1.931   1.458   6.284 -2.0047 -0.5764 -1.2849
 9035SOL     OW38563   1.794   0.998   6.738 -0.3483 -0.0418  0.2386
 9035SOL    HW138564   1.787   1.033   6.827  2.8258 -0.2811  0.5628
 9035SOL    HW238565   1.755   1.069   6.686  1.8216  1.6510  0.9132
 9036SOL     OW38566   3.447   3.911   6.319 -0.9026 -0.0856  0.1580
 9036SOL    HW138567   3.483   3.847   6.381 -4.1237 -0.2519  1.8718
 9036SOL    HW238568   3.446   3.859   6.239 -0.9209  0.8504 -0.4505
 9037SOL     OW38569   2.997   3.053  11.291  0.2473  0.1487  0.3139
 9037SOL    HW138570   3.017   3.053  11.197  1.0931 -0.7517  0.4927
 9037SOL    HW238571   3.081   3.066  11.334  0.5493  0.4316 -0.3635
 9038SOL     OW38572   1.401   4.430  12.787  0.0063  0.0563  0.2328
 9038SOL    HW138573   1.372   4.521  12.795 -0.5856  0.0599 -1.9885
 9038SOL    HW238574   1.467   4.437  12.719  0.3121  1.5330  0.6887
 9039SOL     OW38575   2.663   1.637  15.367  0.1849  0.2415  0.6818
 9039SOL    HW138576   2.647   1.710  15.308  1.3045 -1.2012 -1.4108
 9039SOL    HW238577   2.758   1.632  15.371  0.2769  0.6040 -1.2370
 9040SOL     OW38578   2.897   3.140   4.600 -0.3352  0.1048 -0.4156
 9040SOL    HW138579   2.865   3.057   4.636  0.5721  0.2909  0.7963
 9040SOL    HW238580   2.990   3.142   4.622 -0.1653 -0.2390 -1.0941
 9041SOL     OW38581   4.481   3.449  16.279  0.1242  0.2059  0.7050
 9041SOL    HW138582   4.489   3.522  16.218  0.8726  0.1554  0.7485
 9041SOL    HW238583   4.464   3.488  16.365 -1.0250  1.6758 -0.1870
 9042SOL     OW38584   0.305   1.306  14.339  0.1294 -0.2156  0.1608
 9042SOL    HW138585   0.257   1.233  14.378  0.4263 -0.4806  0.0339
 9042SOL    HW238586   0.349   1.357  14.407  0.4480 -0.6940  0.3151
 9043SOL     OW38587   2.771   0.631  10.103 -0.0222  0.6994  0.0559
 9043SOL    HW138588   2.864   0.644  10.122  0.4176 -0.0585 -1.6175
 9043SOL    HW238589   2.729   0.688  10.168  2.5155  2.8284 -0.1416
 9044SOL     OW38590   1.035   1.796   2.368 -0.1854  0.6442  0.0464
 9044SOL    HW138591   0.989   1.713   2.354  1.3682 -0.3421  0.7570
 9044SOL    HW238592   0.963   1.856   2.387  0.6571  2.0381 -1.2109
 9045SOL     OW38593   2.689   1.786   5.537 -0.1957 -0.3390 -0.3490
 9045SOL    HW138594   2.599   1.779   5.569 -0.5055 -2.6774 -1.7808
 9045SOL    HW238595   2.722   1.702   5.570  1.6796  0.3334 -0.5372
 9046SOL     OW38596   2.765   0.226  17.099 -0.2739 -0.5518  0.0052
 9046SOL    HW138597   2.847   0.190  17.133  0.7633 -0.9903 -3.0296
 9046SOL    HW238598   2.737   0.286  17.168 -0.7852  0.6581 -1.2765
 9047SOL     OW38599   4.539   0.935   5.053  0.0589  0.0681 -0.2887
 9047SOL    HW138600   4.567   1.010   5.105 -0.5698 -0.8899  1.4754
 9047SOL    HW238601   4.450   0.920   5.085 -0.8683 -0.9058 -3.3242
 9048SOL     OW38602   4.519   2.808   7.631 -0.0443  0.2890 -0.5398
 9048SOL    HW138603   4.507   2.723   7.588 -0.5771 -0.1400  0.4372
 9048SOL    HW238604   4.427   2.831   7.643 -0.1729  0.6510 -2.2872
 9049SOL     OW38605   3.647   3.570   5.444  0.0586  0.4110  0.0634
 9049SOL    HW138606   3.598   3.492   5.416 -0.5804  1.3643 -1.4963
 9049SOL    HW238607   3.568   3.617   5.471 -0.7471 -0.6117 -0.4579
 9050SOL     OW38608   2.460   0.255   1.430  0.2594 -0.3092  0.6880
 9050SOL    HW138609   2.386   0.230   1.486 -1.9231 -1.4969 -2.7038
 9050SOL    HW238610   2.512   0.179   1.453  1.6477  0.7069  0.9110
 9051SOL     OW38611   4.204   1.536   1.101  0.1558 -0.0068  0.2233
 9051SOL    HW138612   4.158   1.542   1.184 -0.0957 -0.7143  0.1316
 9051SOL    HW238613   4.205   1.628   1.076 -1.8151 -0.8572 -3.0042
 9052SOL     OW38614   3.580   3.509   4.652 -0.0279 -0.5789 -0.1314
 9052SOL    HW138615   3.578   3.600   4.620  0.1064 -0.3889  0.4022
 9052SOL    HW238616   3.532   3.461   4.584  1.6851 -2.5101  0.0437
 9053SOL     OW38617   4.513   0.906   8.775 -0.4570 -0.5136  0.2080
 9053SOL    HW138618   4.479   0.915   8.864 -1.3556  0.0923 -0.1998
 9053SOL    HW238619   4.429   0.898   8.731 -1.9071 -1.1354  3.0654
 9054SOL     OW38620   2.631   3.546   6.163  0.3520  0.2984 -0.5678
 9054SOL    HW138621   2.669   3.475   6.111 -2.0917 -0.1004 -1.8164
 9054SOL    HW238622   2.708   3.603   6.155  1.7606 -1.4607  0.3605
 9055SOL     OW38623   2.875   3.679  15.036  0.0626  0.3945  0.1154
 9055SOL    HW138624   2.798   3.669  14.979 -0.5484  1.9931  0.6613
 9055SOL    HW238625   2.890   3.773  15.028 -0.0686  0.5920  2.2273
 9056SOL     OW38626   1.293   3.173  11.036 -0.0517 -0.1311 -0.2170
 9056SOL    HW138627   1.265   3.180  11.127  1.6436 -2.2481  0.4544
 9056SOL    HW238628   1.300   3.080  11.016 -0.2827  0.0001 -0.9120
 9057SOL     OW38629   1.987   2.259   2.230 -0.5990  0.6856 -0.3290
 9057SOL    HW138630   1.899   2.222   2.220 -0.9370  1.3418  0.2194
 9057SOL    HW238631   1.978   2.340   2.180  1.3736  1.9329  1.3491
 9058SOL     OW38632   1.336   4.408  14.543  0.1675  0.1751  0.0648
 9058SOL    HW138633   1.273   4.459  14.594  1.6927  1.0353  1.1105
 9058SOL    HW238634   1.287   4.375  14.468  2.3149 -2.3620 -0.2120
 9059SOL     OW38635   4.283   0.213   5.569 -0.4927  0.5692 -0.4049
 9059SOL    HW138636   4.367   0.248   5.541  0.8217 -1.3211  1.2177
 9059SOL    HW238637   4.292   0.232   5.663 -0.1610  0.0304 -0.3319
 9060SOL     OW38638   2.987   0.372   0.478 -0.1400 -0.3876 -0.3606
 9060SOL    HW138639   2.962   0.363   0.386 -0.8845 -2.0278 -0.0035
 9060SOL    HW238640   2.995   0.279   0.501 -1.1026 -0.6009 -0.8775
 9061SOL     OW38641   3.283   3.933   4.655 -0.3632 -0.6440  0.0031
 9061SOL    HW138642   3.228   3.976   4.720  1.9701 -0.1320  1.6223
 9061SOL    HW238643   3.367   3.974   4.676  0.7987 -2.7022 -0.6283
 9062SOL     OW38644   4.608   4.661  12.370 -0.3738  0.6987 -0.3638
 9062SOL    HW138645   4.652   4.576  12.374  1.0471  1.4543 -0.1097
 9062SOL    HW238646   4.629   4.686  12.460  0.6857 -2.8044  0.3599
 9063SOL     OW38647   2.744   0.031   8.385 -0.2583 -0.4839  0.0448
 9063SOL    HW138648   2.656   0.024   8.348  0.5761  1.0853 -2.2688
 9063SOL    HW238649   2.718   0.091   8.455  1.1011  1.8075 -1.4295
 9064SOL     OW38650   1.732   1.630   6.805  0.5328  0.0987  0.4380
 9064SOL    HW138651   1.731   1.544   6.845 -1.3645 -0.7526 -1.4503
 9064SOL    HW238652   1.650   1.646   6.759 -0.0039  1.3682  1.8484
 9065SOL     OW38653   0.020   4.501   1.625 -0.3736  0.1095 -0.6419
 9065SOL    HW138654   4.677   4.565   1.649 -1.2772 -0.9273 -0.3419
 9065SOL    HW238655   0.098   4.552   1.646 -0.7370  0.1826  0.5437
 9066SOL     OW38656   0.811   4.533   2.554  0.0740 -0.0384  0.4873
 9066SOL    HW138657   0.881   4.502   2.611  0.5171 -0.2162 -0.1488
 9066SOL    HW238658   0.736   4.478   2.577 -0.0204  0.0888  0.4809
 9067SOL     OW38659   0.317   3.419   7.411  0.2659 -0.1241  0.0161
 9067SOL    HW138660   0.297   3.426   7.505  0.9009  0.1475  0.1329
 9067SOL    HW238661   0.296   3.506   7.376 -0.8703  0.0401  1.1241
 9068SOL     OW38662   3.108   3.100   8.728 -0.0386 -0.0389 -0.2663
 9068SOL    HW138663   3.057   3.163   8.678  1.1966  1.2865  0.1239
 9068SOL    HW238664   3.038   3.041   8.755 -1.9861  1.0608 -2.8860
 9069SOL     OW38665   4.142   2.919   2.151  0.1155  0.6878 -0.4667
 9069SOL    HW138666   4.062   2.971   2.149 -0.0779  0.4925  2.5665
 9069SOL    HW238667   4.183   2.963   2.077 -0.2896 -0.1385 -1.1798
 9070SOL     OW38668   1.284   3.443  12.886  0.1852  0.0173 -0.0456
 9070SOL    HW138669   1.226   3.496  12.941 -0.4036 -1.9453  1.2225
 9070SOL    HW238670   1.353   3.436  12.951 -0.5647 -1.1291  0.6230
 9071SOL     OW38671   1.175   0.103  15.646  1.0311  0.5604 -0.0054
 9071SOL    HW138672   1.234   0.127  15.718  2.0245 -1.3565 -0.1965
 9071SOL    HW238673   1.191   0.009  15.650  2.9261  0.8685 -0.6696
 9072SOL     OW38674   2.494   1.391   5.169  0.8763 -0.0928  0.2755
 9072SOL    HW138675   2.576   1.431   5.198  1.4918 -0.3834 -1.0488
 9072SOL    HW238676   2.460   1.375   5.257  0.2151  1.2150  0.2623
 9073SOL     OW38677   0.266   1.582   6.129  0.0579  0.0049 -0.1820
 9073SOL    HW138678   0.315   1.525   6.187 -1.5750 -1.4602 -0.2491
 9073SOL    HW238679   0.185   1.535   6.111 -0.8564  1.8211 -0.8298
 9074SOL     OW38680   0.003   2.088   3.220 -0.0964  0.0310 -0.2005
 9074SOL    HW138681   4.652   2.113   3.274 -0.4932 -0.6241 -0.4529
 9074SOL    HW238682   4.698   2.005   3.184 -0.6360  0.0487  0.1929
 9075SOL     OW38683   0.008   0.023   5.870 -0.6066  0.2810  0.0356
 9075SOL    HW138684   4.705   4.722   5.782 -0.3513 -2.3578  0.6721
 9075SOL    HW238685   0.027   4.663   5.913 -0.5085  0.8408  1.0842
 9076SOL     OW38686   2.290   2.660   8.925 -0.1104  0.1727  0.1897
 9076SOL    HW138687   2.233   2.673   9.000  1.6110  0.6895  1.4017
 9076SOL    HW238688   2.254   2.574   8.902  2.7788  0.2792 -4.7668
 9077SOL     OW38689   1.933   4.695   1.895 -0.2524 -0.3162 -0.5428
 9077SOL    HW138690   1.854   4.644   1.876  1.0768 -2.4338 -0.3494
 9077SOL    HW238691   1.995   4.627   1.921 -1.4144 -1.3971 -0.6085
 9078SOL     OW38692   3.335   2.512   6.502 -0.3135  0.5131  0.3265
 9078SOL    HW138693   3.365   2.569   6.430  0.7832 -1.5843 -0.8625
 9078SOL    HW238694   3.420   2.500   6.543  0.0459 -0.4119 -0.6933
 9079SOL     OW38695   1.244   1.547   3.856 -0.5684 -0.2890  0.7490
 9079SOL    HW138696   1.279   1.609   3.792  2.2752 -0.8765  1.7172
 9079SOL    HW238697   1.157   1.520   3.826 -1.5699  3.6042  0.2180
 9080SOL     OW38698   3.243   0.689   2.619  0.0090  0.4190  0.0105
 9080SOL    HW138699   3.312   0.626   2.640  1.5152  2.3354  0.8159
 9080SOL    HW238700   3.281   0.715   2.536  0.9943 -0.4385  0.1839
 9081SOL     OW38701   4.227   3.715  14.314  0.0347  0.0989 -0.1075
 9081SOL    HW138702   4.158   3.769  14.276 -0.3319 -0.0410  0.3583
 9081SOL    HW238703   4.270   3.776  14.374  1.5369 -1.2558  0.1978
 9082SOL     OW38704   2.177   0.254   3.639 -0.1193 -0.2942 -0.1943
 9082SOL    HW138705   2.159   0.161   3.646 -0.9145  0.1025  2.9953
 9082SOL    HW238706   2.127   0.276   3.560  1.3206  0.0732 -1.0094
 9083SOL     OW38707   0.846   4.089  10.498 -0.3771 -0.0010  0.0424
 9083SOL    HW138708   0.866   4.172  10.542  1.0032 -0.6163  0.5662
 9083SOL    HW238709   0.751   4.098  10.494 -0.3469 -0.5838 -1.7794
 9084SOL     OW38710   2.042   1.128   7.600  0.2030 -0.0114 -0.3493
 9084SOL    HW138711   2.119   1.180   7.620  1.5688 -2.0989 -0.1438
 9084SOL    HW238712   2.071   1.041   7.573 -0.4856 -0.1616 -0.6194
 9085SOL     OW38713   0.456   4.485   4.956  0.5510  0.6261  0.0861
 9085SOL    HW138714   0.385   4.544   4.930  0.2074 -0.0601 -0.5106
 9085SOL    HW238715   0.406   4.406   4.975  1.8669 -0.1213  0.5020
 9086SOL     OW38716   3.338   1.211   4.936  0.4436  0.2978 -0.2145
 9086SOL    HW138717   3.408   1.276   4.924  0.7309 -0.0267 -0.2756
 9086SOL    HW238718   3.364   1.141   4.877  1.1063  1.4436 -1.2919
 9087SOL     OW38719   2.843   0.942   6.457 -0.2929 -0.0721 -0.1474
 9087SOL    HW138720   2.785   0.894   6.397 -2.7694  0.4067  1.8374
 9087SOL    HW238721   2.803   1.027   6.474 -1.6338 -0.7025 -0.1280
 9088SOL     OW38722   4.661   3.129   5.705 -0.3513  0.0948 -0.7378
 9088SOL    HW138723   0.014   3.138   5.650  0.7045 -1.0027  0.5698
 9088SOL    HW238724   4.649   3.224   5.706 -2.1931 -0.1447  0.4816
 9089SOL     OW38725   3.603   1.261  16.631 -0.7089  0.0058 -0.2022
 9089SOL    HW138726   3.579   1.337  16.683 -0.0654 -0.0403  0.1573
 9089SOL    HW238727   3.652   1.294  16.555  1.0769  1.6969  1.6890
 9090SOL     OW38728   2.834   0.220   5.929 -0.5637 -0.0034  0.3461
 9090SOL    HW138729   2.924   0.250   5.947 -0.4103  1.6371 -3.1629
 9090SOL    HW238730   2.843   0.192   5.838 -1.0626 -1.8063  0.8484
 9091SOL     OW38731   2.292   4.684   6.278  0.0684 -0.4012 -0.2775
 9091SOL    HW138732   2.208   4.645   6.253  0.0204 -0.7295  0.3943
 9091SOL    HW238733   2.343   4.642   6.208  1.0250  1.8405 -0.9467
 9092SOL     OW38734   0.354   3.529   1.983 -0.5357  0.1184 -0.2355
 9092SOL    HW138735   0.414   3.479   1.928  0.9392  0.8520  0.7101
 9092SOL    HW238736   0.409   3.534   2.061  0.0852 -1.6217 -0.5755
 9093SOL     OW38737   3.773   2.647  10.644  0.2166  0.1097 -0.0493
 9093SOL    HW138738   3.743   2.727  10.686  2.3253 -0.0075  1.7076
 9093SOL    HW238739   3.755   2.580  10.710 -1.1091 -0.1702 -0.6842
 9094SOL     OW38740   1.991   2.281   4.739  0.2249  0.4399  0.2383
 9094SOL    HW138741   1.940   2.258   4.817 -0.5403 -0.9752 -0.6773
 9094SOL    HW238742   2.059   2.215   4.746 -0.6874 -0.7472 -2.4009
 9095SOL     OW38743   4.132   2.398  10.557  0.3981  0.2997  0.4210
 9095SOL    HW138744   4.073   2.462  10.518  0.3812 -1.1563 -1.8925
 9095SOL    HW238745   4.071   2.325  10.558  1.1375 -0.3236  0.3106
 9096SOL     OW38746   2.982   4.389  15.770 -0.3327 -0.2055  0.1839
 9096SOL    HW138747   2.910   4.447  15.794 -0.7523 -0.5059 -0.3361
 9096SOL    HW238748   2.927   4.311  15.765 -0.1685 -0.2348 -1.0640
 9097SOL     OW38749   1.495   3.947  12.524 -0.2890  0.5568  0.5508
 9097SOL    HW138750   1.583   3.973  12.497  0.1197 -1.6373 -0.2258
 9097SOL    HW238751   1.507   3.928  12.617  1.7519  0.7766  0.3288
 9098SOL     OW38752   4.229   2.548  12.725 -0.4667 -0.3890  0.0894
 9098SOL    HW138753   4.159   2.523  12.663 -0.8959 -1.0862  0.8575
 9098SOL    HW238754   4.189   2.616  12.778 -2.0682 -1.0083 -0.2999
 9099SOL     OW38755   3.770   1.329  11.451  0.1936 -0.4685 -0.0261
 9099SOL    HW138756   3.795   1.312  11.542  0.3029 -1.6038 -0.2749
 9099SOL    HW238757   3.709   1.258  11.433 -1.1056  0.5799  0.2219
 9100SOL     OW38758   2.922   1.597   4.525 -0.0021  0.7639  0.4826
 9100SOL    HW138759   2.894   1.668   4.582 -0.5670  0.8073  0.1534
 9100SOL    HW238760   2.999   1.626   4.476  1.2987 -3.7278 -0.1714
 9101SOL     OW38761   1.335   0.246   7.642  0.0620  0.0761 -0.0329
 9101SOL    HW138762   1.400   0.252   7.712  0.6946  1.3810 -0.7311
 9101SOL    HW238763   1.331   0.153   7.619  2.3212  0.0382 -0.2555
 9102SOL     OW38764   0.830   0.406   9.555 -0.4326 -0.1894  0.4479
 9102SOL    HW138765   0.891   0.373   9.489  0.4015  1.1550  0.5421
 9102SOL    HW238766   0.799   0.322   9.589 -3.5998  1.2201  1.0238
 9103SOL     OW38767   3.190   2.491   6.216 -0.2362  0.1630  0.0377
 9103SOL    HW138768   3.238   2.418   6.177 -1.6747 -0.8252  0.1319
 9103SOL    HW238769   3.119   2.501   6.153 -1.1074 -1.3510  0.7858
 9104SOL     OW38770   3.927   1.001   0.448 -0.8857 -0.7069 -0.8890
 9104SOL    HW138771   3.853   0.966   0.497  1.3285 -1.0583  2.2036
 9104SOL    HW238772   3.991   0.988   0.518  0.2052  2.0847 -1.3648
 9105SOL     OW38773   1.758   0.101   2.383  0.2340  0.4663 -0.0542
 9105SOL    HW138774   1.850   0.077   2.385 -0.0558 -0.5322  1.0472
 9105SOL    HW238775   1.744   0.096   2.288  0.1429  0.5081 -0.0432
 9106SOL     OW38776   2.414   2.177   3.228  0.3724 -0.3803  0.3534
 9106SOL    HW138777   2.345   2.220   3.177  1.0146  0.8669  0.5352
 9106SOL    HW238778   2.493   2.194   3.176  0.0987 -2.6834 -0.8142
 9107SOL     OW38779   0.790   4.119   1.551 -0.1360  0.5541 -0.2273
 9107SOL    HW138780   0.727   4.058   1.590  1.8116 -0.4661  1.3663
 9107SOL    HW238781   0.850   4.062   1.503 -0.5583 -1.3676  1.5309
 9108SOL     OW38782   1.469   1.355  11.221 -0.2917 -0.0509 -0.6145
 9108SOL    HW138783   1.429   1.415  11.283 -0.7713 -0.6888 -0.2996
 9108SOL    HW238784   1.434   1.272  11.256  0.5391  0.0888  0.5244
 9109SOL     OW38785   1.721   4.188   9.076  0.4999  0.1828  0.6273
 9109SOL    HW138786   1.695   4.120   9.013 -1.3384  0.6353  0.8988
 9109SOL    HW238787   1.747   4.131   9.148 -2.9287 -1.3417  0.6652
 9110SOL     OW38788   1.236   1.482   9.811  0.2944 -0.2043  0.3418
 9110SOL    HW138789   1.201   1.571   9.818  0.9945  0.0935  0.0008
 9110SOL    HW238790   1.279   1.473   9.896  0.6861 -0.0397  0.1622
 9111SOL     OW38791   0.199   2.136   7.109  0.0781  0.2539 -0.2362
 9111SOL    HW138792   0.130   2.183   7.063  2.9405  2.3269 -2.4516
 9111SOL    HW238793   0.140   2.063   7.126 -1.5732  1.5688 -0.3355
 9112SOL     OW38794   2.334   1.635  16.010  0.2769  0.4729  0.4533
 9112SOL    HW138795   2.316   1.700  15.942 -2.5881 -1.0474 -0.2543
 9112SOL    HW238796   2.399   1.689  16.055  1.9031  1.0445 -2.5907
 9113SOL     OW38797   0.786   4.148   6.834  0.3091  0.1747 -0.1925
 9113SOL    HW138798   0.722   4.088   6.796  0.1905  0.7924 -0.9725
 9113SOL    HW238799   0.733   4.218   6.871 -0.2581  0.3978 -1.4476
 9114SOL     OW38800   4.399   1.180  13.229 -0.3588  0.2935  0.1489
 9114SOL    HW138801   4.326   1.178  13.167 -1.0796 -0.0203  1.0134
 9114SOL    HW238802   4.470   1.187  13.165 -0.9275  0.0250 -0.5076
 9115SOL     OW38803   2.589   0.654   1.961  0.2539  0.1674 -0.2101
 9115SOL    HW138804   2.674   0.651   1.917  0.3587  0.1626 -0.0017
 9115SOL    HW238805   2.539   0.616   1.888  0.5229  0.0485 -0.3307
 9116SOL     OW38806   2.562   1.467   6.258  0.3404 -0.9596 -0.1921
 9116SOL    HW138807   2.531   1.553   6.229 -3.6702 -2.6151 -0.8754
 9116SOL    HW238808   2.481   1.417   6.247 -0.8094  1.4682 -2.7555
 9117SOL     OW38809   0.329   3.912   5.515  0.2008  0.6457 -0.8077
 9117SOL    HW138810   0.410   3.904   5.465  0.4999  0.5896 -0.3121
 9117SOL    HW238811   0.266   3.951   5.454 -0.0663  1.7114  0.1450
 9118SOL     OW38812   3.590   4.692   9.514 -0.0662  0.0627 -0.0093
 9118SOL    HW138813   3.510   0.019   9.527 -1.0406 -1.1061 -1.5462
 9118SOL    HW238814   3.605   4.692   9.420 -0.5907 -0.6146 -0.0905
 9119SOL     OW38815   2.345   1.378   7.178 -0.4509  0.2806  0.3684
 9119SOL    HW138816   2.278   1.443   7.152 -0.7544  0.3846  1.4389
 9119SOL    HW238817   2.371   1.415   7.262  1.2575  0.1563 -0.1174
 9120SOL     OW38818   0.985   1.716   0.630 -0.0926  0.0374  0.1292
 9120SOL    HW138819   0.892   1.719   0.608 -0.5254 -2.3960  1.7037
 9120SOL    HW238820   0.999   1.654   0.702 -4.5107  0.2391  1.1123
 9121SOL     OW38821   3.344   1.203  10.258 -0.3730  0.4854 -0.6181
 9121SOL    HW138822   3.338   1.114  10.293  3.0501  0.3695 -0.2910
 9121SOL    HW238823   3.440   1.203  10.256 -0.3611 -0.3208 -0.0517
 9122SOL     OW38824   2.405   0.627   4.901  0.1534  0.5424  0.5343
 9122SOL    HW138825   2.447   0.594   4.822 -0.9447  2.8045 -1.0054
 9122SOL    HW238826   2.372   0.714   4.876  1.8302  0.8801 -0.5167
 9123SOL     OW38827   1.268   1.779  17.684 -0.6031 -0.2420  0.1545
 9123SOL    HW138828   1.181   1.777   0.025 -0.2962 -2.7411  0.7397
 9123SOL    HW238829   1.328   1.782   0.062 -2.4446 -1.7155  1.6828
 9124SOL     OW38830   2.822   4.173  15.794  0.1537  0.4998 -0.0067
 9124SOL    HW138831   2.809   4.084  15.762 -0.4280  1.3664 -2.1607
 9124SOL    HW238832   2.783   4.152  15.879 -0.2507  0.8728 -0.1027
 9125SOL     OW38833   3.853   3.464   4.941  0.1472  0.4138  0.0352
 9125SOL    HW138834   3.826   3.553   4.918 -0.4799  0.1143 -0.3893
 9125SOL    HW238835   3.931   3.449   4.887  1.0199 -0.4039  1.5355
 9126SOL     OW38836   0.745   1.393   6.316  0.0001  0.2496  0.0478
 9126SOL    HW138837   0.707   1.378   6.229 -2.2253 -1.6440  1.3612
 9126SOL    HW238838   0.833   1.417   6.287 -0.6062  0.4947 -1.5800
 9127SOL     OW38839   4.636   3.967  11.815 -0.1409 -0.0324 -0.2087
 9127SOL    HW138840   4.584   3.976  11.735 -1.1155  0.4472  0.4854
 9127SOL    HW238841   4.652   3.873  11.826  0.9964 -0.1039 -2.3863
 9128SOL     OW38842   4.524   0.188   8.282 -0.3102  0.0622 -0.2336
 9128SOL    HW138843   4.617   0.169   8.279 -0.0649  1.1497  0.5993
 9128SOL    HW238844   4.515   0.247   8.207 -3.3303  1.7562  1.4439
 9129SOL     OW38845   3.598   1.118   5.207  0.6557  0.0364 -0.0911
 9129SOL    HW138846   3.688   1.134   5.235  0.9828 -2.7330  0.3779
 9129SOL    HW238847   3.618   1.111   5.113 -0.7909  1.3437 -0.4913
 9130SOL     OW38848   0.865   3.095   2.886  0.4834 -0.0258 -0.3459
 9130SOL    HW138849   0.821   3.179   2.867 -1.7269 -1.3773 -1.2258
 9130SOL    HW238850   0.844   3.088   2.979  1.3784  0.2536 -0.1298
 9131SOL     OW38851   3.402   3.343   8.454 -0.4822  0.0355  0.3415
 9131SOL    HW138852   3.341   3.395   8.506 -0.3202  1.5643 -0.9920
 9131SOL    HW238853   3.449   3.415   8.411  0.1222  0.2441  1.3566
 9132SOL     OW38854   3.159   3.846   0.901  0.1553 -0.1069 -0.1515
 9132SOL    HW138855   3.069   3.816   0.894  0.0458  0.5782 -1.5290
 9132SOL    HW238856   3.177   3.812   0.989 -2.0128 -2.8485 -0.7914
 9133SOL     OW38857   4.006   1.269   2.609  0.0100  0.7959  0.1351
 9133SOL    HW138858   3.950   1.342   2.579 -0.5111  0.2285 -0.2720
 9133SOL    HW238859   3.963   1.192   2.572  2.1963 -1.2838  1.9487
 9134SOL     OW38860   1.548   0.939   9.924 -0.2661 -0.3168  0.1862
 9134SOL    HW138861   1.610   0.871   9.950 -1.5130 -1.6055 -0.2172
 9134SOL    HW238862   1.587   1.018   9.962  0.3805  0.2127 -1.5591
 9135SOL     OW38863   0.567   1.359   2.720  0.2581 -0.1565 -0.4470
 9135SOL    HW138864   0.510   1.424   2.760 -1.4107 -2.2485  0.5928
 9135SOL    HW238865   0.604   1.409   2.648 -0.5619 -2.0515 -2.1856
 9136SOL     OW38866   1.418   1.211   2.608 -0.7418  0.7900 -0.3181
 9136SOL    HW138867   1.357   1.282   2.629  0.7572  1.4624  1.7188
 9136SOL    HW238868   1.374   1.177   2.530 -0.0930 -1.3560  0.2445
 9137SOL     OW38869   0.914   3.633   3.715 -0.0488  0.4012  0.2442
 9137SOL    HW138870   1.005   3.604   3.715  0.1123  0.8834 -1.9638
 9137SOL    HW238871   0.921   3.710   3.658  0.0391 -0.0737 -0.3806
 9138SOL     OW38872   0.922   4.563   7.079  0.2737  0.0454  0.3595
 9138SOL    HW138873   0.926   4.480   7.032 -0.0465 -0.1817  0.7426
 9138SOL    HW238874   0.895   4.624   7.010 -1.0159 -1.3235 -0.3488
 9139SOL     OW38875   0.470   4.402   6.620 -0.0818  0.2760  0.4048
 9139SOL    HW138876   0.533   4.330   6.615  3.4806  3.2852  1.1482
 9139SOL    HW238877   0.472   4.417   6.525 -0.2246 -3.0286 -0.1227
 9140SOL     OW38878   0.204   0.585   8.449 -0.2678 -0.4468  0.0763
 9140SOL    HW138879   0.199   0.667   8.498  1.7479  0.5196 -1.3371
 9140SOL    HW238880   0.233   0.619   8.364 -1.9756  2.9045  0.8430
 9141SOL     OW38881   0.590   3.521  17.631  0.3295 -0.0330  0.3856
 9141SOL    HW138882   0.570   3.601  17.680  1.1468 -0.4016  1.3420
 9141SOL    HW238883   0.507   3.475  17.632 -0.2863  1.1005  1.4553
 9142SOL     OW38884   2.420   3.723   3.490  0.6783  0.0377 -0.6079
 9142SOL    HW138885   2.385   3.637   3.466 -0.6542  0.6645 -0.9194
 9142SOL    HW238886   2.512   3.714   3.463  0.9379  3.9115 -0.9236
 9143SOL     OW38887   2.782   2.344   8.272 -0.1567  0.0033 -0.0049
 9143SOL    HW138888   2.707   2.352   8.213  0.7952 -0.5464 -1.2985
 9143SOL    HW238889   2.733   2.316   8.349  0.7777 -0.5714  0.3723
 9144SOL     OW38890   4.686   0.429  10.162 -0.0326  0.0513  0.3373
 9144SOL    HW138891   4.656   0.488  10.093 -0.4292 -0.2419  0.2579
 9144SOL    HW238892   0.055   0.450  10.163 -0.5747  2.3844  1.9386
 9145SOL     OW38893   1.425   1.900   8.639 -0.1616 -0.1648 -0.7900
 9145SOL    HW138894   1.390   1.931   8.722  0.5567 -1.1138 -0.1356
 9145SOL    HW238895   1.346   1.889   8.586 -1.1148 -3.0474  1.2185
 9146SOL     OW38896   2.169   1.861   3.028 -0.1388  0.3964  0.1344
 9146SOL    HW138897   2.180   1.904   3.113 -0.3125  0.8507 -0.0760
 9146SOL    HW238898   2.094   1.911   2.999 -0.7752  0.1255  1.3039
 9147SOL     OW38899   0.869   1.668   1.506  0.1416 -0.3917  0.3108
 9147SOL    HW138900   0.794   1.657   1.564 -0.8437 -0.7690 -1.0210
 9147SOL    HW238901   0.906   1.580   1.493 -0.2196 -0.7787  1.9150
 9148SOL     OW38902   4.690   1.711   5.898 -0.1963  0.3964  0.7509
 9148SOL    HW138903   0.011   1.699   5.982  1.6066  1.1646 -0.0955
 9148SOL    HW238904   0.014   1.652   5.840  0.6873 -0.3152  2.1872
 9149SOL     OW38905   3.873   0.675   9.005 -0.6744  0.1638  0.2210
 9149SOL    HW138906   3.855   0.631   9.088 -2.6640 -0.2857 -0.4667
 9149SOL    HW238907   3.854   0.768   9.022  1.2399  0.5642  0.2387
 9150SOL     OW38908   0.965   3.598   4.878  0.5432  0.2679 -0.1724
 9150SOL    HW138909   0.922   3.586   4.793  1.0547 -1.3620 -0.2005
 9150SOL    HW238910   0.886   3.616   4.929  0.7207  2.4836 -0.7046
 9151SOL     OW38911   3.360   2.965  11.413 -0.2244  0.4650  0.2637
 9151SOL    HW138912   3.410   2.978  11.332 -1.5262  0.2468 -0.5821
 9151SOL    HW238913   3.306   3.044  11.416 -1.2262 -0.1782 -0.5625
 9152SOL     OW38914   0.706   4.583   3.058  0.2352 -0.0628  0.4857
 9152SOL    HW138915   0.749   4.523   3.119  1.2121 -1.1361 -1.2615
 9152SOL    HW238916   0.671   4.519   2.996  1.6539  0.0100 -0.3971
 9153SOL     OW38917   0.764   1.622  13.826  0.1012  0.4990  0.0676
 9153SOL    HW138918   0.833   1.662  13.879  2.8708 -2.1516 -1.5349
 9153SOL    HW238919   0.813   1.644  13.747  0.6750  0.0536  0.2961
 9154SOL     OW38920   3.323   0.908   3.163 -0.3228  0.1330 -0.0059
 9154SOL    HW138921   3.301   0.846   3.094 -0.1279  0.7487 -0.6227
 9154SOL    HW238922   3.370   0.974   3.112  0.6206 -1.0931 -0.7440
 9155SOL     OW38923   0.873   1.697   9.316 -0.0569  0.1942  0.5429
 9155SOL    HW138924   0.809   1.642   9.271 -0.5056  1.3458 -0.2264
 9155SOL    HW238925   0.902   1.632   9.379 -1.7957 -3.2383 -2.1926
 9156SOL     OW38926   1.262   3.341   3.336 -0.3832 -0.1678  0.1346
 9156SOL    HW138927   1.261   3.431   3.305 -0.7768  0.0887  0.8800
 9156SOL    HW238928   1.230   3.353   3.426  2.3912 -0.1620  1.1286
 9157SOL     OW38929   3.526   2.856  14.668  0.1889 -0.9097  0.7810
 9157SOL    HW138930   3.451   2.901  14.707  0.7998 -1.1101  2.1895
 9157SOL    HW238931   3.572   2.834  14.749  1.4667  1.5595  0.7321
 9158SOL     OW38932   2.653   4.704   2.557 -0.2472 -0.8841  0.3169
 9158SOL    HW138933   2.618   0.038   2.625  0.1476 -1.3713  0.9374
 9158SOL    HW238934   2.581   4.672   2.504 -0.5258  0.1769  0.0688
 9159SOL     OW38935   1.220   0.442   7.483  0.2390 -0.1091 -0.0332
 9159SOL    HW138936   1.248   0.364   7.531 -3.1095 -0.7089  0.9318
 9159SOL    HW238937   1.232   0.507   7.553 -1.6401 -0.6496  0.7728
 9160SOL     OW38938   3.372   1.770  15.269  0.3357 -0.6029 -0.6039
 9160SOL    HW138939   3.455   1.735  15.301 -0.7595 -0.8093  2.0303
 9160SOL    HW238940   3.393   1.863  15.257  2.8862 -1.0645  0.3883
 9161SOL     OW38941   4.149   0.152   9.998 -0.2622 -0.2705  0.4772
 9161SOL    HW138942   4.227   0.150  10.053  0.7943  2.9395 -0.8980
 9161SOL    HW238943   4.084   0.113  10.056  1.1782 -2.0310  0.8734
 9162SOL     OW38944   4.306   2.672   2.054  0.4740 -0.1905  0.2986
 9162SOL    HW138945   4.239   2.725   2.010 -0.2288 -0.8605  0.5754
 9162SOL    HW238946   4.361   2.732   2.104  1.1384 -0.3001 -0.2954
 9163SOL     OW38947   2.800   1.776   5.313 -0.2960 -0.0093 -0.1107
 9163SOL    HW138948   2.850   1.857   5.298  2.0767 -1.2323  1.2030
 9163SOL    HW238949   2.764   1.786   5.401 -1.4788 -0.4782 -0.5413
 9164SOL     OW38950   0.313   2.932   5.328 -0.0049 -0.2108  0.4108
 9164SOL    HW138951   0.289   2.871   5.259 -1.1925 -1.5878  2.0549
 9164SOL    HW238952   0.305   2.887   5.412 -3.0186 -2.9487 -1.3223
 9165SOL     OW38953   4.101   2.081   6.396  0.1073  0.1706 -0.4794
 9165SOL    HW138954   4.097   2.000   6.447 -0.3118  2.3421  2.9681
 9165SOL    HW238955   4.080   2.045   6.310 -0.1887  0.9408 -0.7285
 9166SOL     OW38956   1.496   4.576   3.058 -0.0285 -0.2837  0.0562
 9166SOL    HW138957   1.539   4.544   3.137 -0.1975 -0.3094  0.1379
 9166SOL    HW238958   1.426   4.635   3.087  1.2072  1.1931  0.0521
 9167SOL     OW38959   0.125   2.677  12.344 -0.1889  0.3371 -0.3060
 9167SOL    HW138960   0.131   2.582  12.336 -0.9305  0.4387 -2.1445
 9167SOL    HW238961   0.059   2.695  12.411 -0.3929  1.3706 -0.7881
 9168SOL     OW38962   1.755   4.301  12.472  0.3797  0.2525  0.4180
 9168SOL    HW138963   1.738   4.210  12.496 -2.5735  1.1059  1.5836
 9168SOL    HW238964   1.849   4.300  12.489  0.3405  1.0296  0.6808
 9169SOL     OW38965   3.848   4.661   7.590 -0.1226  0.5515 -0.3650
 9169SOL    HW138966   3.815   4.713   7.663  0.5059 -0.8511  0.9377
 9169SOL    HW238967   3.833   4.568   7.605 -0.5535  0.9208  1.4624
 9170SOL     OW38968   2.785   0.014   2.149  0.2248  0.4302  0.1320
 9170SOL    HW138969   2.699   4.721   2.188  0.4647 -0.5742  0.2182
 9170SOL    HW238970   2.771   0.014   2.055  0.6605 -3.1328  0.0756
 9171SOL     OW38971   0.080   1.227   5.757 -0.2220 -0.6360  0.3012
 9171SOL    HW138972   0.127   1.195   5.679  1.3143 -0.4413  1.1566
 9171SOL    HW238973   0.130   1.173   5.818 -1.5559  0.0068  1.9623
 9172SOL     OW38974   0.191   4.430   1.903 -0.6088 -0.1687 -0.6205
 9172SOL    HW138975   0.265   4.400   1.851  0.0517  0.5905 -0.1192
 9172SOL    HW238976   0.209   4.524   1.901  1.7702 -0.6047  0.3091
 9173SOL     OW38977   0.722   1.896   1.337 -0.3261 -0.0856 -0.6253
 9173SOL    HW138978   0.751   1.965   1.396 -1.7797 -0.9825  1.1651
 9173SOL    HW238979   0.789   1.828   1.327  0.4260  0.4320  0.9397
 9174SOL     OW38980   2.944   2.017   5.295 -1.0393 -0.6009 -0.1861
 9174SOL    HW138981   2.873   2.081   5.306 -0.8910 -0.5345  0.4158
 9174SOL    HW238982   3.014   2.082   5.306  0.0566 -2.0685  1.6892
 9175SOL     OW38983   1.206   1.228   7.248 -0.1478  0.1165  0.3975
 9175SOL    HW138984   1.169   1.172   7.316  0.8959  0.6154  1.3774
 9175SOL    HW238985   1.278   1.176   7.212 -1.3468 -0.9177 -0.4728
 9176SOL     OW38986   3.023   0.050   2.333 -0.0343 -0.0472  0.1039
 9176SOL    HW138987   2.971   0.091   2.402 -0.3155 -1.2069  0.5887
 9176SOL    HW238988   2.949   0.027   2.276 -1.4135 -1.8239  2.5852
 9177SOL     OW38989   0.436   3.090  16.613 -0.2455 -0.2381  0.2334
 9177SOL    HW138990   0.443   2.995  16.600 -0.2757 -0.1305 -0.5204
 9177SOL    HW238991   0.346   3.104  16.643 -0.1631  0.8481 -0.0268
 9178SOL     OW38992   1.251   0.771  16.990  0.4134 -0.2144 -0.6718
 9178SOL    HW138993   1.256   0.692  16.937 -0.9618 -0.4957 -0.3782
 9178SOL    HW238994   1.279   0.740  17.076  2.8178  0.2817 -1.2879
 9179SOL     OW38995   2.231   4.469   9.604  0.1886  0.7918  0.0470
 9179SOL    HW138996   2.138   4.475   9.582  0.8507  1.1494 -2.6117
 9179SOL    HW238997   2.252   4.557   9.635 -0.0055  0.3686  1.3956
 9180SOL     OW38998   3.136   3.499   4.149 -0.0923  0.4106 -0.2870
 9180SOL    HW138999   3.146   3.444   4.226 -1.1332 -0.1724 -0.5787
 9180SOL    HW239000   3.046   3.480   4.123 -0.5165  0.5633  1.1163
 9181SOL     OW39001   0.149   3.167   6.208  0.1081  0.1261  0.6708
 9181SOL    HW139002   0.113   3.173   6.120 -1.0215  0.0795  1.1322
 9181SOL    HW239003   0.231   3.125   6.180  0.2455  1.5027 -0.9836
 9182SOL     OW39004   4.060   4.027  16.464 -0.0357 -0.0056  0.5640
 9182SOL    HW139005   4.009   4.108  16.464  0.9454  0.6208  0.5140
 9182SOL    HW239006   4.116   4.045  16.389 -1.4755 -2.4850 -1.1053
 9183SOL     OW39007   3.071   0.677   6.157 -0.2498  0.5115  0.0537
 9183SOL    HW139008   2.999   0.735   6.182  0.2454  1.1086  0.0942
 9183SOL    HW239009   3.067   0.618   6.233 -0.5566 -0.4744 -0.7331
 9184SOL     OW39010   1.181   2.100   6.321  0.1826 -0.0251 -0.3944
 9184SOL    HW139011   1.173   2.036   6.393 -2.2326 -1.2568 -1.7696
 9184SOL    HW239012   1.277   2.102   6.321  0.1830  0.2755  1.5406
 9185SOL     OW39013   3.894   3.161  15.998  0.3038 -0.4514  0.2213
 9185SOL    HW139014   3.863   3.229  15.938  0.1030  1.4073  2.4330
 9185SOL    HW239015   3.824   3.153  16.063  0.9324  1.2209  1.0938
 9186SOL     OW39016   2.411   1.570  13.429  0.6797 -0.4301 -0.2776
 9186SOL    HW139017   2.383   1.650  13.384  0.5109 -1.2288 -1.5793
 9186SOL    HW239018   2.412   1.608  13.517  0.8043 -0.6796 -0.1735
 9187SOL     OW39019   0.163   3.979  10.382  0.4216  0.0147  0.4007
 9187SOL    HW139020   0.091   3.972  10.444  0.7065 -0.9481  0.6111
 9187SOL    HW239021   0.205   3.894  10.392 -0.4820 -0.5922 -0.9711
 9188SOL     OW39022   2.533   3.217   9.951  0.9841  0.0422 -0.2760
 9188SOL    HW139023   2.622   3.240   9.978  0.8783  0.2749 -0.1193
 9188SOL    HW239024   2.527   3.277   9.876 -0.0704 -0.2870 -0.4489
 9189SOL     OW39025   0.597   0.709   7.199 -0.0176  0.0370 -0.5612
 9189SOL    HW139026   0.628   0.780   7.256  0.8573 -0.9722  0.2280
 9189SOL    HW239027   0.542   0.659   7.260 -1.9592  0.8883 -1.6082
 9190SOL     OW39028   4.678   3.090   2.245  0.7515  1.1466 -0.1970
 9190SOL    HW139029   4.593   3.121   2.214 -1.0376 -1.2728  2.2202
 9190SOL    HW239030   0.015   3.132   2.184  0.8286 -1.6103 -1.9745
 9191SOL     OW39031   4.240   3.882   5.254  0.1429  0.3720 -0.3000
 9191SOL    HW139032   4.178   3.941   5.211 -0.4125  0.8211  1.1265
 9191SOL    HW239033   4.268   3.827   5.180 -0.9919 -0.0019 -0.4433
 9192SOL     OW39034   1.140   3.858   1.122 -0.2414 -0.0319  0.5781
 9192SOL    HW139035   1.090   3.875   1.042  0.0524  1.3384  0.6916
 9192SOL    HW239036   1.084   3.901   1.186 -2.1221 -1.1630 -0.3134
 9193SOL     OW39037   1.178   3.397   3.586  0.3392 -0.1807 -0.1124
 9193SOL    HW139038   1.181   3.487   3.619 -3.2611 -0.7914  1.9682
 9193SOL    HW239039   1.084   3.391   3.569  0.6747 -0.5569 -1.8518
 9194SOL     OW39040   1.635   3.302  12.893  0.0918  0.3246 -0.0539
 9194SOL    HW139041   1.643   3.373  12.957 -0.0400  2.0572 -1.9580
 9194SOL    HW239042   1.722   3.264  12.904 -0.7118 -1.1839  1.1757
 9195SOL     OW39043   1.145   3.770   1.450 -0.1646 -0.1773 -0.5319
 9195SOL    HW139044   1.124   3.728   1.366 -1.5180  0.5114 -0.5289
 9195SOL    HW239045   1.234   3.804   1.436  0.0946  0.1358  1.9559
 9196SOL     OW39046   2.047   1.235   4.691  0.0956  0.1833  0.6272
 9196SOL    HW139047   2.040   1.175   4.617  0.4475 -0.4114  1.0796
 9196SOL    HW239048   1.968   1.224   4.743 -0.0449  1.0209  0.5963
 9197SOL     OW39049   2.723   3.102  11.403 -0.2466  0.6706  0.1085
 9197SOL    HW139050   2.707   3.018  11.446  0.5979  1.0434  1.1609
 9197SOL    HW239051   2.807   3.086  11.360  1.4424  0.4077  3.5023
 9198SOL     OW39052   2.975   3.495   7.777 -0.0647  0.2149  0.5561
 9198SOL    HW139053   2.923   3.575   7.765  2.9290  2.1281  0.5141
 9198SOL    HW239054   2.906   3.441   7.817 -0.5784 -0.2091 -0.8948
 9199SOL     OW39055   3.436   0.968   9.845  0.3620 -0.0295 -0.2696
 9199SOL    HW139056   3.347   0.932   9.835  1.1651 -2.1439  0.2703
 9199SOL    HW239057   3.483   0.897   9.888 -0.6612 -0.7937 -0.3968
 9200SOL     OW39058   3.827   0.168   2.195 -0.2271 -0.0112 -0.0713
 9200SOL    HW139059   3.801   0.158   2.287  2.2427  0.2191  0.6445
 9200SOL    HW239060   3.770   0.104   2.153 -1.5841  1.1688 -0.0115
 9201SOL     OW39061   0.608   3.937   7.593  0.6773 -0.2615  0.1326
 9201SOL    HW139062   0.560   3.856   7.613  0.4771 -0.7366 -2.2150
 9201SOL    HW239063   0.541   4.004   7.605 -0.6573 -1.7683  1.1160
 9202SOL     OW39064   0.659   1.971   4.826  0.2671 -0.1452  0.1620
 9202SOL    HW139065   0.754   1.981   4.840  0.2203 -0.3842  0.6491
 9202SOL    HW239066   0.635   2.054   4.867  1.2701 -0.9382  2.3367
 9203SOL     OW39067   2.851   3.179   4.268  0.2837 -0.1921  0.3296
 9203SOL    HW139068   2.914   3.111   4.243 -1.1422 -1.4020  0.0099
 9203SOL    HW239069   2.832   3.154   4.358  0.5458 -0.6577  0.2540
 9204SOL     OW39070   2.607   0.269  14.222  0.2941  0.1048  1.0393
 9204SOL    HW139071   2.528   0.279  14.169  0.3442  1.8176  1.2699
 9204SOL    HW239072   2.657   0.351  14.217 -0.6807  0.6141 -0.4796
 9205SOL     OW39073   3.944   4.003   3.948  0.4027 -0.1630  0.3942
 9205SOL    HW139074   4.019   4.054   3.981 -0.3413  1.0461  0.1986
 9205SOL    HW239075   3.929   3.948   4.025  0.9989  0.4429  0.9458
 9206SOL     OW39076   1.242   0.615   6.530  0.2733 -0.1782  0.6179
 9206SOL    HW139077   1.305   0.686   6.530 -0.3079  0.3376  1.6355
 9206SOL    HW239078   1.165   0.663   6.501  0.7440 -1.0942 -2.1786
 9207SOL     OW39079   2.248   3.680  17.549  0.4193  0.4405 -0.4679
 9207SOL    HW139080   2.326   3.736  17.550 -0.4365  1.6377  0.2396
 9207SOL    HW239081   2.225   3.687  17.642 -0.4267  1.9419 -0.7793
 9208SOL     OW39082   1.408   2.018   4.335  0.3451 -0.3135  0.4628
 9208SOL    HW139083   1.376   2.053   4.252  0.0138 -0.7046  0.4224
 9208SOL    HW239084   1.460   2.091   4.369  0.9988 -1.1974  1.3840
 9209SOL     OW39085   1.214   0.539   9.409 -0.1446 -0.3009  0.5036
 9209SOL    HW139086   1.228   0.476   9.338  2.4074 -1.1301  1.7308
 9209SOL    HW239087   1.299   0.532   9.454 -0.0302  1.4799  0.5982
 9210SOL     OW39088   3.557   1.132   3.628 -0.0306  0.3417 -0.2194
 9210SOL    HW139089   3.503   1.060   3.661  1.2751 -0.2856  0.5800
 9210SOL    HW239090   3.644   1.099   3.652 -0.6317 -0.4431  0.8926
 9211SOL     OW39091   0.135   2.595  15.972 -0.0192  0.4728  0.4215
 9211SOL    HW139092   0.161   2.529  15.907  2.2656  1.8534 -0.0731
 9211SOL    HW239093   0.055   2.554  16.005  0.1074  0.1032  0.2775
 9212SOL     OW39094   4.632   0.019  17.519  0.1349  0.0716  1.0497
 9212SOL    HW139095   4.690   0.094  17.509 -1.1891  0.9468 -0.1122
 9212SOL    HW239096   4.585   0.031  17.602 -1.3502  0.8022  0.0930
 9213SOL     OW39097   2.731   2.146   7.342  0.0660  0.0882 -1.1537
 9213SOL    HW139098   2.688   2.231   7.350  2.5740  1.2063  0.5968
 9213SOL    HW239099   2.825   2.165   7.349 -0.0519  1.2281 -2.7071
 9214SOL     OW39100   3.125   2.862   6.943  0.2103  0.4458  0.3303
 9214SOL    HW139101   3.133   2.912   7.024  2.5631 -1.2255  1.1396
 9214SOL    HW239102   3.209   2.876   6.898 -0.1474 -0.8454 -0.7376
 9215SOL     OW39103   0.723   0.036   2.722  0.2273  0.8317  0.3734
 9215SOL    HW139104   0.791   0.016   2.657 -0.3227  2.3121 -0.6758
 9215SOL    HW239105   0.720   0.130   2.703  2.9053  1.0878  1.2356
 9216SOL     OW39106   4.525   2.269   9.568  0.1168  0.1202 -0.3077
 9216SOL    HW139107   4.510   2.288   9.661 -0.0806 -1.1908 -0.0681
 9216SOL    HW239108   4.482   2.184   9.569  0.2717  0.0487  0.6628
 9217SOL     OW39109   1.665   3.248   8.476  0.8045  0.4529  0.4535
 9217SOL    HW139110   1.659   3.302   8.397 -1.2746  0.8849  0.9011
 9217SOL    HW239111   1.624   3.309   8.537  3.4350  2.4074  0.2689
 9218SOL     OW39112   0.916   3.852  15.253 -0.0301  0.6021  0.1550
 9218SOL    HW139113   0.978   3.874  15.184 -0.6122  1.3247 -0.1425
 9218SOL    HW239114   0.963   3.783  15.299  1.4254  0.4429 -1.5538
 9219SOL     OW39115   2.778   4.703   9.627 -0.1640 -0.7244  0.2702
 9219SOL    HW139116   2.722   4.719   9.551  0.6237  2.4053  0.3509
 9219SOL    HW239117   2.724   4.645   9.680  0.6661 -0.3354  1.5232
 9220SOL     OW39118   0.455   3.413  11.424  0.1263  0.5197 -0.1493
 9220SOL    HW139119   0.514   3.341  11.448  1.9066  2.4204  1.1583
 9220SOL    HW239120   0.446   3.459  11.507  1.7101  2.4938 -1.0801
 9221SOL     OW39121   4.536   2.824   2.129 -0.2481  1.0524  0.4979
 9221SOL    HW139122   4.541   2.898   2.068  1.1169  0.4189 -0.1733
 9221SOL    HW239123   4.595   2.760   2.087  0.6192  1.2426  1.4332
 9222SOL     OW39124   1.683   0.851   9.464 -0.2714 -0.3556 -0.0614
 9222SOL    HW139125   1.712   0.903   9.539 -1.2337  0.0684  0.0187
 9222SOL    HW239126   1.685   0.918   9.396  0.0522  0.2504  0.5472
 9223SOL     OW39127   1.266   3.638   2.693 -0.4431  0.3654  0.6924
 9223SOL    HW139128   1.264   3.584   2.772  0.2835  1.6671  1.6122
 9223SOL    HW239129   1.187   3.608   2.649  0.7642 -1.0231 -0.5217
 9224SOL     OW39130   1.990   2.268   3.769  0.0608 -0.4637 -0.4134
 9224SOL    HW139131   1.972   2.320   3.690  1.7286  1.4118  0.4520
 9224SOL    HW239132   1.904   2.285   3.808  0.3971 -0.2580  0.2384
 9225SOL     OW39133   4.050   0.800   6.363 -0.0163 -0.0412  0.0534
 9225SOL    HW139134   4.067   0.812   6.456 -4.7054 -0.7915  1.0033
 9225SOL    HW239135   4.104   0.722   6.354  0.2107  0.1153  0.0320
 9226SOL     OW39136   3.374   3.106   5.689  0.3689  0.6160 -0.0874
 9226SOL    HW139137   3.456   3.140   5.725  1.3844 -2.3113  0.4182
 9226SOL    HW239138   3.344   3.049   5.760  0.7652  0.6181  0.0805
 9227SOL     OW39139   3.894   4.645  12.482 -0.1022 -0.6622  0.0953
 9227SOL    HW139140   3.822   4.594  12.445  0.4677 -1.4564  0.0831
 9227SOL    HW239141   3.864   0.011  12.472  1.4275 -0.1663 -0.0377
 9228SOL     OW39142   0.626   0.307   8.248 -0.0148  0.1611 -0.5827
 9228SOL    HW139143   0.658   0.244   8.182 -0.9289  0.5414 -1.3887
 9228SOL    HW239144   0.671   0.270   8.324  0.9315  0.8436 -0.8068
 9229SOL     OW39145   2.620   2.890   4.249  0.3999 -0.4243 -0.0154
 9229SOL    HW139146   2.613   2.954   4.319 -0.6202  1.5304 -1.9318
 9229SOL    HW239147   2.673   2.826   4.296  0.8899  0.7658  1.0408
 9230SOL     OW39148   3.109   0.936  10.999 -0.4163 -0.0603  0.4264
 9230SOL    HW139149   3.025   0.960  10.960  0.3238  0.6169 -0.7476
 9230SOL    HW239150   3.162   1.003  10.955 -1.5878  0.5679 -0.0168
 9231SOL     OW39151   2.589   2.663   1.655  0.5026 -0.7098  0.2714
 9231SOL    HW139152   2.554   2.677   1.743  2.1286 -1.0794  0.9799
 9231SOL    HW239153   2.631   2.577   1.662  0.8724 -0.5034  0.6127
 9232SOL     OW39154   3.244   2.447   4.569  0.2595  0.5886 -0.4214
 9232SOL    HW139155   3.289   2.420   4.489 -3.2568 -2.0795 -1.5098
 9232SOL    HW239156   3.232   2.364   4.615 -1.6061  1.2542  0.3383
 9233SOL     OW39157   2.434   0.058   4.908  0.4151  0.1534 -0.4421
 9233SOL    HW139158   2.388   0.095   4.983 -1.4055 -0.2271 -1.3680
 9233SOL    HW239159   2.439   4.687   4.924  0.0050  0.0166 -1.1404
 9234SOL     OW39160   2.453   0.099   8.415 -0.0823 -0.1406 -0.0987
 9234SOL    HW139161   2.456   0.153   8.336  3.4857 -1.6629 -1.0084
 9234SOL    HW239162   2.428   0.160   8.485 -0.0087 -0.1755 -0.0415
 9235SOL     OW39163   3.003   2.854  16.577 -0.6010  0.5185  0.1902
 9235SOL    HW139164   2.911   2.845  16.554  0.2581 -1.7704 -2.3685
 9235SOL    HW239165   3.007   2.948  16.595  0.7301  0.7791 -1.4177
 9236SOL     OW39166   2.104   1.587   7.204  0.0970 -0.3090  0.3627
 9236SOL    HW139167   2.090   1.591   7.109  0.1829  1.4323  0.4353
 9236SOL    HW239168   2.124   1.679   7.222 -0.5974 -0.3894  1.5455
 9237SOL     OW39169   2.804   4.112   6.590 -0.0836  0.1676 -0.5500
 9237SOL    HW139170   2.742   4.038   6.591 -0.5825  0.5836 -0.4331
 9237SOL    HW239171   2.887   4.078   6.622 -0.4961 -0.3918 -0.0662
 9238SOL     OW39172   0.538   0.295  17.623 -0.7482  0.1308 -0.6435
 9238SOL    HW139173   0.463   0.238  17.640  0.5379 -1.4412 -0.3385
 9238SOL    HW239174   0.505   0.364  17.565 -0.5645  0.6031 -0.1938
 9239SOL     OW39175   4.076   1.343   9.642  0.1696 -0.2153  0.8560
 9239SOL    HW139176   4.171   1.333   9.636 -0.0780 -0.6553 -2.1685
 9239SOL    HW239177   4.052   1.251   9.634 -0.1654  0.0135 -0.8608
 9240SOL     OW39178   0.234   0.903   9.377  0.1555  0.1521  0.0593
 9240SOL    HW139179   0.272   0.962   9.442 -0.0324 -0.2761  0.5622
 9240SOL    HW239180   0.277   0.941   9.301  0.2205  0.8710  0.4596
 9241SOL     OW39181   3.644   2.135  11.867 -0.2223 -0.3645 -0.3729
 9241SOL    HW139182   3.678   2.167  11.784 -2.3481 -1.5127 -1.6826
 9241SOL    HW239183   3.719   2.082  11.893 -0.8303  0.2798  2.7756
 9242SOL     OW39184   4.083   3.611   8.733  0.0926  0.1228  0.1990
 9242SOL    HW139185   4.114   3.522   8.714  0.4304 -0.2059  2.2938
 9242SOL    HW239186   4.076   3.607   8.829 -2.5006  0.7479  0.0462
 9243SOL     OW39187   2.708   1.825  16.285  0.8531  0.0588  0.1680
 9243SOL    HW139188   2.750   1.900  16.327  0.8770 -0.0763  0.3874
 9243SOL    HW239189   2.721   1.769  16.362 -2.3584 -0.0924  0.6235
 9244SOL     OW39190   2.838   1.623   4.881  0.1088  0.2077 -0.5197
 9244SOL    HW139191   2.776   1.669   4.938  1.2587  0.9694  0.1183
 9244SOL    HW239192   2.790   1.541   4.867 -0.4144  0.2539  0.9757
 9245SOL     OW39193   1.979   1.474   7.839 -0.1326  0.1343  0.3451
 9245SOL    HW139194   1.921   1.464   7.763 -0.2332 -0.3922  0.4919
 9245SOL    HW239195   1.941   1.554   7.876 -0.8691  0.8462 -1.9497
 9246SOL     OW39196   1.822   2.682  16.517  0.7572  0.6550 -0.1310
 9246SOL    HW139197   1.784   2.596  16.535  1.5753 -0.3714 -3.2332
 9246SOL    HW239198   1.866   2.660  16.435 -2.0789 -0.0132 -1.4883
 9247SOL     OW39199   3.472   2.104   1.234  0.1498  0.0774  0.2057
 9247SOL    HW139200   3.481   2.170   1.303  1.2372  1.1877 -0.9892
 9247SOL    HW239201   3.489   2.022   1.280 -0.4858 -0.3838 -0.3859
 9248SOL     OW39202   4.670   3.821  13.556 -0.9328  0.5571 -0.2552
 9248SOL    HW139203   4.670   3.916  13.544  5.1310  0.5379 -0.2334
 9248SOL    HW239204   4.709   3.791  13.473 -1.8609 -0.1625 -0.4322
 9249SOL     OW39205   0.674   1.724   7.986  0.0190 -0.0341 -0.4234
 9249SOL    HW139206   0.590   1.752   7.951  0.1498 -0.0898 -0.7862
 9249SOL    HW239207   0.683   1.784   8.060 -0.1827 -1.8948  1.1222
 9250SOL     OW39208   2.368   0.697  10.449 -0.0061 -0.8592 -0.1682
 9250SOL    HW139209   2.354   0.651  10.366 -0.7685  1.6548 -1.4152
 9250SOL    HW239210   2.425   0.633  10.491  1.1525  0.1576 -0.2147
 9251SOL     OW39211   2.631   1.998  11.428  0.0318 -0.1596 -0.1516
 9251SOL    HW139212   2.646   2.093  11.434 -0.4708 -0.1233  0.5479
 9251SOL    HW239213   2.589   1.992  11.342  0.9166  2.5205 -0.7917
 9252SOL     OW39214   4.204   2.955   0.818 -0.6306 -0.4782 -0.5465
 9252SOL    HW139215   4.233   2.964   0.728 -0.4785 -2.1737 -0.6699
 9252SOL    HW239216   4.109   2.951   0.803 -0.8792  1.8406  0.3476
 9253SOL     OW39217   2.405   3.037   0.473 -0.4806 -0.4770  0.0002
 9253SOL    HW139218   2.360   3.121   0.483 -0.0139 -0.2791  0.4553
 9253SOL    HW239219   2.337   2.980   0.439 -0.3256 -0.4477 -0.3582
 9254SOL     OW39220   3.068   4.452   8.505  0.1297 -0.7722 -0.7698
 9254SOL    HW139221   2.998   4.516   8.516  1.0465 -0.2988  2.2777
 9254SOL    HW239222   3.111   4.499   8.433 -2.7748  0.8247 -1.4914
 9255SOL     OW39223   4.656   4.304   5.770 -0.6524  0.3273  0.0319
 9255SOL    HW139224   4.716   4.248   5.720  0.6803 -0.0792  2.0805
 9255SOL    HW239225   4.715   4.375   5.798  1.9499 -1.6488 -0.4226
 9256SOL     OW39226   2.264   3.884  16.392  0.3372 -0.2309  0.7498
 9256SOL    HW139227   2.288   3.793  16.406  1.5131 -0.0446 -0.0483
 9256SOL    HW239228   2.219   3.918  16.469  0.7045 -2.5349  1.9620
 9257SOL     OW39229   1.611   1.417   8.542 -0.1294 -0.4272  1.0050
 9257SOL    HW139230   1.613   1.490   8.479 -0.3624 -1.9554 -0.7739
 9257SOL    HW239231   1.662   1.448   8.616  0.5699 -3.6666  1.8719
 9258SOL     OW39232   0.782   4.139   4.329 -0.3797 -0.0202 -0.3183
 9258SOL    HW139233   0.733   4.112   4.406 -2.4783  0.4621 -1.5016
 9258SOL    HW239234   0.848   4.072   4.311 -0.4405 -0.2907  0.4697
 9259SOL     OW39235   0.126   3.596   5.837 -0.2117  0.2177 -0.3468
 9259SOL    HW139236   0.192   3.649   5.793 -1.0387  0.0062 -1.8438
 9259SOL    HW239237   0.055   3.660   5.840 -1.5255 -1.2315 -0.4102
 9260SOL     OW39238   1.865   4.695   9.611 -0.1651 -0.5442 -0.0439
 9260SOL    HW139239   1.852   0.029   9.686  2.1754 -0.0679 -0.0148
 9260SOL    HW239240   1.790   4.722   9.559  0.0954  0.3643  0.0480
 9261SOL     OW39241   1.150   0.333   8.086  0.0683 -0.3363 -0.5705
 9261SOL    HW139242   1.238   0.364   8.068  0.2929 -0.1416  0.8651
 9261SOL    HW239243   1.164   0.252   8.135  1.9524  2.2299  3.1067
 9262SOL     OW39244   1.629   4.698   2.857  0.2314  0.2480 -0.0957
 9262SOL    HW139245   1.574   4.654   2.922 -1.2578  0.3838 -1.2588
 9262SOL    HW239246   1.684   0.026   2.916 -1.1738 -0.3639  1.7687
 9263SOL     OW39247   1.219   0.699   8.313  0.0623 -0.3140 -0.0808
 9263SOL    HW139248   1.312   0.687   8.294 -0.1452 -2.2503  0.2065
 9263SOL    HW239249   1.206   0.647   8.392  0.7521 -0.0815  0.1903
 9264SOL     OW39250   4.454   1.950  14.039 -0.5112 -0.0771  0.1696
 9264SOL    HW139251   4.383   1.950  14.103  0.9230 -2.1082  1.7548
 9264SOL    HW239252   4.403   1.977  13.963  0.6063  1.5852  0.0099
 9265SOL     OW39253   1.145   4.345   8.383 -0.6209  0.5140 -0.0425
 9265SOL    HW139254   1.076   4.398   8.421 -3.2752 -2.6824 -0.3549
 9265SOL    HW239255   1.191   4.406   8.325  1.6993  0.9454  2.2780
 9266SOL     OW39256   1.656   0.052   3.755 -0.1369  0.1921  0.2295
 9266SOL    HW139257   1.591   0.045   3.825  0.6596  1.1174  1.0506
 9266SOL    HW239258   1.606   0.060   3.674  0.5613 -0.9395 -0.3268
 9267SOL     OW39259   2.456   4.451   2.680  0.0643  0.3874  0.3402
 9267SOL    HW139260   2.442   4.442   2.586 -1.7956 -0.1467  0.6806
 9267SOL    HW239261   2.372   4.418   2.711  1.0079 -0.8000  1.6452
 9268SOL     OW39262   0.162   2.295   3.211 -0.2294 -0.2929  0.1211
 9268SOL    HW139263   0.118   2.212   3.231 -2.0626  0.4029 -1.0118
 9268SOL    HW239264   0.092   2.346   3.250  1.1964 -1.3600  4.0245
 9269SOL     OW39265   1.867   4.270  13.945 -0.1956 -0.5696 -0.0695
 9269SOL    HW139266   1.886   4.184  13.908  2.7420 -0.0174  0.2187
 9269SOL    HW239267   1.796   4.296  13.886 -1.4311 -1.0466  1.2143
 9270SOL     OW39268   1.865   1.255  13.074  0.2934 -0.1047 -0.1105
 9270SOL    HW139269   1.934   1.220  13.130  0.3232 -1.9604 -1.3020
 9270SOL    HW239270   1.839   1.320  13.140 -1.8177 -0.0084 -1.0406
 9271SOL     OW39271   2.412   2.407   4.112 -0.1424 -0.1485 -0.5515
 9271SOL    HW139272   2.477   2.338   4.102 -1.4673 -1.6586  1.3332
 9271SOL    HW239273   2.340   2.379   4.054 -0.6747  0.0760 -0.0024
 9272SOL     OW39274   1.497   1.034   3.564  0.6696  0.3048 -0.2264
 9272SOL    HW139275   1.580   0.987   3.560  0.1002 -0.5830 -1.3813
 9272SOL    HW239276   1.516   1.091   3.639  1.6942 -0.0578 -0.2152
 9273SOL     OW39277   1.420   0.905   4.706 -0.0921  0.2389 -0.2020
 9273SOL    HW139278   1.371   0.831   4.672  0.9687 -1.1869  1.3828
 9273SOL    HW239279   1.384   0.972   4.648 -0.6364  2.0302  2.1854
 9274SOL     OW39280   4.154   1.646   9.486  0.5088  0.2587 -0.4987
 9274SOL    HW139281   4.153   1.716   9.420  0.6510  1.1418  0.4298
 9274SOL    HW239282   4.063   1.615   9.490 -0.1042  1.9440 -1.2688
 9275SOL     OW39283   0.404   0.179  10.859 -0.0431 -0.2657  0.1803
 9275SOL    HW139284   0.430   0.165  10.768 -2.2071 -0.2665 -0.4432
 9275SOL    HW239285   0.415   0.271  10.879  1.7557 -0.4959  0.2411
 9276SOL     OW39286   1.732   3.043   3.788 -0.4983 -0.0748  0.0143
 9276SOL    HW139287   1.761   2.957   3.821 -0.1026 -0.4343 -1.2564
 9276SOL    HW239288   1.670   3.058   3.859  0.1611  0.4751  0.4718
 9277SOL     OW39289   1.578   2.833   4.152 -0.0340 -0.2321  0.1366
 9277SOL    HW139290   1.519   2.797   4.085  1.0140 -0.3408 -0.7304
 9277SOL    HW239291   1.608   2.909   4.103  1.0507 -0.0887  1.0481
 9278SOL     OW39292   3.754   3.107   9.214  0.1396  0.0156  0.2049
 9278SOL    HW139293   3.731   3.057   9.293 -1.3868 -1.3387 -1.0645
 9278SOL    HW239294   3.757   3.043   9.143 -3.0253 -1.0887  1.0223
 9279SOL     OW39295   1.610   2.520  16.198  0.6457  0.2482 -0.0324
 9279SOL    HW139296   1.541   2.556  16.254 -0.9014  0.6331 -2.1705
 9279SOL    HW239297   1.652   2.598  16.164 -1.2321  0.7065 -1.3056
 9280SOL     OW39298   2.452   1.978   6.108  0.8924  0.4449  0.0750
 9280SOL    HW139299   2.358   1.973   6.125  1.0843 -0.7705  0.7930
 9280SOL    HW239300   2.470   2.066   6.076  0.6084  0.0352 -1.2086
 9281SOL     OW39301   3.327   1.039   9.114  0.2352  0.8211 -0.3724
 9281SOL    HW139302   3.390   1.067   9.181 -0.1503 -0.3044  0.4593
 9281SOL    HW239303   3.244   1.077   9.142  0.4026  1.6817 -1.0571
 9282SOL     OW39304   0.664   3.621   7.464  0.1110  0.3146 -1.3049
 9282SOL    HW139305   0.611   3.670   7.526  0.2312 -0.6562 -0.4252
 9282SOL    HW239306   0.747   3.651   7.501 -1.1887  0.8213  1.2149
 9283SOL     OW39307   0.657   1.732   3.509  0.1189  0.5913 -0.1730
 9283SOL    HW139308   0.577   1.695   3.470  0.6924  0.6921 -1.4204
 9283SOL    HW239309   0.658   1.810   3.455 -1.8582  0.1704 -0.8486
 9284SOL     OW39310   1.378   4.152   3.390  0.0617  0.0336 -0.4093
 9284SOL    HW139311   1.448   4.144   3.455 -1.1041  1.4555  1.0028
 9284SOL    HW239312   1.401   4.241   3.362  0.8134  0.4970  1.6294
 9285SOL     OW39313   2.150   3.487   2.989 -0.2703  1.0734 -0.0652
 9285SOL    HW139314   2.141   3.433   2.910  0.5239 -1.1356  1.3305
 9285SOL    HW239315   2.081   3.551   2.975 -0.4761  0.6514 -0.9741
 9286SOL     OW39316   2.125   4.713   8.734  0.3961 -0.3262 -0.2212
 9286SOL    HW139317   2.088   4.683   8.651 -0.0425  3.0827 -1.2603
 9286SOL    HW239318   2.126   4.628   8.779  1.4344 -0.6399 -0.8326
 9287SOL     OW39319   1.317   2.138   7.506 -0.4690  0.0617 -0.5735
 9287SOL    HW139320   1.275   2.191   7.574  1.5295 -0.5449  1.1330
 9287SOL    HW239321   1.401   2.185   7.501 -1.0766  1.1088 -0.8842
 9288SOL     OW39322   4.642   0.595   6.542  0.4530 -0.1340 -0.1442
 9288SOL    HW139323   4.676   0.615   6.629  1.9961 -1.0369 -0.5442
 9288SOL    HW239324   4.613   0.504   6.553  1.1905 -0.5344 -1.5451
 9289SOL     OW39325   0.343   3.985   4.884 -0.1176  0.4302 -0.9988
 9289SOL    HW139326   0.426   3.947   4.912 -0.3529 -1.9128 -3.5037
 9289SOL    HW239327   0.374   4.063   4.837  1.2419  0.6751  0.3081
 9290SOL     OW39328   4.174   4.419   9.727 -0.0158 -0.2291 -0.5999
 9290SOL    HW139329   4.114   4.475   9.776 -2.4104 -1.9472 -1.5705
 9290SOL    HW239330   4.124   4.407   9.646 -1.0220 -0.9169  0.1098
 9291SOL     OW39331   4.283   4.075  12.475  0.0566  0.1611  0.9122
 9291SOL    HW139332   4.276   4.123  12.557 -1.4213  2.5386 -0.6116
 9291SOL    HW239333   4.250   4.133  12.406  3.3305  0.0255 -0.7756
 9292SOL     OW39334   1.246   2.403   8.796 -0.0201 -0.1852 -0.0407
 9292SOL    HW139335   1.161   2.414   8.753 -0.2349 -2.3991 -0.1411
 9292SOL    HW239336   1.263   2.323   8.747  0.2936  1.3876 -2.5283
 9293SOL     OW39337   0.247   3.354   7.686  0.4135  0.1944 -0.1506
 9293SOL    HW139338   0.295   3.411   7.746 -2.2737  1.2980  0.9895
 9293SOL    HW239339   0.302   3.277   7.696  0.7552  0.5606  0.8588
 9294SOL     OW39340   1.739   1.749  17.139 -0.1691 -0.0363  0.5892
 9294SOL    HW139341   1.778   1.721  17.222  0.0186  1.2273  0.9257
 9294SOL    HW239342   1.650   1.758  17.171 -0.0196 -1.2995  1.3789
 9295SOL     OW39343   2.087   2.506   2.094 -0.2553  0.0107  0.1702
 9295SOL    HW139344   2.051   2.471   2.012 -0.0041  2.8508 -1.1717
 9295SOL    HW239345   2.097   2.595   2.058  2.0962  0.9654  3.2297
 9296SOL     OW39346   1.650   3.716   0.253  0.2458 -0.1924  0.0742
 9296SOL    HW139347   1.618   3.717   0.344  0.3888 -1.1858  0.1309
 9296SOL    HW239348   1.639   3.808   0.231  2.0114 -0.2346 -1.0114
 9297SOL     OW39349   2.334   2.425   6.760 -0.5014  0.2876  0.8518
 9297SOL    HW139350   2.379   2.499   6.719  0.8266 -0.5935  0.6974
 9297SOL    HW239351   2.250   2.471   6.769 -1.8060 -1.7901 -0.7971
 9298SOL     OW39352   0.314   0.044   2.362  0.3961  0.2874 -0.4327
 9298SOL    HW139353   0.263   4.689   2.375 -1.3565  2.0263  3.1106
 9298SOL    HW239354   0.248   0.110   2.384  0.4108  0.3016 -0.4307
 9299SOL     OW39355   1.788   2.254   7.322 -0.0835  0.1144 -0.0371
 9299SOL    HW139356   1.742   2.277   7.403 -1.2320 -0.2212 -0.5999
 9299SOL    HW239357   1.816   2.164   7.341 -0.6925 -0.3862 -1.4365
 9300SOL     OW39358   3.768   0.708   5.914 -0.0404 -0.7252 -0.8610
 9300SOL    HW139359   3.701   0.664   5.861 -0.8107 -0.0196 -0.4727
 9300SOL    HW239360   3.702   0.740   5.976  1.6316  0.6370  0.2052
 9301SOL     OW39361   4.472   2.144   0.946  0.8911 -0.1459  0.5220
 9301SOL    HW139362   4.387   2.106   0.970  1.5374 -2.2045 -0.4744
 9301SOL    HW239363   4.465   2.219   1.006 -0.8083  0.9753 -1.0741
 9302SOL     OW39364   4.113   1.013  15.962 -0.7646 -0.4074  0.6818
 9302SOL    HW139365   4.144   0.924  15.946 -0.6837 -0.0913 -0.9684
 9302SOL    HW239366   4.136   1.032  16.053 -1.1770 -2.9803  1.3043
 9303SOL     OW39367   4.193   4.122   1.957 -0.0153 -0.6398 -0.3440
 9303SOL    HW139368   4.155   4.209   1.947 -1.3880 -0.9703  1.9849
 9303SOL    HW239369   4.278   4.138   1.915  0.3872  1.2425  1.1901
 9304SOL     OW39370   4.572   2.361   2.691 -0.2068  0.5154  0.4275
 9304SOL    HW139371   4.536   2.280   2.655  0.0865  2.0574 -3.2587
 9304SOL    HW239372   4.660   2.322   2.696 -1.3442 -2.1313 -0.1626
 9305SOL     OW39373   4.724   2.599   2.900 -0.1721 -0.2165  0.7845
 9305SOL    HW139374   0.017   2.507   2.921  0.7947 -0.4092 -0.8773
 9305SOL    HW239375   0.043   2.605   2.815 -3.4513  0.8400 -0.8151
 9306SOL     OW39376   0.264   2.139   4.028  1.0041  0.4805  0.2832
 9306SOL    HW139377   0.294   2.066   4.083 -0.3887 -1.8539 -2.0571
 9306SOL    HW239378   0.250   2.101   3.941  1.7354 -0.5707  0.6169
 9307SOL     OW39379   2.071   2.791   8.495 -0.0226  0.1151  0.3285
 9307SOL    HW139380   2.144   2.821   8.550  1.4555 -3.2466  0.2019
 9307SOL    HW239381   2.072   2.697   8.514  0.4997 -0.1125 -0.7909
 9308SOL     OW39382   2.825   0.852   9.569  0.0232  0.0962 -0.8462
 9308SOL    HW139383   2.866   0.849   9.482  0.0719  2.0952 -0.8889
 9308SOL    HW239384   2.862   0.929   9.612 -0.3814 -0.6903  0.9103
 9309SOL     OW39385   1.075   3.248   7.092 -0.3718  0.2136 -0.2911
 9309SOL    HW139386   0.986   3.264   7.124  0.1319  1.1424  0.6410
 9309SOL    HW239387   1.131   3.244   7.169  0.5742 -0.5149 -1.0196
 9310SOL     OW39388   0.191   2.812  14.019  0.5491  0.2733  0.0100
 9310SOL    HW139389   0.280   2.819  13.983 -0.0429 -1.1430 -1.7151
 9310SOL    HW239390   0.148   2.855  13.945 -0.0091  0.1277  0.2510
 9311SOL     OW39391   0.017   3.659   5.499 -0.3635 -0.1631  0.2447
 9311SOL    HW139392   0.023   3.749   5.530  2.3223 -1.3517  3.1983
 9311SOL    HW239393   0.095   3.650   5.443 -0.3876 -1.1631  0.3737
 9312SOL     OW39394   2.102   3.708   9.097  0.2431 -0.5049  0.6169
 9312SOL    HW139395   2.190   3.706   9.135  0.5389 -1.0786 -0.0996
 9312SOL    HW239396   2.073   3.792   9.130 -1.2511 -0.4138 -0.9266
 9313SOL     OW39397   1.275   3.313   7.274 -0.5410 -0.0510  0.4350
 9313SOL    HW139398   1.341   3.380   7.291  1.6526 -2.2588  0.6709
 9313SOL    HW239399   1.322   3.234   7.303 -1.1955  0.0657  1.7881
 9314SOL     OW39400   3.001   1.866  15.671  0.0179 -0.9163 -0.0960
 9314SOL    HW139401   2.963   1.785  15.706  3.2308 -1.5599  1.8811
 9314SOL    HW239402   3.086   1.840  15.638  1.1333  2.3543  0.1733
 9315SOL     OW39403   1.070   0.545   6.278  0.3039 -0.4251 -0.3249
 9315SOL    HW139404   1.067   0.481   6.207 -1.8217 -2.4096  1.5578
 9315SOL    HW239405   1.003   0.511   6.338 -0.0347 -0.8105 -0.9193
 9316SOL     OW39406   3.790   0.049  14.141 -0.2498 -0.1091  0.2547
 9316SOL    HW139407   3.798   0.107  14.218  0.9010 -0.5163  0.4420
 9316SOL    HW239408   3.708   0.092  14.117  0.3142  1.7813  1.6766
 9317SOL     OW39409   1.013   3.743   1.955  0.5916  0.3499  0.1950
 9317SOL    HW139410   1.082   3.759   2.020 -1.3427 -2.1598  2.8602
 9317SOL    HW239411   0.963   3.685   2.012  0.0780 -0.3464 -0.9931
 9318SOL     OW39412   1.915   0.636   6.227  0.1838 -0.6232 -0.2960
 9318SOL    HW139413   1.913   0.702   6.158  1.8502  0.1487  0.3981
 9318SOL    HW239414   1.946   0.693   6.298 -2.4285  1.6402 -0.9500
 9319SOL     OW39415   3.920   3.616   9.242 -0.8584  0.4177  0.1941
 9319SOL    HW139416   3.838   3.630   9.290 -0.3738 -2.0482  1.7425
 9319SOL    HW239417   3.917   3.522   9.227 -0.4543  0.2480  1.1686
 9320SOL     OW39418   1.520   3.821   1.854  0.1467  0.2070 -0.2227
 9320SOL    HW139419   1.578   3.879   1.805 -0.6970  0.2264 -1.2000
 9320SOL    HW239420   1.444   3.879   1.861 -0.8739 -0.8984 -2.0524
 9321SOL     OW39421   2.871   0.434  12.319  0.1603  0.5366 -0.5065
 9321SOL    HW139422   2.874   0.355  12.264 -1.4732 -0.1794  0.4470
 9321SOL    HW239423   2.783   0.431  12.354 -0.6458 -0.4116 -2.5754
 9322SOL     OW39424   3.033   3.491   6.335  0.1750  0.3068 -0.1678
 9322SOL    HW139425   3.063   3.411   6.292 -0.0329  0.4960 -0.6655
 9322SOL    HW239426   3.119   3.528   6.355 -0.3239  0.4224  1.7440
 9323SOL     OW39427   0.649   2.892   5.866  0.0207  0.1961  0.4464
 9323SOL    HW139428   0.658   2.850   5.781  0.1584 -0.4330  0.7709
 9323SOL    HW239429   0.603   2.828   5.920 -1.2357 -0.6936 -1.6735
 9324SOL     OW39430   2.054   0.061   9.261 -0.0561 -0.2156 -0.2947
 9324SOL    HW139431   2.026   0.025   9.177  2.4070  0.4591 -1.3924
 9324SOL    HW239432   1.978   0.118   9.273 -0.2121 -0.6851  0.9395
 9325SOL     OW39433   1.645   1.355   2.579  0.0625  0.1704  0.1635
 9325SOL    HW139434   1.560   1.313   2.585  1.9570 -3.4741  1.8005
 9325SOL    HW239435   1.634   1.430   2.637  0.3666  0.5566 -0.2743
 9326SOL     OW39436   0.095   1.850   4.835  0.2476 -0.6631 -0.1333
 9326SOL    HW139437   0.132   1.904   4.904 -0.2165  0.9601 -1.1459
 9326SOL    HW239438   0.158   1.857   4.763 -1.0739  0.9025 -1.1390
 9327SOL     OW39439   2.357   3.713   2.931 -0.4415  0.6113  0.0067
 9327SOL    HW139440   2.273   3.671   2.953 -0.1170 -0.7222 -1.3293
 9327SOL    HW239441   2.387   3.657   2.860  0.3644 -0.0639  0.8716
 9328SOL     OW39442   0.298   3.446   2.363 -0.2769  0.6965 -0.4012
 9328SOL    HW139443   0.301   3.354   2.390  2.9763  0.5793 -1.1027
 9328SOL    HW239444   0.209   3.448   2.329 -0.4405  2.3973  0.1145
 9329SOL     OW39445   2.344   0.739   6.021 -0.2552  0.0810  0.2507
 9329SOL    HW139446   2.325   0.801   6.091 -1.1194  0.3454 -0.2137
 9329SOL    HW239447   2.267   0.757   5.966 -1.2464 -1.1893  1.2317
 9330SOL     OW39448   4.011   4.534   3.049  0.2080  0.0090 -0.4465
 9330SOL    HW139449   3.965   4.587   2.984 -0.0642 -0.0927 -0.3372
 9330SOL    HW239450   4.096   4.575   3.033  0.1535  0.1163 -0.4640
 9331SOL     OW39451   1.350   4.474   3.345  0.0926 -0.6439  0.7148
 9331SOL    HW139452   1.324   4.561   3.374 -2.0308 -0.6419 -1.2022
 9331SOL    HW239453   1.433   4.491   3.300 -0.8452  1.9311 -0.0690
 9332SOL     OW39454   3.743   2.406  16.700 -0.1576  0.1011 -0.3460
 9332SOL    HW139455   3.711   2.413  16.790 -0.8305 -1.1818 -0.4776
 9332SOL    HW239456   3.835   2.381  16.713  0.5027  3.5764  1.4059
 9333SOL     OW39457   2.807   0.996   1.011  0.2736  0.7458 -0.1815
 9333SOL    HW139458   2.876   1.018   0.948  1.2013 -2.0946 -0.1819
 9333SOL    HW239459   2.815   0.900   1.008 -0.4048  0.6866 -0.1399
 9334SOL     OW39460   1.148   1.402   2.220 -0.1905 -0.1078  0.6070
 9334SOL    HW139461   1.070   1.379   2.170 -1.4284 -1.1477  3.0101
 9334SOL    HW239462   1.213   1.357   2.167 -1.4091 -1.5369  0.3328
 9335SOL     OW39463   4.021   4.074   4.244 -0.1267 -0.4517  0.0902
 9335SOL    HW139464   4.027   3.982   4.220 -1.2547 -0.2389 -1.0002
 9335SOL    HW239465   4.071   4.107   4.169  0.7987 -0.4659  0.6959
 9336SOL     OW39466   3.642   2.603  13.731 -0.1553 -0.3918 -0.3252
 9336SOL    HW139467   3.578   2.616  13.801  0.5526  0.6429  0.1242
 9336SOL    HW239468   3.587   2.596  13.654  1.0440  3.4009 -1.5206
 9337SOL     OW39469   1.506   3.366   4.005  0.4214  0.1629  0.1544
 9337SOL    HW139470   1.475   3.345   3.917  0.2075  1.4810 -0.0884
 9337SOL    HW239471   1.592   3.404   3.989  0.2946 -0.2972 -1.6284
 9338SOL     OW39472   2.982   3.274  14.029  0.1172 -0.6191  0.2899
 9338SOL    HW139473   3.008   3.238  13.944  0.0054 -2.3383  0.9919
 9338SOL    HW239474   2.922   3.346  14.009  2.4077  0.7961 -1.5583
 9339SOL     OW39475   4.681   0.686   5.057  1.3998  0.5517  0.2102
 9339SOL    HW139476   4.621   0.759   5.042 -0.4721 -1.5746 -2.6231
 9339SOL    HW239477   4.617   0.619   5.080 -0.3191  2.1263  0.0574
 9340SOL     OW39478   2.334   2.498   3.097 -0.7123  0.0935  0.4804
 9340SOL    HW139479   2.355   2.582   3.055 -1.5194 -1.4555 -2.9767
 9340SOL    HW239480   2.411   2.499   3.154 -0.2153 -1.0971 -0.1731
 9341SOL     OW39481   1.355   3.780   2.496  0.3885  0.0288  0.1364
 9341SOL    HW139482   1.334   3.727   2.572 -1.8479 -0.5681 -0.8965
 9341SOL    HW239483   1.369   3.866   2.535  0.9365 -0.1305  0.2900
 9342SOL     OW39484   1.561   2.176   2.464  0.4354  0.2482 -0.1765
 9342SOL    HW139485   1.533   2.126   2.387  0.6550  1.2046 -0.8762
 9342SOL    HW239486   1.522   2.261   2.442  2.1009  0.9138 -0.5204
 9343SOL     OW39487   3.264   2.655   1.789 -0.3388 -0.1136  0.2528
 9343SOL    HW139488   3.353   2.661   1.822 -1.0552 -0.4552  2.2373
 9343SOL    HW239489   3.281   2.703   1.708  2.2389  0.9907  1.4649
 9344SOL     OW39490   4.375   3.769   9.168  0.3335  0.2258 -0.4492
 9344SOL    HW139491   4.393   3.825   9.243 -0.0264  0.1551 -0.3134
 9344SOL    HW239492   4.294   3.731   9.202 -0.6689  1.4749 -1.4221
 9345SOL     OW39493   2.335   0.486   7.175  0.0463 -0.0021  0.4614
 9345SOL    HW139494   2.267   0.498   7.109  1.2434  0.3509 -0.7101
 9345SOL    HW239495   2.351   0.392   7.170 -0.1076 -0.1441  2.4524
 9346SOL     OW39496   0.656   0.881   8.625 -0.4613  0.2334 -0.3307
 9346SOL    HW139497   0.720   0.816   8.599 -1.0252 -0.2476 -0.5291
 9346SOL    HW239498   0.698   0.965   8.606 -0.4984  0.4746  0.6448
 9347SOL     OW39499   3.793   4.472   4.082  0.1074  0.2298 -0.0578
 9347SOL    HW139500   3.820   4.563   4.098 -0.1657  0.2003  0.5820
 9347SOL    HW239501   3.874   4.440   4.043  0.9293  0.1861  1.6706
 9348SOL     OW39502   3.841   1.166  14.702  0.0897  0.0005  0.3696
 9348SOL    HW139503   3.893   1.087  14.686  2.4478  1.2608  1.8727
 9348SOL    HW239504   3.754   1.158  14.662 -0.2402  0.3915  1.0109
 9349SOL     OW39505   1.690   1.141   1.970 -0.0591 -0.3327 -0.4035
 9349SOL    HW139506   1.595   1.134   1.973 -0.0617  0.0222  0.6105
 9349SOL    HW239507   1.695   1.155   1.876  1.2816  0.2060 -0.2578
 9350SOL     OW39508   0.700   4.722  12.888 -0.2224 -0.0380  0.4985
 9350SOL    HW139509   0.642   4.657  12.927 -0.2670  0.6307  1.5473
 9350SOL    HW239510   0.763   0.008  12.959 -0.3616  2.8288  0.2432
 9351SOL     OW39511   0.957   2.229   4.472 -0.0175  0.0808  0.5897
 9351SOL    HW139512   1.048   2.199   4.474  0.6468  2.0938  1.1289
 9351SOL    HW239513   0.967   2.322   4.493  1.3774  0.3219 -1.0772
 9352SOL     OW39514   3.873   1.111   6.478 -0.1268  0.3069 -0.0800
 9352SOL    HW139515   3.876   1.145   6.389  1.2029  1.4651  0.4102
 9352SOL    HW239516   3.865   1.020   6.450  1.1688 -0.0129  0.5819
 9353SOL     OW39517   1.196   1.496  13.912  0.1905 -0.0199  0.4747
 9353SOL    HW139518   1.286   1.467  13.928 -0.4292 -2.3091 -0.2287
 9353SOL    HW239519   1.164   1.410  13.885  0.9970 -0.0022 -0.5534
 9354SOL     OW39520   4.200   2.864  10.528 -0.3661 -0.5939 -0.1418
 9354SOL    HW139521   4.113   2.865  10.568 -0.7127 -2.1737 -0.8668
 9354SOL    HW239522   4.262   2.871  10.600  1.6531 -2.6009 -1.6922
 9355SOL     OW39523   2.957   2.019  17.465  0.3636 -0.0952  0.5121
 9355SOL    HW139524   3.051   2.003  17.458  0.3456 -0.7290  1.7518
 9355SOL    HW239525   2.947   1.996  17.558  2.7471 -0.4967  0.6713
 9356SOL     OW39526   4.549   1.152  15.458 -0.6721  0.2592  0.1327
 9356SOL    HW139527   4.604   1.085  15.499 -0.1142  0.9766  0.5414
 9356SOL    HW239528   4.481   1.094  15.423  0.6004  0.2310 -2.2881
 9357SOL     OW39529   4.471   3.189   9.013 -0.2222  0.4193  0.1589
 9357SOL    HW139530   4.457   3.195   8.918  1.5339  1.4079 -0.0415
 9357SOL    HW239531   4.540   3.255   9.018  1.4748 -1.3392  0.1252
 9358SOL     OW39532   4.389   1.872   2.457  0.0391 -0.6011 -0.6516
 9358SOL    HW139533   4.385   1.931   2.382  4.5318 -2.5458 -2.4236
 9358SOL    HW239534   4.387   1.790   2.407  2.3997 -0.1044 -1.5302
 9359SOL     OW39535   4.107   4.551   0.386 -0.0612  0.1885  0.3743
 9359SOL    HW139536   4.115   4.459   0.414 -1.9288  0.2305  1.0454
 9359SOL    HW239537   4.055   4.589   0.456  0.2691 -0.3462  0.9157
 9360SOL     OW39538   1.732   2.890  14.708  0.6026 -0.3088 -0.4381
 9360SOL    HW139539   1.730   2.975  14.663  1.3824 -1.1294 -2.0092
 9360SOL    HW239540   1.780   2.917  14.787 -1.8242 -3.0847  1.9752
 9361SOL     OW39541   1.609   2.655   4.512 -0.1945 -0.3156 -0.0870
 9361SOL    HW139542   1.618   2.603   4.592 -0.8059 -3.0511 -1.7911
 9361SOL    HW239543   1.530   2.703   4.538 -0.5654 -1.2146  0.4702
 9362SOL     OW39544   1.692   0.554   4.550  0.1317  0.1504 -0.1110
 9362SOL    HW139545   1.654   0.518   4.630  1.4833  0.4046  0.6423
 9362SOL    HW239546   1.721   0.469   4.517 -0.5232 -0.5478  1.1075
 9363SOL     OW39547   2.858   2.000   6.685  0.0765 -0.1830  0.6473
 9363SOL    HW139548   2.916   2.014   6.760  1.4096  0.7426 -0.5410
 9363SOL    HW239549   2.902   1.922   6.651  1.8733  0.9041  0.4714
 9364SOL     OW39550   3.675   0.945   2.105 -0.2634 -0.0283  0.4979
 9364SOL    HW139551   3.713   1.012   2.048 -2.4314 -1.1497 -2.2837
 9364SOL    HW239552   3.706   0.862   2.070 -1.4025 -0.5083  0.6128
 9365SOL     OW39553   2.849   2.065  13.646  0.7047  0.1801  0.0301
 9365SOL    HW139554   2.782   2.104  13.702 -0.0276 -0.0976 -0.6545
 9365SOL    HW239555   2.813   1.977  13.646 -0.4388  0.6699 -2.6961
 9366SOL     OW39556   3.109   3.751   4.865 -0.4495  0.2480  0.3954
 9366SOL    HW139557   3.058   3.735   4.945 -0.9637  0.7972  0.1772
 9366SOL    HW239558   3.136   3.663   4.839 -3.1021 -1.0173  1.9875
 9367SOL     OW39559   0.736   1.972  13.560 -0.1397 -0.0681  0.1779
 9367SOL    HW139560   0.675   2.027  13.609  0.3227 -1.2744  2.1286
 9367SOL    HW239561   0.795   2.039  13.526  0.2134 -0.7959 -0.6424
 9368SOL     OW39562   0.666   4.022   5.711  0.0583  1.1672 -0.4589
 9368SOL    HW139563   0.692   3.938   5.749 -0.1635  0.7810 -1.1660
 9368SOL    HW239564   0.706   4.019   5.624 -0.1487 -1.4423 -0.4635
 9369SOL     OW39565   1.067   3.301   4.290 -0.5296 -0.6813 -0.1811
 9369SOL    HW139566   1.154   3.342   4.294 -0.2500 -1.1586 -1.3594
 9369SOL    HW239567   1.074   3.248   4.370  1.6267  0.1516  0.1805
 9370SOL     OW39568   1.474   2.312   3.883  0.5078  0.0284  0.1022
 9370SOL    HW139569   1.508   2.390   3.927 -2.3521  1.1136  0.3483
 9370SOL    HW239570   1.547   2.294   3.824 -0.7139  3.0010 -2.2653
 9371SOL     OW39571   4.011   3.327   0.003  0.1228  0.1642  0.0990
 9371SOL    HW139572   4.105   3.317  17.686  0.1099 -0.8404  0.6814
 9371SOL    HW239573   4.024   3.384   0.080  0.2796  0.8144 -0.4106
 9372SOL     OW39574   1.238   0.714   4.246  0.3648  0.0178  0.1420
 9372SOL    HW139575   1.246   0.619   4.240  1.7375  0.1546 -0.0194
 9372SOL    HW239576   1.143   0.721   4.233  0.4276 -2.8380 -1.9611
 9373SOL     OW39577   0.689   0.452   6.213 -0.1574 -0.3062 -0.1300
 9373SOL    HW139578   0.756   0.439   6.146 -0.6040  1.2553 -0.8854
 9373SOL    HW239579   0.642   0.531   6.185  0.6563 -0.1672 -1.0895
 9374SOL     OW39580   1.671   2.451  13.021  0.4458 -0.2826  0.0459
 9374SOL    HW139581   1.608   2.463  12.951 -0.0721 -0.8230  0.4130
 9374SOL    HW239582   1.699   2.364  12.994  0.3344 -0.5371  0.7371
 9375SOL     OW39583   4.299   2.618  10.365  0.4337 -0.6960 -0.4334
 9375SOL    HW139584   4.241   2.690  10.340 -0.1249 -0.7832  0.6073
 9375SOL    HW239585   4.375   2.643  10.313 -0.3059  1.5225 -0.4494
 9376SOL     OW39586   3.157   2.317   8.944 -0.3891 -0.0274 -0.4505
 9376SOL    HW139587   3.237   2.359   8.912 -0.3141 -0.6400 -1.0663
 9376SOL    HW239588   3.138   2.275   8.860 -0.2924  1.0601 -1.0099
 9377SOL     OW39589   2.876   0.338  10.223  0.0025 -0.0371  0.6276
 9377SOL    HW139590   2.792   0.380  10.204 -0.5464 -1.7702 -0.7665
 9377SOL    HW239591   2.925   0.337  10.141 -1.4879 -0.9797 -0.2504
 9378SOL     OW39592   3.438   2.217  12.949  0.0415 -0.4706 -0.7045
 9378SOL    HW139593   3.428   2.291  13.009 -1.4172  0.0246 -1.5338
 9378SOL    HW239594   3.438   2.275  12.872 -1.4161 -0.3381 -0.6062
 9379SOL     OW39595   1.097   1.004   4.050 -0.2047 -0.5710 -0.3767
 9379SOL    HW139596   1.054   1.068   3.995 -0.8285  0.4714  1.3162
 9379SOL    HW239597   1.178   1.050   4.075 -2.7228  4.0142 -0.7464
 9380SOL     OW39598   0.849   3.490   6.210  0.0956 -0.0827 -0.5004
 9380SOL    HW139599   0.894   3.522   6.288 -1.7387  1.0166  0.1122
 9380SOL    HW239600   0.853   3.569   6.156  2.6116  2.4748  3.4065
 9381SOL     OW39601   1.624   4.270   2.113 -0.0631  0.5638  0.3583
 9381SOL    HW139602   1.696   4.207   2.121  0.4229  1.0840  0.1066
 9381SOL    HW239603   1.604   4.275   2.019  0.6022 -2.6056  0.0146
 9382SOL     OW39604   1.983   1.634   3.098 -0.0008 -0.1982  0.0088
 9382SOL    HW139605   2.019   1.714   3.059 -0.0675  0.4671  1.3111
 9382SOL    HW239606   1.997   1.570   3.029  0.3979 -1.2191  1.0474
 9383SOL     OW39607   1.302   0.813   5.130 -0.1542  0.0155  0.1275
 9383SOL    HW139608   1.314   0.888   5.188  0.1778  0.5861 -0.6787
 9383SOL    HW239609   1.235   0.850   5.073 -0.8068 -2.0309 -0.4108
 9384SOL     OW39610   2.036   0.289   7.105  0.2544 -0.2902  0.3201
 9384SOL    HW139611   2.030   0.195   7.088 -1.4261 -0.4435  1.7560
 9384SOL    HW239612   2.083   0.312   7.025 -3.0082  0.7405 -1.2874
 9385SOL     OW39613   4.631   1.824   1.924 -0.1004  0.3114 -0.0826
 9385SOL    HW139614   4.672   1.883   1.861  0.3203 -0.7659 -0.8129
 9385SOL    HW239615   4.634   1.884   1.999 -1.0459 -0.0730  0.2688
 9386SOL     OW39616   4.372   2.408   6.439  0.5187  0.1912 -0.4074
 9386SOL    HW139617   4.365   2.390   6.345 -1.3923 -1.5567  0.0538
 9386SOL    HW239618   4.450   2.463   6.432  0.7004 -0.0798 -0.4822
 9387SOL     OW39619   3.628   4.324  10.673  0.3904 -0.4135 -0.3474
 9387SOL    HW139620   3.587   4.406  10.701 -0.6157 -1.1135  0.2378
 9387SOL    HW239621   3.578   4.255  10.716 -1.2372  0.6869 -0.4521
 9388SOL     OW39622   2.649   2.378  12.021  0.6739 -0.5739 -0.6543
 9388SOL    HW139623   2.729   2.329  12.003  0.8647 -0.2036 -0.8230
 9388SOL    HW239624   2.650   2.460  11.971  2.0060  0.5291  1.1365
 9389SOL     OW39625   4.000   0.156   7.555 -0.5794 -0.4108  0.3536
 9389SOL    HW139626   3.943   0.207   7.613  0.2714 -1.5386  2.1872
 9389SOL    HW239627   3.953   0.073   7.566  0.2358 -1.0311 -0.8974
 9390SOL     OW39628   0.629   4.370   4.556 -0.0943  0.0404  0.3139
 9390SOL    HW139629   0.603   4.413   4.474  2.9047 -0.1021 -0.6922
 9390SOL    HW239630   0.669   4.440   4.608 -0.5819  0.2960  0.3512
 9391SOL     OW39631   4.118   1.583   5.704  0.3306 -0.4201  0.0463
 9391SOL    HW139632   4.199   1.608   5.660  1.2647 -0.7176  1.5881
 9391SOL    HW239633   4.146   1.520   5.771 -0.6597 -0.2303  0.6464
 9392SOL     OW39634   1.357   3.310   3.781 -0.3028 -0.3694  0.4695
 9392SOL    HW139635   1.359   3.224   3.822 -0.0757 -1.9711 -2.9281
 9392SOL    HW239636   1.301   3.294   3.706 -2.0955  0.5389  1.6010
 9393SOL     OW39637   2.356   3.104   2.174  0.2490  0.0333  0.4571
 9393SOL    HW139638   2.338   3.022   2.128  0.0796  0.8894 -1.0018
 9393SOL    HW239639   2.394   3.070   2.255  0.5133 -1.9807 -0.5145
 9394SOL     OW39640   0.581   4.442   3.629 -0.3610 -0.1320 -0.2382
 9394SOL    HW139641   0.549   4.390   3.703  0.6635  0.5185  0.6617
 9394SOL    HW239642   0.651   4.382   3.602 -1.1477 -1.6425  1.1100
 9395SOL     OW39643   1.860   3.980   2.545  0.5121  0.2387 -0.3605
 9395SOL    HW139644   1.828   3.945   2.461  2.3044  0.9945 -1.3642
 9395SOL    HW239645   1.879   4.068   2.514  0.0569  0.9570  1.3974
 9396SOL     OW39646   1.084   4.071  12.092  0.8033 -0.4626 -0.3810
 9396SOL    HW139647   1.153   4.128  12.058  2.1058 -1.0188  1.3191
 9396SOL    HW239648   1.118   3.988  12.059  0.6867  0.5334 -3.0492
 9397SOL     OW39649   4.639   1.178   5.180 -0.0992 -0.6137 -0.6342
 9397SOL    HW139650   4.645   1.208   5.271 -1.2438 -1.5890 -0.2416
 9397SOL    HW239651   4.676   1.255   5.137 -0.1015 -0.2596 -0.0041
 9398SOL     OW39652   0.737   0.510  16.798  0.6575  0.3501 -0.2619
 9398SOL    HW139653   0.650   0.548  16.799  0.0817 -1.0107  3.2559
 9398SOL    HW239654   0.792   0.587  16.782 -0.9516  1.1209 -2.0270
 9399SOL     OW39655   3.202   2.365   8.534  0.3794  0.6500 -0.1671
 9399SOL    HW139656   3.248   2.283   8.549 -1.4069 -0.2201  0.5565
 9399SOL    HW239657   3.257   2.422   8.588  1.5222  0.5140 -1.1870
 9400SOL     OW39658   0.125   0.575   6.367 -0.3033 -0.8568 -0.2924
 9400SOL    HW139659   0.052   0.576   6.429  0.9564  0.1261  1.1685
 9400SOL    HW239660   0.190   0.516   6.406  1.5394  1.1784 -0.3112
 9401SOL     OW39661   3.380   3.242  13.878 -0.4521  0.4659  0.6288
 9401SOL    HW139662   3.340   3.281  13.955  0.0670 -1.6873  1.9699
 9401SOL    HW239663   3.438   3.169  13.902  0.5852  0.8382 -0.7304
 9402SOL     OW39664   3.345   1.292   5.781 -0.1182  0.3586  0.4264
 9402SOL    HW139665   3.373   1.363   5.723  0.1597 -0.0905  0.0048
 9402SOL    HW239666   3.273   1.252   5.732 -0.6735  1.4187  0.3812
 9403SOL     OW39667   0.029   0.984   3.391 -0.1624  0.2407 -0.2239
 9403SOL    HW139668   0.030   0.947   3.303 -1.6202 -0.0068 -0.1289
 9403SOL    HW239669   0.115   1.027   3.400 -0.1163 -0.1848  1.2951
 9404SOL     OW39670   0.319   1.536   5.647 -0.3293  0.7018 -0.2101
 9404SOL    HW139671   0.414   1.538   5.632 -0.6554  0.1760 -2.2295
 9404SOL    HW239672   0.289   1.623   5.621 -1.8689 -0.3328 -1.8845
 9405SOL     OW39673   3.624   1.894   5.137  0.3516  0.1994 -0.2089
 9405SOL    HW139674   3.704   1.881   5.087 -0.5295 -2.3413 -1.0010
 9405SOL    HW239675   3.559   1.916   5.070  1.2889  2.2824 -0.4223
 9406SOL     OW39676   2.663   1.732  10.741  0.1227  0.0146  0.3623
 9406SOL    HW139677   2.586   1.706  10.690 -0.2180 -0.9230  1.3570
 9406SOL    HW239678   2.624   1.732  10.828 -1.3449  0.6672 -0.2935
 9407SOL     OW39679   0.146   3.665  17.550 -0.2366 -0.4134 -0.0715
 9407SOL    HW139680   0.122   3.758  17.553 -1.9071 -0.8447  0.0233
 9407SOL    HW239681   0.212   3.657  17.619  1.8520  1.2803 -1.9023
 9408SOL     OW39682   3.084   1.777   6.028  0.7397 -0.5439  0.2916
 9408SOL    HW139683   3.167   1.808   5.992  0.1686 -0.5007 -0.9920
 9408SOL    HW239684   3.086   1.681   6.021 -0.2368 -0.5605  0.1553
 9409SOL     OW39685   1.963   1.287   7.068  0.0297 -0.3989 -0.0435
 9409SOL    HW139686   1.925   1.319   7.150  1.4159 -0.3443  0.5762
 9409SOL    HW239687   1.963   1.375   7.030 -1.2520  0.3994  1.8033
 9410SOL     OW39688   1.540   2.774   8.613  0.0993 -0.3703  0.0958
 9410SOL    HW139689   1.556   2.777   8.707  0.4848  0.6331  0.0039
 9410SOL    HW239690   1.624   2.787   8.570  0.1066 -2.2996 -0.4637
 9411SOL     OW39691   2.153   2.103   2.085 -0.1324  0.1789 -0.0818
 9411SOL    HW139692   2.110   2.169   2.139 -3.4533  0.0232 -2.5814
 9411SOL    HW239693   2.247   2.123   2.092 -0.4358  1.1434  1.1845
 9412SOL     OW39694   2.023   1.432   8.791 -0.4738 -0.1359  0.5050
 9412SOL    HW139695   2.046   1.345   8.822 -0.3077 -0.1590  0.3153
 9412SOL    HW239696   2.098   1.478   8.832  0.4869  0.8681 -2.4067
 9413SOL     OW39697   3.599   0.181   4.121 -0.0824  0.1634  0.8590
 9413SOL    HW139698   3.611   0.246   4.052 -0.7747 -0.8203 -0.1968
 9413SOL    HW239699   3.674   0.130   4.092 -0.9756 -1.2154  0.9834
 9414SOL     OW39700   4.345   2.950  10.995 -0.0881 -0.3430 -0.2561
 9414SOL    HW139701   4.369   2.867  10.955 -1.9475 -1.2317  0.4721
 9414SOL    HW239702   4.339   2.930  11.088 -1.5184 -0.1319 -0.3063
 9415SOL     OW39703   0.870   1.960  11.478 -0.3567 -0.0702  0.1876
 9415SOL    HW139704   0.866   2.046  11.519 -0.8418 -1.3881  2.9242
 9415SOL    HW239705   0.964   1.955  11.456 -0.3344 -1.2623  0.5518
 9416SOL     OW39706   2.792   0.711  13.676  0.2593 -0.3204 -0.9997
 9416SOL    HW139707   2.748   0.646  13.731  0.1285  0.1988 -0.4949
 9416SOL    HW239708   2.717   0.763  13.648  1.8309  1.0405 -2.6757
 9417SOL     OW39709   4.439   2.243   5.527  0.6857  0.0962 -0.2367
 9417SOL    HW139710   4.372   2.256   5.460  0.8613  3.5094  0.2323
 9417SOL    HW239711   4.515   2.281   5.484  1.1401 -2.5452 -1.7503
 9418SOL     OW39712   4.245   2.938   9.724 -0.2561  0.0111 -0.0457
 9418SOL    HW139713   4.199   2.858   9.701 -0.9652  0.7128 -1.0618
 9418SOL    HW239714   4.228   2.948   9.818 -2.9876  1.9942 -0.7632
 9419SOL     OW39715   4.119   1.111   3.713 -0.2441  0.1054 -0.4455
 9419SOL    HW139716   4.171   1.104   3.634  2.0914  0.3441  1.0626
 9419SOL    HW239717   4.141   1.030   3.758  1.4365  0.1725 -1.1907
 9420SOL     OW39718   0.543   0.648   6.063  0.3569  0.2519 -0.0084
 9420SOL    HW139719   0.585   0.725   6.025 -0.1254 -0.2274 -1.5132
 9420SOL    HW239720   0.463   0.696   6.086  1.6269  2.4049 -0.1274
 9421SOL     OW39721   4.030   4.429   9.482 -0.0047  0.1877 -0.5372
 9421SOL    HW139722   4.018   4.359   9.417  1.8370  0.6666 -1.3889
 9421SOL    HW239723   3.944   4.465   9.502  0.4374  1.4810 -0.9608
 9422SOL     OW39724   2.566   4.132  14.024 -0.1353 -0.6436 -0.0001
 9422SOL    HW139725   2.485   4.087  14.045 -0.0601 -0.4878  0.6273
 9422SOL    HW239726   2.575   4.100  13.935  0.0927  2.3112 -1.0417
 9423SOL     OW39727   3.162   3.909   4.222 -0.3554 -0.0467  0.5844
 9423SOL    HW139728   3.229   3.976   4.210 -1.4771  1.3313  2.1201
 9423SOL    HW239729   3.166   3.866   4.137 -0.1460  1.1021  0.0190
 9424SOL     OW39730   2.391   0.392  12.938 -0.3682 -0.0627 -0.9447
 9424SOL    HW139731   2.427   0.423  12.854  3.1775 -0.9300  0.2403
 9424SOL    HW239732   2.386   0.472  12.989 -1.8479  0.5978 -2.1212
 9425SOL     OW39733   2.372   2.284   5.735  0.1492 -0.2062  0.3659
 9425SOL    HW139734   2.417   2.357   5.775  1.2511 -1.2585  1.0389
 9425SOL    HW239735   2.282   2.318   5.742  0.7984  1.3946  0.8538
 9426SOL     OW39736   3.536   1.577  10.834  0.1735  0.1213  0.3820
 9426SOL    HW139737   3.523   1.601  10.742 -1.0702 -2.1727 -0.0302
 9426SOL    HW239738   3.617   1.626  10.847  2.0187 -3.0315  0.6555
 9427SOL     OW39739   0.618   1.399   2.049 -0.3785  0.4426  0.5021
 9427SOL    HW139740   0.527   1.373   2.037 -0.3608  0.3930  0.4773
 9427SOL    HW239741   0.619   1.470   1.985 -0.6041  0.3621  0.4107
 9428SOL     OW39742   2.145   1.979  13.868 -0.4618  0.0450 -0.3567
 9428SOL    HW139743   2.224   1.974  13.815 -0.1293 -0.2288  0.1686
 9428SOL    HW239744   2.078   1.978  13.799  0.4697 -2.7887 -1.2114
 9429SOL     OW39745   2.208   4.557   7.718  0.0833  0.5175  0.4293
 9429SOL    HW139746   2.289   4.584   7.676 -0.1645  1.2251  0.4094
 9429SOL    HW239747   2.143   4.592   7.658  1.3163  0.3742 -0.9805
 9430SOL     OW39748   0.785   1.817  17.006  0.0658  0.4022 -0.0224
 9430SOL    HW139749   0.701   1.854  16.979 -0.3399  1.6878  3.0617
 9430SOL    HW239750   0.821   1.787  16.923  2.6729  2.1082  0.4988
 9431SOL     OW39751   2.576   3.424  10.312  0.5058  0.9295 -0.0404
 9431SOL    HW139752   2.626   3.504  10.330  1.8487  0.5879 -2.3736
 9431SOL    HW239753   2.597   3.371  10.389 -2.2101  0.1614  0.1710
 9432SOL     OW39754   2.897   4.229   8.577  0.1541 -0.7357  0.0323
 9432SOL    HW139755   2.946   4.311   8.568 -2.6615  1.2332  2.6163
 9432SOL    HW239756   2.929   4.196   8.661  1.3598  1.5257  0.4630
 9433SOL     OW39757   2.870   4.551   7.893 -0.0769 -0.2719 -0.4565
 9433SOL    HW139758   2.787   4.505   7.904 -0.3619  0.1648 -0.7642
 9433SOL    HW239759   2.925   4.495   7.948 -0.1170 -0.1289 -0.2669
 9434SOL     OW39760   4.064   0.491   5.724  0.0953  0.0055 -0.0466
 9434SOL    HW139761   4.003   0.487   5.798 -0.3790  1.1444 -0.3720
 9434SOL    HW239762   4.143   0.468   5.772  0.5194  1.3163 -0.1144
 9435SOL     OW39763   2.830   0.478   2.449 -0.0133  0.5218  0.1647
 9435SOL    HW139764   2.746   0.518   2.473  0.0005 -0.2350  1.4778
 9435SOL    HW239765   2.883   0.557   2.434  0.4889  0.0241 -0.6637
 9436SOL     OW39766   0.620   3.654  17.127 -0.3025 -0.3314 -0.3542
 9436SOL    HW139767   0.670   3.605  17.192 -0.0797  2.2768  1.4556
 9436SOL    HW239768   0.578   3.585  17.076 -1.9899  0.0718  0.4973
 9437SOL     OW39769   4.682   3.302  14.845 -0.0359 -0.3892 -0.5180
 9437SOL    HW139770   4.634   3.378  14.876 -0.1072  0.4864 -2.7778
 9437SOL    HW239771   4.711   3.269  14.930  0.3048  0.6302 -0.2436
 9438SOL     OW39772   0.828   2.316   7.281 -0.1052 -0.1801  0.1021
 9438SOL    HW139773   0.745   2.362   7.272 -1.1990 -2.4317 -1.2316
 9438SOL    HW239774   0.822   2.246   7.346  0.2586 -0.0930  0.2289
 9439SOL     OW39775   3.833   1.816   6.478 -0.3543 -0.1807  0.1160
 9439SOL    HW139776   3.761   1.871   6.448 -0.0098  1.4888  2.4117
 9439SOL    HW239777   3.781   1.736   6.487  0.3696 -0.3637  2.5661
 9440SOL     OW39778   0.412   2.345   7.609 -0.1645 -0.1869 -0.7004
 9440SOL    HW139779   0.403   2.371   7.701 -1.5494  1.9817 -1.4410
 9440SOL    HW239780   0.487   2.288   7.623 -0.4771 -0.9930 -2.2478
 9441SOL     OW39781   4.575   1.853   7.061  0.1247 -0.1190 -0.1690
 9441SOL    HW139782   4.627   1.927   7.091  2.0932 -2.3588  1.9634
 9441SOL    HW239783   4.620   1.790   7.118 -1.0374  0.1213  1.0329
 9442SOL     OW39784   1.821   1.465   7.619  0.1635  0.3443 -0.0053
 9442SOL    HW139785   1.885   1.421   7.562  2.1096  0.0276  2.4135
 9442SOL    HW239786   1.786   1.528   7.556 -2.3810 -1.4098 -0.3469
 9443SOL     OW39787   1.934   2.688   3.020  0.2739 -0.0180  0.0555
 9443SOL    HW139788   2.005   2.686   2.956 -0.9014 -0.0252 -1.2205
 9443SOL    HW239789   1.972   2.639   3.094  0.1145 -2.1567 -1.2851
 9444SOL     OW39790   4.104   2.686   7.790 -0.7189  0.2000  0.0321
 9444SOL    HW139791   4.073   2.722   7.873  1.9281  2.7172 -0.0800
 9444SOL    HW239792   4.057   2.602   7.789 -0.6333  0.1503  0.1387
 9445SOL     OW39793   4.471   1.353   2.703 -0.1213  0.1682 -0.2167
 9445SOL    HW139794   4.395   1.382   2.653 -0.3762  0.4452  0.3265
 9445SOL    HW239795   4.440   1.269   2.736 -0.1679  0.2065 -0.1631
 9446SOL     OW39796   0.375   3.822  16.869 -0.0579  0.5759 -0.1044
 9446SOL    HW139797   0.329   3.772  16.937  0.2547  0.6272  0.1469
 9446SOL    HW239798   0.448   3.761  16.857  0.1228  0.4643  1.5598
 9447SOL     OW39799   0.427   1.900   9.069  0.0748  0.4345 -0.2563
 9447SOL    HW139800   0.414   1.992   9.048 -1.5808  0.5854  1.4963
 9447SOL    HW239801   0.519   1.886   9.044  0.6218  1.9938  0.8349
 9448SOL     OW39802   0.279   3.114   3.272 -0.0842  0.0482 -0.4702
 9448SOL    HW139803   0.226   3.129   3.194 -0.3010  0.2886 -0.2760
 9448SOL    HW239804   0.209   3.062   3.313  0.1442 -0.1335 -0.3075
 9449SOL     OW39805   1.777   1.023   4.947 -0.2195 -0.0576  0.0897
 9449SOL    HW139806   1.761   1.067   4.864  2.3928  0.4327 -0.1510
 9449SOL    HW239807   1.695   0.975   4.960 -1.6235  2.1592 -0.6089
 9450SOL     OW39808   4.642   2.165   5.050  0.2552 -0.0047 -0.3371
 9450SOL    HW139809   4.566   2.160   5.108 -0.4475 -0.8042 -1.3549
 9450SOL    HW239810   4.612   2.177   4.960  0.5475  2.1891 -0.1532
 9451SOL     OW39811   0.435   1.139   5.699  0.1291 -0.4360  0.2506
 9451SOL    HW139812   0.504   1.127   5.764  1.9340 -0.0978 -1.6123
 9451SOL    HW239813   0.458   1.223   5.660  0.8022  0.0019  1.5855
 9452SOL     OW39814   3.229   3.195  11.395 -0.5456  0.1806 -0.4204
 9452SOL    HW139815   3.293   3.258  11.428 -0.4168  0.2186 -0.7419
 9452SOL    HW239816   3.163   3.255  11.359  0.1641  0.4393 -1.3094
 9453SOL     OW39817   2.461   4.504   4.968 -0.2298 -0.4925  0.0160
 9453SOL    HW139818   2.379   4.499   5.018 -0.3304  2.7777  0.1535
 9453SOL    HW239819   2.514   4.439   5.014 -2.0092 -1.4696  0.7238
 9454SOL     OW39820   2.179   1.511  13.186 -0.0002  0.7840  0.4876
 9454SOL    HW139821   2.150   1.437  13.240 -2.6198  1.1178 -0.4414
 9454SOL    HW239822   2.125   1.495  13.108  1.1383 -2.5193  0.3703
 9455SOL     OW39823   1.393   4.258   7.554 -0.4870 -0.0415  0.4542
 9455SOL    HW139824   1.466   4.310   7.589  0.0753  0.6700 -1.7626
 9455SOL    HW239825   1.401   4.185   7.615  1.0789  1.7932  2.4501
 9456SOL     OW39826   3.810   0.938  12.969  0.8114  0.5798 -0.0292
 9456SOL    HW139827   3.876   0.937  13.038 -1.6998 -0.5670  2.3746
 9456SOL    HW239828   3.837   0.860  12.919 -2.0311 -0.0617 -0.5741
 9457SOL     OW39829   3.756   2.951   7.701 -0.2553 -0.1525  0.6780
 9457SOL    HW139830   3.741   2.869   7.655  1.1850 -0.6147  1.0274
 9457SOL    HW239831   3.847   2.939   7.729 -0.6574 -0.9039  1.6259
 9458SOL     OW39832   1.741   0.539   4.007  0.5722 -0.1025 -0.4963
 9458SOL    HW139833   1.685   0.466   3.980  0.3718 -1.5268  3.8524
 9458SOL    HW239834   1.695   0.572   4.084 -0.2845  0.8027 -1.4032
 9459SOL     OW39835   2.324   2.707   7.224 -0.4844  0.0761 -0.1362
 9459SOL    HW139836   2.405   2.749   7.254  0.1215  0.7117 -2.6675
 9459SOL    HW239837   2.291   2.663   7.302 -0.2816  1.3590  0.6769
 9460SOL     OW39838   0.945   0.197   9.084  0.2843 -0.1283  0.1276
 9460SOL    HW139839   0.865   0.170   9.037  0.3030 -1.9606  1.1426
 9460SOL    HW239840   0.961   0.120   9.139  2.3271  0.3892  0.2467
 9461SOL     OW39841   0.483   2.291   8.477  0.2159 -0.3241  0.0539
 9461SOL    HW139842   0.390   2.274   8.490 -0.1421  1.6906  0.0804
 9461SOL    HW239843   0.529   2.275   8.560  3.0611  1.2489 -1.2024
 9462SOL     OW39844   0.345   2.168   9.117  0.2914  0.0444  0.2903
 9462SOL    HW139845   0.411   2.232   9.145 -0.3291  0.1934  1.4314
 9462SOL    HW239846   0.265   2.212   9.144  0.6133  0.6191  0.3152
 9463SOL     OW39847   0.449   2.865   6.557 -0.2594 -0.3118  0.0259
 9463SOL    HW139848   0.378   2.901   6.611  0.5429 -0.1205  0.9460
 9463SOL    HW239849   0.404   2.787   6.523  0.2637  0.2942 -2.0440
 9464SOL     OW39850   3.273   2.131   3.214 -0.5257  0.6875 -0.2075
 9464SOL    HW139851   3.248   2.045   3.246 -2.3219  1.5021  0.5609
 9464SOL    HW239852   3.314   2.107   3.131 -1.0524 -1.0841  0.0438
 9465SOL     OW39853   2.445   2.361   2.458 -0.1907 -0.4955  0.3055
 9465SOL    HW139854   2.396   2.297   2.405 -1.2795  0.4621  0.1517
 9465SOL    HW239855   2.514   2.380   2.395 -1.1190  1.1113 -0.2341
 9466SOL     OW39856   0.059   2.257   0.669  0.2762 -0.1915 -0.7857
 9466SOL    HW139857   0.088   2.301   0.589 -0.0842  0.9219 -0.3020
 9466SOL    HW239858   4.693   2.289   0.684 -0.0838 -2.4041  1.6758
 9467SOL     OW39859   1.202   3.047   1.697  0.2343 -0.5160  0.0209
 9467SOL    HW139860   1.289   3.009   1.686 -0.3811 -1.6303 -1.0143
 9467SOL    HW239861   1.174   3.042   1.606 -3.0449  1.9302  0.8877
 9468SOL     OW39862   3.897   1.846   5.044  0.7583 -0.4171 -0.0035
 9468SOL    HW139863   3.990   1.832   5.064  1.2485 -0.0280 -2.0146
 9468SOL    HW239864   3.862   1.787   5.111 -0.5408  1.3028  0.8260
 9469SOL     OW39865   1.371   3.664  17.183 -0.4683 -0.0567 -0.1055
 9469SOL    HW139866   1.429   3.698  17.252  0.5372 -0.5510 -0.7142
 9469SOL    HW239867   1.319   3.743  17.166 -0.9173 -0.8123 -2.1421
 9470SOL     OW39868   4.503   3.831   9.997 -0.0421  0.0404 -0.0954
 9470SOL    HW139869   4.461   3.904  10.043 -1.5770 -0.4154 -0.7814
 9470SOL    HW239870   4.512   3.773  10.073 -1.0885  1.6433  1.2648
 9471SOL     OW39871   4.595   3.682   0.211  0.3750  0.2821  0.0635
 9471SOL    HW139872   4.568   3.736   0.286 -1.1212 -1.1332  0.5430
 9471SOL    HW239873   4.511   3.666   0.167  0.5335 -1.3318  0.3248
 9472SOL     OW39874   3.653   1.531  14.272  0.0813  0.0063  0.5256
 9472SOL    HW139875   3.656   1.483  14.190 -2.1900  0.1859  0.3295
 9472SOL    HW239876   3.562   1.561  14.275 -0.1298 -0.6614  0.7724
 9473SOL     OW39877   2.908   2.512   9.363 -0.0623  0.2776 -0.4518
 9473SOL    HW139878   3.003   2.516   9.351  0.5872 -0.8826  4.3987
 9473SOL    HW239879   2.880   2.430   9.322  1.6424 -0.3135 -0.4598
 9474SOL     OW39880   0.643   2.155   1.704  0.3870 -0.1948  0.3679
 9474SOL    HW139881   0.702   2.101   1.757 -1.0756  0.2932  2.5019
 9474SOL    HW239882   0.692   2.182   1.626  0.5596  0.6843  0.7797
 9475SOL     OW39883   3.067   2.739   0.942 -0.0065  0.0926  0.0440
 9475SOL    HW139884   2.996   2.759   0.881 -1.2907 -1.8359  0.9129
 9475SOL    HW239885   3.027   2.683   1.007  0.9470 -0.1603  0.4211
 9476SOL     OW39886   4.096   2.227   2.000 -0.3613 -0.3255 -0.5800
 9476SOL    HW139887   4.048   2.152   2.033 -0.4561 -0.4037 -0.9037
 9476SOL    HW239888   4.064   2.299   2.054 -1.3995 -1.4392  0.2900
 9477SOL     OW39889   2.678   4.585  12.426 -0.0382 -0.1076 -0.3872
 9477SOL    HW139890   2.717   4.565  12.511  1.0895  0.8294 -0.6743
 9477SOL    HW239891   2.585   4.572  12.441  0.0631 -0.7014 -0.2379
 9478SOL     OW39892   4.546   0.006   7.292 -0.0283  0.3039 -0.4714
 9478SOL    HW139893   4.623   4.672   7.287 -0.1890 -0.1285  2.1679
 9478SOL    HW239894   4.484   4.682   7.237 -1.1899  0.7630  0.4213
 9479SOL     OW39895   2.120   0.293  16.708  0.5640  0.1548  0.1779
 9479SOL    HW139896   2.143   0.380  16.677  2.9353 -0.6743 -0.4187
 9479SOL    HW239897   2.070   0.318  16.786 -0.4042 -0.4477 -0.2501
 9480SOL     OW39898   3.393   3.552  10.093 -0.3041  0.0247  0.4697
 9480SOL    HW139899   3.485   3.527  10.097 -0.6299 -0.9893  1.5740
 9480SOL    HW239900   3.352   3.469  10.067  2.4584 -1.2918  0.2888
 9481SOL     OW39901   0.322   2.862   8.556 -0.3236  0.0018 -0.3413
 9481SOL    HW139902   0.399   2.903   8.517 -0.7128  0.0570 -1.0506
 9481SOL    HW239903   0.249   2.923   8.545 -0.8398 -0.9060 -1.9343
 9482SOL     OW39904   0.865   0.898   8.381 -0.4057  0.0493  0.3332
 9482SOL    HW139905   0.812   0.964   8.336 -0.2358  0.1403  0.2647
 9482SOL    HW239906   0.881   0.830   8.316  0.1385 -0.0633  0.5794
 9483SOL     OW39907   0.995   3.628   2.970  0.1371 -0.4573  0.3724
 9483SOL    HW139908   1.046   3.549   2.953 -1.2596 -1.3447  0.3325
 9483SOL    HW239909   1.071   3.686   2.964 -0.6521  0.3457 -1.7969
 9484SOL     OW39910   2.540   3.217   4.740  0.0246  0.0745 -0.4901
 9484SOL    HW139911   2.456   3.246   4.705 -0.2089  2.8268  2.3813
 9484SOL    HW239912   2.548   3.266   4.822  3.4211 -2.1514  0.5496
 9485SOL     OW39913   4.022   2.161  11.836 -0.2916  0.2514 -0.0942
 9485SOL    HW139914   3.963   2.138  11.907 -0.2154  0.8720  0.1742
 9485SOL    HW239915   4.089   2.093  11.842 -0.3623  0.0730 -1.3827
 9486SOL     OW39916   0.263   4.428  14.082 -0.2739 -0.3818 -0.3404
 9486SOL    HW139917   0.324   4.460  14.148 -1.2904 -2.1487  1.4463
 9486SOL    HW239918   0.181   4.466  14.112 -0.4155 -1.6937  0.9223
 9487SOL     OW39919   3.676   1.585   6.484  0.1577 -0.1731  0.5847
 9487SOL    HW139920   3.671   1.560   6.576 -0.9235  3.0991  1.3892
 9487SOL    HW239921   3.610   1.534   6.437 -1.1525  0.4654  1.7358
 9488SOL     OW39922   0.353   0.028   0.839  0.2644  1.0030  0.3514
 9488SOL    HW139923   0.435   4.709   0.813 -0.3508 -1.0368  1.8022
 9488SOL    HW239924   0.349   0.103   0.779  0.4128  0.7063 -0.0341
 9489SOL     OW39925   2.677   2.655   7.004 -0.2891  0.1113 -0.0739
 9489SOL    HW139926   2.704   2.723   6.943  2.0069 -0.2456  0.5331
 9489SOL    HW239927   2.635   2.700   7.077  1.7991  2.4800 -0.3244
 9490SOL     OW39928   2.495   2.931   2.335 -0.0695 -0.4629 -0.0423
 9490SOL    HW139929   2.532   2.845   2.316  2.0603  0.2968  0.5700
 9490SOL    HW239930   2.578   2.972   2.361 -0.2880  0.3687 -0.6527
 9491SOL     OW39931   1.572   1.987   9.204  0.0696 -0.1559 -0.0538
 9491SOL    HW139932   1.597   1.947   9.287  1.0181  1.5655  0.4818
 9491SOL    HW239933   1.648   1.964   9.151 -0.0047  0.3782 -0.3952
 9492SOL     OW39934   4.341   1.490   2.052 -0.1161 -0.1026  0.1920
 9492SOL    HW139935   4.364   1.575   2.091  1.1867 -1.1846  1.7760
 9492SOL    HW239936   4.247   1.504   2.053 -0.3003 -1.2268 -1.6431
 9493SOL     OW39937   0.982   3.615   7.944  0.2054  0.4319  0.4810
 9493SOL    HW139938   0.903   3.569   7.973 -1.0358  0.7895 -2.2714
 9493SOL    HW239939   1.001   3.563   7.865 -1.7315 -0.3981  0.5394
 9494SOL     OW39940   3.953   0.410  11.638  0.5964 -0.0607  0.2018
 9494SOL    HW139941   3.971   0.416  11.732 -2.4172  0.5009  0.7243
 9494SOL    HW239942   3.902   0.491  11.636  0.1318 -0.3759 -0.4651
 9495SOL     OW39943   3.194   2.165   1.594  0.3218 -0.1453  0.1348
 9495SOL    HW139944   3.217   2.231   1.659 -0.5842 -0.0525  0.3610
 9495SOL    HW239945   3.266   2.102   1.602  1.2107  0.5003 -2.7262
 9496SOL     OW39946   0.850   3.750   2.781 -0.6712  0.0524  0.2150
 9496SOL    HW139947   0.882   3.832   2.744  0.6514  0.2197  1.7179
 9496SOL    HW239948   0.926   3.715   2.828 -0.8343 -0.0764  0.3815
 9497SOL     OW39949   0.721   1.597  15.958 -0.8105  0.2954  0.7774
 9497SOL    HW139950   0.781   1.632  15.892 -0.4411 -0.2753  0.8075
 9497SOL    HW239951   0.645   1.653  15.943 -0.8738  0.1946  0.7228
 9498SOL     OW39952   0.573   1.489  11.921 -0.0479 -0.2715  0.0700
 9498SOL    HW139953   0.588   1.403  11.882 -0.8791 -0.6924  0.6806
 9498SOL    HW239954   0.611   1.540  11.848 -2.3266 -0.1019 -1.0024
 9499SOL     OW39955   2.092   4.206   3.100 -0.0340 -0.3488  0.0924
 9499SOL    HW139956   2.022   4.165   3.152  0.8327 -1.5599  0.2865
 9499SOL    HW239957   2.100   4.293   3.140  1.4873 -0.4477 -0.0155
 9500SOL     OW39958   4.018   1.479   6.971  0.6240  0.3921 -0.2654
 9500SOL    HW139959   3.950   1.518   7.026  1.5432 -0.4360  1.4514
 9500SOL    HW239960   3.997   1.525   6.889  0.5655  1.1422  0.1719
 9501SOL     OW39961   0.195   1.308  11.928 -0.8032 -0.5740  0.0078
 9501SOL    HW139962   0.145   1.304  11.847  0.4672  0.5077 -0.8380
 9501SOL    HW239963   0.133   1.283  11.997 -0.2031 -0.6819  0.5100
 9502SOL     OW39964   2.560   0.907   3.700  0.1649 -0.1475  0.2004
 9502SOL    HW139965   2.643   0.950   3.685 -1.0261  1.8852 -0.5153
 9502SOL    HW239966   2.579   0.865   3.784  0.0459  2.6614  1.6201
 9503SOL     OW39967   3.281   1.024   8.831  0.5340 -0.2694 -0.0744
 9503SOL    HW139968   3.312   1.026   8.921 -3.0083  1.2975  1.1043
 9503SOL    HW239969   3.236   1.108   8.827  0.0742 -0.5678 -1.2085
 9504SOL     OW39970   1.316   3.968   2.763 -0.1307 -0.2634  0.0860
 9504SOL    HW139971   1.378   4.009   2.704 -0.3711 -1.2772 -0.8789
 9504SOL    HW239972   1.274   4.039   2.812 -0.4247  0.3392 -1.0531
 9505SOL     OW39973   1.580   1.026  12.581 -0.2683 -0.2910 -0.2463
 9505SOL    HW139974   1.536   1.090  12.525 -0.2223  0.1439  0.2115
 9505SOL    HW239975   1.545   1.047  12.668  0.1558  2.0802 -0.6325
 9506SOL     OW39976   2.854   1.731   2.488  0.4411 -0.7050 -0.0442
 9506SOL    HW139977   2.893   1.762   2.569 -0.5574 -2.8696  1.2750
 9506SOL    HW239978   2.763   1.744   2.514  0.3932  0.5042 -0.7919
 9507SOL     OW39979   4.468   1.538   7.837  0.3833  0.7869 -0.2015
 9507SOL    HW139980   4.442   1.561   7.926  1.7202 -0.4223  0.4822
 9507SOL    HW239981   4.389   1.535   7.782  0.0888 -0.1858  0.2809
 9508SOL     OW39982   3.082   0.626   8.360  0.3700 -0.0105  0.4038
 9508SOL    HW139983   3.031   0.547   8.340 -0.0133  0.3163  0.0717
 9508SOL    HW239984   3.141   0.627   8.285  2.0048 -0.0733  1.6912
 9509SOL     OW39985   2.528   0.880   9.624 -0.8386 -0.3809  0.2521
 9509SOL    HW139986   2.617   0.847   9.613 -0.0634  1.5488  0.8786
 9509SOL    HW239987   2.535   0.973   9.604 -2.7629  0.2398  2.3700
 9510SOL     OW39988   0.952   3.999   2.720  0.0052 -0.1969 -0.2239
 9510SOL    HW139989   1.035   4.027   2.759 -1.6453 -0.6260  3.5436
 9510SOL    HW239990   0.966   4.003   2.625  1.3753  2.5717  0.0864
 9511SOL     OW39991   3.174   4.090   0.679 -0.3220  0.1749 -0.1931
 9511SOL    HW139992   3.111   4.093   0.750 -0.6561  0.3761 -0.4953
 9511SOL    HW239993   3.126   4.156   0.628 -0.1558  2.5857  2.8209
 9512SOL     OW39994   0.287   4.605   3.228 -0.4538 -0.5329 -0.6588
 9512SOL    HW139995   0.197   4.582   3.252  0.3401 -2.3639  0.5814
 9512SOL    HW239996   0.307   4.535   3.167  0.8813 -1.2046  0.5469
 9513SOL     OW39997   0.848   0.702   7.605 -0.2067  0.3784  0.0300
 9513SOL    HW139998   0.820   0.612   7.591  2.7741 -0.4249 -0.8183
 9513SOL    HW239999   0.763   0.745   7.596 -0.1527  0.1118 -1.7643
 9514SOL     OW40000   3.225   0.133   6.151 -0.0732 -0.0187  0.3102
 9514SOL    HW140001   3.305   0.099   6.110 -0.3799  0.3720 -0.6092
 9514SOL    HW240002   3.156   0.068   6.137 -1.6660  1.8207 -0.3281
 9515SOL     OW40003   1.374   2.171   2.664  0.3297 -0.3068 -0.1699
 9515SOL    HW140004   1.442   2.177   2.597 -1.6257  1.8167 -1.9346
 9515SOL    HW240005   1.366   2.264   2.684 -2.2349 -0.9959  1.8950
 9516SOL     OW40006   3.628   3.314   6.069 -0.0593  0.1000  0.0809
 9516SOL    HW140007   3.562   3.372   6.030 -0.2088 -0.0354  0.1321
 9516SOL    HW240008   3.675   3.375   6.126  1.2130 -0.9904  0.2070
 9517SOL     OW40009   2.132   4.570  16.722 -0.2967  0.1639  0.5516
 9517SOL    HW140010   2.110   4.554  16.813 -0.3285 -1.7149  0.2131
 9517SOL    HW240011   2.046   4.598  16.688  0.5459  0.7683 -1.1078
 9518SOL     OW40012   3.744   4.331   2.807  0.5570  0.4879 -0.8189
 9518SOL    HW140013   3.775   4.366   2.890 -0.5430  1.4186 -0.7914
 9518SOL    HW240014   3.652   4.306   2.815  0.0104  3.1541  1.2500
 9519SOL     OW40015   4.628   1.339   3.255 -0.3989 -0.0303 -0.5069
 9519SOL    HW140016   4.700   1.317   3.196 -0.0895 -0.6672  0.1108
 9519SOL    HW240017   4.641   1.433   3.260  0.9559 -0.3241  1.3956
 9520SOL     OW40018   4.344   1.384   6.397 -0.5555  0.0798 -0.1898
 9520SOL    HW140019   4.424   1.425   6.365  0.2933 -2.6179 -1.4917
 9520SOL    HW240020   4.329   1.316   6.331 -1.0422 -0.4229  0.4384
 9521SOL     OW40021   2.410   0.157   7.958  0.2446  0.0146 -0.3403
 9521SOL    HW140022   2.457   0.080   7.929  2.1817  1.1641 -0.2531
 9521SOL    HW240023   2.464   0.177   8.035 -0.2555  0.4439 -0.0978
 9522SOL     OW40024   0.363   1.278   9.336  0.4450 -0.1004  0.7144
 9522SOL    HW140025   0.359   1.210   9.404 -0.4231  0.9065  1.6683
 9522SOL    HW240026   0.421   1.231   9.276 -2.0487 -0.1542 -1.6626
 9523SOL     OW40027   1.172   1.015   6.236 -0.0527 -0.2245  0.1832
 9523SOL    HW140028   1.222   1.082   6.282 -0.3892  0.5600 -0.5889
 9523SOL    HW240029   1.127   1.068   6.170  0.5323 -0.0895 -0.1110
 9524SOL     OW40030   4.291   2.911   2.381  0.3145 -0.7985 -0.0958
 9524SOL    HW140031   4.238   2.922   2.302  1.4122  2.9465 -0.3159
 9524SOL    HW240032   4.333   2.997   2.383 -1.8615  0.2492  1.5326
 9525SOL     OW40033   2.032   1.144   0.327  0.2423 -0.0272  0.0691
 9525SOL    HW140034   2.003   1.098   0.248  1.3795 -0.7364  0.0705
 9525SOL    HW240035   1.957   1.124   0.383 -3.3310  3.1921 -3.5762
 9526SOL     OW40036   0.283   2.409   2.608 -0.0431 -0.1687 -0.0507
 9526SOL    HW140037   0.361   2.424   2.554 -0.2132 -0.9252 -0.4950
 9526SOL    HW240038   0.221   2.401   2.535  1.1006 -0.0530 -1.0413
 9527SOL     OW40039   1.697   0.560   8.417 -0.2021  0.2399  0.1005
 9527SOL    HW140040   1.653   0.574   8.501 -0.0891 -0.2165  0.2353
 9527SOL    HW240041   1.703   0.464   8.417  0.0252  0.2409  2.9169
 9528SOL     OW40042   2.959   1.497   8.454 -0.1307 -0.6209 -0.2047
 9528SOL    HW140043   2.878   1.521   8.408 -0.5532 -0.0113  0.8675
 9528SOL    HW240044   3.014   1.563   8.412  0.9405 -2.2886 -1.4363
 9529SOL     OW40045   3.651   0.732   5.569  0.6041 -0.2527 -0.1625
 9529SOL    HW140046   3.633   0.699   5.657 -4.8447  1.1888 -0.7606
 9529SOL    HW240047   3.676   0.823   5.583 -0.8443  0.0973  0.1058
 9530SOL     OW40048   3.273   0.923   8.541  0.5329  0.0660 -0.1084
 9530SOL    HW140049   3.310   0.920   8.453 -0.9323  1.4035 -0.7810
 9530SOL    HW240050   3.292   1.013   8.568  0.3891 -0.2589  1.0698
 9531SOL     OW40051   1.167   3.988   8.090 -0.7050  0.1731 -0.0039
 9531SOL    HW140052   1.195   4.076   8.064  2.2032 -1.0460 -1.0126
 9531SOL    HW240053   1.157   4.006   8.184 -0.5209 -0.7503  0.1947
 9532SOL     OW40054   2.607   1.492   7.963  0.1160 -0.5735  1.1184
 9532SOL    HW140055   2.669   1.420   7.963  0.1886 -0.5140  2.3171
 9532SOL    HW240056   2.553   1.467   8.038 -1.8413 -1.0072 -0.4328
 9533SOL     OW40057   2.531   0.223   3.013  0.3563  0.4260  1.2754
 9533SOL    HW140058   2.445   0.228   3.054  0.2822 -0.5250  1.2233
 9533SOL    HW240059   2.534   0.305   2.962  3.6144 -1.6739 -1.9346
 9534SOL     OW40060   1.644   1.960   3.646  0.1403  0.0836 -0.2466
 9534SOL    HW140061   1.607   1.945   3.733  2.1253  2.0600  0.9414
 9534SOL    HW240062   1.734   1.983   3.671  0.5712 -0.9009 -0.8877
 9535SOL     OW40063   3.547   0.728   9.908  0.1802 -0.1374 -0.1230
 9535SOL    HW140064   3.595   0.668   9.852  0.4482 -0.4411  0.4239
 9535SOL    HW240065   3.463   0.721   9.862 -1.0068  1.9709  1.6825
 9536SOL     OW40066   4.269   3.542  17.496  0.1085 -0.3594  0.3269
 9536SOL    HW140067   4.326   3.582  17.430 -2.0865  0.7730 -0.8796
 9536SOL    HW240068   4.183   3.568  17.464  0.7622 -1.3267 -2.2517
 9537SOL     OW40069   2.697   3.062   7.137 -0.0661  0.6629  0.2143
 9537SOL    HW140070   2.629   3.111   7.185 -0.1610  0.6850  0.0559
 9537SOL    HW240071   2.704   3.110   7.055 -0.2563 -1.7109 -1.1937
 9538SOL     OW40072   1.459   4.198   3.840 -0.0357 -0.7292  0.3723
 9538SOL    HW140073   1.365   4.195   3.822  0.2933  0.2972 -1.4396
 9538SOL    HW240074   1.467   4.149   3.922 -2.0345  0.3841  1.2195
 9539SOL     OW40075   1.530   1.664   4.824  0.4896 -1.1420 -0.1527
 9539SOL    HW140076   1.604   1.713   4.861 -2.3573  2.0757  1.3220
 9539SOL    HW240077   1.475   1.657   4.902 -0.8786  0.0354 -0.9965
 9540SOL     OW40078   1.681   4.619  16.650 -0.9399 -0.4978  0.6558
 9540SOL    HW140079   1.686   4.696  16.593 -0.3602 -1.8461 -1.1041
 9540SOL    HW240080   1.586   4.620  16.645 -0.8377 -0.8215 -1.2283
 9541SOL     OW40081   2.305   0.447   8.237  0.3580 -0.2782  0.2702
 9541SOL    HW140082   2.307   0.482   8.326  0.0301 -1.6098  0.7874
 9541SOL    HW240083   2.249   0.373   8.258 -0.9135  0.7976  0.7002
 9542SOL     OW40084   2.914   0.545   7.049 -0.0421 -0.1993  0.4020
 9542SOL    HW140085   2.966   0.600   6.990  0.8778 -1.0612  0.4006
 9542SOL    HW240086   2.825   0.574   7.027 -0.2794 -0.7973  0.5570
 9543SOL     OW40087   4.259   3.328   3.742  0.0224 -0.3943 -0.0518
 9543SOL    HW140088   4.244   3.264   3.672  0.3006  0.5457 -0.9593
 9543SOL    HW240089   4.343   3.363   3.714  0.3957 -0.0487  1.4849
 9544SOL     OW40090   4.172   1.928  17.328 -0.0097 -0.3851  0.7978
 9544SOL    HW140091   4.206   1.990  17.263 -1.6894  1.4109  1.6277
 9544SOL    HW240092   4.241   1.863  17.340  1.2988  1.0112  0.8815
 9545SOL     OW40093   3.191   3.856   6.107 -0.1497 -0.1689  0.3808
 9545SOL    HW140094   3.201   3.944   6.146  0.1218  0.1763 -0.4701
 9545SOL    HW240095   3.098   3.844   6.087  0.5757  0.9484 -3.5689
 9546SOL     OW40096   0.583   1.107   4.369  0.7301  0.1506  0.0602
 9546SOL    HW140097   0.492   1.092   4.344  0.8840 -1.8211  0.6378
 9546SOL    HW240098   0.580   1.194   4.408  0.8998 -0.4562  1.4632
 9547SOL     OW40099   4.261   0.456   7.758  0.1474 -0.2007 -0.2063
 9547SOL    HW140100   4.328   0.448   7.690  0.3783 -2.2829  0.2911
 9547SOL    HW240101   4.244   0.364   7.776  0.5288 -0.3953 -0.8443
 9548SOL     OW40102   3.593   1.968   7.793 -0.0505  0.2357  0.0880
 9548SOL    HW140103   3.676   2.005   7.821 -0.8199  3.4616 -1.8740
 9548SOL    HW240104   3.614   1.875   7.801 -0.4262  0.1161 -0.3121
 9549SOL     OW40105   3.146   3.328   9.649  0.5183 -0.4067 -0.0076
 9549SOL    HW140106   3.103   3.269   9.710 -1.4914  0.9927 -0.0959
 9549SOL    HW240107   3.075   3.341   9.586  0.1688 -3.1930 -0.2228
 9550SOL     OW40108   0.137   4.551   5.993 -0.6954  0.2062  0.1314
 9550SOL    HW140109   0.110   4.463   6.021 -0.8137  0.3165  0.3610
 9550SOL    HW240110   0.195   4.525   5.922  0.8338  0.4920  1.2897
 9551SOL     OW40111   0.334   1.233   7.334 -0.0095  0.4257 -0.2410
 9551SOL    HW140112   0.417   1.196   7.304  0.0028  0.4514 -0.2382
 9551SOL    HW240113   0.294   1.155   7.374  3.2127 -1.8993 -1.5408
 9552SOL     OW40114   2.806   3.526   0.958 -0.6650  0.2000  0.2850
 9552SOL    HW140115   2.797   3.600   0.898 -0.2791  0.0791  0.0781
 9552SOL    HW240116   2.884   3.551   1.007 -0.3094  0.7402 -0.5574
 9553SOL     OW40117   0.558   1.892   2.855 -0.2723  0.2965 -0.3767
 9553SOL    HW140118   0.644   1.851   2.853 -1.1159 -1.3978 -3.0921
 9553SOL    HW240119   0.560   1.934   2.941  1.0711  0.3986 -0.4673
 9554SOL     OW40120   3.305   3.189   3.165 -0.6517 -0.2685 -0.1457
 9554SOL    HW140121   3.271   3.100   3.173 -4.8240  1.2657 -0.7421
 9554SOL    HW240122   3.384   3.181   3.111  0.1227  0.2375  0.9030
 9555SOL     OW40123   4.457   1.528  15.841  0.1111 -0.1180 -0.3492
 9555SOL    HW140124   4.468   1.443  15.797  0.2486 -1.6273  2.5768
 9555SOL    HW240125   4.473   1.593  15.773 -1.7135 -1.0598 -1.6895
 9556SOL     OW40126   4.057   2.136   4.437 -0.3005 -0.5544  0.6781
 9556SOL    HW140127   4.008   2.157   4.357  0.7728 -0.1491  0.1364
 9556SOL    HW240128   4.002   2.068   4.476 -1.4160 -1.6140 -2.6592
 9557SOL     OW40129   4.210   0.582  11.917 -0.1023 -0.0060  0.2130
 9557SOL    HW140130   4.256   0.566  12.000 -1.2703 -0.2167  0.8333
 9557SOL    HW240131   4.134   0.523  11.925 -0.1201  0.3761  3.1425
 9558SOL     OW40132   2.027   3.404   4.064 -0.1376 -0.3283  0.9428
 9558SOL    HW140133   2.074   3.478   4.104 -0.1514 -0.2957  0.8980
 9558SOL    HW240134   2.098   3.360   4.017 -0.8366 -1.7662  1.2393
 9559SOL     OW40135   3.109   1.925   5.070 -0.1821  0.0527 -0.4168
 9559SOL    HW140136   3.183   1.968   5.113 -1.2463 -0.5980  2.0599
 9559SOL    HW240137   3.042   1.917   5.138  1.5248  2.5637  1.5720
 9560SOL     OW40138   1.624   3.384   7.790  0.2203 -0.2862  0.0830
 9560SOL    HW140139   1.599   3.371   7.699  0.1466 -1.7662  0.3173
 9560SOL    HW240140   1.538   3.415   7.818  0.7662  0.1818  1.2666
 9561SOL     OW40141   2.395   2.500   5.153 -0.3296 -0.9664  0.4360
 9561SOL    HW140142   2.367   2.435   5.217 -4.7383  0.7223  0.1926
 9561SOL    HW240143   2.479   2.460   5.129  1.0454  0.6490  2.5489
 9562SOL     OW40144   3.685   3.623   7.268  0.6335  0.4009  0.9311
 9562SOL    HW140145   3.617   3.563   7.236  1.8537  0.0283 -0.9306
 9562SOL    HW240146   3.771   3.594   7.238  0.1101  0.6429 -0.7914
 9563SOL     OW40147   0.211   0.481   8.962 -0.9062  0.0915  0.0989
 9563SOL    HW140148   0.229   0.517   9.048 -0.3647  0.9233 -0.3610
 9563SOL    HW240149   0.242   0.556   8.911 -1.2228 -1.9852 -3.1544
 9564SOL     OW40150   4.614   2.730  17.582  0.3007 -0.2998 -0.1285
 9564SOL    HW140151   4.611   2.683  17.499 -1.3564 -1.3206  0.5040
 9564SOL    HW240152   4.699   2.711  17.620  1.2848 -0.3005 -2.3471
 9565SOL     OW40153   1.629   2.432   1.283  0.2750 -0.5258 -0.1775
 9565SOL    HW140154   1.719   2.442   1.251  0.8885 -1.3269  1.2973
 9565SOL    HW240155   1.590   2.451   1.198  0.8036  0.0794 -0.2850
   4.72385   4.72385  17.69708
