Membrane in water
40155
    1TCq1    O1    1   2.914   3.555  11.685  0.0487  0.1292  0.5744
    1TCq1    C1    2   2.804   3.628  11.644  0.4716  0.1961  0.2281
    1TCq1    O2    3   2.800   3.750  11.635 -0.2659  0.8014  0.0446
    1TCq1    C2    4   2.745   3.552  11.538 -0.8517  0.5376  0.1358
    1TCq1    C3    5   2.764   3.611  11.415  0.2916  0.1938 -0.0614
    1TCq1    C4    6   2.731   3.541  11.308  0.4182  0.3019 -0.3786
    1TCq1    C5    7   2.694   3.414  11.311 -0.2861 -0.4502 -0.0311
    1TCq1    C6    8   2.678   3.354  11.435 -0.5133 -0.5825 -0.4500
    1TCq1    C7    9   2.703   3.422  11.550 -0.7502  0.2288 -0.0970
    1TCq1    C8   10   2.612   3.227  11.447  0.3809 -0.8096  0.2679
    1TCq1    O4   11   2.550   3.221  11.553  0.5563  0.0398  1.0744
    1TCq1    C9   12   2.737   3.617  11.184 -0.0392  0.0420  0.8049
    1TCq1    O5   13   2.708   3.740  11.197 -0.2098 -0.2664  0.3727
    1TCq1    O6   14   2.717   3.560  11.075  0.3620  0.3872 -0.2821
    1TCq1    H1   15   2.911   3.459  11.662 -1.3238  0.7226 -1.7139
    1TCq1    H2   16   2.805   3.711  11.409 -0.9819  0.6872 -0.4848
    1TCq1    H3   17   2.663   3.372  11.216  0.1299  1.1289 -0.8763
    1TCq1    H4   18   2.694   3.363  11.641  1.2726  0.3185  0.1656
    2MPD2     C   19   2.441   2.774  11.295 -0.2399 -0.7344  0.0116
    2MPD2    C1   20   2.385   2.863  11.386  0.2351  0.8196  0.3320
    2MPD2    C2   21   2.449   2.985  11.402 -0.2555  0.0887 -0.3748
    2MPD2    C3   22   2.554   3.025  11.319 -0.4272 -0.5892  0.1048
    2MPD2    C4   23   2.590   2.943  11.219 -0.4444 -0.5164 -0.3028
    2MPD2    C5   24   2.534   2.821  11.211  0.9188  0.2328  0.5739
    2MPD2     H   25   2.411   3.051  11.479 -0.0223  0.3759 -0.5082
    2MPD2    H1   26   2.684   2.954  11.167 -0.0341  1.9377  0.9420
    2MPD2    H2   27   2.395   2.676  11.290  0.1156 -0.7520 -2.6809
    2MPD2    H3   28   2.574   2.753  11.137  0.6398 -0.1454  0.7713
    2MPD2     N   29   2.628   3.142  11.337  0.0311  0.4996 -0.0427
    2MPD2    H5   30   2.709   3.160  11.279 -2.2766  1.9871 -2.7689
    2MPD2    N1   31   2.272   2.836  11.466  0.2583  0.3933 -0.2173
    2MPD2    H7   32   2.233   2.914  11.518 -0.1737 -0.1199  0.2350
    3TCq1    O1   33   1.554   3.675  10.268  0.2668  0.1486  0.7534
    3TCq1    C1   34   1.581   3.549  10.223 -0.4930  0.5240 -0.2508
    3TCq1    O2   35   1.642   3.524  10.126 -0.1350 -0.6645 -0.1248
    3TCq1    C2   36   1.567   3.457  10.337 -0.2472  0.2316  0.1821
    3TCq1    C3   37   1.670   3.368  10.366  0.1590 -0.4009 -0.1237
    3TCq1    C4   38   1.685   3.325  10.491  0.3722 -0.3143  0.6167
    3TCq1    C5   39   1.593   3.357  10.592  0.5126  0.3948  0.3096
    3TCq1    C6   40   1.489   3.437  10.557  0.5922 -0.3477 -0.5902
    3TCq1    C7   41   1.477   3.489  10.435  0.3707  0.6499 -0.2537
    3TCq1    C8   42   1.382   3.452  10.656 -0.7006  0.0566  0.0886
    3TCq1    O4   43   1.351   3.359  10.723  0.0943 -0.3773  0.5122
    3TCq1    C9   44   1.792   3.231  10.512  0.7338  0.1921 -0.1891
    3TCq1    O5   45   1.891   3.229  10.435  0.0840  0.2520  0.5945
    3TCq1    O6   46   1.777   3.158  10.613  0.0698  0.2537  0.3926
    3TCq1    H1   47   1.517   3.675  10.358 -2.4571 -1.2120 -0.3739
    3TCq1    H2   48   1.755   3.355  10.298 -0.7505 -2.5709 -0.8391
    3TCq1    H3   49   1.612   3.321  10.693 -0.0711 -1.3604 -0.2045
    3TCq1    H4   50   1.388   3.542  10.403  0.9871  1.9870  0.2822
    4MPD2     C   51   1.066   3.740  10.929  0.1267 -0.0134 -0.1210
    4MPD2    C1   52   1.126   3.820  10.831  0.6818 -1.0237 -0.6619
    4MPD2    C2   53   1.212   3.767  10.735 -0.1568  0.5655  0.1436
    4MPD2    C3   54   1.240   3.630  10.744  0.1845 -0.0175  0.3187
    4MPD2    C4   55   1.189   3.554  10.847  0.3566  0.6751 -0.3999
    4MPD2    C5   56   1.097   3.603  10.933  0.5031 -0.3246  0.1473
    4MPD2     H   57   1.255   3.830  10.658 -0.2982 -0.3819 -0.7120
    4MPD2    H1   58   1.207   3.449  10.868  1.2878  0.7302 -0.9448
    4MPD2    H2   59   0.992   3.782  10.995  0.2703  1.3102 -0.7948
    4MPD2    H3   60   1.072   3.546  11.022  1.7994 -0.8722  0.1670
    4MPD2     N   61   1.324   3.573  10.643 -0.1965  0.1987 -0.0965
    4MPD2    H5   62   1.359   3.637  10.573 -3.0213 -0.0100 -1.7204
    4MPD2    N1   63   1.084   3.949  10.806 -0.7266 -0.4830  0.0443
    4MPD2    H7   64   1.095   3.991  10.714  0.1421 -0.3871  0.1939
    5TCq1    O1   65   2.114   0.121   8.749 -0.0281 -0.1979 -0.8671
    5TCq1    C1   66   2.165   0.160   8.869 -0.3790 -0.7242 -0.6664
    5TCq1    O2   67   2.245   0.093   8.932  0.0344  0.1419 -0.3783
    5TCq1    C2   68   2.118   0.289   8.911  0.0952 -0.4675 -0.7094
    5TCq1    C3   69   2.067   0.364   8.811  0.0518  0.0195 -0.5035
    5TCq1    C4   70   1.980   0.462   8.843  0.4199 -0.9203 -0.0109
    5TCq1    C5   71   1.933   0.471   8.963 -0.1740 -0.0501 -0.7932
    5TCq1    C6   72   2.003   0.409   9.066 -0.5418  0.7030  0.7752
    5TCq1    C7   73   2.086   0.302   9.041  0.1760 -0.4265 -0.1674
    5TCq1    C8   74   1.957   0.435   9.204  0.2455 -0.1362 -0.6621
    5TCq1    O4   75   1.968   0.339   9.284 -0.0264  0.1952 -0.6199
    5TCq1    C9   76   1.923   0.546   8.743 -0.6589  0.1699  0.0426
    5TCq1    O5   77   1.874   0.662   8.777 -0.1190 -0.0702 -0.4230
    5TCq1    O6   78   1.930   0.513   8.626  0.2862 -0.6163  0.0338
    5TCq1    H1   79   2.040   0.180   8.724  0.6382  1.8329  2.0436
    5TCq1    H2   80   2.110   0.363   8.712 -0.9469 -0.6537 -0.9265
    5TCq1    H3   81   1.852   0.536   8.995  1.2013  2.2159 -1.9599
    5TCq1    H4   82   2.125   0.241   9.122 -0.8644  1.5448  1.8119
    6MPD2     C   83   1.815   0.739   9.341  0.2882  0.4036  0.6546
    6MPD2    C1   84   1.859   0.611   9.346 -0.4982  0.0266 -0.1283
    6MPD2    C2   85   1.859   0.532   9.462  0.1343  0.6653 -0.1953
    6MPD2    C3   86   1.840   0.593   9.582 -0.0411 -0.5903  0.5228
    6MPD2    C4   87   1.806   0.730   9.583  0.2029 -0.7280 -0.3039
    6MPD2    C5   88   1.796   0.799   9.459  0.0911  0.2637  0.5285
    6MPD2     H   89   1.883   0.426   9.463 -0.2514  0.6035  1.6449
    6MPD2    H1   90   1.801   0.783   9.678  0.5724  0.2694 -0.8445
    6MPD2    H2   91   1.809   0.797   9.250  3.7211  0.0283  0.2079
    6MPD2    H3   92   1.771   0.903   9.476 -1.6847 -0.2136  0.8327
    6MPD2     N   93   1.849   0.513   9.696  0.2604 -0.2019  0.2228
    6MPD2    H5   94   1.873   0.417   9.674 -0.8977 -0.4321 -0.0330
    6MPD2    N1   95   1.898   0.559   9.222  0.7689  0.6285  0.1818
    6MPD2    H7   96   1.892   0.612   9.136 -0.5741 -1.7935 -1.2404
    7TCq1    O1   97   3.342   0.284  13.304  0.0127  0.1864 -1.0066
    7TCq1    C1   98   3.233   0.225  13.351 -0.7154 -1.0168 -0.0515
    7TCq1    O2   99   3.187   0.242  13.463  0.3814 -0.3291 -0.3554
    7TCq1    C2  100   3.270   0.084  13.313 -0.5893  0.2123  1.1770
    7TCq1    C3  101   3.179   0.005  13.241  0.3058  0.1230  0.5195
    7TCq1    C4  102   3.221   4.611  13.187  0.6860 -0.4927 -0.8483
    7TCq1    C5  103   3.351   4.574  13.206  0.0223  0.1387  0.0066
    7TCq1    C6  104   3.433   4.646  13.278 -0.2078 -0.4817  0.4299
    7TCq1    C7  105   3.397   0.040  13.337 -0.0260  0.3654 -0.3643
    7TCq1    C8  106   3.559   4.587  13.313 -0.2117 -0.0890 -0.5127
    7TCq1    O4  107   3.558   4.470  13.340 -0.0358 -0.6709 -0.7379
    7TCq1    C9  108   3.139   4.544  13.090 -0.1810  0.2888 -0.5746
    7TCq1    O5  109   3.165   4.420  13.063 -1.0341  0.1094 -0.2993
    7TCq1    O6  110   3.050   4.615  13.035 -0.2305  0.2207 -0.4524
    7TCq1    H1  111   3.369   0.230  13.228  1.7513 -0.6798  0.2327
    7TCq1    H2  112   3.079   0.045  13.227  0.3537  0.6414  1.6777
    7TCq1    H3  113   3.384   4.478  13.167  2.6666  0.0818  2.3886
    7TCq1    H4  114   3.461   0.098  13.403  1.3130  0.0333 -1.3857
    8MPD2     C  115   4.043   4.621  13.445 -0.0190 -0.0517 -1.0440
    8MPD2    C1  116   3.978   4.511  13.398  0.5445 -0.0238 -0.0120
    8MPD2    C2  117   3.843   4.528  13.361  0.0650  0.4691  0.0801
    8MPD2    C3  118   3.781   4.654  13.382 -0.1680  0.5866 -0.0653
    8MPD2    C4  119   3.854   0.034  13.431 -0.0606  0.5229  0.2727
    8MPD2    C5  120   3.985   0.020  13.458  0.5850  0.0804  0.3507
    8MPD2     H  121   3.778   4.446  13.333  0.5781 -0.4169  1.4718
    8MPD2    H1  122   3.806   0.129  13.453  0.8367  1.2421 -0.8881
    8MPD2    H2  123   4.146   4.609  13.477 -0.1649  1.8709  0.2054
    8MPD2    H3  124   4.046   0.096  13.506  1.7982 -0.6740  0.0066
    8MPD2     N  125   3.649   4.679  13.350  0.5391 -0.3064 -0.3965
    8MPD2    H5  126   3.624   0.052  13.332 -0.0838 -0.4544 -0.3228
    8MPD2    N1  127   4.050   4.390  13.385  0.2471  0.1898 -0.2523
    8MPD2    H7  128   4.136   4.377  13.438 -0.8975 -0.2244  1.4824
    9TCq1    O1  129   1.769   3.662  10.559  0.2764 -0.0255  0.4180
    9TCq1    C1  130   1.764   3.655  10.689  0.3487  0.0976 -0.6042
    9TCq1    O2  131   1.665   3.656  10.757 -0.5412  0.4856  0.2413
    9TCq1    C2  132   1.901   3.679  10.734  0.5054 -0.3889  0.3729
    9TCq1    C3  133   2.003   3.640  10.651  0.2433 -0.2042  0.7270
    9TCq1    C4  134   2.133   3.667  10.691 -0.1751  0.6359 -0.3216
    9TCq1    C5  135   2.151   3.748  10.795  0.1655 -0.2885  0.4715
    9TCq1    C6  136   2.048   3.779  10.884 -0.1553  0.0561 -0.1335
    9TCq1    C7  137   1.920   3.742  10.856 -0.9528 -0.0526  0.3879
    9TCq1    C8  138   2.090   3.874  10.992  0.9258 -0.6178 -0.0569
    9TCq1    O4  139   2.157   3.971  10.963  0.3967  0.5321  0.3599
    9TCq1    C9  140   2.239   3.600  10.627  0.2063 -0.6970  0.3158
    9TCq1    O5  141   2.211   3.497  10.560 -0.1421 -0.3099 -0.5946
    9TCq1    O6  142   2.350   3.600  10.688  0.4881 -0.0954 -0.4329
    9TCq1    H1  143   1.861   3.666  10.527 -1.4699 -1.3545 -4.8247
    9TCq1    H2  144   1.997   3.572  10.566  2.4110  1.5779 -0.8510
    9TCq1    H3  145   2.254   3.764  10.825 -0.2360  0.4504  1.4717
    9TCq1    H4  146   1.838   3.783  10.914 -2.1698 -0.6241 -0.9377
   10MPD2     C  147   2.162   3.989  11.255 -0.6741  0.5170  0.3800
   10MPD2    C1  148   2.056   3.905  11.238 -0.4637 -0.2647 -0.1130
   10MPD2    C2  149   1.976   3.874  11.349 -1.1093  0.5995  0.1912
   10MPD2    C3  150   1.992   3.943  11.472  0.5890 -0.4419 -0.1037
   10MPD2    C4  151   2.092   4.042  11.472  0.9299  0.1804 -0.0414
   10MPD2    C5  152   2.176   4.066  11.368 -0.5844  0.8699 -0.8814
   10MPD2     H  153   1.893   3.806  11.334  0.9007 -2.6060  3.4191
   10MPD2    H1  154   2.107   4.101  11.562  2.4565  1.2251 -0.9675
   10MPD2    H2  155   2.241   3.999  11.182 -0.0853  1.3596  1.1369
   10MPD2    H3  156   2.258   4.137  11.368  0.2735 -0.1216  2.2388
   10MPD2     N  157   1.914   3.926  11.588 -0.0778 -0.0106 -0.3972
   10MPD2    H5  158   1.956   3.968  11.671  0.7217 -2.2106  0.2965
   10MPD2    N1  159   2.035   3.841  11.114 -0.0336 -0.2158  0.2095
   10MPD2    H7  160   1.966   3.766  11.118 -0.1406  0.0526  3.5812
   11TCq1    O1  161   3.243   3.454  14.097 -0.2266 -0.3614 -0.5303
   11TCq1    C1  162   3.151   3.378  14.037 -1.0998  0.7030  0.3834
   11TCq1    O2  163   3.150   3.323  13.927 -0.4319 -0.0785 -0.2440
   11TCq1    C2  164   3.028   3.391  14.109 -0.5043  0.0002 -0.1310
   11TCq1    C3  165   3.012   3.419  14.242 -0.3057 -0.7044 -0.2503
   11TCq1    C4  166   2.884   3.430  14.295  0.3091 -0.1412 -0.1110
   11TCq1    C5  167   2.772   3.419  14.213  0.1876  0.2644 -0.5671
   11TCq1    C6  168   2.798   3.422  14.079 -0.1403  0.6929  0.0875
   11TCq1    C7  169   2.921   3.403  14.025 -0.7478 -0.1590 -0.3768
   11TCq1    C8  170   2.682   3.443  13.984  0.4991  0.9658 -0.3002
   11TCq1    O4  171   2.701   3.443  13.862  0.0296  0.1101 -1.2244
   11TCq1    C9  172   2.873   3.456  14.436 -0.7205 -0.1056  0.4715
   11TCq1    O5  173   2.983   3.484  14.492 -0.2935 -0.0596 -0.1497
   11TCq1    O6  174   2.768   3.433  14.500 -0.1445  0.2392 -0.2389
   11TCq1    H1  175   3.211   3.526  14.155  1.9443 -0.4548  0.8104
   11TCq1    H2  176   3.101   3.427  14.303 -0.0882 -0.9444 -0.5327
   11TCq1    H3  177   2.675   3.434  14.261  0.4416  2.7980 -0.8491
   11TCq1    H4  178   2.934   3.399  13.917  2.4185 -0.1682 -0.0000
   12MPD2     C  179   2.320   3.458  14.016 -0.4110  0.4370 -0.6410
   12MPD2    C1  180   2.438   3.414  13.965  0.1879  0.7493  0.3730
   12MPD2    C2  181   2.444   3.341  13.850  0.0710  0.0694 -0.3642
   12MPD2    C3  182   2.319   3.301  13.793 -0.1661  0.2638 -0.0517
   12MPD2    C4  183   2.198   3.352  13.844 -0.8440 -0.7836  0.6044
   12MPD2    C5  184   2.201   3.433  13.953  0.1338  0.4522  0.3589
   12MPD2     H  185   2.541   3.307  13.814  0.7516 -1.6838  3.0900
   12MPD2    H1  186   2.101   3.336  13.799 -0.7734  1.9297 -0.5622
   12MPD2    H2  187   2.315   3.528  14.099  3.3262 -1.4293  1.1464
   12MPD2    H3  188   2.110   3.469  13.999 -0.6238 -0.4112 -0.4490
   12MPD2     N  189   2.314   3.210  13.688  0.2434  0.4450 -0.2909
   12MPD2    H5  190   2.224   3.201  13.641 -0.3982 -1.0505  1.2272
   12MPD2    N1  191   2.554   3.443  14.039 -0.3438  0.1204 -0.4222
   12MPD2    H7  192   2.545   3.470  14.136  2.3023  1.7262 -0.6034
   13TCq1    O1  193   2.412   3.610  10.945 -0.0213 -0.3731 -0.1952
   13TCq1    C1  194   2.368   3.524  11.044  0.4246  0.8314 -0.4955
   13TCq1    O2  195   2.371   3.547  11.162  0.0785 -0.4203 -0.0146
   13TCq1    C2  196   2.256   3.460  10.984  0.2583 -0.3333  0.2633
   13TCq1    C3  197   2.275   3.379  10.881  0.3504 -0.2118  0.4976
   13TCq1    C4  198   2.170   3.321  10.815  0.1787  0.9775 -0.4889
   13TCq1    C5  199   2.039   3.342  10.856 -0.1155  0.1364  0.6050
   13TCq1    C6  200   2.020   3.429  10.962 -0.1718  0.6651 -0.2658
   13TCq1    C7  201   2.131   3.484  11.028  0.0560 -0.2329 -0.2530
   13TCq1    C8  202   1.886   3.456  11.019 -0.0933  0.3039  0.3039
   13TCq1    O4  203   1.891   3.560  11.082  0.4237 -0.5225 -1.3154
   13TCq1    C9  204   2.194   3.237  10.699 -0.2616 -0.4932  1.2376
   13TCq1    O5  205   2.314   3.210  10.665 -0.0406  0.4953  0.1056
   13TCq1    O6  206   2.088   3.209  10.634  0.3185 -0.2971  0.3553
   13TCq1    H1  207   2.384   3.585  10.854 -2.1592  0.8572  0.1248
   13TCq1    H2  208   2.381   3.364  10.866  0.2893 -1.8710  1.7427
   13TCq1    H3  209   1.958   3.306  10.793 -0.0623  0.9864  0.0444
   13TCq1    H4  210   2.115   3.556  11.107 -2.9808 -0.3299 -0.8033
   14MPD2     C  211   1.573   3.259  10.997  0.2403  0.3788 -0.4037
   14MPD2    C1  212   1.654   3.366  11.026  0.0630  0.7105  0.6754
   14MPD2    C2  213   1.596   3.483  11.079 -0.1148 -0.1728 -1.1873
   14MPD2    C3  214   1.460   3.485  11.102  0.1738 -0.3546  0.0495
   14MPD2    C4  215   1.385   3.371  11.084  0.7188  0.2772  0.7212
   14MPD2    C5  216   1.446   3.255  11.034  0.3502 -0.9648 -0.4353
   14MPD2     H  217   1.646   3.575  11.107 -0.7852 -0.9462  2.4891
   14MPD2    H1  218   1.279   3.363  11.105  0.2938  1.6142 -0.9433
   14MPD2    H2  219   1.624   3.180  10.943  0.0442 -0.7362  1.0320
   14MPD2    H3  220   1.384   3.169  11.011  0.6088 -0.9067 -1.3538
   14MPD2     N  221   1.397   3.607  11.151 -0.2612  0.2080  0.2031
   14MPD2    H5  222   1.461   3.686  11.148 -0.5178  0.3794 -0.7143
   14MPD2    N1  223   1.790   3.358  10.993 -0.3792 -0.3664 -1.1987
   14MPD2    H7  224   1.831   3.272  10.959  0.1271 -0.5397 -0.1424
   15TCq1    O1  225   2.607   1.935   2.135 -0.3906  0.0313  0.2815
   15TCq1    C1  226   2.717   2.002   2.097 -0.0532 -0.6099  0.4613
   15TCq1    O2  227   2.829   1.956   2.114 -0.6301  0.5923  0.4545
   15TCq1    C2  228   2.674   2.084   1.987 -0.8961  0.4763  0.1239
   15TCq1    C3  229   2.574   2.172   1.990  0.4812  0.4310 -0.0134
   15TCq1    C4  230   2.545   2.245   1.874  0.3592 -0.6350 -0.2173
   15TCq1    C5  231   2.609   2.215   1.756 -0.1025  0.0271  0.4588
   15TCq1    C6  232   2.716   2.127   1.759 -0.3225  0.3292 -0.0957
   15TCq1    C7  233   2.747   2.052   1.872  0.0282 -0.4364 -0.0193
   15TCq1    C8  234   2.796   2.108   1.638  0.1839  0.5442  0.2421
   15TCq1    O4  235   2.902   2.052   1.659  0.2065 -0.0212 -0.0769
   15TCq1    C9  236   2.441   2.347   1.871 -0.1893 -0.2086 -0.7595
   15TCq1    O5  237   2.394   2.385   1.986  0.0447  0.5277 -0.5555
   15TCq1    O6  238   2.395   2.372   1.755  0.6299  0.1583 -0.8742
   15TCq1    H1  239   2.526   1.965   2.087 -0.3863 -1.8191 -0.8876
   15TCq1    H2  240   2.511   2.187   2.077 -0.0210 -1.0500 -0.1414
   15TCq1    H3  241   2.582   2.275   1.670 -0.2192 -0.4269  0.1753
   15TCq1    H4  242   2.831   1.983   1.876  0.4134 -0.0030 -0.6608
   16MPD2     C  243   2.715   2.163   1.285 -0.4841  0.3152  0.2392
   16MPD2    C1  244   2.787   2.124   1.394 -0.2551 -0.3495 -0.9530
   16MPD2    C2  245   2.910   2.057   1.368  0.7813 -0.2805 -0.3554
   16MPD2    C3  246   2.950   2.031   1.236 -0.5432  0.7444 -0.0917
   16MPD2    C4  247   2.875   2.076   1.127  0.1248 -0.1549  0.1159
   16MPD2    C5  248   2.760   2.143   1.154  0.0789  0.3972 -0.3492
   16MPD2     H  249   2.978   2.040   1.450  0.2807  1.3496  0.3812
   16MPD2    H1  250   2.899   2.057   1.023  0.8074  2.1762 -0.1452
   16MPD2    H2  251   2.618   2.210   1.293 -0.9770 -0.6382 -0.1828
   16MPD2    H3  252   2.703   2.191   1.076 -2.0182  1.4695  1.8310
   16MPD2     N  253   3.074   1.959   1.224 -0.0759  0.4010 -0.3154
   16MPD2    H5  254   3.127   1.943   1.308  2.1666 -1.3724 -2.0672
   16MPD2    N1  255   2.733   2.148   1.522  0.7192 -0.2147  0.4655
   16MPD2    H7  256   2.640   2.189   1.527  0.8856  0.3889 -1.5200
   17TCq1    O1  257   1.422   3.446  11.473 -0.0679 -0.3733 -0.4845
   17TCq1    C1  258   1.365   3.335  11.426 -0.8003  0.0202  0.2271
   17TCq1    O2  259   1.250   3.300  11.443  0.1833  0.4809  0.6887
   17TCq1    C2  260   1.468   3.223  11.385 -0.1719 -0.3247  0.4640
   17TCq1    C3  261   1.418   3.101  11.361 -0.6020  0.1770 -0.0246
   17TCq1    C4  262   1.503   2.996  11.339  0.3906 -0.5369 -0.1063
   17TCq1    C5  263   1.639   3.004  11.334 -0.0067  0.1326  0.1403
   17TCq1    C6  264   1.691   3.128  11.360 -0.2711 -0.2732 -0.1239
   17TCq1    C7  265   1.612   3.239  11.380  0.7702  0.5869  0.3718
   17TCq1    C8  266   1.828   3.160  11.328  0.3125  0.4691 -0.5329
   17TCq1    O4  267   1.878   3.265  11.367  0.2933  0.7000 -0.1393
   17TCq1    C9  268   1.441   2.865  11.330 -0.0788 -1.3197  0.3511
   17TCq1    O5  269   1.516   2.763  11.298 -0.1419 -0.1871 -0.2284
   17TCq1    O6  270   1.318   2.857  11.344  0.4231 -0.1619 -0.0052
   17TCq1    H1  271   1.514   3.465  11.444  0.2307 -4.3628 -2.0362
   17TCq1    H2  272   1.311   3.086  11.370 -0.2160 -3.2394 -1.0732
   17TCq1    H3  273   1.710   2.922  11.327 -0.7178 -0.6255  1.9279
   17TCq1    H4  274   1.667   3.332  11.389 -1.5001  1.9708 -0.0260
   18MPD2     C  275   2.128   3.155  11.260 -0.4726  0.0669  0.7219
   18MPD2    C1  276   2.028   3.071  11.209 -0.3010  0.3574  0.0504
   18MPD2    C2  277   2.069   2.998  11.097 -0.7428 -0.5155 -0.1697
   18MPD2    C3  278   2.193   3.018  11.040  0.2449 -0.1918 -1.6519
   18MPD2    C4  279   2.279   3.106  11.091  0.0876  0.1208 -0.5754
   18MPD2    C5  280   2.250   3.170  11.208 -0.6619 -0.1578  0.0347
   18MPD2     H  281   1.997   2.931  11.052 -3.5276  1.8653  0.7362
   18MPD2    H1  282   2.378   3.123  11.050  0.1467 -0.1721 -0.5590
   18MPD2    H2  283   2.104   3.217  11.345  0.0090  1.8456 -0.4237
   18MPD2    H3  284   2.325   3.234  11.252  0.0189  0.0847 -1.4518
   18MPD2     N  285   2.240   2.944  10.932 -0.5192  0.2471  0.0509
   18MPD2    H5  286   2.326   2.965  10.883 -0.0080 -2.7068 -0.3229
   18MPD2    N1  287   1.889   3.067  11.244  0.3888  0.1456 -0.3271
   18MPD2    H7  288   1.821   3.011  11.194  1.5121 -1.5815  0.0868
   19TMC2    C1  289   3.984   2.625  13.306  0.4409  0.1325 -0.7206
   19TMC2    C2  290   3.978   2.599  13.166  0.0101  0.6845  0.1111
   19TMC2    C3  291   3.850   2.564  13.118  0.4428  0.1995  0.0404
   19TMC2    C4  292   3.868   2.620  13.383 -0.2739  0.9118 -0.0834
   19TMC2    C5  293   3.747   2.596  13.325  0.4670 -0.4558 -0.4201
   19TMC2    C6  294   3.742   2.555  13.197  0.0615  0.3976 -0.6145
   19TMC2     C  295   4.102   2.688  13.353 -0.8243  0.1547 -0.0053
   19TMC2     O  296   4.166   2.747  13.266  0.6352  0.1936  0.1197
   19TMC2     H  297   4.063   2.573  13.105 -1.7475  0.5566 -2.2816
   19TMC2    H1  298   3.869   2.645  13.488  1.4145 -1.1035  0.3816
   19TMC2    H2  299   3.651   2.513  13.156  1.7982 -1.6755 -2.3433
   19TMC2    C7  300   3.628   2.613  13.403 -0.5048 -0.3262  0.5183
   19TMC2    C8  301   3.842   2.495  12.992  0.2821 -0.0974 -0.0755
   19TMC2    O1  302   3.641   2.620  13.523  0.1260  0.5942  0.1313
   19TMC2    O2  303   3.748   2.422  12.960 -0.0443  0.1983  0.4280
   19TMC2    O5  304   3.943   2.528  12.904  0.8917  0.2340  0.2476
   19TMC2    H5  305   4.003   2.602  12.925 -1.8037  1.4414  3.7128
   20MPD2     C  306   4.257   2.881  13.511  0.0265  0.3465  0.7476
   20MPD2    C1  307   4.198   2.770  13.566  0.5528 -0.0756 -0.3847
   20MPD2    C2  308   4.229   2.733  13.699 -0.0362  0.3175  1.0165
   20MPD2    C3  309   4.315   2.815  13.772 -0.2855 -0.8533  0.8363
   20MPD2    C4  310   4.375   2.926  13.710  0.0707  0.5465  0.3449
   20MPD2    C5  311   4.344   2.952  13.585 -0.4978  0.2742  0.3220
   20MPD2     H  312   4.172   2.649  13.737  0.5339  0.6143  2.5354
   20MPD2    H1  313   4.432   3.004  13.759  1.4134  0.4141 -1.0378
   20MPD2    H2  314   4.237   2.905  13.407 -0.7614 -1.3804  0.5091
   20MPD2    H3  315   4.385   3.046  13.549 -1.5033 -0.7242 -3.3726
   20MPD2     N  316   4.355   2.791  13.909 -0.1414  0.6328 -0.1688
   20MPD2    H5  317   4.417   2.860  13.950 -0.1792  0.9635 -0.6696
   20MPD2    N1  318   4.114   2.684  13.489  0.1144  0.5059 -0.0143
   20MPD2    H7  319   4.084   2.600  13.537  1.3138 -0.3585 -0.7447
   21MPD2     C  320   1.064   3.697  13.845  0.4630 -0.0581  0.1885
   21MPD2    C1  321   1.095   3.569  13.847 -0.4848 -0.2958 -0.1960
   21MPD2    C2  322   1.017   3.475  13.906 -0.1864  0.1616  0.4524
   21MPD2    C3  323   0.907   3.517  13.980  0.7039  0.2494  0.1144
   21MPD2    C4  324   0.886   3.651  13.993  0.6959  0.1934  0.7767
   21MPD2    C5  325   0.957   3.737  13.918  0.2381  0.2811  0.1146
   21MPD2     H  326   1.036   3.371  13.886  4.0879  0.6583  1.8919
   21MPD2    H1  327   0.803   3.694  14.046  0.1713  0.0450  0.0777
   21MPD2    H2  328   1.117   3.776  13.792  1.3894 -1.4272 -0.9200
   21MPD2    H3  329   0.933   3.843  13.917  1.2863  0.5176 -0.5101
   21MPD2     N  330   0.825   3.436  14.066  0.3687  0.1434 -0.1138
   21MPD2    H5  331   0.753   3.480  14.123  0.5430  0.3812 -0.0797
   21MPD2    N1  332   1.206   3.515  13.777 -0.2762 -0.1204 -0.4734
   21MPD2    H7  333   1.223   3.418  13.804  1.6624  1.1234  2.8024
   22TCq2    C1  334   0.855   3.303  14.087  0.3308 -0.6993 -0.0422
   22TCq2    O2  335   0.921   3.228  14.020  0.8030 -0.5066 -0.1131
   22TCq2    C2  336   0.797   3.242  14.204  0.0754  0.2835  0.3564
   22TCq2    C3  337   0.884   3.150  14.261  0.0606 -0.3439  0.3460
   22TCq2    C4  338   0.869   3.125  14.397  0.1366 -0.1516  0.0626
   22TCq2    C5  339   0.776   3.189  14.475 -0.3858  0.0896  0.7779
   22TCq2    C6  340   0.700   3.293  14.418  0.1755  0.0999  0.3386
   22TCq2    C7  341   0.702   3.308  14.284  0.1630  0.1098  0.1655
   22TCq2    C8  342   0.638   3.391  14.507  0.0624  0.5529 -0.1714
   22TCq2    O4  343   0.644   3.366  14.624 -0.3034  0.1490  0.4379
   22TCq2    C9  344   0.954   3.030  14.458 -0.5742 -0.5904 -0.4909
   22TCq2    O5  345   1.016   2.953  14.380 -0.5946  0.4651 -0.3089
   22TCq2    O6  346   0.976   3.047  14.584 -0.1749 -0.0829 -0.4313
   22TCq2    H2  347   0.968   3.117  14.201  1.1900  1.6688  0.8090
   22TCq2    H3  348   0.764   3.164  14.580 -0.4725 -0.4713  0.6365
   22TCq2    H4  349   0.634   3.379  14.239 -0.2649 -1.5165 -1.7413
   23MPD2     C  350   2.728   4.090  14.418  0.0324 -0.0052  0.1574
   23MPD2    C1  351   2.695   4.175  14.522 -0.3083 -0.3107 -0.5661
   23MPD2    C2  352   2.632   4.297  14.495 -0.5231 -0.7298 -0.0578
   23MPD2    C3  353   2.599   4.328  14.360  0.1740 -0.3693 -0.5669
   23MPD2    C4  354   2.643   4.244  14.256  0.5401  0.2730  0.5050
   23MPD2    C5  355   2.695   4.123  14.288  0.0801 -0.2490 -0.9376
   23MPD2     H  356   2.598   4.364  14.574 -1.1782  0.1448 -1.0851
   23MPD2    H1  357   2.625   4.276  14.154  1.0244  1.1114  0.6809
   23MPD2    H2  358   2.773   3.994  14.440 -0.1374  0.2026  1.4382
   23MPD2    H3  359   2.716   4.059  14.203 -1.5877  1.3042 -2.4794
   23MPD2     N  360   2.521   4.449  14.319  0.0670  0.5950 -0.0367
   23MPD2    H5  361   2.515   4.466  14.220 -1.5838 -1.5566 -0.3089
   23MPD2    N1  362   2.703   4.124  14.653 -0.2558  0.0755  0.0694
   23MPD2    H7  363   2.675   4.192  14.723  0.7233 -0.4099  0.9394
   24TCq2    C1  364   2.462   4.539  14.406  0.2995  0.7062 -0.6627
   24TCq2    O2  365   2.498   4.561  14.520 -0.6155 -0.4005  0.0270
   24TCq2    C2  366   2.376   4.643  14.349 -0.6051 -0.3493  0.3701
   24TCq2    C3  367   2.299   4.705  14.439 -0.7338  0.1531 -0.0202
   24TCq2    C4  368   2.183   0.035  14.407 -0.5739 -0.1695  0.4009
   24TCq2    C5  369   2.134   0.026  14.284  0.5935 -0.0738 -0.9323
   24TCq2    C6  370   2.206   4.685  14.191 -0.2156 -0.4609  0.2164
   24TCq2    C7  371   2.325   4.621  14.221 -0.1692 -0.3589 -0.2048
   24TCq2    C8  372   2.138   4.636  14.073  1.1395  0.6857  0.0558
   24TCq2    O4  373   2.203   4.578  13.987  0.1281 -0.5191  0.0237
   24TCq2    C9  374   2.103   0.097  14.510 -0.4969 -0.4800  0.5740
   24TCq2    O5  375   2.132   0.090  14.635 -0.5484 -0.2645  0.3580
   24TCq2    O6  376   2.003   0.164  14.479 -0.0271 -0.8089 -0.3346
   24TCq2    H2  377   2.319   4.713  14.545 -0.6807  1.5560 -0.1272
   24TCq2    H3  378   2.035   0.063  14.260 -0.2183 -1.5480  0.1781
   24TCq2    H4  379   2.372   4.561  14.144 -0.3258 -2.3368  1.2088
   25TMC2    C1  380   1.552   2.068  11.329 -0.3688  0.3630  0.0095
   25TMC2    C2  381   1.571   2.198  11.274  0.7981 -0.0106 -0.4923
   25TMC2    C3  382   1.516   2.304  11.334  0.0988 -0.5940 -0.7157
   25TMC2    C4  383   1.457   2.048  11.426  0.4455  0.7375  0.2392
   25TMC2    C5  384   1.381   2.154  11.466 -0.4449  0.3247 -0.7912
   25TMC2    C6  385   1.409   2.284  11.423 -0.7706 -0.0365 -0.0398
   25TMC2     C  386   1.608   1.949  11.258  0.0357 -0.4811 -0.2573
   25TMC2     O  387   1.714   1.961  11.196 -0.6294 -0.0306 -0.5634
   25TMC2     H  388   1.653   2.209  11.204 -0.0495 -2.8506 -1.9146
   25TMC2    H1  389   1.426   1.958  11.478 -0.5617  1.1606  0.3832
   25TMC2    H2  390   1.346   2.362  11.465  0.4419  0.5453  0.7031
   25TMC2    C7  391   1.297   2.140  11.587  0.2324 -0.3939  0.0618
   25TMC2    C8  392   1.545   2.428  11.264  0.4939 -0.4142 -0.3086
   25TMC2    O1  393   1.320   2.035  11.644  0.0188  0.1599  0.3493
   25TMC2    O2  394   1.601   2.431  11.157  0.7196 -0.1473  0.2532
   25TMC2    O5  395   1.469   2.522  11.328 -0.1643  0.0909 -0.2771
   25TMC2    H5  396   1.486   2.618  11.316  2.0047 -0.2853 -0.2272
   26MPD2     C  397   1.605   1.462  11.067  0.1974  0.6308 -0.2548
   26MPD2    C1  398   1.488   1.491  11.131 -0.2727  0.4621 -0.3684
   26MPD2    C2  399   1.467   1.611  11.198 -0.1800  0.2306  0.2041
   26MPD2    C3  400   1.563   1.708  11.204  0.6301  0.3664  0.4851
   26MPD2    C4  401   1.683   1.679  11.137  0.2281  0.3155 -0.6881
   26MPD2    C5  402   1.697   1.557  11.083 -0.1842  0.6061 -0.0122
   26MPD2     H  403   1.376   1.625  11.256  0.2104  0.2528  0.8151
   26MPD2    H1  404   1.759   1.754  11.119  2.2380 -0.8050  3.0110
   26MPD2    H2  405   1.630   1.371  11.014  1.4022  1.2552 -0.7660
   26MPD2    H3  406   1.794   1.525  11.047 -0.3805 -0.2775  0.2483
   26MPD2     N  407   1.531   1.835  11.260 -0.2506 -0.4442  0.1384
   26MPD2    H5  408   1.447   1.850  11.315 -0.0887  0.0450  0.2486
   26MPD2    N1  409   1.388   1.392  11.116  0.1892  0.3215 -0.0092
   26MPD2    H7  410   1.420   1.307  11.071  0.8349 -0.7269  2.4155
   27TMC2    C1  411   0.023   3.767  11.899 -0.7895 -0.5282  0.3099
   27TMC2    C2  412   4.706   3.781  11.769  0.0811 -0.3884  0.1415
   27TMC2    C3  413   4.705   3.903  11.714  0.2229  0.3719  0.2738
   27TMC2    C4  414   0.056   3.873  11.980  0.2356  0.6472  0.0329
   27TMC2    C5  415   0.066   3.991  11.912  0.2520  0.2113 -0.0855
   27TMC2    C6  416   0.032   4.008  11.779 -0.4809  0.4142 -0.0473
   27TMC2     C  417   4.715   3.634  11.951  0.0563  0.7860  0.2938
   27TMC2     O  418   4.719   3.542  11.875 -0.6435 -0.1204 -0.4399
   27TMC2     H  419   4.671   3.692  11.717 -0.1795 -0.1536 -0.0849
   27TMC2    H1  420   0.074   3.848  12.084  0.5107  0.2158 -0.1167
   27TMC2    H2  421   0.032   4.099  11.720 -0.5926  0.6892  0.3782
   27TMC2    C7  422   0.097   4.115  11.973  0.3874 -0.5906  0.1246
   27TMC2    C8  423   4.682   3.917  11.577  0.2960 -0.2199 -0.2342
   27TMC2    O1  424   0.093   4.220  11.908  0.4729  0.2385 -0.7028
   27TMC2    O2  425   4.607   4.002  11.531 -0.6894  0.4928 -0.0118
   27TMC2    O5  426   0.016   3.812  11.513 -0.0751 -0.1876  0.1130
   27TMC2    H5  427   0.070   3.757  11.573 -0.8144  0.2694  1.1952
   28MPD2     C  428   4.505   3.366  12.338 -0.1381 -1.2145 -0.0099
   28MPD2    C1  429   4.480   3.501  12.357  0.1435  0.4037  0.3109
   28MPD2    C2  430   4.529   3.586  12.266 -0.3406  0.1189 -0.0649
   28MPD2    C3  431   4.607   3.543  12.156 -0.6100  0.5022 -0.3986
   28MPD2    C4  432   4.638   3.411  12.141 -0.3110 -0.1084 -0.5599
   28MPD2    C5  433   4.590   3.321  12.238  0.0803 -0.1933 -0.1034
   28MPD2     H  434   4.487   3.686  12.265  0.3058  0.4307  3.9004
   28MPD2    H1  435   4.701   3.368  12.064 -0.0027 -1.9844  0.7206
   28MPD2    H2  436   4.459   3.291  12.401  0.0919 -0.6621  0.8158
   28MPD2    H3  437   4.599   3.213  12.244 -0.0195 -0.2967 -1.8981
   28MPD2     N  438   4.660   3.645  12.077  0.1199 -0.0925 -0.1353
   28MPD2    H5  439   4.645   3.741  12.107  0.5125 -0.3134  0.7511
   28MPD2    N1  440   4.385   3.535  12.454  0.0675 -0.2863 -0.2798
   28MPD2    H7  441   4.344   3.461  12.511 -0.4857  1.3249  1.4009
   29MPD2     C  442   4.389   1.166  14.022  0.3508 -0.1531 -0.7606
   29MPD2    C1  443   4.429   1.168  14.152  0.3641 -0.1095  0.6751
   29MPD2    C2  444   4.456   1.289  14.214 -0.1495 -0.0112 -0.0280
   29MPD2    C3  445   4.438   1.401  14.145 -0.6207  0.2223 -0.0477
   29MPD2    C4  446   4.403   1.402  14.007  0.2569  0.4111  0.1729
   29MPD2    C5  447   4.385   1.280  13.951  0.0172 -0.3873  0.1260
   29MPD2     H  448   4.496   1.284  14.315 -0.1579 -0.6154 -0.0584
   29MPD2    H1  449   4.383   1.496  13.957 -0.1376 -0.5225 -1.4069
   29MPD2    H2  450   4.371   1.074  13.968  0.4752  0.7006 -2.2541
   29MPD2    H3  451   4.373   1.268  13.844  1.1353  1.2970 -0.2037
   29MPD2     N  452   4.450   1.528  14.200 -0.7069  0.0168  0.2254
   29MPD2    H5  453   4.450   1.597  14.125 -1.3933  0.2508  0.4432
   29MPD2    N1  454   4.463   1.047  14.220 -0.4352 -0.3873 -0.1603
   29MPD2    H7  455   4.508   1.056  14.311  0.7303  0.6292 -0.8301
   30TCq2    C1  456   4.446   1.570  14.327 -0.9872 -0.0297  0.2738
   30TCq2    O2  457   4.428   1.501  14.424  0.8858  0.3930  0.0917
   30TCq2    C2  458   4.434   1.717  14.341  0.4924 -0.3053 -0.1012
   30TCq2    C3  459   4.392   1.767  14.459  0.3903 -0.3630 -0.1262
   30TCq2    C4  460   4.408   1.899  14.475  0.4079 -0.0326 -0.2160
   30TCq2    C5  461   4.458   1.987  14.377  0.2709  0.3337 -1.1844
   30TCq2    C6  462   4.492   1.935  14.253  0.2043  0.1784  0.5456
   30TCq2    C7  463   4.476   1.802  14.234  0.0981 -0.8749  0.2397
   30TCq2    C8  464   4.600   2.002  14.179  0.2524 -0.9145  0.1795
   30TCq2    O4  465   4.653   1.930  14.094  0.3955  0.0010 -0.0837
   30TCq2    C9  466   4.386   1.965  14.601 -0.2634  0.0547  0.3668
   30TCq2    O5  467   4.432   2.083  14.615  0.4039 -0.1182  0.2377
   30TCq2    O6  468   4.334   1.901  14.694  0.0229 -0.5663 -0.2097
   30TCq2    H2  469   4.350   1.706  14.538 -0.0885 -0.5630 -0.5317
   30TCq2    H3  470   4.486   2.089  14.399 -0.6247  0.2714  0.2245
   30TCq2    H4  471   4.507   1.755  14.141  0.4706  0.9632 -0.5743
   31MPD2     C  472   2.553   0.484  14.889  0.7699  0.5151  0.4640
   31MPD2    C1  473   2.422   0.530  14.869  0.3449  0.2509  0.5918
   31MPD2    C2  474   2.327   0.488  14.958  0.3288 -0.0901  0.4593
   31MPD2    C3  475   2.352   0.401  15.061 -0.0061  0.1765  0.3373
   31MPD2    C4  476   2.484   0.358  15.082  0.0090 -0.6364  0.3278
   31MPD2    C5  477   2.583   0.399  14.997  1.1458  0.7436 -0.0831
   31MPD2     H  478   2.230   0.529  14.932 -0.1835 -0.8666  1.1269
   31MPD2    H1  479   2.503   0.290  15.164  1.0399  0.9886  1.4121
   31MPD2    H2  480   2.627   0.511  14.815 -2.7341  1.9493 -2.5736
   31MPD2    H3  481   2.682   0.357  14.993  1.7184  1.9191  1.6269
   31MPD2     N  482   2.250   0.370  15.159 -0.5361  0.2748 -0.1547
   31MPD2    H5  483   2.297   0.331  15.240 -2.3776 -0.7381  0.4090
   31MPD2    N1  484   2.389   0.611  14.755  0.2456  0.2679 -0.2194
   31MPD2    H7  485   2.458   0.617  14.681 -0.1833 -0.8634 -0.7206
   32TCq2    C1  486   2.126   0.429  15.165  0.3124  0.5547 -0.7419
   32TCq2    O2  487   2.042   0.458  15.081 -0.4747 -0.1972  0.4083
   32TCq2    C2  488   2.056   0.379  15.281  0.0295  0.3126 -0.5255
   32TCq2    C3  489   1.927   0.427  15.303  0.5574 -0.4961 -0.5230
   32TCq2    C4  490   1.847   0.361  15.399 -0.2196 -0.2747 -0.2872
   32TCq2    C5  491   1.900   0.249  15.461 -0.5123 -0.4331 -0.6871
   32TCq2    C6  492   2.024   0.202  15.425  0.5911  0.2831 -0.0048
   32TCq2    C7  493   2.102   0.268  15.337  0.4424 -0.1074 -0.5240
   32TCq2    C8  494   2.077   0.078  15.489 -0.2567  0.4890 -0.1300
   32TCq2    O4  495   2.162   0.017  15.425 -0.1448  0.1104  0.8223
   32TCq2    C9  496   1.710   0.403  15.417 -0.3661 -0.0167 -0.0332
   32TCq2    O5  497   1.625   0.339  15.484  0.0223 -0.6167  0.1701
   32TCq2    O6  498   1.679   0.500  15.346 -0.0590 -0.4840  0.4825
   32TCq2    H2  499   1.892   0.509  15.241  0.1068 -0.0209  0.3674
   32TCq2    H3  500   1.837   0.205  15.538  0.4391  1.0535  0.9407
   32TCq2    H4  501   2.193   0.218  15.306 -0.9194 -2.8694 -0.0666
   33MPD2     C  502   2.658   3.131  10.512 -0.2646 -0.0169  0.5387
   33MPD2    C1  503   2.608   3.021  10.450 -0.0784 -0.6913 -0.0555
   33MPD2    C2  504   2.667   2.971  10.338 -0.0433  0.4527 -0.3425
   33MPD2    C3  505   2.777   3.037  10.281  0.4974 -0.0908 -0.0194
   33MPD2    C4  506   2.827   3.148  10.341  0.8122  0.3088 -0.1192
   33MPD2    C5  507   2.767   3.194  10.457 -0.2468  0.8368 -0.0461
   33MPD2     H  508   2.648   2.870  10.302  2.1943  0.4151 -1.4440
   33MPD2    H1  509   2.911   3.199  10.294  0.5043 -0.1287 -1.1364
   33MPD2    H2  510   2.630   3.156  10.613  1.3045  0.5229  0.8457
   33MPD2    H3  511   2.804   3.285  10.504  2.1839 -1.4828  2.5189
   33MPD2     N  512   2.833   2.983  10.161  0.1599  0.2481  0.4001
   33MPD2    H5  513   2.920   3.029  10.135  0.9109 -0.8596  0.9797
   33MPD2    N1  514   2.511   2.950  10.526 -0.3690  1.0115 -0.3154
   33MPD2    H7  515   2.482   2.988  10.616 -2.3794 -1.4671  0.0878
   34TCq2    C1  516   2.788   2.881  10.078 -0.0105  0.2896  0.7510
   34TCq2    O2  517   2.692   2.804  10.086  0.1209  0.4960 -0.3238
   34TCq2    C2  518   2.883   2.846   9.980  0.1265 -0.8138 -1.3726
   34TCq2    C3  519   2.879   2.718   9.929  0.7657  0.6352  0.1573
   34TCq2    C4  520   2.984   2.679   9.852 -0.5351  0.0617  0.2705
   34TCq2    C5  521   3.084   2.760   9.811 -0.5146 -0.7379 -0.0000
   34TCq2    C6  522   3.092   2.877   9.880 -0.0689  0.2153 -0.1958
   34TCq2    C7  523   2.991   2.926   9.952 -0.9421 -0.3371 -0.1406
   34TCq2    C8  524   3.163   2.988   9.807  0.4328  0.4074  0.8849
   34TCq2    O4  525   3.175   3.096   9.863  0.3083  0.4682  0.0425
   34TCq2    C9  526   2.985   2.536   9.813 -0.2131  0.7632  0.2038
   34TCq2    O5  527   2.891   2.468   9.861 -0.4757  0.1105 -0.1137
   34TCq2    O6  528   3.067   2.506   9.720  0.0558  0.0609 -0.0805
   34TCq2    H2  529   2.792   2.655   9.927  1.2974 -0.0890 -0.2192
   34TCq2    H3  530   3.166   2.723   9.750 -0.7468 -0.0161 -0.7605
   34TCq2    H4  531   2.993   3.030   9.982  2.4792  0.0325 -1.6416
   35MPD2     C  532   4.322   4.093  11.681  0.4437  0.8960  0.8755
   35MPD2    C1  533   4.259   3.982  11.723  0.2488  0.0229 -0.4104
   35MPD2    C2  534   4.136   3.955  11.669 -0.0051  0.1167  0.3243
   35MPD2    C3  535   4.066   4.037  11.584  0.3668 -0.2986  0.4451
   35MPD2    C4  536   4.138   4.153  11.533 -0.1722  0.6108 -0.0361
   35MPD2    C5  537   4.264   4.175  11.584  0.3370  0.1798 -0.3315
   35MPD2     H  538   4.079   3.872  11.709  1.6205 -0.9233  0.4757
   35MPD2    H1  539   4.092   4.226  11.466  0.8955  1.0816 -0.2561
   35MPD2    H2  540   4.425   4.111  11.710  0.7366  0.6926 -0.0655
   35MPD2    H3  541   4.317   4.269  11.573  0.8799 -0.4328 -2.9435
   35MPD2     N  542   3.938   4.004  11.546  0.3996  0.4437 -0.1936
   35MPD2    H5  543   3.910   3.913  11.584  0.7088 -0.2174 -1.5397
   35MPD2    N1  544   4.325   3.902  11.820  0.1707  0.3553  0.2369
   35MPD2    H7  545   4.389   3.962  11.872 -1.0769  0.7638  1.3165
   36TCq2    C1  546   3.855   4.078  11.455  0.5192  0.3090 -0.1967
   36TCq2    O2  547   3.872   4.192  11.418  0.6167  0.1566  0.4884
   36TCq2    C2  548   3.718   4.022  11.442  0.3402 -0.2657  0.8805
   36TCq2    C3  549   3.612   4.106  11.428 -0.8382 -0.4010  0.0084
   36TCq2    C4  550   3.491   4.055  11.396 -0.4721 -0.1803 -0.5690
   36TCq2    C5  551   3.480   3.923  11.393 -0.4215  0.1376 -0.5225
   36TCq2    C6  552   3.582   3.839  11.412  0.1942 -0.0838  0.0831
   36TCq2    C7  553   3.708   3.886  11.430  0.1140 -0.1310 -0.6457
   36TCq2    C8  554   3.553   3.701  11.386 -0.0304 -0.6218  0.3841
   36TCq2    O4  555   3.438   3.671  11.349 -0.0399  0.0849  0.4263
   36TCq2    C9  556   3.376   4.135  11.371 -0.6318 -0.4639 -0.2881
   36TCq2    O5  557   3.385   4.261  11.392 -0.2725 -0.1634  0.0779
   36TCq2    O6  558   3.276   4.080  11.319  0.3071 -0.3744  0.1347
   36TCq2    H2  559   3.630   4.212  11.438 -1.4601 -0.1902 -1.1613
   36TCq2    H3  560   3.382   3.881  11.374 -0.7061  0.8774 -0.6530
   36TCq2    H4  561   3.800   3.831  11.411  1.3289  0.8485  2.4726
   37TMC2    C1  562   0.949   4.240  11.782 -0.2778  0.8942  0.4963
   37TMC2    C2  563   0.917   4.228  11.651 -0.2024  0.9852 -0.2085
   37TMC2    C3  564   0.997   4.294  11.560  0.2289 -1.1996 -0.8722
   37TMC2    C4  565   1.061   4.312  11.820  0.3099  0.7394 -0.3529
   37TMC2    C5  566   1.153   4.347  11.720  0.0820  0.2570  0.1963
   37TMC2    C6  567   1.119   4.346  11.586  0.3003  0.2235 -0.2406
   37TMC2     C  568   0.837   4.237  11.871  0.4385  0.0251  0.0501
   37TMC2     O  569   0.731   4.207  11.817 -0.2017  0.1488  0.4713
   37TMC2     H  570   0.820   4.190  11.622 -0.2949 -0.3684  1.8676
   37TMC2    H1  571   1.102   4.326  11.919  1.1872  1.0715 -0.7566
   37TMC2    H2  572   1.170   4.398  11.505 -0.7151 -0.1566 -1.1261
   37TMC2    C7  573   1.279   4.406  11.756 -0.6127  0.6056  0.1063
   37TMC2    C8  574   0.951   4.325  11.426  0.5746 -0.1318 -0.3559
   37TMC2    O1  575   1.327   4.390  11.869 -0.4754  0.2166  0.0893
   37TMC2    O2  576   0.999   4.406  11.349  0.0443 -0.1702  0.5766
   37TMC2    O5  577   0.873   4.222  11.382  0.7475  0.0686 -0.2307
   37TMC2    H5  578   0.867   4.147  11.445 -0.3949 -0.5853 -1.1150
   38MPD2     C  579   0.570   4.303  12.305 -0.1883  0.1512 -0.5760
   38MPD2    C1  580   0.704   4.276  12.340  0.0042 -0.5774 -0.3760
   38MPD2    C2  581   0.797   4.282  12.241  0.0241 -0.2919  0.4003
   38MPD2    C3  582   0.758   4.286  12.107  0.5642  0.4986 -0.8767
   38MPD2    C4  583   0.629   4.308  12.076 -0.0779 -0.1012  0.0475
   38MPD2    C5  584   0.536   4.322  12.177  0.7259 -0.0147  0.2441
   38MPD2     H  585   0.903   4.271  12.263  0.1500  0.6981  0.3208
   38MPD2    H1  586   0.591   4.316  11.975  2.8868  1.7913 -0.9169
   38MPD2    H2  587   0.491   4.294  12.379  1.3159  1.3379  1.2057
   38MPD2    H3  588   0.437   4.341  12.138  1.3614  0.0563 -1.3491
   38MPD2     N  589   0.858   4.271  12.003  0.1142 -0.4737 -0.1610
   38MPD2    H5  590   0.954   4.285  12.033  0.2329 -1.0201 -0.2928
   38MPD2    N1  591   0.742   4.250  12.470  0.2499  0.1020  0.0715
   38MPD2    H7  592   0.841   4.268  12.484  0.0331  0.8302  0.6591
   39MPD2     C  593   3.703   1.282   1.385 -0.0468  0.5009  0.0482
   39MPD2    C1  594   3.612   1.293   1.485 -0.0622 -1.1898 -0.0550
   39MPD2    C2  595   3.492   1.347   1.452 -0.4675 -0.4349  0.6872
   39MPD2    C3  596   3.450   1.367   1.321 -0.1196  0.5167 -0.1882
   39MPD2    C4  597   3.541   1.334   1.220  0.2422  0.0747  0.4090
   39MPD2    C5  598   3.663   1.286   1.254 -0.0341 -0.1590 -0.1749
   39MPD2     H  599   3.425   1.373   1.533 -0.6470  4.2001 -0.9549
   39MPD2    H1  600   3.522   1.369   1.119 -1.3222 -0.5993  0.4680
   39MPD2    H2  601   3.800   1.237   1.404  0.6160  1.3010 -1.4121
   39MPD2    H3  602   3.742   1.256   1.186 -0.2705 -0.5167 -0.2898
   39MPD2     N  603   3.322   1.414   1.279  0.2214  0.1303  0.0279
   39MPD2    H5  604   3.306   1.430   1.180 -2.4300  1.0136  0.6043
   39MPD2    N1  605   3.655   1.266   1.614 -0.4793 -0.2311 -0.5642
   39MPD2    H7  606   3.754   1.249   1.626 -0.8018 -2.1971 -0.7550
   40TCq2    C1  607   3.582   1.276   1.727 -0.4753  0.5734  0.0121
   40TCq2    O2  608   3.463   1.311   1.743 -0.1938 -0.2325 -0.3631
   40TCq2    C2  609   3.663   1.262   1.847  0.0572  0.2493 -0.7820
   40TCq2    C3  610   3.791   1.220   1.828 -0.1394  0.3079  0.0326
   40TCq2    C4  611   3.885   1.261   1.918  0.1972 -0.4232 -0.3317
   40TCq2    C5  612   3.857   1.359   2.015 -1.6498  0.0180 -0.4812
   40TCq2    C6  613   3.729   1.397   2.030 -0.0301 -0.0809  0.2177
   40TCq2    C7  614   3.632   1.352   1.945 -0.4549  0.2077 -0.7507
   40TCq2    C8  615   3.701   1.522   2.094 -0.2788 -0.2095 -0.1036
   40TCq2    O4  616   3.588   1.547   2.126  0.1105 -0.0834 -0.0466
   40TCq2    C9  617   4.016   1.210   1.895  0.5187  0.5473 -0.1563
   40TCq2    O5  618   4.112   1.286   1.934 -0.0961  0.1459  0.1810
   40TCq2    O6  619   4.025   1.107   1.823  0.2201  0.1399 -0.2801
   40TCq2    H2  620   3.814   1.141   1.758  0.5691 -0.5824  1.2664
   40TCq2    H3  621   3.935   1.383   2.087 -1.2641 -1.1601 -0.5203
   40TCq2    H4  622   3.537   1.404   1.957 -1.9492 -2.8340  0.5423
   41TMC2    C1  623   3.046   4.087  13.514  0.4490  0.0114 -0.6963
   41TMC2    C2  624   3.118   4.194  13.559 -0.5465  0.3664  0.3109
   41TMC2    C3  625   3.125   4.297  13.471 -0.2525  0.0483 -0.3923
   41TMC2    C4  626   2.988   4.075  13.392  0.2380 -0.2439  0.2715
   41TMC2    C5  627   3.005   4.184  13.305  0.1365 -0.8524  0.4361
   41TMC2    C6  628   3.070   4.297  13.342 -0.6685  0.5520  0.2374
   41TMC2     C  629   3.032   3.973  13.603  0.6176 -1.5246 -0.6780
   41TMC2     O  630   2.949   3.882  13.575  0.0219 -0.4682 -0.2480
   41TMC2     H  631   3.185   4.204  13.644  0.0152 -1.3330  0.0747
   41TMC2    H1  632   2.922   3.995  13.360  2.1830 -1.5187 -0.5470
   41TMC2    H2  633   3.075   4.387  13.282  0.5173  0.2815 -0.0656
   41TMC2    C7  634   2.900   4.202  13.210  0.3137 -0.3822  1.1213
   41TMC2    C8  635   3.215   4.407  13.507  0.3804 -0.0888 -0.2848
   41TMC2    O1  636   2.798   4.141  13.220 -0.3617 -0.3312  0.2188
   41TMC2    O2  637   3.302   4.385  13.589 -0.3734 -0.4838 -0.6642
   41TMC2    O5  638   3.123   4.510  13.503  0.2642  0.0198  0.1503
   41TMC2    H5  639   3.050   4.505  13.438  0.6605  1.2190 -0.3789
   42MPD2     C  640   3.002   3.800  13.853 -0.1287  0.3371  0.0556
   42MPD2    C1  641   3.049   3.931  13.849  0.9724  0.3909  0.1721
   42MPD2    C2  642   3.049   4.002  13.967 -0.9744 -0.8077  0.2045
   42MPD2    C3  643   3.014   3.935  14.090 -0.2081  0.3309 -0.3308
   42MPD2    C4  644   2.968   3.802  14.086  0.2020  0.0417 -0.3701
   42MPD2    C5  645   2.953   3.739  13.970  0.6022  0.0906 -0.1402
   42MPD2     H  646   3.119   4.084  13.977 -0.3713 -1.2867 -0.0580
   42MPD2    H1  647   2.945   3.740  14.171  0.8183  0.0599 -0.1905
   42MPD2    H2  648   2.992   3.751  13.757  2.2594 -1.8184  0.8990
   42MPD2    H3  649   2.905   3.643  13.958  0.3708  0.0120  1.5289
   42MPD2     N  650   3.029   3.989  14.220  0.1842 -0.9042 -0.0472
   42MPD2    H5  651   3.000   3.923  14.292 -1.5627 -0.8458 -0.7160
   42MPD2    N1  652   3.070   4.009  13.731 -0.4728  0.3645  0.1430
   42MPD2    H7  653   3.110   4.101  13.749 -1.3505  0.3713  1.9533
   43MPD2     C  654   4.151   2.505   0.649 -0.4580  0.0989 -0.4413
   43MPD2    C1  655   4.179   2.387   0.710 -0.4367  0.0807  0.6181
   43MPD2    C2  656   4.109   2.351   0.828 -0.1021 -0.3905 -0.2621
   43MPD2    C3  657   4.035   2.446   0.890  0.4778  0.7823  0.7723
   43MPD2    C4  658   4.021   2.566   0.834  0.1919 -0.0780  0.0474
   43MPD2    C5  659   4.069   2.594   0.710  0.2374 -0.1911 -0.2729
   43MPD2     H  660   4.108   2.251   0.870  0.1979  0.5431  1.9728
   43MPD2    H1  661   3.959   2.642   0.878  0.7916  0.8434 -0.6896
   43MPD2    H2  662   4.193   2.533   0.553 -0.8772  0.5150 -0.5051
   43MPD2    H3  663   4.030   2.680   0.658  1.8496 -0.1731 -1.4605
   43MPD2     N  664   3.962   2.432   1.010  0.7866 -0.3395  0.7457
   43MPD2    H5  665   3.894   2.503   1.034  0.2110 -0.3489 -0.8510
   43MPD2    N1  666   4.259   2.282   0.656  0.3977 -0.4794 -0.0459
   43MPD2    H7  667   4.262   2.195   0.708  3.7053 -1.2274 -1.5054
   44TCq2    C1  668   3.752   2.165   1.501 -0.3579  0.5004  0.3049
   44TCq2    O2  669   3.797   2.053   1.479 -0.3706 -0.2390  0.3206
   44TCq2    C2  670   3.783   2.279   1.415 -0.2507  0.0979 -0.2675
   44TCq2    C3  671   3.699   2.388   1.413 -0.1052 -0.2291 -0.0391
   44TCq2    C4  672   3.718   2.480   1.310 -0.6015  0.8093  0.5147
   44TCq2    C5  673   3.809   2.472   1.217 -0.4239 -0.1022 -0.5774
   44TCq2    C6  674   3.891   2.359   1.219  0.3330 -0.4515  0.7496
   44TCq2    C7  675   3.869   2.258   1.306 -0.1587 -0.7490  0.6992
   44TCq2    C8  676   3.964   2.331   1.101  0.3534 -0.4586  0.2095
   44TCq2    O4  677   4.033   2.231   1.095  0.2678 -0.3299 -0.4748
   44TCq2    C9  678   3.641   2.602   1.321 -0.1901  0.0519  0.1726
   44TCq2    O5  679   3.592   2.632   1.432 -0.1391  0.4773  0.9827
   44TCq2    O6  680   3.627   2.681   1.226 -0.5233 -1.0075  0.6970
   44TCq2    H2  681   3.607   2.398   1.470 -1.4663 -0.7103 -2.1752
   44TCq2    H3  682   3.823   2.567   1.166  0.2877 -0.1930 -0.5591
   44TCq2    H4  683   3.926   2.166   1.305  1.0539  0.0068  1.1119
   45TMC2    C1  684   0.931   4.176   9.469 -0.7064  0.1093  0.1998
   45TMC2    C2  685   0.831   4.264   9.445 -0.0980  0.4927 -0.2348
   45TMC2    C3  686   0.839   4.388   9.496 -0.1049 -0.0025 -0.0165
   45TMC2    C4  687   1.027   4.198   9.561 -0.1492 -0.2675 -0.0555
   45TMC2    C5  688   1.027   4.323   9.627  0.7297  0.2587 -0.3130
   45TMC2    C6  689   0.940   4.423   9.580  0.4597 -0.5911  0.8248
   45TMC2     C  690   0.906   4.038   9.439 -0.2918 -0.2040 -0.9510
   45TMC2     O  691   0.971   3.958   9.499  0.2374 -0.3061  1.0137
   45TMC2     H  692   0.748   4.250   9.377 -1.0738  0.5368  0.9658
   45TMC2    H1  693   1.100   4.123   9.590 -0.3394  0.0173  1.1706
   45TMC2    H2  694   0.936   4.526   9.614 -0.6224  0.5698 -2.8636
   45TMC2    C7  695   1.122   4.342   9.743 -0.6562 -0.1338 -0.1687
   45TMC2    C8  696   0.738   4.485   9.447 -0.1372  0.5077  0.3156
   45TMC2    O1  697   1.186   4.246   9.781  0.4404  0.9080  0.2995
   45TMC2    O2  698   0.647   4.452   9.372 -0.2633 -0.0569  0.7860
   45TMC2    O5  699   0.772   4.613   9.460 -0.4366 -0.0271 -0.0463
   45TMC2    H5  700   0.862   4.635   9.492 -0.1957 -1.9305  0.6069
   46MPD2     C  701   0.750   3.791   9.387  1.2259  0.8207  0.3189
   46MPD2    C1  702   0.740   3.909   9.312  0.5828  0.6352 -0.2267
   46MPD2    C2  703   0.647   3.914   9.209 -0.0494  0.2918 -0.5259
   46MPD2    C3  704   0.563   3.812   9.184  0.2681  0.0838 -0.3288
   46MPD2    C4  705   0.577   3.695   9.252 -0.8789  0.0987 -0.1296
   46MPD2    C5  706   0.671   3.686   9.352 -0.2718 -0.1176  0.8422
   46MPD2     H  707   0.638   3.999   9.142 -2.6420  0.1711 -0.3421
   46MPD2    H1  708   0.516   3.609   9.227  0.2258 -0.8339  0.4089
   46MPD2    H2  709   0.810   3.786   9.477  0.6407  1.2838  0.7399
   46MPD2    H3  710   0.679   3.596   9.412 -2.6950 -2.6435 -2.6269
   46MPD2     N  711   0.463   3.833   9.083 -0.1895  0.2925  0.3528
   46MPD2    H5  712   0.463   3.930   9.052 -3.0179  0.6429  1.4197
   46MPD2    N1  713   0.812   4.026   9.346 -0.6571 -0.3849 -0.1367
   46MPD2    H7  714   0.782   4.108   9.294  0.3375  0.0884  0.0315
   47TMC2    C1  715   2.904   0.573   9.157 -0.0847  0.1514  0.0444
   47TMC2    C2  716   2.890   0.671   9.060 -0.2633 -0.0306  0.6416
   47TMC2    C3  717   2.801   0.650   8.956  0.0726 -0.2661 -0.5369
   47TMC2    C4  718   2.826   0.459   9.158 -0.1408  0.1088  0.1751
   47TMC2    C5  719   2.734   0.446   9.059 -0.4837  0.1387  0.1900
   47TMC2    C6  720   2.721   0.540   8.955  0.0539  0.1964  0.4992
   47TMC2     C  721   3.000   0.604   9.266  0.4124  0.0424  0.4199
   47TMC2     O  722   3.046   0.717   9.262  0.3807  0.1237  0.0558
   47TMC2     H  723   2.954   0.759   9.063  2.3456 -2.0351  3.2928
   47TMC2    H1  724   2.834   0.399   9.247  1.7668 -1.1084 -0.7991
   47TMC2    H2  725   2.655   0.520   8.872  0.7098  0.8763 -0.1743
   47TMC2    C7  726   2.663   0.318   9.046  0.0451 -0.7970 -0.1399
   47TMC2    C8  727   2.778   0.747   8.849 -0.3962  0.2374 -0.7162
   47TMC2    O1  728   2.575   0.320   8.958  0.2795 -0.3938 -0.5120
   47TMC2    O2  729   2.702   0.726   8.754  0.0212 -0.7105 -0.2853
   47TMC2    O5  730   2.894   0.817   8.841 -0.1540 -0.1867 -0.0808
   47TMC2    H5  731   2.937   0.831   8.928  2.9449 -1.5106 -1.4462
   48MPD2     C  732   3.152   0.635   9.533 -0.7451 -0.4913  0.3488
   48MPD2    C1  733   3.123   0.517   9.461  0.0230  0.0489  0.1449
   48MPD2    C2  734   3.191   0.404   9.505  0.0790 -0.1933 -0.5620
   48MPD2    C3  735   3.285   0.402   9.604 -0.1259 -0.6970 -0.6414
   48MPD2    C4  736   3.316   0.525   9.654  0.1878 -0.1578 -0.1043
   48MPD2    C5  737   3.250   0.639   9.624 -0.4844  0.0903  0.3521
   48MPD2     H  738   3.154   0.309   9.469  1.0872 -0.8990  0.2671
   48MPD2    H1  739   3.385   0.541   9.736 -1.4395  0.7182  1.0740
   48MPD2    H2  740   3.102   0.725   9.501 -1.0087 -1.5546 -2.2699
   48MPD2    H3  741   3.270   0.731   9.676 -0.0853 -0.6669  1.5443
   48MPD2     N  742   3.329   0.277   9.641  0.2139 -0.9733  0.4153
   48MPD2    H5  743   3.310   0.195   9.585 -1.8844 -0.6757  0.6663
   48MPD2    N1  744   3.029   0.505   9.359  0.2875  0.4671 -0.4593
   48MPD2    H7  745   3.018   0.409   9.328  2.8641 -0.1037  0.4908
   49MPD2     C  746   1.418   3.167  10.055  0.3425  0.8704 -0.4447
   49MPD2    C1  747   1.435   3.031  10.038 -0.3898  0.1854  0.5997
   49MPD2    C2  748   1.428   2.952  10.151 -0.0319 -0.2241 -0.0807
   49MPD2    C3  749   1.418   3.013  10.280 -0.7275  0.0682 -0.0948
   49MPD2    C4  750   1.394   3.146  10.286  0.3208 -0.3990  0.2932
   49MPD2    C5  751   1.407   3.227  10.174 -0.5264 -0.1429  0.1760
   49MPD2     H  752   1.445   2.845  10.139 -0.8048 -0.4535  0.8271
   49MPD2    H1  753   1.384   3.192  10.384  0.9662 -1.0490  0.6686
   49MPD2    H2  754   1.420   3.237   9.972 -1.0016 -0.3534 -1.5219
   49MPD2    H3  755   1.392   3.333  10.186 -0.0392 -0.2450  1.6927
   49MPD2     N  756   1.420   2.928  10.399  0.3288  0.3290  0.2990
   49MPD2    H5  757   1.401   2.974  10.488  1.5966  3.0335 -0.8317
   49MPD2    N1  758   1.447   2.982   9.913 -0.0066 -0.1850  0.1948
   49MPD2    H7  759   1.426   2.882   9.917 -1.2353  0.0718  0.1519
   50TCq2    C1  760   1.481   3.043   9.796  0.8679  0.0059  1.0780
   50TCq2    O2  761   1.520   3.158   9.791  0.1159  0.1805  0.3924
   50TCq2    C2  762   1.478   2.965   9.677 -0.0919 -0.0247  0.1718
   50TCq2    C3  763   1.564   3.003   9.580  0.1002  0.0678  0.6352
   50TCq2    C4  764   1.575   2.923   9.470 -0.2711 -0.4972  0.7455
   50TCq2    C5  765   1.500   2.810   9.458  0.6307 -0.0902 -0.0271
   50TCq2    C6  766   1.405   2.783   9.551  1.0420  0.2971 -0.6609
   50TCq2    C7  767   1.391   2.858   9.667 -0.7571  0.6642  0.5979
   50TCq2    C8  768   1.301   2.685   9.528  0.5680  0.3919 -0.4125
   50TCq2    O4  769   1.240   2.652   9.626  0.3116  0.5764  0.2148
   50TCq2    C9  770   1.640   2.981   9.353  0.8578  0.2814 -0.1234
   50TCq2    O5  771   1.728   3.062   9.380  0.1770  0.3456 -0.5111
   50TCq2    O6  772   1.619   2.929   9.241 -0.2738 -0.8213  0.0514
   50TCq2    H2  773   1.627   3.091   9.586 -1.9706  1.6204 -0.5428
   50TCq2    H3  774   1.514   2.755   9.365  0.1615 -0.1171 -0.0820
   50TCq2    H4  775   1.301   2.852   9.728 -2.0183 -0.3983 -1.3655
   51MPD2     C  776   1.081   0.357   1.472 -0.9180  0.4881  0.0746
   51MPD2    C1  777   1.068   0.443   1.370  0.3821 -1.1554  0.0219
   51MPD2    C2  778   1.117   0.570   1.393  0.2096 -0.0647 -0.2956
   51MPD2    C3  779   1.181   0.609   1.507  0.0830 -0.5659  0.2949
   51MPD2    C4  780   1.174   0.521   1.615 -0.7987  0.0182 -0.0950
   51MPD2    C5  781   1.126   0.397   1.597  0.1541  0.4407  0.7162
   51MPD2     H  782   1.116   0.633   1.304  0.7516 -0.2905 -0.4603
   51MPD2    H1  783   1.206   0.543   1.716  0.8489 -1.7268 -0.2279
   51MPD2    H2  784   1.034   0.259   1.474  1.7491 -0.7940  0.2765
   51MPD2    H3  785   1.105   0.335   1.684 -1.7291 -2.5243 -1.8651
   51MPD2     N  786   1.239   0.734   1.522 -0.2897 -0.5582  0.1499
   51MPD2    H5  787   1.283   0.757   1.610 -1.6538  1.6745  0.2549
   51MPD2    N1  788   1.019   0.420   1.242 -0.8316 -0.9707  0.0373
   51MPD2    H7  789   1.016   0.496   1.175 -0.1448 -0.6306  0.3988
   52TCq2    C1  790   1.216   0.838   1.435 -0.2845 -0.1519  0.3953
   52TCq2    O2  791   1.146   0.845   1.337 -0.1161  0.0162  0.2726
   52TCq2    C2  792   1.252   0.962   1.505 -0.4086 -0.4186  1.1151
   52TCq2    C3  793   1.389   0.962   1.529  0.5883  0.0076  0.3533
   52TCq2    C4  794   1.452   1.077   1.554 -0.2982  0.4918 -0.2108
   52TCq2    C5  795   1.375   1.194   1.549 -0.9599  0.0249  0.4019
   52TCq2    C6  796   1.247   1.191   1.502 -0.4601 -0.3747  0.1178
   52TCq2    C7  797   1.182   1.079   1.479  0.2590 -0.4647  0.5098
   52TCq2    C8  798   1.191   1.320   1.458 -0.2216 -0.0715 -0.3158
   52TCq2    O4  799   1.262   1.417   1.473  0.4308 -0.1288 -0.0861
   52TCq2    C9  800   1.596   1.081   1.577  0.7382  0.0453  0.7197
   52TCq2    O5  801   1.655   0.974   1.570 -0.3332  0.3205 -0.0552
   52TCq2    O6  802   1.653   1.190   1.593  0.0795  0.3370 -0.2955
   52TCq2    H2  803   1.446   0.871   1.536  1.5170  0.4271 -1.7186
   52TCq2    H3  804   1.426   1.284   1.583 -0.3613 -0.3974  0.6267
   52TCq2    H4  805   1.076   1.071   1.458  0.3661  0.1551 -0.2527
   53TMC2    C1  806   1.913   4.608  12.069 -0.0354 -0.1198 -0.1533
   53TMC2    C2  807   1.964   4.721  12.129 -0.4232  0.4044  1.1495
   53TMC2    C3  808   1.918   0.021  12.249 -0.0341  0.0272  0.1435
   53TMC2    C4  809   1.826   4.527  12.136 -0.8899 -0.0507 -0.6147
   53TMC2    C5  810   1.784   4.554  12.258 -0.4886 -0.5351 -0.4912
   53TMC2    C6  811   1.833   4.664  12.320 -0.0827  0.1754 -0.3097
   53TMC2     C  812   1.878   4.618  11.925 -1.0810  0.9003  0.2946
   53TMC2     O  813   1.967   4.655  11.851 -0.4747  0.0094 -0.4417
   53TMC2     H  814   2.041   0.058  12.085 -0.4407 -1.5101 -1.5590
   53TMC2    H1  815   1.794   4.434  12.089  0.1365 -1.1648  0.9025
   53TMC2    H2  816   1.796   4.704  12.414  0.5520  1.6541 -0.6898
   53TMC2    C7  817   1.644   4.529  12.285 -0.9937  0.5221  0.1058
   53TMC2    C8  818   1.972   0.138  12.320 -0.4021 -0.3384 -0.3299
   53TMC2    O1  819   1.574   4.531  12.185 -0.5801 -0.1855 -0.0115
   53TMC2    O2  820   1.901   0.207  12.396  0.1430  0.0317  0.8178
   53TMC2    O5  821   2.105   0.135  12.317 -0.1727  0.4468 -0.1875
   53TMC2    H5  822   2.139   0.053  12.276  1.2454  1.2444 -0.6081
   54MPD2     C  823   1.741   4.573  11.652 -0.3724  0.3426  0.6600
   54MPD2    C1  824   1.680   4.568  11.775 -0.0082  0.0313 -1.2395
   54MPD2    C2  825   1.543   4.541  11.777  0.7118 -0.6502 -0.0184
   54MPD2    C3  826   1.471   4.523  11.658 -0.3889  0.7824 -0.6022
   54MPD2    C4  827   1.532   4.554  11.540 -0.4527  0.8884 -0.4412
   54MPD2    C5  828   1.668   4.576  11.538  0.1631  0.0051  1.2023
   54MPD2     H  829   1.494   4.533  11.873  0.1958  1.0759 -0.1483
   54MPD2    H1  830   1.481   4.557  11.445 -0.2036 -0.4993 -0.6251
   54MPD2    H2  831   1.844   4.605  11.647  0.3331 -1.6141  2.4927
   54MPD2    H3  832   1.722   4.592  11.446  1.3376 -1.1044  1.7012
   54MPD2     N  833   1.347   4.459  11.652  0.3181 -0.3522 -0.8716
   54MPD2    H5  834   1.311   4.461  11.557  2.5746  2.2972 -1.6563
   54MPD2    N1  835   1.743   4.590  11.899 -0.0277  0.2459 -0.4812
   54MPD2    H7  836   1.682   4.581  11.979  3.5754 -2.1768  1.9762
   55MPD2     C  837   2.376   2.346  16.972  0.1822  0.0846  0.1044
   55MPD2    C1  838   2.321   2.256  17.064  0.6229 -0.4782 -0.4151
   55MPD2    C2  839   2.195   2.279  17.120 -0.2977 -0.4503 -0.1011
   55MPD2    C3  840   2.128   2.398  17.085 -0.5110 -0.1033  0.5828
   55MPD2    C4  841   2.185   2.489  17.003 -0.5096 -0.2932 -0.3087
   55MPD2    C5  842   2.305   2.455  16.945 -0.0635  0.2022  0.1714
   55MPD2     H  843   2.147   2.206  17.184 -1.0652 -0.9684 -1.2628
   55MPD2    H1  844   2.134   2.579  16.971 -1.6226 -0.3468  1.3312
   55MPD2    H2  845   2.465   2.327  16.914  1.1343  2.0036  0.9268
   55MPD2    H3  846   2.349   2.518  16.869  1.3369  0.8922  1.5604
   55MPD2     N  847   2.012   2.433  17.162  0.1527 -0.0151  0.2670
   55MPD2    H5  848   1.983   2.365  17.232  2.0922  0.7545  1.8261
   55MPD2    N1  849   2.402   2.140  17.103  0.1915 -0.0618 -0.1447
   55MPD2    H7  850   2.493   2.136  17.058  0.2480  0.8364 -0.1181
   56TCq2    C1  851   2.364   2.041  17.195 -0.0939 -0.5677 -0.1326
   56TCq2    O2  852   2.266   2.039  17.272 -0.0813 -0.4369  0.2203
   56TCq2    C2  853   2.474   1.946  17.226 -0.3179 -0.0190  0.2934
   56TCq2    C3  854   2.590   1.959  17.152 -0.1437 -0.7774 -0.3319
   56TCq2    C4  855   2.706   1.905  17.203  0.0026 -0.3736 -0.1976
   56TCq2    C5  856   2.704   1.831  17.320 -0.4887  0.1791  0.0026
   56TCq2    C6  857   2.583   1.827  17.386  0.1350  0.0850 -0.3862
   56TCq2    C7  858   2.467   1.880  17.340 -0.7877  0.4486 -0.0826
   56TCq2    C8  859   2.567   1.748  17.511 -0.4074 -0.2892  0.4495
   56TCq2    O4  860   2.653   1.661  17.538 -0.2960 -0.2199 -1.2282
   56TCq2    C9  861   2.830   1.920  17.129  0.4590 -0.0091 -0.5241
   56TCq2    O5  862   2.937   1.870  17.171 -0.0828  0.0715 -0.5024
   56TCq2    O6  863   2.811   1.955  17.011 -0.4104 -0.0959 -0.3713
   56TCq2    H2  864   2.588   2.004  17.054  0.7330 -2.0119 -0.9163
   56TCq2    H3  865   2.794   1.784  17.358 -2.4741 -4.5358 -1.1765
   56TCq2    H4  866   2.373   1.865  17.392 -0.7904  1.5143  0.2106
   57TMC2    C1  867   1.689   3.415  13.298  0.0056  0.1933  0.3531
   57TMC2    C2  868   1.758   3.409  13.415  0.1422 -0.3295  0.2334
   57TMC2    C3  869   1.884   3.353  13.409  0.3362 -0.0857 -0.4043
   57TMC2    C4  870   1.743   3.376  13.176 -0.2626 -0.2911  0.5574
   57TMC2    C5  871   1.873   3.343  13.179 -0.6140 -0.5036  0.0735
   57TMC2    C6  872   1.945   3.319  13.293  0.1059  0.0664  0.1835
   57TMC2     C  873   1.541   3.412  13.324  0.2445  0.3667 -0.3028
   57TMC2     O  874   1.505   3.475  13.425  0.0548  1.0852  0.4443
   57TMC2     H  875   1.715   3.443  13.509 -2.0873 -1.5045 -0.3765
   57TMC2    H1  876   1.678   3.386  13.090  1.7525 -2.3802 -1.2126
   57TMC2    H2  877   2.045   3.277  13.301  0.7563  1.4482 -0.7413
   57TMC2    C7  878   1.940   3.348  13.058 -0.6952  0.8569 -0.1871
   57TMC2    C8  879   1.945   3.322  13.537 -0.6008 -0.9528  0.1032
   57TMC2    O1  880   1.885   3.403  12.967 -0.5438  0.4712  0.3876
   57TMC2    O2  881   2.020   3.229  13.561 -0.5907  0.1605 -0.0294
   57TMC2    O5  882   1.915   3.424  13.621 -0.5891 -0.3228  0.3081
   57TMC2    H5  883   1.867   3.502  13.584 -1.6849 -1.9796 -1.7773
   58MPD2     C  884   1.062   3.263  13.290 -0.3986  0.2766 -0.3016
   58MPD2    C1  885   1.126   3.375  13.347 -0.4053  0.9831 -0.1758
   58MPD2    C2  886   1.255   3.399  13.329 -0.2467 -0.4153 -0.5255
   58MPD2    C3  887   1.331   3.317  13.251  0.2170  0.2923 -0.0781
   58MPD2    C4  888   1.273   3.215  13.184  0.0270  0.5568  0.0703
   58MPD2    C5  889   1.137   3.189  13.201 -0.3687 -1.0509  0.6434
   58MPD2     H  890   1.300   3.494  13.358 -2.0452  0.4958 -0.7130
   58MPD2    H1  891   1.326   3.144  13.122 -3.1701 -2.3518  0.6483
   58MPD2    H2  892   0.965   3.224  13.320 -0.7659 -0.0975 -1.9838
   58MPD2    H3  893   1.076   3.114  13.152 -0.1792 -1.3549  0.8790
   58MPD2     N  894   1.469   3.334  13.242 -0.2212  0.3281  0.0186
   58MPD2    H5  895   1.529   3.277  13.184 -0.9072 -1.1723  0.7800
   58MPD2    N1  896   1.062   3.469  13.432  0.0009 -0.4745 -0.1013
   58MPD2    H7  897   1.120   3.544  13.469 -0.4942  0.4613 -1.2072
   59MPD2     C  898   4.067   3.120  13.261  0.5231 -0.1236 -0.5832
   59MPD2    C1  899   4.075   3.175  13.134  0.2908 -0.1473  0.0469
   59MPD2    C2  900   4.144   3.294  13.118 -0.3516  0.1784  0.5110
   59MPD2    C3  901   4.193   3.366  13.222  0.6358  0.4665 -0.2949
   59MPD2    C4  902   4.194   3.306  13.349 -0.1822 -0.7004  0.2997
   59MPD2    C5  903   4.131   3.187  13.361  0.0629  0.1643 -0.0940
   59MPD2     H  904   4.154   3.330  13.017  0.4272  2.3837  1.3785
   59MPD2    H1  905   4.240   3.348  13.438 -2.3675 -1.7976  1.9447
   59MPD2    H2  906   4.019   3.025  13.282  0.7144  0.1571  1.1067
   59MPD2    H3  907   4.132   3.156  13.465  0.7860  1.2983  0.2349
   59MPD2     N  908   4.247   3.494  13.217 -0.0735  0.1579 -0.6328
   59MPD2    H5  909   4.274   3.542  13.302  0.6562  0.5012 -1.0547
   59MPD2    N1  910   4.012   3.122  13.018  0.1250  0.0476 -0.6868
   59MPD2    H7  911   4.027   3.174  12.932  0.7461 -1.4015 -1.4688
   60TCq2    C1  912   3.917   3.024  13.025  0.3771  0.3031 -0.6110
   60TCq2    O2  913   3.877   2.960  13.125  0.1579  0.6309  0.0128
   60TCq2    C2  914   3.883   2.977  12.889  0.4938 -0.1806  0.5762
   60TCq2    C3  915   3.794   2.875  12.885 -0.0263  0.1006 -0.9988
   60TCq2    C4  916   3.758   2.827  12.762 -0.2964 -0.9229  0.8131
   60TCq2    C5  917   3.829   2.855  12.649 -0.0392 -0.2064 -0.1226
   60TCq2    C6  918   3.926   2.955  12.656 -0.1164  0.1749 -0.0295
   60TCq2    C7  919   3.954   3.021  12.775  0.0309 -0.3761  0.4456
   60TCq2    C8  920   4.010   2.974  12.547 -0.7357 -0.9373 -0.0835
   60TCq2    O4  921   4.037   2.872  12.487 -0.2988  0.0959  0.4931
   60TCq2    C9  922   3.650   2.735  12.749 -0.7623 -0.0524 -0.4920
   60TCq2    O5  923   3.591   2.708  12.859 -0.4679  0.4120 -0.1761
   60TCq2    O6  924   3.641   2.663  12.645  0.0553  0.0198 -0.2348
   60TCq2    H2  925   3.737   2.849  12.974 -0.1781 -2.0685 -1.7356
   60TCq2    H3  926   3.802   2.812  12.553 -1.5690  0.0002  0.2059
   60TCq2    H4  927   4.040   3.085  12.791  0.0072 -0.1463 -0.4001
   61MPD2     C  928   3.259   4.540  14.390  0.6964  0.3816 -0.2758
   61MPD2    C1  929   3.283   4.670  14.442 -0.6735  0.1629 -0.3325
   61MPD2    C2  930   3.262   0.052  14.351 -0.0653  0.4787  0.1264
   61MPD2    C3  931   3.208   0.031  14.226 -0.2596 -0.3063 -0.1126
   61MPD2    C4  932   3.154   4.631  14.195 -0.2715 -0.1089 -0.0614
   61MPD2    C5  933   3.197   4.526  14.273  0.6925 -0.7935 -0.2190
   61MPD2     H  934   3.292   0.153  14.381 -1.1872  0.9150 -0.2274
   61MPD2    H1  935   3.113   4.602  14.099  0.2403 -3.0157  0.6005
   61MPD2    H2  936   3.292   4.448  14.437  1.2394  0.9806  0.5256
   61MPD2    H3  937   3.184   4.426  14.231 -0.4543 -0.5765 -0.3647
   61MPD2     N  938   3.182   0.133  14.134 -0.3416  0.2606  0.3000
   61MPD2    H5  939   3.113   0.116  14.062 -1.5551 -1.3108  1.8149
   61MPD2    N1  940   3.330   4.700  14.575  0.1337  0.7777 -0.1090
   61MPD2    H7  941   3.330   0.076  14.592  1.5132  0.9362 -1.0616
   62TCq2    C1  942   3.346   4.612  14.675  0.4331  0.3943  0.5887
   62TCq2    O2  943   3.319   4.493  14.678  0.0556 -0.0224 -0.1562
   62TCq2    C2  944   3.350   4.677  14.808  0.0956  0.5268  0.0473
   62TCq2    C3  945   3.289   4.617  14.909  0.7199 -0.0447  0.0811
   62TCq2    C4  946   3.250   4.691  15.011  0.0010 -0.4367  0.3030
   62TCq2    C5  947   3.279   0.102  15.024 -0.6148  0.0005  0.3217
   62TCq2    C6  948   3.346   0.160  14.925 -0.3883  0.0618 -0.0237
   62TCq2    C7  949   3.382   0.086  14.812  0.2526 -0.5165  0.0455
   62TCq2    C8  950   3.340   0.310  14.920 -0.2895 -0.2593  0.8535
   62TCq2    O4  951   3.447   0.370  14.911  0.6939  0.0301 -0.1900
   62TCq2    C9  952   3.156   4.627  15.099 -0.2988  0.2034 -0.8033
   62TCq2    O5  953   3.108   4.511  15.068  1.2012  0.2855  0.2843
   62TCq2    O6  954   3.087   4.704  15.174  0.6634  0.5691  0.3200
   62TCq2    H2  955   3.271   4.511  14.898 -0.9895 -0.0896  3.1997
   62TCq2    H3  956   3.240   0.171  15.097 -1.3431  1.4983 -1.4757
   62TCq2    H4  957   3.435   0.134  14.731 -0.5459  0.6599  0.2157
   63TMC2    C1  958   2.952   0.433   9.930  0.4078  0.2223  0.3720
   63TMC2    C2  959   2.952   0.571   9.912  0.6174  0.0631 -0.3044
   63TMC2    C3  960   2.926   0.613   9.783 -0.6448  0.1932 -0.4222
   63TMC2    C4  961   2.910   0.347   9.835 -0.1746 -0.3145 -0.3025
   63TMC2    C5  962   2.876   0.394   9.710 -0.5642 -0.2729  0.1219
   63TMC2    C6  963   2.879   0.529   9.686 -0.3289 -0.2217 -0.6276
   63TMC2     C  964   2.934   0.395  10.072 -0.6904 -0.1192  0.0049
   63TMC2     O  965   2.896   0.488  10.145 -0.0086  0.2241  0.5327
   63TMC2     H  966   2.974   0.643   9.989  0.9025  0.3397 -0.6409
   63TMC2    H1  967   2.890   0.243   9.855 -0.0904  0.1043  1.8870
   63TMC2    H2  968   2.861   0.566   9.586  4.2623  0.9080 -1.0317
   63TMC2    C7  969   2.801   0.288   9.635 -0.9857 -0.8797  0.4198
   63TMC2    C8  970   2.900   0.749   9.762  0.1545 -0.7242 -1.0506
   63TMC2    O1  971   2.820   0.167   9.657  0.1894 -0.2598 -0.1145
   63TMC2    O2  972   2.830   0.781   9.667 -0.1358  0.3731 -0.3338
   63TMC2    O5  973   3.009   0.822   9.794 -0.6292  0.1473 -0.4516
   63TMC2    H5  974   3.081   0.779   9.845 -1.0786 -2.2824 -1.8637
   64MPD2     C  975   2.840   0.027  10.408 -0.2494  0.4882 -0.0638
   64MPD2    C1  976   2.891   4.694  10.296 -0.0439  0.1393  0.2841
   64MPD2    C2  977   2.947   0.060  10.203  1.0448  0.0686 -0.1420
   64MPD2    C3  978   2.928   0.192  10.213  0.0972  0.3908 -0.0334
   64MPD2    C4  979   2.868   0.247  10.327  0.5288 -0.1429 -0.1103
   64MPD2    C5  980   2.832   0.162  10.428 -0.1475 -0.1790 -0.1312
   64MPD2     H  981   2.985   0.020  10.110  1.9181  1.0669 -0.2136
   64MPD2    H1  982   2.867   0.355  10.337 -1.2935 -0.0153 -1.7735
   64MPD2    H2  983   2.817   4.677  10.484 -1.6750 -0.9074 -1.8370
   64MPD2    H3  984   2.789   0.194  10.522  1.3530 -0.0751  0.5251
   64MPD2     N  985   2.951   0.262  10.097  0.1766 -0.1840  0.3693
   64MPD2    H5  986   2.971   0.202  10.018 -1.9399  0.2683 -0.5206
   64MPD2    N1  987   2.903   4.552  10.281  0.1737  0.2183 -0.0698
   64MPD2    H7  988   2.965   4.516  10.209  0.2645 -0.3305  0.2821
   65MPD2     C  989   4.187   4.195  15.564 -0.4558  0.1487 -0.2864
   65MPD2    C1  990   4.211   4.128  15.450 -0.6516  0.1674 -0.3418
   65MPD2    C2  991   4.250   3.997  15.462  0.0030  0.6263 -0.8936
   65MPD2    C3  992   4.238   3.923  15.582  0.1499  0.4294 -0.7713
   65MPD2    C4  993   4.217   4.006  15.696  0.0418 -0.8707  0.1065
   65MPD2    C5  994   4.190   4.138  15.685  0.5171  1.1118 -0.2830
   65MPD2     H  995   4.268   3.949  15.367 -2.8021 -3.5050  0.6326
   65MPD2    H1  996   4.201   3.960  15.793 -1.0352 -1.4720 -0.3614
   65MPD2    H2  997   4.157   4.299  15.575  0.2246 -0.1359  4.3453
   65MPD2    H3  998   4.159   4.186  15.777 -0.4837 -1.6905  0.8293
   65MPD2     N  999   4.261   3.782  15.594 -0.4353  0.1890 -0.2218
   65MPD2    H5 1000   4.238   3.737  15.682 -0.4860  0.9114  0.1339
   65MPD2    N1 1001   4.198   4.185  15.317  0.1527  0.1075  0.2306
   65MPD2    H7 1002   4.221   4.130  15.235 -2.2761  1.3509 -1.2824
   66TCq2    C1 1003   4.175   4.321  15.291 -0.4781  0.1044 -0.3134
   66TCq2    O2 1004   4.180   4.412  15.372  0.2212  0.0623 -0.0567
   66TCq2    C2 1005   4.133   4.365  15.160  0.1998 -0.1840  0.6307
   66TCq2    C3 1006   4.094   4.280  15.066 -0.5650  0.4647 -0.2355
   66TCq2    C4 1007   4.066   4.334  14.943 -0.2342  0.7195 -0.1145
   66TCq2    C5 1008   4.076   4.462  14.908 -0.2367  0.0020 -0.0821
   66TCq2    C6 1009   4.124   4.546  15.002 -0.4087  0.0484  0.3646
   66TCq2    C7 1010   4.152   4.498  15.135 -0.9384 -0.4701 -0.4419
   66TCq2    C8 1011   4.099   4.689  14.989  0.4007  0.1263  1.2025
   66TCq2    O4 1012   4.120   0.025  14.890  0.1171 -0.4559  0.1801
   66TCq2    C9 1013   4.007   4.249  14.841 -0.4293  0.1445  0.2801
   66TCq2    O5 1014   4.013   4.285  14.720 -0.7506  0.3984 -0.0176
   66TCq2    O6 1015   3.986   4.125  14.873 -0.5896  0.5631 -0.7873
   66TCq2    H2 1016   4.073   4.177  15.091  0.4136  0.1381 -0.7362
   66TCq2    H3 1017   4.052   4.499  14.808  3.0229 -0.1166 -0.9264
   66TCq2    H4 1018   4.198   4.560  15.210 -1.9052  0.7873 -0.8967
   67MPD2     C 1019   4.240   3.637  14.125 -0.2647  0.6725 -0.6357
   67MPD2    C1 1020   4.166   3.690  14.225  0.4076 -0.3433 -0.2504
   67MPD2    C2 1021   4.028   3.706  14.202  0.4651  0.6017  0.8801
   67MPD2    C3 1022   3.969   3.686  14.078  0.5861 -0.5832  0.4674
   67MPD2    C4 1023   4.039   3.625  13.984 -0.4816 -0.3015 -0.0887
   67MPD2    C5 1024   4.175   3.606  14.008 -0.5267  0.6704 -0.1619
   67MPD2     H 1025   3.967   3.747  14.281 -0.4200 -0.4254  0.7204
   67MPD2    H1 1026   4.003   3.583  13.891 -1.9475  0.0004  0.3487
   67MPD2    H2 1027   4.347   3.627  14.139 -0.6524  1.2601  2.6782
   67MPD2    H3 1028   4.220   3.557  13.922 -2.2030 -0.9967 -0.0906
   67MPD2     N 1029   3.833   3.722  14.043  0.1468  0.2397  0.5730
   67MPD2    H5 1030   3.794   3.692  13.954 -0.8142  0.3277  0.9544
   67MPD2    N1 1031   4.215   3.725  14.352 -0.4499  0.2371 -0.3437
   67MPD2    H7 1032   4.160   3.772  14.424 -1.6687 -0.1004 -1.0628
   68TCq2    C1 1033   4.344   3.707  14.398 -0.1060  0.1299  0.1806
   68TCq2    O2 1034   4.442   3.649  14.345 -0.5259 -0.2472  0.8377
   68TCq2    C2 1035   4.359   3.749  14.534  0.2527  1.1347 -0.8467
   68TCq2    C3 1036   4.245   3.767  14.608 -0.3037  0.3955 -0.3633
   68TCq2    C4 1037   4.269   3.830  14.731  0.3826 -0.3599  0.5463
   68TCq2    C5 1038   4.396   3.859  14.779 -0.2234  0.3506 -0.1537
   68TCq2    C6 1039   4.508   3.832  14.704  0.2071 -0.0416 -0.1176
   68TCq2    C7 1040   4.487   3.781  14.574 -0.6951 -0.1629 -0.0625
   68TCq2    C8 1041   4.645   3.860  14.746  0.1866 -0.0833 -0.0658
   68TCq2    O4 1042   0.013   3.834  14.665  0.2240  0.3112  0.2893
   68TCq2    C9 1043   4.155   3.862  14.816  0.6145  0.2876 -0.1203
   68TCq2    O5 1044   4.173   3.871  14.941 -0.1714 -0.4023 -0.4032
   68TCq2    O6 1045   4.044   3.867  14.757 -0.4091 -0.1061 -0.1333
   68TCq2    H2 1046   4.149   3.727  14.577 -0.2613 -0.8953  1.1550
   68TCq2    H3 1047   4.397   3.903  14.878  0.8557 -1.8928  0.8408
   68TCq2    H4 1048   4.571   3.764  14.507 -1.2055 -1.7627 -0.2888
   69TMC2    C1 1049   1.127   0.507  11.917  0.5215  0.0552  0.7341
   69TMC2    C2 1050   1.057   0.623  11.926  0.1374 -0.0791 -0.3389
   69TMC2    C3 1051   0.981   0.668  11.824  0.3460  0.1181  0.3188
   69TMC2    C4 1052   1.107   0.430  11.803  0.3948  0.7682  0.4879
   69TMC2    C5 1053   1.041   0.487  11.700  0.2805 -0.1002  0.8036
   69TMC2    C6 1054   0.985   0.614  11.702  0.1217 -0.0431 -1.0305
   69TMC2     C 1055   1.185   0.450  12.033 -0.3331  0.0602 -0.2239
   69TMC2     O 1056   1.142   0.489  12.141  0.6537 -0.0023 -0.6090
   69TMC2     H 1057   1.068   0.686  12.013 -0.9765 -0.2150 -0.0902
   69TMC2    H1 1058   1.139   0.327  11.803 -0.6961  0.4214  2.2407
   69TMC2    H2 1059   0.930   0.667  11.626  0.6377  1.3348 -0.4355
   69TMC2    C7 1060   1.073   0.425  11.572 -0.1841 -0.7114 -0.7443
   69TMC2    C8 1061   0.908   0.792  11.830  0.1216 -0.6700  0.6834
   69TMC2    O1 1062   1.178   0.363  11.569 -0.0327  0.1240  0.3857
   69TMC2    O2 1063   0.799   0.812  11.780  0.0108  0.3368 -0.3176
   69TMC2    O5 1064   0.956   0.869  11.925 -0.2133  0.0265  0.5299
   69TMC2    H5 1065   1.054   0.864  11.931 -0.2642 -0.3394  1.1447
   70MPD2     C 1066   1.474   0.217  12.039 -0.0687 -0.3051  0.2234
   70MPD2    C1 1067   1.368   0.291  12.087  0.1250 -0.3206 -0.7910
   70MPD2    C2 1068   1.324   0.275  12.217  0.0141 -0.0426 -0.6872
   70MPD2    C3 1069   1.411   0.207  12.306  0.6584  1.0105 -0.3200
   70MPD2    C4 1070   1.520   0.137  12.257 -0.5529 -0.8301  0.2760
   70MPD2    C5 1071   1.549   0.144  12.122  0.2355  0.2787  1.4324
   70MPD2     H 1072   1.237   0.323  12.260  0.6186  0.4801 -0.0489
   70MPD2    H1 1073   1.575   0.074  12.326 -0.8833 -0.6626  0.6904
   70MPD2    H2 1074   1.512   0.231  11.938 -2.3789 -1.5074 -0.8174
   70MPD2    H3 1075   1.631   0.091  12.075 -0.9842 -0.9295  0.6648
   70MPD2     N 1076   1.385   0.192  12.441 -0.4973 -0.6992  0.5188
   70MPD2    H5 1077   1.464   0.153  12.490 -0.1448  0.2951  0.7298
   70MPD2    N1 1078   1.285   0.361  12.000 -0.1825  0.4023 -0.4721
   70MPD2    H7 1079   1.305   0.350  11.901  0.0494 -0.1023 -0.3682
   71TMC2    C1 1080   4.501   0.897   0.918 -0.1527  0.3312  1.4041
   71TMC2    C2 1081   4.605   0.822   0.859  0.2518  0.4199 -0.3996
   71TMC2    C3 1082   4.626   0.701   0.914  0.1105 -0.8215  0.2272
   71TMC2    C4 1083   4.419   0.840   1.009  0.4041 -0.3380  0.5346
   71TMC2    C5 1084   4.438   0.721   1.063 -0.0125  0.4634 -0.2357
   71TMC2    C6 1085   4.545   0.647   1.013  0.3144 -1.2573 -0.0341
   71TMC2     C 1086   4.475   1.026   0.859 -0.1418 -0.0732  0.6406
   71TMC2     O 1087   4.361   1.073   0.868  0.8714 -0.5956  0.3894
   71TMC2     H 1088   4.664   0.860   0.777  2.9999 -0.0702  1.3756
   71TMC2    H1 1089   4.347   0.913   1.042  1.2399  1.7014 -2.2167
   71TMC2    H2 1090   4.565   0.555   1.066 -0.0695 -1.9613 -1.1134
   71TMC2    C7 1091   4.339   0.668   1.152 -0.1151  0.5206 -0.4708
   71TMC2    C8 1092   4.718   0.610   0.859  0.0130  0.1905  0.4493
   71TMC2    O1 1093   4.358   0.556   1.190  0.2733  0.1311  0.3112
   71TMC2    O2 1094   4.710   0.491   0.885  0.3079 -0.3766 -0.3240
   71TMC2    O5 1095   0.095   0.675   0.799 -0.0977  0.0218 -0.5940
   71TMC2    H5 1096   0.102   0.772   0.803  0.3798  0.0496 -1.9494
   72MPD2     C 1097   4.609   1.441   0.616  0.5423  0.1031 -0.2817
   72MPD2    C1 1098   4.496   1.371   0.605  0.9895 -0.2250  0.3756
   72MPD2    C2 1099   4.487   1.251   0.674  0.0725 -0.2499 -0.0583
   72MPD2    C3 1100   4.592   1.207   0.753 -0.2150 -0.1233  0.2453
   72MPD2    C4 1101   4.711   1.281   0.753 -0.0361 -1.2342 -0.3392
   72MPD2    C5 1102   4.722   1.399   0.678 -0.1790  0.5754  0.2552
   72MPD2     H 1103   4.400   1.188   0.657  0.2726 -0.3650 -0.6443
   72MPD2    H1 1104   0.076   1.245   0.805 -0.3333  1.7122  2.1919
   72MPD2    H2 1105   4.621   1.530   0.556 -0.4864  0.7225  0.4296
   72MPD2    H3 1106   0.086   1.461   0.667  1.7763 -2.0869  0.7193
   72MPD2     N 1107   4.589   1.090   0.835  0.3104 -0.0177 -0.3482
   72MPD2    H5 1108   4.674   1.064   0.885 -0.9311 -1.2654  1.0820
   72MPD2    N1 1109   4.389   1.425   0.528  0.1404  0.8847  0.2957
   72MPD2    H7 1110   4.408   1.517   0.490  1.3754  0.3376 -0.4222
   73TMC2    C1 1111   3.708   2.228  13.629 -0.2958  0.1008  0.4930
   73TMC2    C2 1112   3.667   2.348  13.663  0.4496  0.1223 -0.3443
   73TMC2    C3 1113   3.756   2.431  13.726  0.5003  0.4620  0.1090
   73TMC2    C4 1114   3.839   2.201  13.644 -0.4981  0.0610  0.9111
   73TMC2    C5 1115   3.938   2.288  13.671  0.4399  0.3164  0.0590
   73TMC2    C6 1116   3.890   2.403  13.741  0.3643 -0.4796  0.9217
   73TMC2     C 1117   3.660   2.185  13.499 -0.3028  0.6243 -0.5031
   73TMC2     O 1118   3.746   2.141  13.423 -0.4900  0.1030  0.1842
   73TMC2     H 1119   3.561   2.371  13.658  0.3407  0.0184  1.3917
   73TMC2    H1 1120   3.884   2.105  13.620 -0.8602 -0.2738  1.5881
   73TMC2    H2 1121   3.958   2.486  13.758  0.5373 -0.6576  1.0878
   73TMC2    C7 1122   4.029   2.324  13.568 -0.2042 -0.7244  0.3272
   73TMC2    C8 1123   3.696   2.540  13.796 -0.2159  0.0415  0.1209
   73TMC2    O1 1124   4.099   2.423  13.589 -0.1476  0.3084 -0.1443
   73TMC2    O2 1125   3.753   2.648  13.809 -0.7788 -0.4603  0.0338
   73TMC2    O5 1126   3.572   2.518  13.839 -0.2109 -0.2884  0.5812
   73TMC2    H5 1127   3.558   2.426  13.872  0.3023 -0.0114  1.5693
   74MPD2     C 1128   3.345   2.157  13.105 -0.2068 -0.2757  1.2722
   74MPD2    C1 1129   3.478   2.121  13.116 -0.2218  0.1885  0.5670
   74MPD2    C2 1130   3.540   2.136  13.236  0.0256  0.4222  0.4304
   74MPD2    C3 1131   3.472   2.189  13.348 -0.4415  0.1928 -0.0442
   74MPD2    C4 1132   3.342   2.225  13.330  0.0023 -0.0518  0.0086
   74MPD2    C5 1133   3.283   2.209  13.209  0.2903 -0.2102 -0.4228
   74MPD2     H 1134   3.640   2.094  13.248 -0.6964 -1.8551 -1.7459
   74MPD2    H1 1135   3.291   2.265  13.417 -1.2684  2.1439 -1.7417
   74MPD2    H2 1136   3.286   2.142  13.016 -0.7993  0.3946  1.5545
   74MPD2    H3 1137   3.184   2.251  13.195  0.0602 -0.4686  0.3785
   74MPD2     N 1138   3.525   2.198  13.478 -0.0244  0.2219  0.2371
   74MPD2    H5 1139   3.457   2.240  13.541 -0.3216 -0.3350  0.2893
   74MPD2    N1 1140   3.550   2.062  13.001 -0.4193  0.2549 -0.6039
   74MPD2    H7 1141   3.500   2.049  12.913 -0.5744  0.9664 -0.6152
   75TCq2    C1 1142   3.747   3.803  14.123  0.4361  0.5238 -0.4641
   75TCq2    O2 1143   3.765   3.846  14.240 -0.1896 -0.4298  0.1777
   75TCq2    C2 1144   3.607   3.808  14.078 -0.4194  1.1330 -0.2898
   75TCq2    C3 1145   3.507   3.791  14.176 -0.3251  0.4020 -0.1140
   75TCq2    C4 1146   3.382   3.757  14.141 -0.2287 -0.3242 -0.2358
   75TCq2    C5 1147   3.345   3.733  14.018  0.2801  0.2107  0.4068
   75TCq2    C6 1148   3.440   3.757  13.921  0.4943  1.0166  0.3814
   75TCq2    C7 1149   3.575   3.797  13.944  1.1477  0.6033 -0.1091
   75TCq2    C8 1150   3.400   3.761  13.781 -0.0230 -0.0670  0.5186
   75TCq2    O4 1151   3.319   3.689  13.736  0.4420  0.9959  0.6892
   75TCq2    C9 1152   3.296   3.724  14.262  0.1085 -0.3786  0.8780
   75TCq2    O5 1153   3.199   3.650  14.242  0.0521  0.0648 -0.1539
   75TCq2    O6 1154   3.317   3.786  14.370  0.0525 -0.7601  0.5399
   75TCq2    H2 1155   3.533   3.803  14.281 -0.9505  1.2729 -0.0627
   75TCq2    H3 1156   3.240   3.715  14.000  0.1124  1.7497 -0.1467
   75TCq2    H4 1157   3.655   3.807  13.870 -1.0725  1.4671 -2.4046
   76MPD2     C 1158   1.721   4.339  11.255 -0.1385 -0.1438  0.3235
   76MPD2    C1 1159   1.759   4.465  11.219  0.9469 -0.2391 -0.8905
   76MPD2    C2 1160   1.880   4.524  11.258  0.5841 -0.0401  0.2750
   76MPD2    C3 1161   1.959   4.456  11.351 -0.4753 -0.6684  0.2804
   76MPD2    C4 1162   1.914   4.326  11.390 -0.2457  0.2005  0.0263
   76MPD2    C5 1163   1.803   4.266  11.340 -0.9382  0.3628 -0.7368
   76MPD2     H 1164   1.898   4.628  11.234 -2.2613  0.4717  0.2975
   76MPD2    H1 1165   1.974   4.269  11.460 -0.3864 -1.2063 -1.0048
   76MPD2    H2 1166   1.631   4.288  11.223  0.4385 -2.1311  1.8553
   76MPD2    H3 1167   1.762   4.173  11.377 -0.3808  0.6854  0.6836
   76MPD2     N 1168   2.075   4.503  11.418 -0.3405  0.3842 -0.1052
   76MPD2    H5 1169   2.108   4.446  11.495 -0.1559  0.5471 -0.0639
   76MPD2    N1 1170   1.683   4.545  11.127 -1.0800  0.5921 -0.0289
   76MPD2    H7 1171   1.723   4.632  11.093  1.4340 -1.3531 -2.0855
   77TCq2    C1 1172   2.140   4.623  11.382 -0.9365 -0.0579  0.1936
   77TCq2    O2 1173   2.104   4.709  11.299  0.1994 -0.2741  0.0060
   77TCq2    C2 1174   2.252   4.650  11.467 -0.3171 -0.0143  0.4937
   77TCq2    C3 1175   2.299   0.051  11.456  0.3822  0.0814 -0.7265
   77TCq2    C4 1176   2.423   0.080  11.515 -0.2410 -0.3708  0.9019
   77TCq2    C5 1177   2.505   4.708  11.576 -1.2928 -0.2015  0.6970
   77TCq2    C6 1178   2.446   4.578  11.583 -0.3194 -0.8622  0.2877
   77TCq2    C7 1179   2.319   4.544  11.528  0.2619  0.4375  0.0544
   77TCq2    C8 1180   2.519   4.466  11.655 -0.1794 -0.4933  0.0065
   77TCq2    O4 1181   2.472   4.354  11.643  0.6160 -0.7036 -0.5074
   77TCq2    C9 1182   2.482   0.217  11.514 -0.0787  0.4643  0.1449
   77TCq2    O5 1183   2.420   0.302  11.449  0.5407  0.1239 -0.1874
   77TCq2    O6 1184   2.554   0.254  11.608  0.1093  0.5074 -1.1275
   77TCq2    H2 1185   2.262   0.129  11.390  2.2944  0.3130 -1.5215
   77TCq2    H3 1186   2.608   0.003  11.603 -1.6138  1.8183  0.4550
   77TCq2    H4 1187   2.291   4.440  11.523  0.7146  0.3277 -0.2525
   78MPD1     C 1188   2.478   1.027   2.011  0.4431 -0.7554  0.2498
   78MPD1    C1 1189   2.534   1.019   1.885  0.0594 -0.5157 -0.5169
   78MPD1    C2 1190   2.654   0.954   1.875  0.4453  0.0763 -0.3918
   78MPD1    C3 1191   2.721   0.913   1.985 -0.0992 -0.0720 -0.0447
   78MPD1    C4 1192   2.663   0.931   2.111  0.3536  0.1584 -0.4182
   78MPD1    C5 1193   2.538   0.983   2.127 -0.6568  0.0190 -0.5452
   78MPD1     H 1194   2.687   0.945   1.772  0.2229  0.3212 -0.4822
   78MPD1    H1 1195   2.708   0.886   2.199  0.3741  1.7836  0.4039
   78MPD1    H2 1196   2.377   1.063   2.029  0.8540  0.2079  0.6570
   78MPD1    H3 1197   2.490   0.990   2.224 -0.1922 -2.4985 -0.1267
   78MPD1     N 1198   2.848   0.851   1.981 -0.3615 -0.4846  0.2607
   78MPD1    H5 1199   2.879   0.812   2.069  0.7205 -0.1887  0.0139
   78MPD1    N1 1200   2.459   1.058   1.775  0.1063 -0.9207 -0.7480
   78MPD1    H6 1201   2.403   1.139   1.804 -0.7411 -2.8023  2.9637
   78MPD1    H7 1202   2.522   1.080   1.699 -0.9622 -1.6843 -1.8436
   79TCq2    C1 1203   2.923   0.839   1.864  0.3244  0.1827 -0.1786
   79TCq2    O2 1204   2.901   0.869   1.747 -0.2485 -0.0893  0.5209
   79TCq2    C2 1205   3.033   0.748   1.884 -0.8247 -0.6676  0.0673
   79TCq2    C3 1206   3.045   0.665   1.993 -0.4557 -0.4605  0.1373
   79TCq2    C4 1207   3.164   0.592   1.999 -1.0714 -0.2180  0.1623
   79TCq2    C5 1208   3.242   0.572   1.889  0.2923  0.1832  0.6440
   79TCq2    C6 1209   3.215   0.644   1.772 -0.0132  0.1638 -0.2113
   79TCq2    C7 1210   3.116   0.733   1.779  0.1499  0.1217 -0.1751
   79TCq2    C8 1211   3.291   0.627   1.654 -0.0772 -0.4014  0.1276
   79TCq2    O4 1212   3.398   0.575   1.664  0.0962 -0.2809  0.4068
   79TCq2    C9 1213   3.176   0.487   2.097  0.5260 -0.0342 -0.3346
   79TCq2    O5 1214   3.277   0.412   2.086  0.1678  0.4212 -0.0813
   79TCq2    O6 1215   3.060   0.438   2.126 -0.2933  0.0416  0.6766
   79TCq2    H2 1216   2.989   0.678   2.085  0.1940  1.5032  0.2356
   79TCq2    H3 1217   3.323   0.500   1.887  0.9596  0.9368  0.2800
   79TCq2    H4 1218   3.107   0.807   1.701 -0.8186  0.6436  0.4430
   80MPD2     C 1219   1.577   4.057  12.888  0.1144 -0.0676 -0.6356
   80MPD2    C1 1220   1.525   4.114  12.768 -0.5892 -0.6925  0.5564
   80MPD2    C2 1221   1.388   4.119  12.745 -0.0619  0.2550 -0.5764
   80MPD2    C3 1222   1.303   4.069  12.843 -0.4954 -0.3139  0.5264
   80MPD2    C4 1223   1.358   4.005  12.953  0.3213 -0.2960  0.5781
   80MPD2    C5 1224   1.490   3.997  12.976  0.3408 -0.9836 -0.3838
   80MPD2     H 1225   1.344   4.158  12.654 -1.0474 -0.1443 -0.2818
   80MPD2    H1 1226   1.288   3.975  13.030  1.5659 -0.2523  1.7308
   80MPD2    H2 1227   1.681   4.050  12.917 -0.2798  0.2208  0.8476
   80MPD2    H3 1228   1.537   3.935  13.052  2.2058  0.2866 -0.5108
   80MPD2     N 1229   1.158   4.071  12.833  0.0176  0.2426 -0.0843
   80MPD2    H5 1230   1.114   4.008  12.899 -1.2562  0.6233 -0.5872
   80MPD2    N1 1231   1.612   4.154  12.661  0.5531  1.0860 -0.4744
   80MPD2    H7 1232   1.577   4.168  12.567  2.1804 -0.7041 -1.3382
   81TCq2    C1 1233   1.744   4.171  12.681  0.3052 -0.3438 -0.0118
   81TCq2    O2 1234   1.803   4.195  12.783 -0.5687  0.5018  0.1677
   81TCq2    C2 1235   1.815   4.203  12.557  0.6040 -0.9807 -0.1550
   81TCq2    C3 1236   1.932   4.273  12.565  0.1004  0.6362  0.0004
   81TCq2    C4 1237   2.001   4.295  12.458 -0.7777  0.2266 -0.5137
   81TCq2    C5 1238   1.968   4.248  12.333  0.3022 -0.3903  0.5767
   81TCq2    C6 1239   1.848   4.179  12.324  0.0123  0.3613  0.4313
   81TCq2    C7 1240   1.765   4.152  12.439 -0.2093  0.7260 -0.2779
   81TCq2    C8 1241   1.790   4.152  12.192 -0.2316 -0.0002  0.8865
   81TCq2    O4 1242   1.841   4.202  12.094 -0.2321 -0.1599 -0.1328
   81TCq2    C9 1243   2.122   4.374  12.468  0.1873  0.6983 -0.1430
   81TCq2    O5 1244   2.163   4.395  12.581  0.0220 -0.1191  0.2953
   81TCq2    O6 1245   2.191   4.402  12.363  0.6745 -0.3988 -0.4881
   81TCq2    H2 1246   1.969   4.309  12.661 -0.8350 -0.0704  0.6189
   81TCq2    H3 1247   2.029   4.269  12.246 -0.5629 -2.5628 -0.5563
   81TCq2    H4 1248   1.684   4.080  12.430  0.6387 -0.2062 -0.4796
   82MPD2     C 1249   4.596   4.000  10.648 -0.2181  0.3164  0.2036
   82MPD2    C1 1250   4.617   3.879  10.588  0.1410  0.2403 -0.1224
   82MPD2    C2 1251   4.642   3.766  10.667 -0.3990  0.2083  0.0503
   82MPD2    C3 1252   4.664   3.781  10.802  0.0270  0.2509  0.2075
   82MPD2    C4 1253   4.653   3.907  10.855 -0.3660 -0.7361 -0.1273
   82MPD2    C5 1254   4.619   4.014  10.778 -0.5446  0.4418 -0.0822
   82MPD2     H 1255   4.672   3.672  10.622 -2.5283 -0.8007  0.7406
   82MPD2    H1 1256   4.684   3.932  10.956 -1.3704  3.1270 -0.7404
   82MPD2    H2 1257   4.561   4.091  10.601  1.8870  0.5914 -0.8001
   82MPD2    H3 1258   4.608   4.109  10.829 -0.9815  0.3858 -0.0762
   82MPD2     N 1259   4.718   3.672  10.880  0.6921  0.0768 -0.0527
   82MPD2    H5 1260   0.022   3.690  10.976  1.6028  2.7835 -0.8023
   82MPD2    N1 1261   4.601   3.878  10.450  0.0296  1.1026 -0.7231
   82MPD2    H7 1262   4.575   3.964  10.403  1.4447  0.6464 -2.3319
   83TCq2    C1 1263   4.723   3.541  10.851  0.6634  0.1639  0.0853
   83TCq2    O2 1264   4.687   3.482  10.748  0.4253 -0.6486  0.3689
   83TCq2    C2 1265   0.040   3.462  10.967  0.2933  0.4180 -0.6389
   83TCq2    C3 1266   0.095   3.512  11.079 -0.4769 -0.9062  0.4363
   83TCq2    C4 1267   0.103   3.437  11.191  0.1991  0.5811 -0.1185
   83TCq2    C5 1268   0.042   3.315  11.198 -0.6967 -0.7964 -0.4139
   83TCq2    C6 1269   4.696   3.273  11.086  0.5725 -0.0575  0.0445
   83TCq2    C7 1270   4.698   3.341  10.967 -0.4074  0.2345 -0.4111
   83TCq2    C8 1271   4.618   3.152  11.088 -0.8023  0.4450  0.6929
   83TCq2    O4 1272   4.588   3.124  11.202  0.4348  0.1164 -0.1820
   83TCq2    C9 1273   0.160   3.506  11.304 -0.3017 -0.2820 -0.6335
   83TCq2    O5 1274   0.216   3.617  11.277 -0.8080  0.1165  0.2900
   83TCq2    O6 1275   0.152   3.447  11.415 -0.2812 -0.2338 -0.3841
   83TCq2    H2 1276   0.148   3.607  11.084 -3.0649  0.6560 -1.7477
   83TCq2    H3 1277   0.060   3.252  11.285  0.5716 -0.5000 -0.4522
   83TCq2    H4 1278   4.634   3.304  10.888  1.0391  0.8894 -1.9053
   84TCq2    C1 1279   1.427   2.794  10.403  0.2037 -0.7247  0.2119
   84TCq2    O2 1280   1.446   2.708  10.316  0.2032  0.0514  0.1692
   84TCq2    C2 1281   1.427   2.737  10.539 -0.5629 -0.3780 -0.1315
   84TCq2    C3 1282   1.501   2.621  10.555 -0.2616  0.7538  0.3475
   84TCq2    C4 1283   1.516   2.582  10.685  0.3210 -0.3155 -0.3345
   84TCq2    C5 1284   1.472   2.656  10.783  0.0289  0.2589  0.5159
   84TCq2    C6 1285   1.398   2.768  10.769 -0.1019  0.3121  0.2067
   84TCq2    C7 1286   1.377   2.815  10.643 -0.0172 -0.0109 -0.2415
   84TCq2    C8 1287   1.315   2.825  10.878 -0.3480  0.5057 -0.1923
   84TCq2    O4 1288   1.315   2.767  10.986 -0.3861  0.2585 -0.1314
   84TCq2    C9 1289   1.600   2.472  10.708  0.2115  0.6435  0.3080
   84TCq2    O5 1290   1.625   2.443  10.828 -0.1818 -0.0817  0.1660
   84TCq2    O6 1291   1.661   2.423  10.612 -0.6867 -0.0248 -0.1041
   84TCq2    H2 1292   1.544   2.560  10.476  0.4908  1.4627  0.2034
   84TCq2    H3 1293   1.495   2.628  10.885 -0.3087 -1.9792 -0.0260
   84TCq2    H4 1294   1.308   2.895  10.618  0.3052 -0.0119 -1.1151
   85MPD2     C 1295   1.483   0.208  16.316  0.2324  0.3147  0.0306
   85MPD2    C1 1296   1.430   0.225  16.189  0.5490  0.0607  0.1419
   85MPD2    C2 1297   1.488   0.306  16.100  0.4902 -0.1826  0.1454
   85MPD2    C3 1298   1.611   0.378  16.127  0.1900  0.3088  0.4432
   85MPD2    C4 1299   1.661   0.358  16.260 -0.7756 -0.0790 -0.5438
   85MPD2    C5 1300   1.592   0.282  16.353  0.0171 -0.3272  0.4460
   85MPD2     H 1301   1.428   0.314  16.010 -2.9281 -2.3209  2.2634
   85MPD2    H1 1302   1.756   0.396  16.295 -1.9011  1.3094  0.9965
   85MPD2    H2 1303   1.437   0.151  16.396  0.6070  1.4308  1.0466
   85MPD2    H3 1304   1.636   0.274  16.452  1.4731 -0.4819 -0.2132
   85MPD2     N 1305   1.662   0.475  16.034  0.1146  0.7027  0.2110
   85MPD2    H5 1306   1.617   0.492  15.945  0.8770  1.6491  0.0044
   85MPD2    N1 1307   1.309   0.162  16.145  0.1260  0.3856 -0.2889
   85MPD2    H7 1308   1.283   0.168  16.047 -0.1860  2.3003 -0.0965
   86TCq2    C1 1309   1.777   0.554  16.056 -0.0779  0.2323 -0.2650
   86TCq2    O2 1310   1.862   0.548  16.148 -0.2175 -0.2225  0.3929
   86TCq2    C2 1311   1.769   0.667  15.966 -0.5886  0.0564 -0.4064
   86TCq2    C3 1312   1.655   0.693  15.884  0.8836 -0.2462  1.3502
   86TCq2    C4 1313   1.668   0.803  15.793 -0.0483  0.1264  0.4431
   86TCq2    C5 1314   1.780   0.885  15.786  0.0896  0.0270 -0.0931
   86TCq2    C6 1315   1.883   0.844  15.865 -0.2428 -0.4894  0.3044
   86TCq2    C7 1316   1.886   0.737  15.954  0.2849 -0.4058  0.2124
   86TCq2    C8 1317   2.013   0.906  15.849 -0.6534 -0.4788  0.4916
   86TCq2    O4 1318   2.104   0.853  15.910 -0.0558 -0.5004 -0.6579
   86TCq2    C9 1319   1.557   0.841  15.714  0.4144 -0.3528 -0.2425
   86TCq2    O5 1320   1.478   0.752  15.683 -0.1688 -0.0992 -0.2092
   86TCq2    O6 1321   1.559   0.956  15.662  0.2939  0.1486 -0.2896
   86TCq2    H2 1322   1.569   0.627  15.883 -0.7089  1.8111  0.6075
   86TCq2    H3 1323   1.788   0.957  15.705 -2.1361  0.0827 -0.2599
   86TCq2    H4 1324   1.970   0.713  16.019  0.2099 -0.0954  0.4268
   87MPD2     C 1325   2.871   4.214  17.168  0.4548 -0.1993 -0.3999
   87MPD2    C1 1326   2.779   4.286  17.246 -0.4299 -0.5667  0.4504
   87MPD2    C2 1327   2.730   4.405  17.187 -0.8708  0.0125 -0.1746
   87MPD2    C3 1328   2.777   4.463  17.072  0.5876 -0.6294 -0.3318
   87MPD2    C4 1329   2.871   4.392  16.995 -0.3470  0.1210  0.1824
   87MPD2    C5 1330   2.906   4.266  17.042  0.0678 -0.0362 -0.5526
   87MPD2     H 1331   2.653   4.462  17.237 -0.3609  1.5785 -1.1713
   87MPD2    H1 1332   2.917   4.428  16.904  1.0998 -2.3032 -0.0229
   87MPD2    H2 1333   2.895   4.110  17.187  2.4452  0.7569  2.2989
   87MPD2    H3 1334   2.982   4.213  16.985  2.0226  2.4958 -0.3226
   87MPD2     N 1335   2.718   4.581  17.022 -0.5602  0.5381  0.0346
   87MPD2    H5 1336   2.765   4.622  16.942  0.8785 -0.8977  0.1209
   87MPD2    N1 1337   2.748   4.237  17.377 -0.9443 -0.0465 -0.4106
   87MPD2    H7 1338   2.806   4.158  17.403 -2.1433 -0.5575  0.6928
   88TCq2    C1 1339   2.679   4.303  17.474 -0.3385  0.4739  0.2716
   88TCq2    O2 1340   2.590   4.386  17.458 -0.0375 -0.0087  0.2236
   88TCq2    C2 1341   2.692   4.235  17.603 -0.0593 -0.7701 -0.2031
   88TCq2    C3 1342   2.610   4.284   0.008  0.0108 -0.6342  0.5100
   88TCq2    C4 1343   2.610   4.224   0.128  0.0038  0.0767  0.0923
   88TCq2    C5 1344   2.705   4.129   0.161  0.2128 -0.4293  0.3891
   88TCq2    C6 1345   2.785   4.079   0.057  0.5895 -0.4160 -1.0932
   88TCq2    C7 1346   2.784   4.133  17.626  0.0689  0.0431  0.0312
   88TCq2    C8 1347   2.891   3.983   0.089 -1.1637 -0.1939 -0.8593
   88TCq2    O4 1348   2.964   3.951  17.696 -0.3122  0.0267 -0.9176
   88TCq2    C9 1349   2.510   4.253   0.232  0.4903 -0.5771 -0.1707
   88TCq2    O5 1350   2.545   4.216   0.348  0.3694 -0.4194  0.0439
   88TCq2    O6 1351   2.428   4.345   0.205 -0.2036 -0.3285 -0.3282
   88TCq2    H2 1352   2.541   4.365  17.682 -0.1553 -0.5352  1.3420
   88TCq2    H3 1353   2.705   4.079   0.257 -0.9691 -0.3241  0.4466
   88TCq2    H4 1354   2.856   4.091  17.557 -1.0985  0.1968 -1.2710
   89MPD2     C 1355   3.714   1.809   2.139 -0.5974  0.7348 -0.2853
   89MPD2    C1 1356   3.802   1.742   2.063 -0.0151 -0.2214  0.2836
   89MPD2    C2 1357   3.885   1.816   1.984 -0.1968 -0.2971  0.1806
   89MPD2    C3 1358   3.894   1.956   1.982  0.2134  0.1490  0.1798
   89MPD2    C4 1359   3.810   2.021   2.069  0.9643 -0.0803  0.3788
   89MPD2    C5 1360   3.719   1.946   2.139  0.1099 -0.4836  0.3320
   89MPD2     H 1361   3.957   1.768   1.919  0.9767  1.3003  0.3047
   89MPD2    H1 1362   3.806   2.125   2.098  0.0988  0.3117 -1.1353
   89MPD2    H2 1363   3.638   1.765   2.202  0.0477 -2.4876 -1.7749
   89MPD2    H3 1364   3.651   2.002   2.202  1.3609  0.7990  0.5106
   89MPD2     N 1365   3.982   2.025   1.897 -0.2500 -0.2577 -0.0070
   89MPD2    H5 1366   4.039   1.969   1.834  0.8838  2.3152 -1.2555
   89MPD2    N1 1367   3.806   1.603   2.057 -0.0424 -0.0513  0.5197
   89MPD2    H7 1368   3.885   1.560   2.009  0.7697  2.1346 -0.0793
   90TCq2    C1 1369   3.988   2.163   1.881 -0.2296 -0.6836 -0.3607
   90TCq2    O2 1370   3.917   2.259   1.910  0.4237 -0.4081  0.5332
   90TCq2    C2 1371   4.088   2.192   1.776  0.0713 -0.3674  0.8183
   90TCq2    C3 1372   4.208   2.130   1.763 -0.2358  0.0545  0.3686
   90TCq2    C4 1373   4.308   2.199   1.702 -0.1715 -0.4068  0.0270
   90TCq2    C5 1374   4.278   2.304   1.622 -0.1450 -0.4911  0.0508
   90TCq2    C6 1375   4.153   2.349   1.622 -0.4048  0.5616  0.3443
   90TCq2    C7 1376   4.060   2.306   1.705  0.4074  0.2187 -0.0902
   90TCq2    C8 1377   4.114   2.463   1.541 -0.6681 -0.0872  0.4946
   90TCq2    O4 1378   4.022   2.531   1.583  0.2491 -0.1110  0.0816
   90TCq2    C9 1379   4.441   2.146   1.717  0.4426  0.1181 -0.4310
   90TCq2    O5 1380   4.537   2.199   1.654 -0.8752 -0.2109 -0.1042
   90TCq2    O6 1381   4.450   2.070   1.817 -0.0435  0.1738 -0.2441
   90TCq2    H2 1382   4.230   2.056   1.840  0.6562 -1.2665 -1.1615
   90TCq2    H3 1383   4.362   2.342   1.566 -0.1238 -0.0908  0.3542
   90TCq2    H4 1384   3.956   2.336   1.691  0.7522  0.6422 -1.6704
   91TMC2    C1 1385   1.632   1.141  16.041  0.3623 -0.3664  0.1525
   91TMC2    C2 1386   1.694   1.197  15.929  0.0650  0.1831 -0.0503
   91TMC2    C3 1387   1.624   1.216  15.815 -0.2656 -0.6009  0.2801
   91TMC2    C4 1388   1.498   1.106  16.036  0.5346 -0.2824 -0.2757
   91TMC2    C5 1389   1.434   1.135  15.917  0.0369  0.2153 -0.0478
   91TMC2    C6 1390   1.491   1.188  15.807  0.0328 -0.4940 -0.3006
   91TMC2     C 1391   1.718   1.063  16.134  0.3268  1.2268 -0.2058
   91TMC2     O 1392   1.669   0.970  16.196 -0.0476 -0.1720  0.3063
   91TMC2     H 1393   1.799   1.221  15.928 -0.6013  3.1898  2.1725
   91TMC2    H1 1394   1.443   1.056  16.114  0.2508 -0.2760 -0.4725
   91TMC2    H2 1395   1.428   1.218  15.724 -0.1140 -1.4546 -0.5256
   91TMC2    C7 1396   1.296   1.163  15.936  0.2045  0.6416  0.9124
   91TMC2    C8 1397   1.694   1.261  15.698  0.2133 -0.6042  0.6087
   91TMC2    O1 1398   1.257   1.144  16.052 -0.2281  0.5020  0.4356
   91TMC2    O2 1399   1.776   1.352  15.700 -0.0007  0.5570  0.8298
   91TMC2    O5 1400   1.664   1.183  15.597 -0.7395  0.0862  0.3225
   91TMC2    H5 1401   1.611   1.102  15.615 -1.2036  0.1655 -0.7000
   92MPD2     C 1402   1.944   0.926  16.270  0.4976 -0.0977 -0.0927
   92MPD2    C1 1403   1.936   1.064  16.240 -0.1694  0.4023  0.3874
   92MPD2    C2 1404   2.035   1.146  16.286 -0.2342 -0.2528 -0.6957
   92MPD2    C3 1405   2.157   1.096  16.343 -0.2057 -0.3188  0.0899
   92MPD2    C4 1406   2.158   0.960  16.380  0.2205  0.3501  0.5580
   92MPD2    C5 1407   2.056   0.877  16.338  0.5283  0.3555 -0.1509
   92MPD2     H 1408   2.025   1.251  16.265  0.0800  0.1698  1.2615
   92MPD2    H1 1409   2.241   0.908  16.428  0.4051 -2.2627 -2.5268
   92MPD2    H2 1410   1.879   0.856  16.218  1.1277  0.1155 -1.1786
   92MPD2    H3 1411   2.075   0.772  16.355  1.5060  0.5771  0.1556
   92MPD2     N 1412   2.258   1.191  16.393 -0.0171  0.5608  0.2116
   92MPD2    H5 1413   2.242   1.286  16.362  0.0302  0.5911  0.2795
   92MPD2    N1 1414   1.839   1.118  16.153  0.0008  0.0445  0.1177
   92MPD2    H7 1415   1.857   1.212  16.120  2.2615 -1.1172 -2.0244
   93MPD2     C 1416   3.433   1.858  13.464 -0.6904 -0.2150  0.5061
   93MPD2    C1 1417   3.395   1.867  13.595 -0.0462 -0.1880 -0.1067
   93MPD2    C2 1418   3.258   1.855  13.618  0.8860 -0.3122 -0.0087
   93MPD2    C3 1419   3.175   1.854  13.508  0.3821  0.8896 -0.4472
   93MPD2    C4 1420   3.218   1.837  13.376 -0.6099 -0.5135  0.1317
   93MPD2    C5 1421   3.351   1.837  13.362  0.1463 -0.9950 -0.3897
   93MPD2     H 1422   3.215   1.872  13.716 -0.3648  0.2526 -0.6536
   93MPD2    H1 1423   3.153   1.831  13.290 -3.2659  1.3656  2.0123
   93MPD2    H2 1424   3.538   1.866  13.438 -1.0173 -0.7041 -0.9296
   93MPD2    H3 1425   3.385   1.819  13.260  2.8453 -0.2487  0.3861
   93MPD2     N 1426   3.036   1.850  13.519 -0.1815 -0.1500 -0.1420
   93MPD2    H5 1427   2.975   1.851  13.438  2.0317 -2.4130 -1.8517
   93MPD2    N1 1428   3.482   1.898  13.701 -0.1928  0.9264 -0.1625
   93MPD2    H7 1429   3.436   1.910  13.791  1.4243 -0.1100  0.8163
   94TCq2    C1 1430   3.620   1.915  13.695 -0.6180  0.1205 -0.2464
   94TCq2    O2 1431   3.696   1.893  13.602  0.0901 -0.1651 -0.0140
   94TCq2    C2 1432   3.680   1.977  13.816 -0.3922  0.0396  0.4027
   94TCq2    C3 1433   3.621   2.079  13.879  0.4075  0.3217 -0.1196
   94TCq2    C4 1434   3.699   2.154  13.967  0.6203 -0.4272 -0.1917
   94TCq2    C5 1435   3.825   2.115  13.996 -0.3213  0.2304  0.4546
   94TCq2    C6 1436   3.881   2.006  13.932  0.2322 -0.0542 -0.2325
   94TCq2    C7 1437   3.807   1.937  13.843 -0.4764  0.7314 -0.0923
   94TCq2    C8 1438   4.029   1.991  13.920  0.7300  0.3211  0.4900
   94TCq2    O4 1439   4.073   1.886  13.875 -0.2547 -0.4684  0.3031
   94TCq2    C9 1440   3.643   2.261  14.017  0.4098  0.4753  0.0403
   94TCq2    O5 1441   3.529   2.295  13.967  0.0109 -0.0977  0.3036
   94TCq2    O6 1442   3.727   2.345  14.061 -0.1587 -0.1043  0.5380
   94TCq2    H2 1443   3.523   2.113  13.849  0.5973 -0.8727 -2.0893
   94TCq2    H3 1444   3.870   2.154  14.086  1.7430  0.5041 -0.6793
   94TCq2    H4 1445   3.846   1.853  13.786  0.1440  1.0352 -0.1108
   95TMC2    C1 1446   3.530   3.553  16.184 -0.7669  0.2770  0.3930
   95TMC2    C2 1447   3.478   3.457  16.268  0.7750 -0.0070  0.9718
   95TMC2    C3 1448   3.438   3.514  16.387 -0.1957 -0.7897  0.3710
   95TMC2    C4 1449   3.573   3.675  16.225  0.1366  0.0170 -0.5967
   95TMC2    C5 1450   3.529   3.719  16.346 -0.0995  0.6218 -0.5869
   95TMC2    C6 1451   3.470   3.640  16.433 -0.1148  0.2833 -0.1000
   95TMC2     C 1452   3.598   3.501  16.067 -0.1061  0.4595  0.0554
   95TMC2     O 1453   3.712   3.542  16.044 -0.0292 -0.2180  0.3667
   95TMC2     H 1454   3.455   3.353  16.248  1.7964 -0.2003  0.8327
   95TMC2    H1 1455   3.633   3.737  16.160  1.4758 -0.7486 -0.0983
   95TMC2    H2 1456   3.457   3.673  16.535  1.7006  0.6806 -0.0031
   95TMC2    C7 1457   3.518   3.865  16.358  0.0498  0.0320 -0.3599
   95TMC2    C8 1458   3.387   3.420  16.489  0.2043  0.2404  0.5941
   95TMC2    O1 1459   3.495   3.908  16.471  0.3525 -0.1713  0.4996
   95TMC2    O2 1460   3.426   3.415  16.604  0.2875  0.0528 -0.2765
   95TMC2    O5 1461   3.312   3.319  16.436  0.2407  0.2039  0.4135
   95TMC2    H5 1462   3.276   3.350  16.351 -0.5113  1.3844  1.1753
   96MPD2     C 1463   3.636   3.202  15.646  0.1206 -0.2661 -0.1340
   96MPD2    C1 1464   3.729   3.284  15.705  0.0823 -0.2451 -0.7409
   96MPD2    C2 1465   3.694   3.361  15.816  0.3744  0.1177 -0.1600
   96MPD2    C3 1466   3.564   3.349  15.869  0.1279  0.5125 -0.2318
   96MPD2    C4 1467   3.472   3.274  15.806 -0.1136  0.7676  0.3976
   96MPD2    C5 1468   3.507   3.207  15.696  0.1504 -0.5892  0.3182
   96MPD2     H 1469   3.768   3.428  15.858  2.4092 -0.0993 -3.3781
   96MPD2    H1 1470   3.370   3.264  15.842 -0.3064  0.1700 -0.3306
   96MPD2    H2 1471   3.655   3.150  15.553 -1.8789  2.6236 -2.1660
   96MPD2    H3 1472   3.431   3.149  15.644  0.2192  1.1497 -1.7090
   96MPD2     N 1473   3.526   3.413  15.991  0.6621  0.4323  0.1791
   96MPD2    H5 1474   3.430   3.406  16.025  0.9400 -1.0339  0.6389
   96MPD2    N1 1475   3.859   3.304  15.644 -0.3703  0.4418 -0.0683
   96MPD2    H7 1476   3.876   3.252  15.559 -1.4008  2.6205 -1.5998
   97MPD2     C 1477   0.738   0.721   0.804  0.0216 -0.3243  0.6048
   97MPD2    C1 1478   0.604   0.758   0.825 -0.9135  0.3785  0.4929
   97MPD2    C2 1479   0.556   0.866   0.753 -0.2188  0.7961 -0.0549
   97MPD2    C3 1480   0.631   0.930   0.655  0.3990 -0.0573  0.2378
   97MPD2    C4 1481   0.756   0.878   0.631 -0.4887 -0.0369 -0.0412
   97MPD2    C5 1482   0.808   0.773   0.705  0.9612  0.1857 -0.4640
   97MPD2     H 1483   0.455   0.888   0.786  0.1801 -0.3109  1.8784
   97MPD2    H1 1484   0.823   0.918   0.556  0.0723 -1.6382 -0.3977
   97MPD2    H2 1485   0.783   0.636   0.854  0.3275 -0.6039 -0.1598
   97MPD2    H3 1486   0.912   0.744   0.691  0.9290  0.1050 -0.5389
   97MPD2     N 1487   0.585   1.049   0.585  0.1007  1.0896  0.8563
   97MPD2    H5 1488   0.654   1.084   0.519  1.2919  0.7451  1.9224
   97MPD2    N1 1489   0.514   0.705   0.922 -0.1327 -0.2767 -0.1073
   97MPD2    H7 1490   0.427   0.754   0.938  0.4343  0.0419  2.0116
   98TCq2    C1 1491   0.458   1.101   0.598 -0.3836  0.5995 -0.8378
   98TCq2    O2 1492   0.367   1.081   0.677  0.3354 -0.7468  0.1463
   98TCq2    C2 1493   0.428   1.187   0.487 -0.5297 -0.1397  0.2353
   98TCq2    C3 1494   0.289   1.202   0.472  0.2696  0.7715  0.4283
   98TCq2    C4 1495   0.242   1.307   0.403  0.1666  0.1173 -0.0432
   98TCq2    C5 1496   0.323   1.405   0.359 -0.3883  0.9075  0.4958
   98TCq2    C6 1497   0.460   1.396   0.379  0.1456  0.0455  0.2525
   98TCq2    C7 1498   0.513   1.288   0.445 -0.1648 -0.1295  0.4686
   98TCq2    C8 1499   0.545   1.483   0.307 -0.8696 -0.2405  0.3464
   98TCq2    O4 1500   0.655   1.488   0.352  0.2887 -0.0505 -0.1641
   98TCq2    C9 1501   0.096   1.303   0.375  0.1715  0.1192 -0.1457
   98TCq2    O5 1502   0.040   1.193   0.379 -0.1774 -0.0771  0.5344
   98TCq2    O6 1503   0.050   1.398   0.301 -0.2267  0.2498  0.1765
   98TCq2    H2 1504   0.220   1.122   0.496  1.0127 -0.6139 -1.9503
   98TCq2    H3 1505   0.285   1.490   0.303 -1.0638 -0.7787 -1.6183
   98TCq2    H4 1506   0.620   1.289   0.465 -0.2104  0.8239  0.6767
   99MPD2     C 1507   3.500   1.962   1.888 -0.5989 -0.1683  0.0974
   99MPD2    C1 1508   3.483   2.098   1.897 -0.8803  0.3438  0.2287
   99MPD2    C2 1509   3.537   2.181   1.796 -0.1112 -0.0014 -0.2841
   99MPD2    C3 1510   3.608   2.121   1.694  0.0884  0.0251 -0.2280
   99MPD2    C4 1511   3.623   1.985   1.695 -0.0842  0.1331 -0.2755
   99MPD2    C5 1512   3.563   1.901   1.787  0.0132  0.1203  0.7995
   99MPD2     H 1513   3.520   2.288   1.793 -0.9694 -0.1670 -1.5918
   99MPD2    H1 1514   3.689   1.930   1.629  1.5201  0.6304  0.9203
   99MPD2    H2 1515   3.453   1.889   1.953  1.1221 -0.7772  0.6574
   99MPD2    H3 1516   3.576   1.793   1.783  1.0064  0.2741 -0.1326
   99MPD2     N 1517   3.670   2.210   1.606 -0.0359  1.0655 -0.1589
   99MPD2    H5 1518   3.650   2.309   1.621  1.4267  1.5104 -1.0907
   99MPD2    N1 1519   3.410   2.147   2.004 -0.2520 -0.5245 -0.6273
   99MPD2    H7 1520   3.382   2.245   2.000  0.3801 -0.1895  2.5605
  100TCq2    C1 1521   3.351   2.088   2.109 -0.3638  0.6859 -0.4616
  100TCq2    O2 1522   3.366   1.976   2.149  0.2912  0.7344 -0.3914
  100TCq2    C2 1523   3.255   2.166   2.179  0.1438  0.6439 -0.9156
  100TCq2    C3 1524   3.231   2.128   2.308  0.1710 -0.0856  0.5593
  100TCq2    C4 1525   3.114   2.166   2.369  0.3608 -0.0318 -0.2661
  100TCq2    C5 1526   3.026   2.251   2.314  0.0136 -0.1753  0.8756
  100TCq2    C6 1527   3.054   2.286   2.181  0.1267  0.4697 -0.2754
  100TCq2    C7 1528   3.170   2.247   2.115 -0.2607 -0.2769  0.3536
  100TCq2    C8 1529   2.937   2.340   2.109 -0.2225  1.0194 -0.2158
  100TCq2    O4 1530   2.845   2.395   2.175  0.1086  0.6703 -0.2320
  100TCq2    C9 1531   3.083   2.119   2.499 -0.0339  0.0120 -0.0699
  100TCq2    O5 1532   3.159   2.027   2.547 -0.6725  0.5757 -0.5316
  100TCq2    O6 1533   2.995   2.183   2.567  0.7774 -0.1081 -0.3527
  100TCq2    H2 1534   3.294   2.058   2.361  1.2450  0.4290 -0.0348
  100TCq2    H3 1535   2.938   2.284   2.367  0.8600 -0.1584  2.2707
  100TCq2    H4 1536   3.207   2.285   2.021  0.3239 -1.8404 -0.0388
  101MPD2     C 1537   4.657   4.286  12.591 -0.4199 -0.2965 -0.2514
  101MPD2    C1 1538   4.606   4.349  12.704 -0.4137  0.1583  0.4899
  101MPD2    C2 1539   4.571   4.263  12.812  0.7353  0.0132 -0.1044
  101MPD2    C3 1540   4.580   4.123  12.796 -0.1198 -0.1342  0.2720
  101MPD2    C4 1541   4.629   4.061  12.684  1.0096  0.6589 -0.6706
  101MPD2    C5 1542   4.662   4.144  12.582 -0.4231  0.4337 -0.2610
  101MPD2     H 1543   4.533   4.307  12.903 -0.7291 -1.0382 -0.2042
  101MPD2    H1 1544   4.642   3.955  12.668 -0.6750  0.5976 -1.5927
  101MPD2    H2 1545   4.678   4.347  12.504  0.3485 -0.4830 -0.2009
  101MPD2    H3 1546   4.705   4.100  12.493  1.1142 -1.1425  1.2855
  101MPD2     N 1547   4.532   4.042  12.901  0.7596  0.5441  0.3852
  101MPD2    H5 1548   4.518   4.098  12.985  1.3496  0.6628  0.4061
  101MPD2    N1 1549   4.604   4.487  12.704 -0.7804 -0.0319 -0.1067
  101MPD2    H7 1550   4.652   4.535  12.629 -0.3879  2.1556  1.5155
  102TCq2    C1 1551   4.707   0.195  12.527  0.5864 -0.2135 -0.2777
  102TCq2    O2 1552   4.623   0.256  12.459  0.0388  0.2931 -0.3104
  102TCq2    C2 1553   4.669   0.166  12.665  0.3537 -0.1560 -0.0292
  102TCq2    C3 1554   4.588   0.261  12.726 -0.8212  0.4656  0.1186
  102TCq2    C4 1555   4.494   0.218  12.815 -0.4217 -0.1620  0.1530
  102TCq2    C5 1556   4.483   0.081  12.832 -0.7960 -0.1042  0.0864
  102TCq2    C6 1557   4.567   4.715  12.776 -0.8060  0.0135  0.3973
  102TCq2    C7 1558   4.664   0.034  12.693  0.0673 -0.0099  0.3962
  102TCq2    C8 1559   4.542   4.571  12.801  0.3920  0.1066  0.1203
  102TCq2    O4 1560   4.454   4.532  12.879 -0.2003  0.0789  0.4241
  102TCq2    C9 1561   4.403   0.307  12.888  0.7406  0.0612  0.0899
  102TCq2    O5 1562   4.391   0.424  12.850 -0.2784 -0.5205 -0.7603
  102TCq2    O6 1563   4.327   0.263  12.981  0.5121  0.3295 -0.1441
  102TCq2    H2 1564   4.589   0.364  12.695  2.3433 -0.1771 -1.9596
  102TCq2    H3 1565   4.408   0.052  12.904 -1.8161  0.1801 -0.8614
  102TCq2    H4 1566   0.005   4.683  12.650 -0.5707 -0.8466  0.8980
  103TMC2    C1 1567   2.972   4.625  12.294 -0.3332 -0.0682  0.1605
  103TMC2    C2 1568   3.075   4.713  12.275 -0.1967 -0.0611  0.4412
  103TMC2    C3 1569   3.174   4.719  12.371 -0.2347 -1.0187 -0.0728
  103TMC2    C4 1570   2.952   4.554  12.407 -0.2196  0.1992 -0.1691
  103TMC2    C5 1571   3.044   4.577  12.512  0.3408 -0.7581  0.1458
  103TMC2    C6 1572   3.158   4.654  12.491 -0.1724  0.6184  0.8949
  103TMC2     C 1573   2.888   4.598  12.176 -0.2495 -0.0657 -0.0515
  103TMC2     O 1574   2.891   4.683  12.086 -0.0356  0.4062 -0.4557
  103TMC2     H 1575   3.100   0.037  12.182  0.9519 -0.1267  0.7117
  103TMC2    H1 1576   2.876   4.480  12.430 -0.0624  0.0427 -0.1573
  103TMC2    H2 1577   3.217   4.682  12.578  1.5841 -0.0847 -0.0615
  103TMC2    C7 1578   3.010   4.539  12.648  0.4413  0.8191 -0.2126
  103TMC2    C8 1579   3.274   0.102  12.363 -0.1156  0.5708  0.5579
  103TMC2    O1 1580   3.109   4.539  12.722 -0.1741 -0.0481 -0.1540
  103TMC2    O2 1581   3.374   0.116  12.434 -0.1917  0.0711  0.5954
  103TMC2    O5 1582   3.184   0.198  12.339  0.5197  0.1500 -0.5450
  103TMC2    H5 1583   3.098   0.174  12.297  1.8066 -3.8294 -0.9193
  104MPD2     C 1584   2.779   4.277  12.052  0.3087  1.2734  0.6242
  104MPD2    C1 1585   2.787   4.415  12.058  0.1682 -0.5409 -0.0905
  104MPD2    C2 1586   2.734   4.485  11.953  0.0459 -0.5872 -0.5389
  104MPD2    C3 1587   2.673   4.422  11.842 -0.5131 -0.5086 -0.8944
  104MPD2    C4 1588   2.672   4.281  11.841 -0.4686  0.1377  0.5570
  104MPD2    C5 1589   2.726   4.213  11.948  0.2756  1.2984 -0.1585
  104MPD2     H 1590   2.738   4.593  11.947 -3.5304 -0.3148  2.0449
  104MPD2    H1 1591   2.641   4.228  11.752 -0.5655  0.2824  0.5043
  104MPD2    H2 1592   2.833   4.224  12.130 -0.7453 -0.0901  0.4200
  104MPD2    H3 1593   2.743   4.107  11.930  1.1829  1.4310 -0.0828
  104MPD2     N 1594   2.617   4.507  11.748 -0.5290 -0.1332  0.2046
  104MPD2    H5 1595   2.645   4.605  11.756 -0.8363  0.0117 -0.4667
  104MPD2    N1 1596   2.857   4.469  12.165  0.0753  0.6425 -1.2555
  104MPD2    H7 1597   2.900   4.396  12.220 -2.5262  2.2337  2.9742
  105MPD2     C 1598   4.104   2.945   0.086  0.2193 -0.1310 -0.0122
  105MPD2    C1 1599   4.151   3.075   0.070 -0.4728  0.7056  0.0705
  105MPD2    C2 1600   4.071   3.182   0.103 -0.4029 -0.2946  0.0384
  105MPD2    C3 1601   3.945   3.165   0.158 -0.3142 -0.0430 -0.0502
  105MPD2    C4 1602   3.906   3.035   0.177 -0.3711  0.0750  0.1092
  105MPD2    C5 1603   3.987   2.925   0.149 -0.4872  0.3720 -0.0868
  105MPD2     H 1604   4.104   3.283   0.085  2.0410 -1.2530 -0.8927
  105MPD2    H1 1605   3.807   3.012   0.214 -0.9352  1.6439 -0.4179
  105MPD2    H2 1606   4.166   2.856   0.081 -0.3340 -0.5270  0.1434
  105MPD2    H3 1607   3.945   2.827   0.170  3.8514 -1.4853 -0.1713
  105MPD2     N 1608   3.876   3.285   0.179 -0.1565 -0.4246  0.4069
  105MPD2    H5 1609   3.916   3.368   0.137 -1.3723 -0.9631 -1.8117
  105MPD2    N1 1610   4.285   3.096   0.017  0.0200 -0.1560 -0.4915
  105MPD2    H7 1611   4.313   3.191  17.691 -0.5666 -0.0809 -0.8790
  106TCq2    C1 1612   3.762   3.301   0.258 -0.2963 -0.6810  0.1632
  106TCq2    O2 1613   3.703   3.221   0.322 -0.0900 -0.7797  0.2144
  106TCq2    C2 1614   3.717   3.446   0.271  0.0827  0.5738 -0.1416
  106TCq2    C3 1615   3.800   3.557   0.241  0.1567 -0.7907  0.2426
  106TCq2    C4 1616   3.735   3.675   0.230  0.1446  0.2807  0.0408
  106TCq2    C5 1617   3.601   3.683   0.248  0.7582 -0.1233  0.6348
  106TCq2    C6 1618   3.530   3.574   0.286 -0.4407  0.0728 -1.1065
  106TCq2    C7 1619   3.584   3.452   0.303 -0.3064  0.2282  0.2961
  106TCq2    C8 1620   3.399   3.595   0.349  0.0833  0.2893  0.1520
  106TCq2    O4 1621   3.368   3.520   0.440 -0.7700  0.0065  0.1152
  106TCq2    C9 1622   3.817   3.792   0.208  0.3160  0.7016 -0.5550
  106TCq2    O5 1623   3.759   3.887   0.154  0.0623 -1.1589 -0.6123
  106TCq2    O6 1624   3.938   3.767   0.204  0.1622 -0.1455  0.5530
  106TCq2    H2 1625   3.906   3.545   0.227 -0.1665 -1.5132 -1.5648
  106TCq2    H3 1626   3.553   3.780   0.239 -2.6258 -1.4743  4.6797
  106TCq2    H4 1627   3.517   3.373   0.335 -1.9140  1.7052  0.5625
  107TMC2    C1 1628   0.884   2.944  11.716  0.6781 -0.2532 -0.3350
  107TMC2    C2 1629   0.995   2.864  11.749  0.2044  0.0759  0.4741
  107TMC2    C3 1630   1.098   2.853  11.662 -0.1482  0.1073  0.0136
  107TMC2    C4 1631   0.898   3.027  11.610 -0.7244 -0.5598  0.4901
  107TMC2    C5 1632   1.005   3.028  11.526 -0.6943 -0.7702 -0.1145
  107TMC2    C6 1633   1.109   2.939  11.554  0.3622  0.2997 -0.4173
  107TMC2     C 1634   0.756   2.900  11.766  0.4582  0.9290  0.4755
  107TMC2     O 1635   0.755   2.851  11.881 -0.1195 -0.1108  0.1036
  107TMC2     H 1636   0.982   2.796  11.832 -0.1926  0.7778  0.9915
  107TMC2    H1 1637   0.810   3.081  11.578 -0.8685 -2.0728 -1.6749
  107TMC2    H2 1638   1.202   2.942  11.499 -1.6067  1.3809 -3.6515
  107TMC2    C7 1639   1.009   3.104  11.396 -0.5703 -0.6163 -0.1474
  107TMC2    C8 1640   1.205   2.765  11.689  0.3156 -0.3106 -0.1323
  107TMC2    O1 1641   0.939   3.202  11.391 -0.2799  0.4190  0.0516
  107TMC2    O2 1642   1.197   2.701  11.796  0.2159  0.3085 -0.3527
  107TMC2    O5 1643   1.260   2.721  11.580  0.0548  0.0223  0.1460
  107TMC2    H5 1644   1.259   2.769  11.494 -1.0215  0.6930  0.5401
  108MPD2     C 1645   0.460   2.815  11.580 -0.1610 -0.4302  0.2108
  108MPD2    C1 1646   0.535   2.835  11.690  0.3366 -0.8228  0.1136
  108MPD2    C2 1647   0.479   2.790  11.816  0.0488  0.1504 -0.8641
  108MPD2    C3 1648   0.368   2.712  11.819 -0.2092  0.3569  1.0223
  108MPD2    C4 1649   0.294   2.687  11.700 -0.0777 -0.5722 -0.4782
  108MPD2    C5 1650   0.341   2.743  11.590 -0.3694 -0.5496 -0.0608
  108MPD2     H 1651   0.546   2.809  11.899  0.2542  1.2552 -1.2754
  108MPD2    H1 1652   0.210   2.620  11.693  1.3803 -2.6162  1.3649
  108MPD2    H2 1653   0.494   2.846  11.481  1.0110  0.6803  0.9691
  108MPD2    H3 1654   0.282   2.738  11.499  1.8946  0.5577 -1.6057
  108MPD2     N 1655   0.316   2.658  11.939 -0.2688  0.0402  0.3878
  108MPD2    H5 1656   0.230   2.606  11.922 -1.8335  2.2485  1.6122
  108MPD2    N1 1657   0.661   2.898  11.669  0.3404  0.2017  0.5051
  108MPD2    H7 1658   0.680   2.937  11.577  1.0451  1.6197  1.2590
  109MPD2     C 1659   3.844   0.193   1.563 -0.2365 -1.1341 -0.5911
  109MPD2    C1 1660   3.933   0.212   1.457 -0.1678 -0.3224 -0.4461
  109MPD2    C2 1661   4.052   0.144   1.458  0.1749 -0.0412  0.3644
  109MPD2    C3 1662   4.080   0.050   1.559 -0.5032  0.4257 -0.2856
  109MPD2    C4 1663   3.991   0.037   1.663  0.1694 -0.5577  0.2278
  109MPD2    C5 1664   3.878   0.115   1.668  0.0166  0.1299 -0.5449
  109MPD2     H 1665   4.111   0.150   1.367 -0.5288  0.1540 -0.0803
  109MPD2    H1 1666   4.007   4.692   1.745  0.0270 -0.4339  0.3589
  109MPD2    H2 1667   3.748   0.243   1.573 -1.0399 -2.7927 -0.0154
  109MPD2    H3 1668   3.810   0.109   1.753  0.2765 -2.2384 -0.5246
  109MPD2     N 1669   4.204   4.696   1.547  1.2022  0.2499 -0.4763
  109MPD2    H5 1670   4.265   4.721   1.470  2.2706  2.6384  1.1390
  109MPD2    N1 1671   3.888   0.285   1.351 -0.5204  0.1317 -0.2595
  109MPD2    H7 1672   3.799   0.333   1.364 -0.0886 -0.0485  3.5243
  110TCq2    C1 1673   4.243   4.593   1.632  0.2147 -0.0387 -0.2539
  110TCq2    O2 1674   4.171   4.540   1.715 -0.0613 -0.2920 -0.7946
  110TCq2    C2 1675   4.372   4.527   1.591  0.3496  0.5966 -0.4446
  110TCq2    C3 1676   4.419   4.429   1.672  0.0881  0.8353  0.5941
  110TCq2    C4 1677   4.538   4.367   1.643 -0.3053 -0.3711  0.1400
  110TCq2    C5 1678   4.615   4.411   1.537  0.0045 -0.0888 -0.1688
  110TCq2    C6 1679   4.560   4.505   1.449  1.3177 -0.2809  0.6657
  110TCq2    C7 1680   4.439   4.557   1.468 -0.3191  0.1956 -0.4764
  110TCq2    C8 1681   4.646   4.581   1.357  0.1026 -0.4005  0.6918
  110TCq2    O4 1682   4.605   4.688   1.317 -0.3671  0.5148  0.2139
  110TCq2    C9 1683   4.577   4.261   1.730 -0.4587 -0.9245 -0.4889
  110TCq2    O5 1684   4.497   4.216   1.817  0.4498 -0.5162  0.4437
  110TCq2    O6 1685   4.694   4.209   1.714  0.1956 -0.2695  0.0232
  110TCq2    H2 1686   4.366   4.413   1.766  0.8381 -1.0853  0.6977
  110TCq2    H3 1687   4.714   4.369   1.526 -0.2001 -0.8873  1.0742
  110TCq2    H4 1688   4.392   4.619   1.392 -2.4475  1.2395  1.6839
  111TMC2    C1 1689   0.758   0.083  11.103  0.1449  0.2522  0.2103
  111TMC2    C2 1690   0.850   0.071  11.005  0.4019 -0.2937 -0.4585
  111TMC2    C3 1691   0.968   0.020  11.038  0.6983  1.1031  0.1878
  111TMC2    C4 1692   0.780   0.058  11.236  0.1578 -0.2680 -0.0509
  111TMC2    C5 1693   0.906   0.024  11.261  0.2608 -0.0639 -0.7412
  111TMC2    C6 1694   0.998   4.714  11.167 -0.3019 -0.6154 -0.0831
  111TMC2     C 1695   0.636   0.153  11.059 -0.0773  0.5610 -0.5295
  111TMC2     O 1696   0.617   0.147  10.940  0.0528  0.3833  0.0486
  111TMC2     H 1697   0.826   0.090  10.901  3.2805 -1.6322 -1.3663
  111TMC2    H1 1698   0.695   0.041  11.301  0.0344  1.0156  0.1269
  111TMC2    H2 1699   1.096   4.673  11.190  1.4204  3.4003 -0.3183
  111TMC2    C7 1700   0.939   4.720  11.395  0.6246 -0.3817  0.6075
  111TMC2    C8 1701   1.061   4.710  10.933 -0.0479  0.5882 -0.1725
  111TMC2    O1 1702   0.854   4.662  11.458 -0.3989  0.1746  0.0045
  111TMC2    O2 1703   1.061   0.052  10.830  0.1505  0.2171  0.1204
  111TMC2    O5 1704   1.155   4.625  10.976 -0.1768  0.0244 -0.0257
  111TMC2    H5 1705   1.113   4.559  11.035 -2.4015  1.3757 -0.0865
  112MPD2     C 1706   0.201   0.416  11.111 -0.7073 -0.4320  0.5616
  112MPD2    C1 1707   0.271   0.382  10.999 -0.9501  0.1822  0.2397
  112MPD2    C2 1708   0.390   0.313  11.013 -0.2518  0.9103 -0.1040
  112MPD2    C3 1709   0.431   0.271  11.138  1.3848  0.0858  0.0508
  112MPD2    C4 1710   0.363   0.304  11.250  0.3654  0.8510 -0.9155
  112MPD2    C5 1711   0.249   0.376  11.232 -0.1765 -0.2165 -0.3913
  112MPD2     H 1712   0.444   0.288  10.923 -0.3827  1.4366 -0.3301
  112MPD2    H1 1713   0.401   0.289  11.351  1.7844  0.7798 -1.4649
  112MPD2    H2 1714   0.115   0.482  11.109 -0.1202  0.4319  2.7627
  112MPD2    H3 1715   0.182   0.404  11.312  0.8734  0.8632  0.1071
  112MPD2     N 1716   0.551   0.203  11.159  0.3470  0.2270  0.5898
  112MPD2    H5 1717   0.575   0.201  11.258 -0.4420  0.5668  0.7886
  112MPD2    N1 1718   0.227   0.419  10.873  0.5701 -0.2634 -0.2700
  112MPD2    H7 1719   0.277   0.385  10.792  2.2806  1.4489  0.0843
  113MPD2     C 1720   2.671   3.061   0.267  0.5539  0.0567 -0.9281
  113MPD2    C1 1721   2.750   3.128   0.356 -0.1116  0.1694  0.2445
  113MPD2    C2 1722   2.867   3.060   0.397  0.0449 -0.2649  0.3531
  113MPD2    C3 1723   2.896   2.932   0.355 -0.2589  0.0939 -0.3909
  113MPD2    C4 1724   2.811   2.868   0.263 -0.1143  0.2550 -0.2001
  113MPD2    C5 1725   2.700   2.938   0.217 -0.5189  0.1324 -0.3337
  113MPD2     H 1726   2.932   3.112   0.466 -0.6090  1.2700 -0.1828
  113MPD2    H1 1727   2.838   2.767   0.232 -1.6510 -0.0662 -0.4972
  113MPD2    H2 1728   2.590   3.113   0.217  0.1439  0.1666 -0.1516
  113MPD2    H3 1729   2.637   2.896   0.139 -0.9621 -1.0403  0.6667
  113MPD2     N 1730   3.000   2.849   0.400  0.0047 -0.0548 -0.0254
  113MPD2    H5 1731   2.994   2.749   0.386  1.2648 -0.0647 -0.5213
  113MPD2    N1 1732   2.715   3.251   0.425 -0.1028 -0.2719  0.1758
  113MPD2    H7 1733   2.779   3.305   0.482  1.0768 -0.5971 -0.8282
  114TCq2    C1 1734   3.094   2.889   0.493 -0.3210  0.2221 -0.7160
  114TCq2    O2 1735   3.120   3.003   0.528  0.0310  0.3661  0.1794
  114TCq2    C2 1736   3.146   2.780   0.566 -0.2981  0.4399  0.7997
  114TCq2    C3 1737   3.281   2.788   0.606  0.2677  0.2732 -0.5338
  114TCq2    C4 1738   3.341   2.681   0.660 -0.9660 -0.1466 -0.0078
  114TCq2    C5 1739   3.264   2.569   0.685  0.0849  0.1011 -0.4272
  114TCq2    C6 1740   3.135   2.561   0.649  0.1668  0.6249  0.7723
  114TCq2    C7 1741   3.071   2.666   0.589  0.1943 -0.3116  0.2612
  114TCq2    C8 1742   3.072   2.432   0.662 -1.1474 -0.3420  0.8613
  114TCq2    O4 1743   3.155   2.344   0.645  0.4884  0.0757  0.1482
  114TCq2    C9 1744   3.476   2.686   0.706  0.5634 -0.1331 -0.1546
  114TCq2    O5 1745   3.532   2.578   0.735 -0.3016 -0.4397  0.3977
  114TCq2    O6 1746   3.532   2.800   0.698  0.3370 -0.0101  0.1394
  114TCq2    H2 1747   3.344   2.875   0.592 -0.3501  0.8312  0.1417
  114TCq2    H3 1748   3.304   2.480   0.732  0.0223  0.1083 -0.3583
  114TCq2    H4 1749   2.964   2.662   0.576  0.4079  2.5954 -2.1938
  115TMC2    C1 1750   3.620   1.143  17.472 -0.4736 -0.6336 -0.0145
  115TMC2    C2 1751   3.518   1.232  17.507 -0.0115 -0.6542 -0.3636
  115TMC2    C3 1752   3.552   1.364  17.526 -0.6158 -0.4591 -0.5262
  115TMC2    C4 1753   3.751   1.177  17.463 -0.0910 -0.3620  0.4800
  115TMC2    C5 1754   3.776   1.314  17.481  0.8250 -0.3243 -0.2923
  115TMC2    C6 1755   3.682   1.411  17.501 -0.8821 -0.1506  0.1973
  115TMC2     C 1756   3.596   1.009  17.431  0.3335 -0.2544  0.0573
  115TMC2     O 1757   3.651   0.954  17.334 -0.2791 -0.2391 -0.7461
  115TMC2     H 1758   3.413   1.205  17.507  0.3541 -2.0609 -0.8434
  115TMC2    H1 1759   3.823   1.096  17.462  1.9959  1.4924 -0.0158
  115TMC2    H2 1760   3.712   1.515  17.497 -1.2240 -0.0670 -0.2395
  115TMC2    C7 1761   3.913   1.361  17.459  0.3580 -0.3646 -0.4437
  115TMC2    C8 1762   3.450   1.465  17.554 -0.5963  0.2324 -0.2271
  115TMC2    O1 1763   4.005   1.290  17.507  0.0132  0.0676  0.0733
  115TMC2    O2 1764   3.376   1.501  17.460 -0.4708 -0.4833  0.0789
  115TMC2    O5 1765   3.511   1.549  17.640 -0.1806  0.2100  0.1982
  115TMC2    H5 1766   3.583   1.500  17.684 -1.0337  1.8357  3.3865
  116MPD2     C 1767   3.229   0.659  17.405 -0.5651 -0.0383 -0.7239
  116MPD2    C1 1768   3.318   0.695  17.304 -0.4753  0.3032 -0.6432
  116MPD2    C2 1769   3.406   0.803  17.327 -0.4297  0.1487 -0.1938
  116MPD2    C3 1770   3.395   0.872  17.446 -0.0416  0.0271  0.1135
  116MPD2    C4 1771   3.291   0.842  17.536 -0.4647 -0.2410  0.0676
  116MPD2    C5 1772   3.221   0.723  17.524  0.4822 -0.3868  0.5474
  116MPD2     H 1773   3.479   0.845  17.259  0.6308 -2.5804 -0.7796
  116MPD2    H1 1774   3.284   0.893  17.631 -0.3949  1.5401 -0.8978
  116MPD2    H2 1775   3.176   0.565  17.393 -0.4888 -0.2690  0.7351
  116MPD2    H3 1776   3.156   0.692  17.604 -0.0364 -0.5278  0.0766
  116MPD2     N 1777   3.482   0.975  17.489 -0.2548  0.1032 -0.1394
  116MPD2    H5 1778   3.468   1.020  17.579  0.8526 -1.7694  0.9858
  116MPD2    N1 1779   3.329   0.603  17.190 -0.3328 -0.0664 -0.4189
  116MPD2    H7 1780   3.256   0.533  17.189 -0.9197  0.5319  0.2145
  117TMC2    C1 1781   2.934   2.151  13.809 -0.5798  0.0423  0.2263
  117TMC2    C2 1782   2.986   2.062  13.898  0.3007 -0.3116  0.1537
  117TMC2    C3 1783   3.125   2.076  13.911  0.3947 -0.3570 -0.2866
  117TMC2    C4 1784   3.002   2.251  13.739 -0.1025 -1.0057  0.7215
  117TMC2    C5 1785   3.136   2.252  13.754  0.0849 -0.4281  0.0069
  117TMC2    C6 1786   3.197   2.159  13.835 -0.7327  0.4835 -0.3818
  117TMC2     C 1787   2.793   2.140  13.801  0.8311  0.0605 -0.2253
  117TMC2     O 1788   2.744   2.033  13.828 -0.2894 -0.8136 -0.1735
  117TMC2     H 1789   2.920   1.996  13.954 -0.0297  0.7978  1.0719
  117TMC2    H1 1790   2.956   2.306  13.658 -0.6564 -0.3467  1.4821
  117TMC2    H2 1791   3.305   2.153  13.843 -0.7469 -0.6975 -1.1519
  117TMC2    C7 1792   3.212   2.339  13.670 -0.1774 -0.2846  0.1102
  117TMC2    C8 1793   3.213   1.968  13.960  0.1773 -0.7259  0.3725
  117TMC2    O1 1794   3.330   2.306  13.653  0.5447  0.2865 -0.3276
  117TMC2    O2 1795   3.338   1.976  13.969  0.1943 -0.3266  0.2242
  117TMC2    O5 1796   3.143   1.853  13.964 -0.2500 -0.2474  0.3089
  117TMC2    H5 1797   3.078   1.855  13.890 -0.2873 -2.1856  0.3054
  118MPD2     C 1798   3.114   2.625  13.469  0.2072  0.1539  0.0968
  118MPD2    C1 1799   3.200   2.536  13.520 -0.3037  0.3502  0.7883
  118MPD2    C2 1800   3.336   2.541  13.481  0.0249  0.8045 -0.5284
  118MPD2    C3 1801   3.378   2.624  13.377 -0.0963  0.9302 -1.0168
  118MPD2    C4 1802   3.281   2.697  13.313 -0.1577 -0.1046 -0.7890
  118MPD2    C5 1803   3.149   2.702  13.359  0.0921  0.2573  0.5308
  118MPD2     H 1804   3.408   2.465  13.508  0.6932  1.8490  0.6380
  118MPD2    H1 1805   3.313   2.758  13.229  0.8156  0.6352  0.1263
  118MPD2    H2 1806   3.008   2.620  13.492 -0.0694  0.0340 -1.2145
  118MPD2    H3 1807   3.077   2.772  13.317  1.2347  1.3365  0.3850
  118MPD2     N 1808   3.511   2.620  13.328 -0.4518  0.0687  0.8610
  118MPD2    H5 1809   3.520   2.653  13.232 -2.1308 -0.7311  0.4252
  118MPD2    N1 1810   3.143   2.440  13.607  0.4702 -0.4765  0.2467
  118MPD2    H7 1811   3.049   2.454  13.642 -1.1370  0.5294 -4.4159
  119MPD2     C 1812   1.343   3.886  13.374  0.0176  0.5529  0.0954
  119MPD2    C1 1813   1.210   3.884  13.400  0.5619  0.7212  0.2398
  119MPD2    C2 1814   1.133   3.829  13.305 -0.7156 -0.4987 -0.5429
  119MPD2    C3 1815   1.186   3.755  13.200 -0.6286  0.6089 -0.0114
  119MPD2    C4 1816   1.319   3.749  13.178 -0.4398  0.1001  0.3679
  119MPD2    C5 1817   1.400   3.823  13.267 -0.4117 -0.1584 -0.7921
  119MPD2     H 1818   1.025   3.825  13.313 -0.4704  0.5994  3.2037
  119MPD2    H1 1819   1.372   3.692  13.102 -1.2855 -0.1726 -0.0217
  119MPD2    H2 1820   1.405   3.932  13.449 -0.0543  4.5732 -2.3062
  119MPD2    H3 1821   1.507   3.821  13.257 -0.2282  0.5507  1.0373
  119MPD2     N 1822   1.107   3.687  13.103  0.4425 -0.1395  0.2743
  119MPD2    H5 1823   1.157   3.646  13.024  0.1403  2.5822 -1.3352
  119MPD2    N1 1824   1.166   3.949  13.520  0.0039  0.0353 -0.3351
  119MPD2    H7 1825   1.235   4.004  13.568  0.2526 -0.3029 -0.3026
  120TCq2    C1 1826   0.973   3.668  13.115  0.1385 -0.4243 -0.1396
  120TCq2    O2 1827   0.893   3.734  13.180  0.2650 -0.6292  0.3063
  120TCq2    C2 1828   0.919   3.552  13.046 -0.2606 -0.9172 -0.5684
  120TCq2    C3 1829   0.999   3.483  12.970  0.1084 -1.1001  0.2393
  120TCq2    C4 1830   0.964   3.359  12.937 -0.1620  0.1060  0.5248
  120TCq2    C5 1831   0.838   3.305  12.974 -0.4049  0.2844  0.0289
  120TCq2    C6 1832   0.768   3.370  13.068 -0.2296 -0.5673  0.0860
  120TCq2    C7 1833   0.807   3.495  13.101  0.2423 -0.8764 -0.0119
  120TCq2    C8 1834   0.646   3.313  13.117 -0.3007  0.3797  0.6460
  120TCq2    O4 1835   0.583   3.231  13.054  0.5402 -0.3524 -0.1884
  120TCq2    C9 1836   1.032   3.296  12.824 -0.1044 -0.6552  0.2805
  120TCq2    O5 1837   0.997   3.177  12.801 -0.3444  0.0925 -0.1255
  120TCq2    O6 1838   1.132   3.348  12.776  0.1318  0.4110  0.3415
  120TCq2    H2 1839   1.096   3.515  12.933 -0.1909  0.3610  0.7132
  120TCq2    H3 1840   0.791   3.223  12.921  0.2788 -0.5084  0.6437
  120TCq2    H4 1841   0.740   3.556  13.162 -1.4188 -2.5229 -0.1842
  121TMC2    C1 1842   2.687   0.534  14.127  0.3211 -0.2425  0.1936
  121TMC2    C2 1843   2.651   0.539  14.260  0.0364 -0.2362  0.2844
  121TMC2    C3 1844   2.573   0.436  14.307  0.2383 -0.0010  0.1841
  121TMC2    C4 1845   2.638   0.437  14.045 -0.4982 -0.1227  0.2764
  121TMC2    C5 1846   2.551   0.339  14.093 -0.6696  0.8048  0.5004
  121TMC2    C6 1847   2.522   0.337  14.224  0.4470  0.4369 -0.3088
  121TMC2     C 1848   2.793   0.626  14.084  0.1276  0.1537 -0.0883
  121TMC2     O 1849   2.829   0.702  14.176  0.5295  0.3810  0.0600
  121TMC2     H 1850   2.699   0.606  14.331  0.6290  0.7017 -1.0000
  121TMC2    H1 1851   2.667   0.437  13.940 -0.8820  0.1024  0.1691
  121TMC2    H2 1852   2.453   0.261  14.259 -0.6354  0.9986 -1.2223
  121TMC2    C7 1853   2.485   0.258  13.984  0.2165 -0.2573 -0.1773
  121TMC2    C8 1854   2.561   0.432  14.450 -0.8093  0.0196 -0.2614
  121TMC2    O1 1855   2.554   0.214  13.894 -0.9259 -0.3696  0.1580
  121TMC2    O2 1856   2.577   0.527  14.523 -0.2509  0.2001 -0.2960
  121TMC2    O5 1857   2.470   0.340  14.475  0.0736  0.0125  0.2831
  121TMC2    H5 1858   2.485   0.251  14.436 -1.2602 -0.4452  0.8023
  122MPD2     C 1859   2.995   0.799  13.956 -0.2163  0.5470  0.1490
  122MPD2    C1 1860   2.905   0.718  13.881 -0.3404  1.0054 -0.2437
  122MPD2    C2 1861   2.917   0.709  13.742  0.6365  0.1439 -0.1815
  122MPD2    C3 1862   3.021   0.780  13.676  0.9327 -0.3930  0.8319
  122MPD2    C4 1863   3.108   0.856  13.756  0.2187  0.7714 -0.2286
  122MPD2    C5 1864   3.094   0.863  13.892  0.1763 -0.5284 -0.1057
  122MPD2     H 1865   2.844   0.651  13.687 -0.8433  1.8081  0.0087
  122MPD2    H1 1866   3.205   0.892  13.724  1.6796 -2.0324  1.0725
  122MPD2    H2 1867   2.978   0.827  14.059 -3.3261 -1.9492  0.3032
  122MPD2    H3 1868   3.160   0.927  13.951  0.6247  0.2220 -1.4157
  122MPD2     N 1869   3.041   0.782  13.536  0.6053  0.3086 -0.1384
  122MPD2    H5 1870   3.118   0.845  13.515  0.9262 -0.4529 -1.2255
  122MPD2    N1 1871   2.804   0.643  13.948  0.4220  0.0503 -0.0712
  122MPD2    H7 1872   2.747   0.576  13.897  0.8730  1.3311 -2.2357
  123MPD2     C 1873   0.920   3.174  10.546  0.4884 -0.2424  0.0589
  123MPD2    C1 1874   0.883   3.132  10.422  1.0106 -0.5055  0.1096
  123MPD2    C2 1875   0.922   3.212  10.310 -0.5539  0.3806  0.3618
  123MPD2    C3 1876   1.002   3.318  10.330  0.2221  0.6886  0.3951
  123MPD2    C4 1877   1.047   3.358  10.454  0.6691  0.0781  0.1357
  123MPD2    C5 1878   1.002   3.286  10.561 -0.6932 -0.5587  0.6095
  123MPD2     H 1879   0.893   3.179  10.211  4.3338  2.8882 -1.9098
  123MPD2    H1 1880   1.097   3.451  10.480  2.5326 -1.0187  0.4902
  123MPD2    H2 1881   0.891   3.117  10.633 -0.1782 -1.0807 -0.7146
  123MPD2    H3 1882   1.024   3.318  10.662 -1.6924  0.2822  0.5625
  123MPD2     N 1883   1.052   3.381  10.212 -0.1743 -0.6931  0.3937
  123MPD2    H5 1884   1.000   3.356  10.128 -0.8415  1.0403  0.2926
  123MPD2    N1 1885   0.804   3.020  10.404 -0.4809 -0.3910  0.0773
  123MPD2    H7 1886   0.794   2.952  10.479  2.9642  0.6738  1.5463
  124TCq2    C1 1887   1.150   3.469  10.201 -0.1440  0.2052 -0.0290
  124TCq2    O2 1888   1.203   3.535  10.291 -0.0891  0.1127 -0.0969
  124TCq2    C2 1889   1.185   3.502  10.061 -0.2248 -0.2614 -0.2144
  124TCq2    C3 1890   1.269   3.606  10.034 -0.3391 -0.1249  0.0445
  124TCq2    C4 1891   1.342   3.608   9.920  0.2540  0.1829 -0.0690
  124TCq2    C5 1892   1.330   3.513   9.829  0.0401 -0.0031  0.4059
  124TCq2    C6 1893   1.230   3.410   9.854 -0.0290 -0.4012  0.3961
  124TCq2    C7 1894   1.157   3.409   9.969  0.2718  0.5521  0.3654
  124TCq2    C8 1895   1.213   3.286   9.772  0.7176 -0.3950 -0.1868
  124TCq2    O4 1896   1.144   3.202   9.822 -0.3163 -0.2082 -0.2209
  124TCq2    C9 1897   1.432   3.722   9.881  0.5692 -0.2814  0.4349
  124TCq2    O5 1898   1.510   3.705   9.784 -0.2539  0.2487  0.6073
  124TCq2    O6 1899   1.413   3.827   9.949 -0.1545 -0.3072  0.3619
  124TCq2    H2 1900   1.292   3.686  10.103 -2.4270  2.6027 -2.4323
  124TCq2    H3 1901   1.388   3.517   9.738  0.3971  0.7042  0.6646
  124TCq2    H4 1902   1.082   3.334   9.993  0.2588  0.0844 -1.1336
  125TMC2    C1 1903   1.963   4.591   8.978 -0.2087 -0.6866  0.1363
  125TMC2    C2 1904   1.907   4.490   8.906 -0.7337 -0.1044  0.0226
  125TMC2    C3 1905   1.992   4.392   8.868 -0.1514  0.1718  0.4249
  125TMC2    C4 1906   2.094   4.594   9.017  0.8137 -0.3676 -0.0166
  125TMC2    C5 1907   2.180   4.492   8.981  0.2872 -0.8270 -0.4413
  125TMC2    C6 1908   2.127   4.395   8.902  0.0689  0.4104 -0.0788
  125TMC2     C 1909   1.895   4.713   9.012 -0.0854 -0.0915 -0.1963
  125TMC2     O 1910   1.942   0.049   9.109 -0.3309 -0.8133 -0.5414
  125TMC2     H 1911   1.799   4.487   8.890 -0.5064 -1.6252 -1.2619
  125TMC2    H1 1912   2.133   4.660   9.093  1.9633 -0.9104 -0.1270
  125TMC2    H2 1913   2.191   4.314   8.867 -1.1515 -1.1565  1.2974
  125TMC2    C7 1914   2.327   4.484   9.014 -0.5607 -0.4429 -0.2970
  125TMC2    C8 1915   1.948   4.289   8.784 -0.3391  0.1968  0.6512
  125TMC2    O1 1916   2.374   4.372   9.026  0.2341 -0.3992  0.8798
  125TMC2    O2 1917   2.012   4.188   8.767  0.2600  0.6734  0.1078
  125TMC2    O5 1918   1.865   4.341   8.694  0.0843  0.5398  0.1500
  125TMC2    H5 1919   1.824   4.430   8.706 -1.3587 -0.3238  1.4633
  126MPD1     C 1920   1.554   0.362   8.957  0.3338  0.0842 -0.4273
  126MPD1    C1 1921   1.554   0.291   8.832 -0.1317  0.5512  0.5305
  126MPD1    C2 1922   1.628   0.172   8.826  0.2424  1.0203 -0.0210
  126MPD1    C3 1923   1.712   0.136   8.930 -0.1581 -0.1751  0.5666
  126MPD1    C4 1924   1.703   0.214   9.045  0.4193  0.5451  0.9361
  126MPD1    C5 1925   1.629   0.325   9.061  0.1170  0.1256  0.5691
  126MPD1     H 1926   1.617   0.111   8.737  0.3699 -0.5445  1.0349
  126MPD1    H1 1927   1.755   0.190   9.137  0.7291 -1.3874  0.2648
  126MPD1    H2 1928   1.487   0.447   8.964  0.4770  0.0041  1.9672
  126MPD1    H3 1929   1.639   0.395   9.143  2.1139 -0.4436  0.7976
  126MPD1     N 1930   1.795   0.021   8.918  0.0846  0.1061  0.2921
  126MPD1    H5 1931   1.789   4.680   8.840  1.1470 -1.5223  1.5672
  126MPD1    N1 1932   1.473   0.317   8.716  0.1771  0.2114  0.1916
  126MPD1    H6 1933   1.453   0.417   8.713  1.6823  0.5096  0.0804
  126MPD1    H7 1934   1.525   0.289   8.633 -0.4108  0.4976 -0.2691
  127MPD2     C 1935   3.362   4.111   9.361 -0.1887 -0.0163  0.2592
  127MPD2    C1 1936   3.463   4.089   9.457  0.4410 -0.4454  0.1245
  127MPD2    C2 1937   3.514   4.205   9.516  0.0601 -0.6774  0.9163
  127MPD2    C3 1938   3.479   4.331   9.479 -0.3875  0.7306 -1.4857
  127MPD2    C4 1939   3.379   4.338   9.386 -0.3664  0.1682 -0.3161
  127MPD2    C5 1940   3.318   4.238   9.330  0.2711  0.4690 -0.3596
  127MPD2     H 1941   3.591   4.201   9.592 -1.6087 -0.5889  2.6282
  127MPD2    H1 1942   3.336   4.434   9.357 -1.8107  0.0992  1.5881
  127MPD2    H2 1943   3.313   4.029   9.310  1.2896 -0.4741 -0.4392
  127MPD2    H3 1944   3.236   4.260   9.262  0.2248  0.7974 -0.1962
  127MPD2     N 1945   3.527   4.443   9.554 -0.6704 -0.6157  0.1332
  127MPD2    H5 1946   3.595   4.417   9.625  1.8881  2.8166 -1.1113
  127MPD2    N1 1947   3.494   3.955   9.481 -0.0953  0.2953  0.0037
  127MPD2    H7 1948   3.462   3.887   9.413  0.4375 -0.8571  0.9112
  128TCq2    C1 1949   3.560   3.913   9.596 -0.6085  0.7808 -0.1391
  128TCq2    O2 1950   3.628   3.983   9.668  1.3854  0.1705 -1.0683
  128TCq2    C2 1951   3.591   3.771   9.591  0.1547  0.3621  0.5933
  128TCq2    C3 1952   3.688   3.718   9.676 -0.3978 -0.1937 -0.5742
  128TCq2    C4 1953   3.721   3.588   9.668  0.5026 -0.2059  0.4826
  128TCq2    C5 1954   3.646   3.500   9.593 -0.0324  0.1745  0.4382
  128TCq2    C6 1955   3.532   3.555   9.536 -0.2432 -0.5566  0.2322
  128TCq2    C7 1956   3.510   3.690   9.522  0.3844  0.2335 -0.7385
  128TCq2    C8 1957   3.444   3.472   9.461  0.7326 -0.2409  0.5351
  128TCq2    O4 1958   3.410   3.512   9.351 -0.0628 -0.2065 -0.4362
  128TCq2    C9 1959   3.847   3.545   9.730  0.0350 -0.5354  0.4151
  128TCq2    O5 1960   3.924   3.631   9.784  0.1471 -0.2184 -0.4122
  128TCq2    O6 1961   3.891   3.441   9.685  0.5143 -0.1693 -0.0750
  128TCq2    H2 1962   3.767   3.770   9.728 -2.0477 -0.2335  1.9767
  128TCq2    H3 1963   3.683   3.400   9.576 -0.2741 -0.0812  1.4157
  128TCq2    H4 1964   3.419   3.723   9.474 -0.0474  0.8617  0.4973
  129MPD2     C 1965   0.209   0.267   0.819  0.0184  0.1011 -0.1038
  129MPD2    C1 1966   0.276   0.149   0.833 -0.7542  0.9577 -0.1831
  129MPD2    C2 1967   0.408   0.134   0.812  0.1435 -0.7353  0.4995
  129MPD2    C3 1968   0.478   0.243   0.774 -0.3579 -0.2918 -0.6218
  129MPD2    C4 1969   0.417   0.367   0.754 -0.4992  0.4813 -0.5213
  129MPD2    C5 1970   0.278   0.377   0.778  0.1472  0.3084  0.1873
  129MPD2     H 1971   0.453   0.035   0.815  2.2303  0.2142  0.4377
  129MPD2    H1 1972   0.463   0.460   0.723  0.7633  0.6220  1.8526
  129MPD2    H2 1973   0.104   0.278   0.845 -0.1324  1.0522 -1.1412
  129MPD2    H3 1974   0.223   0.468   0.757  0.6316  0.0153 -2.3777
  129MPD2     N 1975   0.619   0.237   0.785  0.0245 -0.0010  0.2093
  129MPD2    H5 1976   0.652   0.330   0.762  0.4597 -0.5420 -1.3486
  129MPD2    N1 1977   0.204   0.027   0.851 -0.1509  0.3428  0.3321
  129MPD2    H7 1978   0.258   4.666   0.860 -0.5539 -0.0881 -1.3492
  130TCq2    C1 1979   0.068   0.012   0.875  0.9356 -0.2304 -0.2986
  130TCq2    O2 1980   4.702   0.098   0.870 -0.5166  0.0938  0.4907
  130TCq2    C2 1981   0.043   4.602   0.907 -0.8501 -0.0092 -0.6567
  130TCq2    C3 1982   0.139   4.504   0.919  0.1411  0.1652 -0.1936
  130TCq2    C4 1983   0.102   4.374   0.954  0.9765  0.0808  0.6747
  130TCq2    C5 1984   4.694   4.351   0.985  0.3519 -0.0269 -0.1906
  130TCq2    C6 1985   4.606   4.456   0.977 -0.6744  0.0201  0.5786
  130TCq2    C7 1986   4.641   4.580   0.934  0.3238 -0.3621 -0.1832
  130TCq2    C8 1987   4.473   4.429   1.023  0.0981 -0.2733  0.0531
  130TCq2    O4 1988   4.382   4.491   0.974  0.1809  0.0422 -0.2769
  130TCq2    C9 1989   0.211   4.279   0.971 -0.6555 -0.1485 -0.1033
  130TCq2    O5 1990   0.325   4.309   0.915 -0.1618 -0.2424  0.0277
  130TCq2    O6 1991   0.180   4.175   1.039 -0.3459  0.1474 -1.0024
  130TCq2    H2 1992   0.240   4.519   0.885  1.0337 -3.0241  1.0269
  130TCq2    H3 1993   4.678   4.247   1.010  1.1501  0.4825  2.4910
  130TCq2    H4 1994   4.567   4.659   0.928  2.6966  1.8874 -0.0455
  131MPD2     C 1995   0.477   2.976   9.551 -0.4068  0.0332 -0.0353
  131MPD2    C1 1996   0.563   3.046   9.636  0.7825  0.4712  0.1100
  131MPD2    C2 1997   0.599   2.996   9.763 -0.0141 -0.0110 -0.1583
  131MPD2    C3 1998   0.524   2.890   9.818 -0.6134 -0.1286  0.2221
  131MPD2    C4 1999   0.419   2.839   9.739 -0.3305 -0.7218 -0.1852
  131MPD2    C5 2000   0.406   2.869   9.604 -0.9244  0.2233 -0.1962
  131MPD2     H 2001   0.687   3.034   9.815  0.0903 -0.3052 -0.1191
  131MPD2    H1 2002   0.363   2.752   9.771  2.0002 -1.6580  1.3416
  131MPD2    H2 2003   0.464   3.009   9.449 -0.3409  1.1299  0.3020
  131MPD2    H3 2004   0.335   2.821   9.538  0.4234  0.0975 -1.5603
  131MPD2     N 2005   0.539   2.853   9.955  0.0435 -0.2962  0.6303
  131MPD2    H5 2006   0.619   2.898   9.999  0.4966 -0.5520  0.0678
  131MPD2    N1 2007   0.630   3.154   9.571  1.8706  0.2555  0.1065
  131MPD2    H7 2008   0.615   3.166   9.472 -0.4066 -2.0568  0.1587
  132TCq2    C1 2009   0.984   3.293   9.246 -0.0344  0.1621  0.2771
  132TCq2    O2 2010   0.930   3.192   9.207  0.0311 -0.6634  0.0978
  132TCq2    C2 2011   0.932   3.347   9.371  0.7485 -0.3553  0.6574
  132TCq2    C3 2012   0.996   3.453   9.431  0.0566  0.1019  0.9613
  132TCq2    C4 2013   0.953   3.498   9.556 -0.5948 -0.2557 -0.5439
  132TCq2    C5 2014   0.847   3.436   9.618 -0.0330  0.4227  0.3934
  132TCq2    C6 2015   0.788   3.326   9.561 -0.6841 -0.1568  0.3435
  132TCq2    C7 2016   0.829   3.280   9.439  0.4443  0.4032  0.9597
  132TCq2    C8 2017   0.705   3.245   9.644 -0.3790 -0.2680  0.0279
  132TCq2    O4 2018   0.718   3.261   9.765  0.7730 -0.3618  0.3391
  132TCq2    C9 2019   1.028   3.612   9.617  0.2032 -0.3412 -0.5329
  132TCq2    O5 2020   0.969   3.670   9.712 -0.6894  0.2235  0.2091
  132TCq2    O6 2021   1.104   3.673   9.538 -0.1716  0.0787 -0.0342
  132TCq2    H2 2022   1.090   3.496   9.401  0.0628 -0.2927  0.4222
  132TCq2    H3 2023   0.809   3.478   9.711 -3.4274 -0.0952 -0.7588
  132TCq2    H4 2024   0.799   3.187   9.391  0.4717  0.9869 -0.2085
  133MPD2     C 2025   0.429   4.679   8.869 -0.0205 -0.3433 -0.2276
  133MPD2    C1 2026   0.514   4.583   8.912  0.1346  0.6543  0.0514
  133MPD2    C2 2027   0.460   4.453   8.923 -0.5429  0.3656 -0.1480
  133MPD2    C3 2028   0.330   4.429   8.887  0.0021 -0.0177  0.3298
  133MPD2    C4 2029   0.243   4.531   8.845 -0.1114  1.1614 -0.1281
  133MPD2    C5 2030   0.294   4.654   8.842 -0.5867 -0.8745  0.0349
  133MPD2     H 2031   0.517   4.371   8.964 -0.0268  0.9788  0.3572
  133MPD2    H1 2032   0.136   4.518   8.830  0.0776 -0.8555  0.2822
  133MPD2    H2 2033   0.469   0.053   8.848 -1.1038  0.1373 -0.0059
  133MPD2    H3 2034   0.228   0.013   8.817 -0.0162 -0.7744 -1.1404
  133MPD2     N 2035   0.273   4.293   8.885  0.1609  0.6811 -0.1840
  133MPD2    H5 2036   0.175   4.287   8.859  0.0134 -1.2045  0.8258
  133MPD2    N1 2037   0.647   4.619   8.938  0.4996 -0.4009  0.4668
  133MPD2    H7 2038   0.675   4.716   8.946  2.9831 -1.0387 -0.6954
  134TCq2    C1 2039   0.741   4.523   8.947 -0.0441  0.0757 -0.2453
  134TCq2    O2 2040   0.740   4.404   8.925 -0.3134 -0.2904 -0.4592
  134TCq2    C2 2041   0.862   4.584   8.994  0.6043  0.2724  0.9661
  134TCq2    C3 2042   0.873   4.722   9.002  0.4364  0.4763  0.3156
  134TCq2    C4 2043   0.966   0.041   9.096 -0.3313 -0.5537 -0.0404
  134TCq2    C5 2044   1.045   4.684   9.174 -0.4373  0.2595  0.2688
  134TCq2    C6 2045   1.036   4.554   9.153 -0.2090  0.4415 -0.2669
  134TCq2    C7 2046   0.945   4.500   9.064  1.0734  0.0575  0.3993
  134TCq2    C8 2047   1.124   4.474   9.240 -0.0992  0.0467  0.0225
  134TCq2    O4 2048   1.168   4.532   9.337 -0.2365  0.5764 -0.4520
  134TCq2    C9 2049   0.977   0.187   9.106 -0.2562  0.4795 -0.2462
  134TCq2    O5 2050   0.872   0.256   9.079  0.1117  0.2525  0.6481
  134TCq2    O6 2051   1.096   0.224   9.136 -0.0015 -0.1738 -0.2421
  134TCq2    H2 2052   0.813   0.068   8.945  0.6051  0.4039  0.0491
  134TCq2    H3 2053   1.095   0.012   9.255 -0.3117  1.0517 -0.3110
  134TCq2    H4 2054   0.923   4.394   9.067  0.3845  0.2150  0.9209
  135MPD2     C 2055   2.208   0.736   8.777  0.3850 -0.8530 -0.1890
  135MPD2    C1 2056   2.267   0.675   8.885 -0.2421 -0.2925  0.1679
  135MPD2    C2 2057   2.354   0.577   8.859  0.5773 -0.0204  0.2858
  135MPD2    C3 2058   2.355   0.514   8.735 -0.6004  0.1222 -0.3298
  135MPD2    C4 2059   2.290   0.571   8.626  0.5400  0.5208 -0.2750
  135MPD2    C5 2060   2.218   0.684   8.655  0.6140  0.4635 -0.0585
  135MPD2     H 2061   2.405   0.526   8.940  2.3757 -0.6806 -1.2801
  135MPD2    H1 2062   2.286   0.526   8.527  0.2006 -0.5350  0.2229
  135MPD2    H2 2063   2.141   0.820   8.792  2.4500  0.7858 -0.0780
  135MPD2    H3 2064   2.174   0.725   8.566  2.8388  0.9538 -0.9379
  135MPD2     N 2065   2.425   0.394   8.732  0.0237 -0.0280 -0.2915
  135MPD2    H5 2066   2.468   0.378   8.822 -0.3944 -0.0565 -0.0952
  135MPD2    N1 2067   2.227   0.725   9.014  0.1995  0.1279 -0.2829
  135MPD2    H7 2068   2.144   0.784   9.012 -0.3427 -0.5991  0.7369
  136TCq2    C1 2069   2.274   0.681   9.136 -0.7383 -0.4805 -0.2764
  136TCq2    O2 2070   2.364   0.599   9.158 -0.5811 -0.4140 -0.4868
  136TCq2    C2 2071   2.197   0.735   9.257 -0.2020 -0.2911 -0.0576
  136TCq2    C3 2072   2.159   0.863   9.258  0.2962  0.8476  0.1720
  136TCq2    C4 2073   2.114   0.907   9.376 -0.2276  0.2299  0.2202
  136TCq2    C5 2074   2.130   0.840   9.500 -0.2560 -1.3110 -0.5259
  136TCq2    C6 2075   2.182   0.719   9.492  0.1914 -0.2133  0.2775
  136TCq2    C7 2076   2.222   0.665   9.374  0.7201 -0.0212  0.7600
  136TCq2    C8 2077   2.194   0.632   9.609  0.2822 -0.1772  0.4177
  136TCq2    O4 2078   2.198   0.683   9.719 -0.2242  0.3046  0.2106
  136TCq2    C9 2079   2.042   1.035   9.380  0.1989 -0.0327 -0.2851
  136TCq2    O5 2080   2.012   1.084   9.490 -0.2875 -0.0074 -0.3024
  136TCq2    O6 2081   2.041   1.100   9.269 -0.3901 -0.0351 -0.1610
  136TCq2    H2 2082   2.124   0.908   9.166  1.0211 -0.5580 -0.7967
  136TCq2    H3 2083   2.055   0.873   9.571 -0.7220  2.1846 -2.6404
  136TCq2    H4 2084   2.277   0.571   9.375  1.8264  0.6349  1.7318
  137MPD2     C 2085   2.711   3.033   9.437 -0.2040  0.3217  0.2834
  137MPD2    C1 2086   2.609   3.117   9.422  0.1610 -0.5729  0.1866
  137MPD2    C2 2087   2.559   3.188   9.532 -0.1492  0.1157 -0.0908
  137MPD2    C3 2088   2.631   3.180   9.654  0.2865  0.2770  0.0001
  137MPD2    C4 2089   2.732   3.088   9.666 -1.1269  0.1523 -0.6671
  137MPD2    C5 2090   2.766   3.007   9.557  0.4237  0.1479  0.2031
  137MPD2     H 2091   2.475   3.255   9.523 -0.0938  0.3351  1.0255
  137MPD2    H1 2092   2.788   3.064   9.756 -0.6741  0.4477 -0.8667
  137MPD2    H2 2093   2.746   2.964   9.360 -0.4399 -0.3415  0.7647
  137MPD2    H3 2094   2.848   2.937   9.564 -1.4396 -2.1012 -0.2909
  137MPD2     N 2095   2.604   3.276   9.743  0.1113 -0.1122 -0.8427
  137MPD2    H5 2096   2.521   3.330   9.720 -1.2627 -0.6137  2.8800
  137MPD2    N1 2097   2.540   3.121   9.297  0.3226  0.3962 -0.2577
  137MPD2    H7 2098   2.589   3.072   9.223  1.9112  1.2694  0.2107
  138TCq2    C1 2099   2.450   3.212   9.247 -0.7319 -0.3164  0.4752
  138TCq2    O2 2100   2.377   3.286   9.317  0.2923 -0.0408  0.0361
  138TCq2    C2 2101   2.446   3.205   9.106  0.6120  0.2126 -0.3237
  138TCq2    C3 2102   2.510   3.106   9.034 -0.4620  0.2734 -0.0541
  138TCq2    C4 2103   2.530   3.133   8.903  0.1100 -0.2885  0.2505
  138TCq2    C5 2104   2.494   3.255   8.851  0.0968  0.4831 -0.1766
  138TCq2    C6 2105   2.421   3.352   8.921 -0.5634 -0.0601  0.4729
  138TCq2    C7 2106   2.402   3.324   9.054 -0.2215 -0.1993  0.4438
  138TCq2    C8 2107   2.415   3.490   8.885  0.4889 -0.0384 -0.2395
  138TCq2    O4 2108   2.502   3.552   8.823  0.2205  0.0290  0.3219
  138TCq2    C9 2109   2.599   3.031   8.832 -0.6255 -0.3126 -0.2376
  138TCq2    O5 2110   2.616   3.051   8.708  1.2763 -0.1691  0.4232
  138TCq2    O6 2111   2.649   2.937   8.895  0.3479 -0.0324  0.0954
  138TCq2    H2 2112   2.531   3.006   9.070 -1.7280 -0.3856 -1.1233
  138TCq2    H3 2113   2.507   3.280   8.746 -2.6596 -0.4777 -0.7324
  138TCq2    H4 2114   2.362   3.401   9.120  1.3425  1.5334 -0.6085
  139TMC2    C1 2115   2.645   3.306  12.954  1.3692  0.5315  0.5236
  139TMC2    C2 2116   2.675   3.355  12.829 -0.3795 -0.4825 -0.6855
  139TMC2    C3 2117   2.596   3.444  12.777  0.3354 -0.0065  0.5158
  139TMC2    C4 2118   2.542   3.351  13.033  0.2710 -0.6449  0.2086
  139TMC2    C5 2119   2.471   3.452  12.972 -0.3869 -0.0875  0.1941
  139TMC2    C6 2120   2.499   3.498  12.848  0.1404  0.4696  0.2956
  139TMC2     C 2121   2.704   3.175  12.982  0.2420  0.9048  0.5314
  139TMC2     O 2122   2.760   3.110  12.893  0.2723 -0.4722 -0.1616
  139TMC2     H 2123   2.739   3.295  12.766 -1.1396 -0.1089 -1.8018
  139TMC2    H1 2124   2.510   3.306  13.126  0.2568  1.8609  1.4290
  139TMC2    H2 2125   2.449   3.586  12.808 -0.8299 -0.6917 -1.0297
  139TMC2    C7 2126   2.359   3.512  13.043 -0.0183 -0.1767 -0.5017
  139TMC2    C8 2127   2.594   3.444  12.634 -0.3776  0.0438 -0.6871
  139TMC2    O1 2128   2.286   3.590  12.982  0.0608  0.0099 -0.0284
  139TMC2    O2 2129   2.490   3.443  12.571 -0.4022  0.3287  0.2556
  139TMC2    O5 2130   2.708   3.498  12.588  0.2806  0.1512 -0.3756
  139TMC2    H5 2131   2.764   3.521  12.665 -2.6727  1.9571  1.2310
  140MPD2     C 2132   2.622   2.965  13.278 -0.6899 -0.4518 -0.6855
  140MPD2    C1 2133   2.695   2.995  13.160 -0.2203 -0.2415  0.5897
  140MPD2    C2 2134   2.775   2.903  13.104  0.0638 -0.7335  0.1303
  140MPD2    C3 2135   2.805   2.791  13.181  0.1825 -0.4197 -0.1183
  140MPD2    C4 2136   2.731   2.758  13.296  0.1485 -0.0248  0.2484
  140MPD2    C5 2137   2.646   2.851  13.349  0.5349 -0.1468  0.4755
  140MPD2     H 2138   2.825   2.922  13.010  0.5251  0.5022  0.6173
  140MPD2    H1 2139   2.750   2.663  13.346  0.4325  0.5239  1.1908
  140MPD2    H2 2140   2.540   3.030  13.308 -0.0515 -0.6702  1.5109
  140MPD2    H3 2141   2.586   2.834  13.438  0.9341  0.9415  0.9485
  140MPD2     N 2142   2.895   2.700  13.119  0.4980 -0.1207  0.7764
  140MPD2    H5 2143   2.936   2.736  13.034 -0.6370  1.8234  1.0496
  140MPD2    N1 2144   2.672   3.129  13.111 -0.5710 -0.6808  0.0896
  140MPD2    H7 2145   2.628   3.194  13.175  0.9923 -0.6653  1.1493
  141TCq2    C1 2146   3.070   4.117  14.249 -0.0030 -0.0954  0.6428
  141TCq2    O2 2147   3.079   4.213  14.175 -0.2433 -0.4659 -0.1635
  141TCq2    C2 2148   3.064   4.136  14.395 -0.4945 -0.0314  0.0371
  141TCq2    C3 2149   3.103   4.036  14.475 -1.4629 -0.5010 -0.4923
  141TCq2    C4 2150   3.104   4.051  14.609 -0.3827 -0.1755 -0.2206
  141TCq2    C5 2151   3.068   4.168  14.658  0.2151 -0.3532  0.0205
  141TCq2    C6 2152   3.027   4.268  14.579 -0.6776 -0.0149  0.9227
  141TCq2    C7 2153   3.017   4.256  14.441 -0.7706 -0.3683  0.5623
  141TCq2    C8 2154   2.972   4.385  14.646 -0.0166 -0.2517  0.4716
  141TCq2    O4 2155   2.932   4.385  14.762  0.1332 -0.1181 -0.2320
  141TCq2    C9 2156   3.155   3.942  14.688 -0.1168 -0.2178  0.2147
  141TCq2    O5 2157   3.190   3.960  14.805  0.0036  0.1990 -0.4005
  141TCq2    O6 2158   3.167   3.831  14.616  0.1976  0.2590 -0.3453
  141TCq2    H2 2159   3.131   3.940  14.435  0.3144 -1.0846  2.1525
  141TCq2    H3 2160   3.064   4.176  14.766  0.7099 -1.6955  0.1439
  141TCq2    H4 2161   2.987   4.334  14.372 -0.0642 -0.3636  0.2592
  142MPD2     C 2162   0.762   2.372  10.222  0.5422  0.4531 -0.0235
  142MPD2    C1 2163   0.711   2.304  10.113  0.4077 -0.0220  0.5745
  142MPD2    C2 2164   0.707   2.368   9.993  0.3728 -0.5704  0.1931
  142MPD2    C3 2165   0.759   2.495   9.984  0.9734  0.0411  0.5930
  142MPD2    C4 2166   0.815   2.563  10.093  0.1215 -0.5373  0.4673
  142MPD2    C5 2167   0.813   2.494  10.209  0.2587 -0.2017 -0.5688
  142MPD2     H 2168   0.664   2.311   9.912  1.4818 -0.5816 -0.3790
  142MPD2    H1 2169   0.878   2.651  10.085  1.0664 -1.0934  1.8597
  142MPD2    H2 2170   0.771   2.328  10.320  1.5643 -0.2315 -0.4256
  142MPD2    H3 2171   0.861   2.534  10.298  1.3654 -3.5013  0.3267
  142MPD2     N 2172   0.768   2.564   9.855  0.0409  0.4283  0.1614
  142MPD2    H5 2173   0.818   2.652   9.853 -1.4398  1.2812  0.9643
  142MPD2    N1 2174   0.683   2.165  10.140 -0.4970 -0.2993  0.3517
  142MPD2    H7 2175   0.694   2.146  10.239 -0.3056 -1.7319  0.0527
  143TCq2    C1 2176   0.712   2.515   9.735  0.4376 -0.2578  0.4646
  143TCq2    O2 2177   0.644   2.417   9.712  0.4127  0.0025 -0.0421
  143TCq2    C2 2178   0.739   2.600   9.619  0.0662  0.0523 -1.1972
  143TCq2    C3 2179   0.636   2.605   9.520 -0.2215  0.0274 -0.1765
  143TCq2    C4 2180   0.652   2.706   9.430  0.5036 -0.2448 -0.6741
  143TCq2    C5 2181   0.754   2.794   9.437  0.2925 -0.4550 -0.3328
  143TCq2    C6 2182   0.859   2.778   9.524 -0.3377 -0.6134 -0.1520
  143TCq2    C7 2183   0.849   2.674   9.617 -0.0214  0.4935 -0.1420
  143TCq2    C8 2184   0.959   2.876   9.540 -0.0525 -0.3504  0.4532
  143TCq2    O4 2185   0.988   2.909   9.653  0.2903 -0.5949 -0.7177
  143TCq2    C9 2186   0.540   2.708   9.335 -0.4204  0.4505  0.1791
  143TCq2    O5 2187   0.540   2.803   9.251  0.5572  0.3924 -0.2099
  143TCq2    O6 2188   0.467   2.600   9.321 -0.2581 -0.1172  0.5729
  143TCq2    H2 2189   0.549   2.541   9.519 -0.8980  0.9418  1.0583
  143TCq2    H3 2190   0.749   2.877   9.367  1.4820 -0.3337 -0.2621
  143TCq2    H4 2191   0.935   2.659   9.681 -0.5966 -1.8609  0.0533
  144MPD2     C 2192   3.296   2.658   0.277 -0.1032  0.2021  0.1460
  144MPD2    C1 2193   3.294   2.521   0.302 -0.5722  0.1408 -0.1691
  144MPD2    C2 2194   3.417   2.461   0.340 -0.1256  0.3299  0.0082
  144MPD2    C3 2195   3.534   2.539   0.351 -0.3797 -0.3016  0.1398
  144MPD2    C4 2196   3.532   2.669   0.329  0.8304 -0.2602  0.5162
  144MPD2    C5 2197   3.413   2.728   0.292 -0.9687  0.5256 -0.1080
  144MPD2     H 2198   3.409   2.355   0.363  1.1375 -0.1546 -1.7946
  144MPD2    H1 2199   3.616   2.736   0.347 -0.9797  2.1183  0.0649
  144MPD2    H2 2200   3.206   2.708   0.243 -0.3897 -0.0485  0.5331
  144MPD2    H3 2201   3.412   2.836   0.279 -0.0351  0.4000 -1.3198
  144MPD2     N 2202   3.653   2.476   0.395  0.0625  0.2835  0.2127
  144MPD2    H5 2203   3.735   2.525   0.427  0.3565  1.8472 -2.9013
  144MPD2    N1 2204   3.181   2.444   0.291  0.0521 -0.4761  0.2401
  144MPD2    H7 2205   3.193   2.344   0.303 -0.3444 -0.7267 -1.4010
  145TCq2    C1 2206   3.665   2.339   0.377 -0.0705  0.3429 -0.0859
  145TCq2    O2 2207   3.611   2.273   0.290  0.2906  0.8921 -0.0340
  145TCq2    C2 2208   3.771   2.273   0.450 -0.8536  0.1500  0.2078
  145TCq2    C3 2209   3.843   2.184   0.379  1.1125  0.4178 -0.1177
  145TCq2    C4 2210   3.929   2.104   0.440  0.5404 -1.0082 -0.8722
  145TCq2    C5 2211   3.948   2.124   0.573  0.3720  0.2644  0.0910
  145TCq2    C6 2212   3.864   2.202   0.646 -0.2660 -0.2725 -0.5084
  145TCq2    C7 2213   3.774   2.281   0.583  0.0265 -0.2041  0.1260
  145TCq2    C8 2214   3.830   2.146   0.778  0.1914  0.6030  0.3882
  145TCq2    O4 2215   3.917   2.081   0.831 -0.1477 -0.3818 -0.3952
  145TCq2    C9 2216   4.002   2.014   0.360  0.6986  0.9078  0.3300
  145TCq2    O5 2217   4.110   1.964   0.410  0.0193  0.5857  0.1960
  145TCq2    O6 2218   3.945   1.978   0.259 -1.0940 -0.2093 -0.0089
  145TCq2    H2 2219   3.823   2.175   0.273 -0.5854  1.6945  0.0875
  145TCq2    H3 2220   4.012   2.046   0.614  0.7524  1.0564  1.0123
  145TCq2    H4 2221   3.728   2.363   0.637  1.4038  1.0797 -0.6447
  146TMC2    C1 2222   0.224   0.491  11.925 -0.3787  0.7163 -0.1852
  146TMC2    C2 2223   0.164   0.437  11.810 -0.1215  0.7713  0.5002
  146TMC2    C3 2224   0.239   0.361  11.730 -0.1870 -0.3370 -0.1991
  146TMC2    C4 2225   0.353   0.463  11.966  0.0134 -0.3383  0.3178
  146TMC2    C5 2226   0.419   0.379  11.884  0.0923 -0.3330  0.6689
  146TMC2    C6 2227   0.359   0.327  11.773 -0.1866  0.5243 -0.3534
  146TMC2     C 2228   0.128   0.541  12.024 -0.9869 -0.0726 -0.1272
  146TMC2     O 2229   0.017   0.571  11.982 -0.2007 -0.4253 -0.0010
  146TMC2     H 2230   0.062   0.453  11.780  0.7527  1.7958 -1.8533
  146TMC2    H1 2231   0.393   0.490  12.063  0.1691  0.6284 -0.0169
  146TMC2    H2 2232   0.414   0.261  11.707 -1.4128  0.3356 -1.1916
  146TMC2    C7 2233   0.560   0.349  11.902 -0.3830 -0.1017  0.1438
  146TMC2    C8 2234   0.190   0.302  11.606  0.4483  1.0523 -0.7900
  146TMC2    O1 2235   0.624   0.306  11.808  0.1170 -0.2186  0.0237
  146TMC2    O2 2236   0.240   0.200  11.558 -0.5897 -0.1433  0.4028
  146TMC2    O5 2237   0.097   0.383  11.546 -0.1059 -0.4057 -0.0727
  146TMC2    H5 2238   0.076   0.468  11.590 -1.1680 -1.2094  0.9638
  147MPD2     C 2239   0.963   0.238  12.206 -0.1372  0.9599  0.1216
  147MPD2    C1 2240   0.860   0.283  12.284 -0.6527 -0.0706  0.8210
  147MPD2    C2 2241   0.738   0.306  12.224  0.6616  0.4607 -0.5864
  147MPD2    C3 2242   0.723   0.309  12.087 -0.1550  0.7131  0.2312
  147MPD2    C4 2243   0.827   0.262  12.014  0.8462 -0.6532  0.1813
  147MPD2    C5 2244   0.941   0.228  12.070  0.0716 -0.0239  0.8560
  147MPD2     H 2245   0.651   0.330  12.285  1.6835  0.9452  0.7074
  147MPD2    H1 2246   0.822   0.249  11.907  0.0161 -2.1175  0.3968
  147MPD2    H2 2247   1.063   0.215  12.243 -0.4235 -0.2225  0.1806
  147MPD2    H3 2248   1.025   0.191  12.013 -0.2396  0.7404 -0.0851
  147MPD2     N 2249   0.597   0.339  12.032  0.3306 -0.0735 -0.2468
  147MPD2    H5 2250   0.521   0.371  12.091 -0.6142 -0.5581 -1.1854
  147MPD2    N1 2251   0.884   0.295  12.424 -0.0331  1.0416  0.1868
  147MPD2    H7 2252   0.976   0.270  12.460 -0.2038 -1.7191 -1.3884
  148MPD2     C 2253   0.331   3.828  10.878  0.5688  0.6246  0.8231
  148MPD2    C1 2254   0.334   3.691  10.865  0.6459 -0.0673  0.0673
  148MPD2    C2 2255   0.304   3.642  10.740 -0.6278  0.1251 -0.4663
  148MPD2    C3 2256   0.264   3.718  10.636 -0.2732 -0.5710  0.3809
  148MPD2    C4 2257   0.242   3.849  10.659  0.1869  0.8121  0.2208
  148MPD2    C5 2258   0.278   3.904  10.779  0.6995 -0.2530  0.4468
  148MPD2     H 2259   0.319   3.535  10.729  0.2333  0.0626  1.2397
  148MPD2    H1 2260   0.201   3.909  10.578  0.7120  2.7690  1.4324
  148MPD2    H2 2261   0.371   3.887  10.960  1.3816  0.1679  0.7555
  148MPD2    H3 2262   0.272   4.011  10.793  0.7484 -0.6869  3.7939
  148MPD2     N 2263   0.240   3.669  10.505 -0.3190 -0.6180 -0.3721
  148MPD2    H5 2264   0.207   3.741  10.440 -2.4620 -0.3877  0.9774
  148MPD2    N1 2265   0.394   3.609  10.959 -0.2061 -0.4231 -0.1086
  148MPD2    H7 2266   0.414   3.513  10.931 -0.5098 -1.2148  2.4081
  149TCq2    C1 2267   0.457   3.657  11.071 -0.2087  0.7719  0.6574
  149TCq2    O2 2268   0.444   3.758  11.138  0.0648 -0.0805 -0.0205
  149TCq2    C2 2269   0.557   3.564  11.119 -0.0499  0.3753 -0.1584
  149TCq2    C3 2270   0.509   3.448  11.171  0.5514  0.5858  0.4412
  149TCq2    C4 2271   0.586   3.334  11.164  0.4273  0.1802 -0.0810
  149TCq2    C5 2272   0.685   3.321  11.068  0.4219 -1.2653  0.0417
  149TCq2    C6 2273   0.718   3.435  11.000 -0.7875 -0.2295  0.0675
  149TCq2    C7 2274   0.663   3.559  11.033 -0.4354  0.1126  0.4265
  149TCq2    C8 2275   0.751   3.411  10.862 -0.1850 -0.7450 -0.3419
  149TCq2    O4 2276   0.745   3.301  10.813 -0.1634  0.1407  0.3562
  149TCq2    C9 2277   0.516   3.204  11.178  0.4746  0.2705 -0.1886
  149TCq2    O5 2278   0.445   3.189  11.283 -0.2719  0.3982 -0.1293
  149TCq2    O6 2279   0.504   3.137  11.075 -0.2272  0.0468 -0.0025
  149TCq2    H2 2280   0.406   3.443  11.205  0.2482 -0.4263 -0.6145
  149TCq2    H3 2281   0.714   3.224  11.031 -1.3626 -0.5083 -3.3614
  149TCq2    H4 2282   0.686   3.650  10.978  3.0100 -0.9325  0.1671
  150MPD2     C 2283   2.316   3.621  11.858  0.1265 -0.6160 -0.0234
  150MPD2    C1 2284   2.250   3.711  11.936  0.4236  0.2439 -0.4626
  150MPD2    C2 2285   2.317   3.801  12.021 -0.1055  0.0433  0.5605
  150MPD2    C3 2286   2.455   3.798  12.038 -0.5333 -0.0324 -0.1630
  150MPD2    C4 2287   2.520   3.693  11.972 -0.2174  0.5912  0.9808
  150MPD2    C5 2288   2.453   3.614  11.884  0.2778  0.3869 -0.0419
  150MPD2     H 2289   2.271   3.878  12.082 -1.2112 -0.2949  0.1526
  150MPD2    H1 2290   2.625   3.674  11.994 -0.9589 -1.4863  2.7277
  150MPD2    H2 2291   2.275   3.551  11.787  1.5183 -0.7188 -0.7344
  150MPD2    H3 2292   2.499   3.530  11.834  1.0660  0.6810  0.1929
  150MPD2     N 2293   2.513   3.903  12.114 -0.6014 -0.5413 -0.2839
  150MPD2    H5 2294   2.456   3.963  12.173  2.2865  1.4968  0.4303
  150MPD2    N1 2295   2.111   3.710  11.925  0.2777  0.1306 -0.3917
  150MPD2    H7 2296   2.066   3.641  11.865 -1.5590  0.8633  0.1261
  151TCq2    C1 2297   2.647   3.917  12.128  0.0496  0.5472  0.1192
  151TCq2    O2 2298   2.740   3.874  12.061  0.0024 -0.1220  0.1016
  151TCq2    C2 2299   2.684   4.002  12.240  0.0850 -0.4429  0.1186
  151TCq2    C3 2300   2.598   4.103  12.277  0.9140  1.0811 -0.2515
  151TCq2    C4 2301   2.643   4.191  12.370 -0.1954  0.5468 -0.6032
  151TCq2    C5 2302   2.759   4.168  12.435 -0.0706 -0.6242  0.2430
  151TCq2    C6 2303   2.841   4.063  12.395  0.8802  0.0580  0.4838
  151TCq2    C7 2304   2.812   3.993  12.283 -0.2122  0.8800  0.1607
  151TCq2    C8 2305   2.949   4.022  12.477  0.0608 -0.4617 -0.5731
  151TCq2    O4 2306   3.014   4.108  12.537  0.0442 -0.1235 -0.3358
  151TCq2    C9 2307   2.568   4.307  12.400 -0.4564 -0.1527  0.2320
  151TCq2    O5 2308   2.606   4.383  12.493  0.2981 -0.2341  0.3878
  151TCq2    O6 2309   2.448   4.304  12.359  0.0185 -0.2371 -0.3816
  151TCq2    H2 2310   2.516   4.122  12.209 -0.8533  0.0280  1.5766
  151TCq2    H3 2311   2.800   4.231  12.513 -1.2651  2.1229 -1.3574
  151TCq2    H4 2312   2.885   3.925  12.242  0.5633  1.3157  0.8116
  152MPD2     C 2313   1.959   3.148  12.281 -0.6343 -0.0435 -0.0153
  152MPD2    C1 2314   1.945   3.278  12.240 -0.1605  0.4220 -0.8956
  152MPD2    C2 2315   1.816   3.333  12.201 -0.4535  0.4786 -0.1000
  152MPD2    C3 2316   1.705   3.249  12.200  0.5388  0.3161  0.1693
  152MPD2    C4 2317   1.734   3.115  12.232  0.0383  0.3405 -0.7715
  152MPD2    C5 2318   1.854   3.062  12.280 -0.5467  0.2972 -0.2716
  152MPD2     H 2319   1.807   3.439  12.185  0.8028  0.5659 -0.2164
  152MPD2    H1 2320   1.650   3.049  12.215  2.4213 -2.6522 -0.8143
  152MPD2    H2 2321   2.056   3.121  12.321 -0.5301  1.8800  1.0611
  152MPD2    H3 2322   1.857   2.956  12.302 -0.2890  0.4787  0.5309
  152MPD2     N 2323   1.578   3.304  12.165  0.5024  0.9166 -0.3101
  152MPD2    H5 2324   1.582   3.405  12.155 -1.7229  1.0325  0.0533
  152MPD2    N1 2325   2.058   3.362  12.243  0.2231 -0.8373  0.2140
  152MPD2    H7 2326   2.144   3.322  12.278  0.0603 -1.7830 -0.4623
  153TCq2    C1 2327   2.063   3.499  12.254 -0.4395  0.3615  0.4843
  153TCq2    O2 2328   1.968   3.578  12.273  0.0684  0.2082  0.4482
  153TCq2    C2 2329   2.205   3.540  12.266 -0.5230 -0.4442 -0.1272
  153TCq2    C3 2330   2.303   3.460  12.221  0.3262 -0.0971  0.2566
  153TCq2    C4 2331   2.433   3.496  12.244 -0.1345 -1.4772  0.7652
  153TCq2    C5 2332   2.463   3.604  12.316 -0.1023 -0.0168  0.3166
  153TCq2    C6 2333   2.364   3.686  12.351 -0.1138  0.2246 -0.2225
  153TCq2    C7 2334   2.236   3.659  12.323  0.8619  0.5401  0.5784
  153TCq2    C8 2335   2.399   3.804  12.428 -0.4396  0.2245 -0.9206
  153TCq2    O4 2336   2.323   3.897  12.420  0.0314 -0.0059 -0.2863
  153TCq2    C9 2337   2.538   3.425  12.185  0.0281 -0.4578 -0.8647
  153TCq2    O5 2338   2.511   3.320  12.116 -0.0094  0.0805 -0.2132
  153TCq2    O6 2339   2.655   3.470  12.190  0.1208 -0.5372  0.1358
  153TCq2    H2 2340   2.278   3.389  12.142  0.4814  0.8104 -0.6173
  153TCq2    H3 2341   2.568   3.630  12.315  0.3935 -1.9833 -0.2602
  153TCq2    H4 2342   2.155   3.728  12.343  0.2539  0.3769 -1.3149
  154MPD2     C 2343   2.839   3.750  17.462  0.0870  0.2303  0.0750
  154MPD2    C1 2344   2.785   3.724  17.584  0.7689  0.3644  0.5655
  154MPD2    C2 2345   2.665   3.777  17.622  0.4037 -0.3194 -0.3968
  154MPD2    C3 2346   2.584   3.854  17.535  0.5133  0.4550  0.8032
  154MPD2    C4 2347   2.638   3.884  17.416 -0.1210 -0.0943 -0.2828
  154MPD2    C5 2348   2.760   3.827  17.378 -0.3579  0.1151 -0.3955
  154MPD2     H 2349   2.632   3.772   0.028 -1.0864 -0.0371 -0.8562
  154MPD2    H1 2350   2.590   3.949  17.344 -0.9478 -2.7170 -2.1120
  154MPD2    H2 2351   2.929   3.704  17.423 -1.2942  0.1484 -2.9900
  154MPD2    H3 2352   2.803   3.844  17.280  2.0411  1.6220  0.9161
  154MPD2     N 2353   2.462   3.919  17.584  0.7173  0.1732  0.0316
  154MPD2    H5 2354   2.442   3.896  17.681 -0.9795  0.4595 -0.2507
  154MPD2    N1 2355   2.861   3.649  17.681 -0.2502 -0.5743  0.7599
  154MPD2    H7 2356   2.956   3.621  17.660  0.0342 -0.7073  2.2302
  155TCq2    C1 2357   2.816   3.600   0.104 -0.6910  0.1127 -0.6920
  155TCq2    O2 2358   2.708   3.620   0.153 -0.3210  0.6155 -0.3434
  155TCq2    C2 2359   2.921   3.518   0.167  0.6058  0.6309  0.1201
  155TCq2    C3 2360   2.908   3.478   0.297  0.3209  0.0683 -0.9771
  155TCq2    C4 2361   3.024   3.429   0.355 -0.6878 -0.2082  0.1813
  155TCq2    C5 2362   3.135   3.392   0.290 -0.6158  0.8586  0.5554
  155TCq2    C6 2363   3.142   3.428   0.160 -0.3671  0.8631 -0.2256
  155TCq2    C7 2364   3.038   3.489   0.095  0.3045 -0.8505  0.4012
  155TCq2    C8 2365   3.270   3.404   0.083 -0.4284 -0.0007  0.3910
  155TCq2    O4 2366   3.282   3.467  17.675 -0.3927  0.1846  0.1613
  155TCq2    C9 2367   3.011   3.389   0.489  0.4800 -0.5343 -0.6284
  155TCq2    O5 2368   2.899   3.396   0.548  0.1771  0.2546 -0.2787
  155TCq2    O6 2369   3.110   3.345   0.547  0.2255  0.7413 -0.1738
  155TCq2    H2 2370   2.824   3.509   0.357  0.2995  1.5397 -1.7794
  155TCq2    H3 2371   3.211   3.336   0.342 -1.6629 -1.7566 -0.7388
  155TCq2    H4 2372   3.059   3.495  17.686  0.5167  1.2611  0.5660
  156MPD2     C 2373   1.459   0.580  12.372  1.1438  0.0155 -0.7381
  156MPD2    C1 2374   1.549   0.620  12.277  0.2484  0.1154 -0.7874
  156MPD2    C2 2375   1.672   0.664  12.316 -0.1728 -0.2098  1.1063
  156MPD2    C3 2376   1.704   0.687  12.447 -0.4150  0.3172 -0.3131
  156MPD2    C4 2377   1.610   0.649  12.540 -0.0665 -0.7379  0.9085
  156MPD2    C5 2378   1.492   0.583  12.503 -0.9623 -0.0590 -1.0375
  156MPD2     H 2379   1.754   0.676  12.246 -2.4741 -2.4230 -1.9447
  156MPD2    H1 2380   1.633   0.653  12.646  0.7729 -0.3755  0.7187
  156MPD2    H2 2381   1.362   0.544  12.341  1.3585 -1.7942  0.7130
  156MPD2    H3 2382   1.429   0.549  12.584 -1.3332 -0.9160 -1.6822
  156MPD2     N 2383   1.827   0.747  12.473 -0.1053  0.2825  1.0662
  156MPD2    H5 2384   1.885   0.777  12.395 -0.2505  0.0043  0.8522
  156MPD2    N1 2385   1.506   0.606  12.137  0.2992 -0.2450  0.2688
  156MPD2    H7 2386   1.415   0.570  12.114  0.0775  0.9519 -0.7366
  157TCq2    C1 2387   1.586   0.644  12.029 -0.0874  0.1397 -0.3794
  157TCq2    O2 2388   1.705   0.675  12.028  0.1107 -0.5323 -0.1173
  157TCq2    C2 2389   1.519   0.652  11.903  0.0654  0.2674 -0.5736
  157TCq2    C3 2390   1.424   0.741  11.911 -0.4564  0.0565  0.7307
  157TCq2    C4 2391   1.380   0.792  11.792  0.1086  0.5070 -0.1154
  157TCq2    C5 2392   1.438   0.766  11.671 -0.1220 -0.5613 -0.8177
  157TCq2    C6 2393   1.544   0.684  11.668 -0.2571 -0.0549  0.3522
  157TCq2    C7 2394   1.593   0.625  11.786 -0.1419  0.7896 -0.6425
  157TCq2    C8 2395   1.595   0.639  11.539 -0.6895  0.4550  0.6062
  157TCq2    O4 2396   1.714   0.609  11.529  0.3858 -1.0729 -0.0702
  157TCq2    C9 2397   1.280   0.896  11.797 -0.5352  0.3739 -0.3037
  157TCq2    O5 2398   1.203   0.904  11.892  0.0198 -1.1296  0.5798
  157TCq2    O6 2399   1.271   0.972  11.700 -0.1272  0.2069  0.0946
  157TCq2    H2 2400   1.369   0.765  12.002 -1.2143  0.0811  0.2640
  157TCq2    H3 2401   1.388   0.813  11.588  1.3586 -0.7072 -1.7991
  157TCq2    H4 2402   1.673   0.553  11.792 -2.0669 -1.3863 -1.2595
  158TMC2    C1 2403   2.688   4.515  13.303  0.3769  0.1879  0.4941
  158TMC2    C2 2404   2.743   4.582  13.203 -0.2531  0.1386  0.0865
  158TMC2    C3 2405   2.666   4.672  13.133  0.2014 -0.2465  0.0129
  158TMC2    C4 2406   2.555   4.543  13.340  0.0513 -0.3626  0.0130
  158TMC2    C5 2407   2.492   4.653  13.286 -0.1992 -0.3936 -0.2471
  158TMC2    C6 2408   2.534   4.713  13.175 -0.6816 -0.0797  0.1953
  158TMC2     C 2409   2.774   4.472  13.408  0.3937  0.0068 -0.1579
  158TMC2     O 2410   2.886   4.511  13.396  0.2600  0.8855  0.1157
  158TMC2     H 2411   2.846   4.561  13.177  0.2650  2.5824  0.1480
  158TMC2    H1 2412   2.517   4.486  13.425  0.9460 -0.8170  0.1111
  158TMC2    H2 2413   2.471   0.062  13.124 -1.0642 -0.6846 -0.2014
  158TMC2    C7 2414   2.351   4.673  13.325  0.1634  0.5215 -0.1521
  158TMC2    C8 2415   2.706   0.003  13.009 -0.3534 -0.5009 -0.3938
  158TMC2    O1 2416   2.311   0.064  13.303 -0.1786  0.1984 -0.5648
  158TMC2    O2 2417   2.629   0.076  12.949 -0.2565 -0.0067  0.2427
  158TMC2    O5 2418   2.834   4.713  12.970  0.1042  0.0608  0.6149
  158TMC2    H5 2419   2.892   4.660  13.030  0.6654 -0.0636 -0.0401
  159MPD2     C 2420   2.853   4.222  13.846 -0.3235 -0.1691 -0.2075
  159MPD2    C1 2421   2.765   4.152  13.772 -0.5303  0.1828 -0.0798
  159MPD2    C2 2422   2.718   4.204  13.651 -0.2913  0.8069 -0.2747
  159MPD2    C3 2423   2.775   4.319  13.599  0.0701 -0.0690  0.9755
  159MPD2    C4 2424   2.870   4.391  13.673 -0.6050 -0.0365 -0.5199
  159MPD2    C5 2425   2.907   4.334  13.794  0.5638  0.3174  0.9474
  159MPD2     H 2426   2.640   4.157  13.594 -1.5226 -1.0288  2.9563
  159MPD2    H1 2427   2.907   4.488  13.641  1.4586 -0.0863  1.7192
  159MPD2    H2 2428   2.874   4.207  13.951  0.9529  0.8000 -0.3323
  159MPD2    H3 2429   2.969   4.392  13.862  2.2766 -0.0448 -0.3025
  159MPD2     N 2430   2.717   4.368  13.484  0.1477  0.1906  0.0323
  159MPD2    H5 2431   2.636   4.318  13.450 -0.7985  0.7738  1.3955
  159MPD2    N1 2432   2.711   4.029  13.821  0.3357  0.2069 -0.5391
  159MPD2    H7 2433   2.733   4.000  13.916  1.4951 -0.9846 -1.1729
  160TMC2    C1 2434   1.250   2.334   0.827 -0.5361  0.1851 -0.5442
  160TMC2    C2 2435   1.145   2.243   0.803  0.3524 -0.1395 -0.5682
  160TMC2    C3 2436   1.175   2.111   0.833  0.1595 -0.5595  0.0571
  160TMC2    C4 2437   1.381   2.290   0.822  0.2004  0.5049  0.1065
  160TMC2    C5 2438   1.400   2.156   0.838 -0.4993 -0.2935 -0.2956
  160TMC2    C6 2439   1.303   2.063   0.857 -0.1488 -0.9000  0.3496
  160TMC2     C 2440   1.237   2.465   0.784 -0.1307 -0.8070 -0.2414
  160TMC2     O 2441   1.331   2.500   0.714  0.0726  0.2304  0.1478
  160TMC2     H 2442   1.050   2.280   0.766 -0.4097 -0.7643  0.7386
  160TMC2    H1 2443   1.469   2.351   0.836 -0.0630  0.6703  0.9994
  160TMC2    H2 2444   1.315   1.955   0.853  2.5010 -0.6066  0.1140
  160TMC2    C7 2445   1.532   2.097   0.834 -0.2333  0.3419  0.1296
  160TMC2    C8 2446   1.073   2.010   0.825 -0.6139  0.3007  0.0834
  160TMC2    O1 2447   1.546   1.994   0.898  0.2073 -0.0004 -0.3616
  160TMC2    O2 2448   1.035   1.950   0.925 -0.1520  0.1137  0.3245
  160TMC2    O5 2449   0.993   2.037   0.722 -0.6699 -0.3030 -0.4803
  160TMC2    H5 2450   1.048   2.056   0.644  0.6186 -0.1543  0.4656
  161MPD2     C 2451   1.179   2.733   0.776  0.3596 -0.0247 -0.0069
  161MPD2    C1 2452   1.074   2.643   0.785  0.0679  0.7477  0.0892
  161MPD2    C2 2453   0.948   2.684   0.793 -0.2002  0.0752  0.1827
  161MPD2    C3 2454   0.908   2.816   0.785 -0.5313  0.5840  0.0349
  161MPD2    C4 2455   1.007   2.911   0.780  0.5099 -0.0593  0.3562
  161MPD2    C5 2456   1.138   2.866   0.786  0.4032  0.4888  0.9208
  161MPD2     H 2457   0.863   2.616   0.799  1.2045 -1.5196  2.0628
  161MPD2    H1 2458   0.990   3.017   0.768 -1.7004 -0.6060 -1.2661
  161MPD2    H2 2459   1.285   2.713   0.785  0.6936  1.1914 -1.1425
  161MPD2    H3 2460   1.216   2.941   0.781 -0.6684  1.7197  2.6726
  161MPD2     N 2461   0.778   2.870   0.776  0.4848  0.0589 -0.0837
  161MPD2    H5 2462   0.766   2.970   0.762  0.1271  0.0219 -0.0347
  161MPD2    N1 2463   1.113   2.509   0.804 -0.1544  0.5848 -0.9962
  161MPD2    H7 2464   1.046   2.441   0.841 -1.5859  2.5805  0.0652
  162TMC2    C1 2465   4.242   0.289   0.441  0.3593  0.0343 -0.0396
  162TMC2    C2 2466   4.306   0.398   0.381 -0.1765  0.7089  0.1849
  162TMC2    C3 2467   4.245   0.519   0.379  0.0227  0.2721 -0.3986
  162TMC2    C4 2468   4.120   0.295   0.503  1.3706 -0.1792 -0.7258
  162TMC2    C5 2469   4.062   0.424   0.501 -0.5859  0.3382  0.5149
  162TMC2    C6 2470   4.121   0.533   0.436  0.9708 -0.2270  0.0352
  162TMC2     C 2471   4.284   0.157   0.399 -0.4148  0.2596  0.1970
  162TMC2     O 2472   4.405   0.144   0.378 -0.0171 -0.3766  0.2318
  162TMC2     H 2473   4.406   0.374   0.345 -0.8915 -0.9877 -0.6862
  162TMC2    H1 2474   4.073   0.215   0.559  2.4199  0.6579  1.3554
  162TMC2    H2 2475   4.073   0.627   0.411  4.4540  1.1255 -1.6403
  162TMC2    C7 2476   3.924   0.439   0.539  0.7049 -0.3478  0.3516
  162TMC2    C8 2477   4.290   0.627   0.299 -0.5518  0.1889  0.0238
  162TMC2    O1 2478   3.860   0.530   0.485  0.2102  0.4741 -0.1963
  162TMC2    O2 2479   4.281   0.745   0.323 -0.1031  0.0406 -0.3442
  162TMC2    O5 2480   4.344   0.571   0.186 -0.4154  0.2616  0.3410
  162TMC2    H5 2481   4.316   0.477   0.188  2.0076 -0.4832 -1.2913
  163MPD2     C 2482   4.153   4.402   0.266 -0.1751  0.2981 -0.1249
  163MPD2    C1 2483   4.275   4.464   0.286 -0.0886 -0.4793 -0.7838
  163MPD2    C2 2484   4.290   4.598   0.315 -0.3503 -0.8891 -0.2038
  163MPD2    C3 2485   4.175   4.672   0.334 -1.1807 -0.0642 -0.1170
  163MPD2    C4 2486   4.054   4.614   0.309 -0.6639 -0.2872  0.1514
  163MPD2    C5 2487   4.044   4.482   0.285  0.2049 -0.7088 -0.5057
  163MPD2     H 2488   4.381   4.657   0.309 -0.7100 -0.0193  2.6147
  163MPD2    H1 2489   3.957   4.661   0.320 -0.7928 -0.6365  0.4897
  163MPD2    H2 2490   4.149   4.297   0.237  1.5622 -0.0027  0.7196
  163MPD2    H3 2491   3.946   4.436   0.276 -0.3470 -0.0484  2.2352
  163MPD2     N 2492   4.174   0.086   0.368  0.0314 -0.2045 -0.2680
  163MPD2    H5 2493   4.080   0.123   0.383  0.6839  1.8765 -1.3529
  163MPD2    N1 2494   4.385   4.379   0.261 -0.1274  0.1515 -0.9404
  163MPD2    H7 2495   4.368   4.283   0.232 -0.8591  0.0879 -0.3118
  164TCq2    C1 2496   1.012   4.027  10.888 -0.0105  0.1947  0.1620
  164TCq2    O2 2497   0.968   4.004  11.000  0.2057 -1.2121 -0.7324
  164TCq2    C2 2498   0.990   4.162  10.831 -0.3394 -0.0482 -0.2471
  164TCq2    C3 2499   1.037   4.204  10.710 -0.0714 -0.3211  0.1738
  164TCq2    C4 2500   0.993   4.308  10.649 -0.3275  0.2505 -0.4297
  164TCq2    C5 2501   0.912   4.395  10.709  0.4327 -0.0805 -0.0699
  164TCq2    C6 2502   0.868   4.359  10.829  0.2713  0.3576 -0.5424
  164TCq2    C7 2503   0.898   4.244  10.895  0.5917 -0.3762  0.3887
  164TCq2    C8 2504   0.754   4.436  10.878 -0.2596 -0.5671  0.4216
  164TCq2    O4 2505   0.690   4.504  10.795  0.2877  0.0642  0.3455
  164TCq2    C9 2506   1.039   4.345  10.518 -0.2073  0.2635  0.6945
  164TCq2    O5 2507   1.070   4.248  10.439  0.7877  0.1737  0.0565
  164TCq2    O6 2508   1.038   4.469  10.487 -0.8154  0.1000  0.0561
  164TCq2    H2 2509   1.107   4.146  10.649 -1.4209 -0.3787 -1.3198
  164TCq2    H3 2510   0.866   4.478  10.656  2.2747  0.9238 -0.1180
  164TCq2    H4 2511   0.859   4.213  10.991  1.5076 -0.7006  0.6612
  165MPD2     C 2512   0.873   1.394   1.304  0.2108  1.5288  0.8985
  165MPD2    C1 2513   0.984   1.430   1.377  0.1394 -0.4878 -0.0383
  165MPD2    C2 2514   1.026   1.566   1.387 -0.1968  0.5581 -0.0365
  165MPD2    C3 2515   0.941   1.666   1.319 -0.0620  0.1557  0.5787
  165MPD2    C4 2516   0.831   1.630   1.243  0.0402  0.4856 -0.1099
  165MPD2    C5 2517   0.801   1.491   1.238 -0.2869 -0.1825  0.0632
  165MPD2     H 2518   1.119   1.593   1.434 -0.5743 -0.3852  1.2451
  165MPD2    H1 2519   0.778   1.708   1.188  0.8134  1.7381  0.9240
  165MPD2    H2 2520   0.852   1.288   1.297  1.4049  1.3754 -0.1048
  165MPD2    H3 2521   0.712   1.453   1.190 -0.5940 -0.1725  0.6191
  165MPD2     N 2522   0.983   1.805   1.309  0.4198 -0.2406 -0.2919
  165MPD2    H5 2523   0.927   1.867   1.252 -3.0512 -2.4975  0.6458
  165MPD2    N1 2524   1.057   1.317   1.429 -0.3752  0.5174 -0.1044
  165MPD2    H7 2525   1.001   1.233   1.430 -1.0456  0.9740  1.1577
  166TCq2    C1 2526   1.094   1.857   1.362 -0.4009 -1.4524  0.2532
  166TCq2    O2 2527   1.192   1.794   1.408  0.1773 -0.1524 -0.1572
  166TCq2    C2 2528   1.115   1.993   1.317  0.5233  0.1064 -0.0775
  166TCq2    C3 2529   1.012   2.081   1.321  0.5678  0.0306 -0.4621
  166TCq2    C4 2530   1.040   2.211   1.324  0.2420 -0.2141  0.1697
  166TCq2    C5 2531   1.168   2.255   1.322  0.9960 -0.5031  0.2835
  166TCq2    C6 2532   1.275   2.166   1.302  0.6133 -0.2120  0.2888
  166TCq2    C7 2533   1.247   2.032   1.297 -0.0774 -0.4990  0.7875
  166TCq2    C8 2534   1.407   2.200   1.247  0.2891 -0.1552 -0.4780
  166TCq2    O4 2535   1.494   2.117   1.245  0.5484  0.5282 -0.9598
  166TCq2    C9 2536   0.935   2.308   1.325 -0.8721  0.2574  0.2804
  166TCq2    O5 2537   0.818   2.266   1.314  0.3883 -0.5490  0.0417
  166TCq2    O6 2538   0.963   2.433   1.342  0.1940 -0.2512  0.3744
  166TCq2    H2 2539   0.912   2.048   1.350  1.2120  0.3018  2.0469
  166TCq2    H3 2540   1.189   2.361   1.330 -0.1392 -0.2558 -0.0823
  166TCq2    H4 2541   1.326   1.960   1.315  2.0187  0.8972 -2.7301
  167TMC2    C1 2542   0.267   4.183  12.780  0.4298  0.0374  0.6346
  167TMC2    C2 2543   0.228   4.246  12.894  0.1357  0.1558  0.0608
  167TMC2    C3 2544   0.201   4.172  13.010  0.0308  0.6445  0.0808
  167TMC2    C4 2545   0.281   4.048  12.776 -0.2692 -0.1221 -0.0310
  167TMC2    C5 2546   0.260   3.980  12.891  0.2850 -0.2854 -0.3385
  167TMC2    C6 2547   0.216   4.039  13.008 -0.4486  1.0707 -0.5514
  167TMC2     C 2548   0.276   4.268  12.664  0.6612 -0.2512 -0.0198
  167TMC2     O 2549   0.306   4.384  12.682  0.0745 -0.6165 -0.1773
  167TMC2     H 2550   0.215   4.353  12.902  0.4861  0.1795  0.3178
  167TMC2    H1 2551   0.336   4.001  12.695  0.8817  0.9958  0.0858
  167TMC2    H2 2552   0.180   3.973  13.086  1.7143 -1.4484 -1.7038
  167TMC2    C7 2553   0.264   3.835  12.896  0.0422  0.2573  0.0029
  167TMC2    C8 2554   0.105   4.224  13.111 -0.3130  0.2227  0.2586
  167TMC2    O1 2555   0.267   3.780  13.005  0.3627 -0.2216 -0.1039
  167TMC2    O2 2556   0.025   4.141  13.153  0.0855 -0.5454  0.1406
  167TMC2    O5 2557   0.204   4.268  13.187  0.5287  0.3770 -0.5011
  167TMC2    H5 2558   0.289   4.275  13.138  0.5894 -1.9513 -0.7569
  168MPD2     C 2559   0.239   4.392  12.392 -0.1829 -0.4295 -0.9646
  168MPD2    C1 2560   0.227   4.257  12.418 -0.0918 -0.4044  0.1907
  168MPD2    C2 2561   0.179   4.163  12.328  0.0831 -0.6918 -0.0472
  168MPD2    C3 2562   0.161   4.209  12.201 -0.3372 -0.2528  0.0468
  168MPD2    C4 2563   0.177   4.346  12.169 -0.1732  0.5989  0.0492
  168MPD2    C5 2564   0.212   4.437  12.267 -0.3746 -0.4820 -0.4501
  168MPD2     H 2565   0.172   4.058  12.351  1.0450 -0.8324 -0.3835
  168MPD2    H1 2566   0.167   4.386  12.069  2.7937 -2.1045 -1.3545
  168MPD2    H2 2567   0.276   4.456  12.472 -0.1263  0.7390 -1.9159
  168MPD2    H3 2568   0.220   4.542  12.242  1.4837 -0.2322  1.3051
  168MPD2     N 2569   0.126   4.102  12.110  0.3087  0.0024 -0.2186
  168MPD2    H5 2570   0.114   4.010  12.150 -0.4783 -0.3528 -1.2704
  168MPD2    N1 2571   0.240   4.199  12.550  0.2201 -0.4532 -0.0411
  168MPD2    H7 2572   0.218   4.101  12.561  0.7219 -0.6966 -1.2217
  169MPD1     C 2573   2.580   2.158   8.656  0.2448  0.5041 -0.2618
  169MPD1    C1 2574   2.526   2.277   8.700 -0.7718  0.0889  0.8116
  169MPD1    C2 2575   2.606   2.367   8.765  0.5152 -0.7681 -0.5995
  169MPD1    C3 2576   2.738   2.334   8.793 -0.7026 -0.3661 -0.4375
  169MPD1    C4 2577   2.789   2.213   8.750  0.0381  0.4661 -0.0607
  169MPD1    C5 2578   2.711   2.130   8.678 -0.2716 -0.4235 -0.0464
  169MPD1     H 2579   2.557   2.460   8.791  1.1061 -0.4353 -0.6825
  169MPD1    H1 2580   2.892   2.183   8.763  0.3239  0.8925 -1.2737
  169MPD1    H2 2581   2.528   2.095   8.585  1.3343 -1.3502  0.5820
  169MPD1    H3 2582   2.763   2.043   8.638  0.2165 -0.3052  0.3225
  169MPD1     N 2583   2.815   2.432   8.860 -0.2011  0.1568  0.2099
  169MPD1    H5 2584   2.762   2.508   8.901  2.9003  1.3734  2.0329
  169MPD1    N1 2585   2.402   2.318   8.653 -0.1580  0.5361  0.0866
  169MPD1    H6 2586   2.333   2.247   8.628 -1.7909  1.1252  2.8997
  169MPD1    H7 2587   2.360   2.377   8.724 -3.0089 -2.0319  0.5305
  170MPD1     C 2588   0.236   2.068  13.058  0.5522  0.0975 -0.0249
  170MPD1    C1 2589   0.347   2.042  12.987  0.4500 -0.1708  0.4003
  170MPD1    C2 2590   0.471   2.052  13.051  0.0785 -0.5137  0.4949
  170MPD1    C3 2591   0.483   2.081  13.184  0.2737 -0.1132  0.1004
  170MPD1    C4 2592   0.367   2.106  13.252  0.5487  0.0960 -0.0921
  170MPD1    C5 2593   0.245   2.103  13.193  0.3924  0.1879  0.4250
  170MPD1     H 2594   0.557   2.024  12.991  0.4460 -0.2661  0.9016
  170MPD1    H1 2595   0.367   2.136  13.357 -2.0398  1.7897 -0.5759
  170MPD1    H2 2596   0.147   2.045  13.001  0.3301  1.1772 -0.1020
  170MPD1    H3 2597   0.158   2.124  13.254 -0.3627  0.8738 -0.8754
  170MPD1     N 2598   0.613   2.081  13.246 -0.1012 -0.1752 -0.1210
  170MPD1    H5 2599   0.689   2.044  13.189 -0.5223  0.6680 -1.2275
  170MPD1    N1 2600   0.337   1.991  12.853 -0.0253  0.5717 -0.3090
  170MPD1    H6 2601   0.271   2.040  12.793  0.2154  0.8424 -0.3556
  170MPD1    H7 2602   0.429   2.006  12.811  0.6751  0.9837  1.3761
  171MPD1     C 2603   4.533   3.043  15.456  0.6353 -0.0529  0.0700
  171MPD1    C1 2604   4.483   2.943  15.377 -0.9506  0.3969  0.4196
  171MPD1    C2 2605   4.490   2.816  15.426  0.3343 -0.3971 -0.7254
  171MPD1    C3 2606   4.546   2.786  15.545 -0.8484  0.0145  0.2567
  171MPD1    C4 2607   4.598   2.889  15.624 -1.2503  0.7503  0.0665
  171MPD1    C5 2608   4.592   3.016  15.578 -0.0471 -0.1965 -0.2418
  171MPD1     H 2609   4.439   2.741  15.366  0.6872 -1.1461 -0.0915
  171MPD1    H1 2610   4.666   2.858  15.703  0.1362 -2.1643 -2.2807
  171MPD1    H2 2611   4.516   3.144  15.421  1.1563 -0.0609 -0.2012
  171MPD1    H3 2612   4.632   3.100  15.635 -0.1705  1.2269 -2.2460
  171MPD1     N 2613   4.565   2.658  15.595  0.5085  0.1578 -0.0127
  171MPD1    H5 2614   4.603   2.652  15.689 -0.4551  0.4552  0.3995
  171MPD1    N1 2615   4.402   2.970  15.262 -0.5337  0.6717 -0.2548
  171MPD1    H6 2616   4.417   3.062  15.222  0.1961  0.3884 -0.6513
  171MPD1    H7 2617   4.419   2.897  15.193  0.3563 -1.4503  2.2035
  172MPD1     C 2618   2.824   1.872   0.209 -0.4111 -0.0016  0.4341
  172MPD1    C1 2619   2.951   1.886   0.256 -0.0096  0.1728 -0.3207
  172MPD1    C2 2620   3.056   1.911   0.165 -0.5830  0.9621 -0.4021
  172MPD1    C3 2621   3.020   1.921   0.031 -0.3472 -0.4371 -0.0708
  172MPD1    C4 2622   2.888   1.904  17.687  0.3292  0.8080 -0.0252
  172MPD1    C5 2623   2.787   1.882   0.075  0.0667 -0.1346  0.4973
  172MPD1     H 2624   3.158   1.930   0.199 -0.0064  0.7624 -2.0449
  172MPD1    H1 2625   2.855   1.927  17.587 -0.2724  3.0711  0.7069
  172MPD1    H2 2626   2.741   1.848   0.275  0.8907 -2.4053  1.1985
  172MPD1    H3 2627   2.687   1.875   0.035 -0.6529  3.5566  1.7026
  172MPD1     N 2628   3.120   1.933  17.635 -0.8838  0.1151 -0.4302
  172MPD1    H5 2629   3.086   1.951  17.541 -0.3212 -1.9447 -1.0380
  172MPD1    N1 2630   2.964   1.899   0.396 -0.2252  0.2948  0.1503
  172MPD1    H6 2631   3.061   1.888   0.425  0.6065  0.8805 -2.3653
  172MPD1    H7 2632   2.900   1.837   0.445  0.5197 -0.2855  0.3888
  173MPD1     C 2633   0.113   2.090  14.460  0.1468  0.0943  0.7175
  173MPD1    C1 2634   0.159   1.983  14.388  0.3747 -0.1552  0.0896
  173MPD1    C2 2635   0.128   1.852  14.427 -0.2678  0.0810  0.4020
  173MPD1    C3 2636   0.066   1.837  14.546 -0.1437  0.2723  0.0901
  173MPD1    C4 2637   0.020   1.943  14.623 -0.2721  0.7254  0.7915
  173MPD1    C5 2638   0.034   2.067  14.570 -0.0301 -0.0080 -0.0876
  173MPD1     H 2639   0.171   1.765  14.379 -0.7384 -1.4624  2.7639
  173MPD1    H1 2640   4.691   1.933  14.717 -0.6220 -1.4748  0.3647
  173MPD1    H2 2641   0.122   2.194  14.433  1.8996 -0.2741 -0.0935
  173MPD1    H3 2642   4.711   2.152  14.618 -3.1805 -2.1111  0.5812
  173MPD1     N 2643   0.029   1.708  14.577  0.6867  0.3188 -0.0159
  173MPD1    H5 2644   0.067   1.635  14.518 -1.2195  0.4976 -1.4828
  173MPD1    N1 2645   0.247   2.012  14.281 -0.7190  0.7588 -0.1764
  173MPD1    H6 2646   0.252   2.111  14.255  3.3716  0.9749  1.4790
  173MPD1    H7 2647   0.237   1.947  14.204 -0.1809  0.6613 -0.1612
  174MPD1     C 2648   0.216   1.128  14.040  0.2863  0.5804  0.0678
  174MPD1    C1 2649   0.183   1.045  14.145 -0.1154 -0.2175 -0.0592
  174MPD1    C2 2650   0.119   1.110  14.261  0.3670  0.9587  0.5180
  174MPD1    C3 2651   0.082   1.241  14.269 -0.0528 -0.2567  0.4763
  174MPD1    C4 2652   0.114   1.319  14.156  0.5634 -0.0998  0.9093
  174MPD1    C5 2653   0.178   1.262  14.049  0.1048 -0.7402 -0.1099
  174MPD1     H 2654   0.093   1.046  14.344 -0.0953  0.4363 -0.0249
  174MPD1    H1 2655   0.086   1.423  14.149  1.5661  0.0835 -0.2248
  174MPD1    H2 2656   0.284   1.100  13.960 -0.7704 -1.8984  0.0374
  174MPD1    H3 2657   0.199   1.334  13.971 -0.7195  0.2544  0.5797
  174MPD1     N 2658   0.024   1.297  14.381 -0.2776 -0.4557  0.1657
  174MPD1    H5 2659   0.007   1.396  14.370  1.6270  0.0721  2.0833
  174MPD1    N1 2660   0.225   0.911  14.150  0.1069 -0.6146 -1.4482
  174MPD1    H6 2661   0.199   0.868  14.062 -1.9815  0.9086 -1.6015
  174MPD1    H7 2662   0.186   0.859  14.229  2.2428 -0.3424 -0.2183
  175MPD1     C 2663   3.398   2.459  15.376  0.2718 -0.3482  0.1375
  175MPD1    C1 2664   3.506   2.478  15.452 -0.2171  0.5074  0.2725
  175MPD1    C2 2665   3.477   2.492  15.592 -0.0301  0.6299 -0.0748
  175MPD1    C3 2666   3.350   2.486  15.646  0.6000 -0.2134 -0.4296
  175MPD1    C4 2667   3.247   2.474  15.552 -0.1410  0.0187 -0.4851
  175MPD1    C5 2668   3.274   2.463  15.420  0.0909 -0.2342  0.1115
  175MPD1     H 2669   3.555   2.511  15.665 -0.5149  0.2123  0.5580
  175MPD1    H1 2670   3.143   2.458  15.579 -0.6947  1.8468 -1.5232
  175MPD1    H2 2671   3.415   2.428  15.273  1.0500  0.6441 -0.0346
  175MPD1    H3 2672   3.197   2.441  15.347 -0.3097 -0.5489  0.6279
  175MPD1     N 2673   3.312   2.492  15.785  0.2834  0.3572  0.3392
  175MPD1    H5 2674   3.214   2.485  15.810  0.4406 -2.3064  0.1770
  175MPD1    N1 2675   3.636   2.490  15.403  0.2855  0.4658 -0.3216
  175MPD1    H6 2676   3.639   2.555  15.325 -0.0796  0.0707 -0.6708
  175MPD1    H7 2677   3.703   2.518  15.474  1.2042 -0.4966 -0.8022
  176MPD1     C 2678   0.815   4.319  15.584 -0.2803  0.8559 -0.1388
  176MPD1    C1 2679   0.718   4.242  15.642  0.7758  0.4593  0.2212
  176MPD1    C2 2680   0.655   4.291  15.752 -0.1531  0.0914 -0.2899
  176MPD1    C3 2681   0.698   4.411  15.817  0.1465 -0.1230  0.1299
  176MPD1    C4 2682   0.809   4.467  15.766 -0.0023  0.0539 -0.2118
  176MPD1    C5 2683   0.874   4.422  15.654  0.2792 -0.7333 -0.2035
  176MPD1     H 2684   0.570   4.235  15.790  0.1349 -1.3984 -1.8725
  176MPD1    H1 2685   0.846   4.555  15.819  0.1170  0.3440 -0.7773
  176MPD1    H2 2686   0.873   4.281  15.501 -3.4637  0.8927 -2.3711
  176MPD1    H3 2687   0.957   4.477  15.610 -0.5481  0.4516 -0.2655
  176MPD1     N 2688   0.620   4.465  15.916  0.0052  0.4853  0.2095
  176MPD1    H5 2689   0.538   4.412  15.945 -1.2498  1.3555 -1.7357
  176MPD1    N1 2690   0.670   4.131  15.566 -0.6886 -0.2301  0.2786
  176MPD1    H6 2691   0.739   4.085  15.508 -1.1231  0.8617 -1.0949
  176MPD1    H7 2692   0.625   4.066  15.630  0.2539 -0.3136  0.8700
  177MPD1     C 2693   4.023   4.331  10.211  0.2986  0.2449 -0.3031
  177MPD1    C1 2694   4.012   4.284  10.080 -0.1203 -0.1673 -0.6099
  177MPD1    C2 2695   3.929   4.364   9.997 -0.3400  0.3156 -0.0265
  177MPD1    C3 2696   3.857   4.472  10.040  0.1351 -0.1727 -0.5860
  177MPD1    C4 2697   3.868   4.513  10.171  0.3193 -0.4508 -0.4095
  177MPD1    C5 2698   3.948   4.440  10.256  0.5358 -0.2350 -0.1136
  177MPD1     H 2699   3.919   4.340   9.892  0.2372 -1.3285  0.3027
  177MPD1    H1 2700   3.803   4.591  10.210  1.6075 -0.2027  1.2768
  177MPD1    H2 2701   4.073   4.275  10.290  2.0003  2.0871 -0.0943
  177MPD1    H3 2702   3.943   4.472  10.359 -1.6168 -0.7583 -0.0543
  177MPD1     N 2703   3.777   4.541   9.942  0.3120  0.2261 -0.1589
  177MPD1    H5 2704   3.773   4.496   9.851  0.1747 -2.4512  1.1591
  177MPD1    N1 2705   4.057   4.160  10.037  0.0910  0.2121 -0.2748
  177MPD1    H6 2706   4.074   4.149   9.937  1.9480 -1.2437  0.2138
  177MPD1    H7 2707   4.145   4.140  10.084  0.2094  0.6149 -0.3196
  178MPD1     C 2708   1.057   0.714   0.324 -0.1118 -0.7852 -0.1022
  178MPD1    C1 2709   1.009   0.601   0.261  0.0052 -0.0979 -0.1657
  178MPD1    C2 2710   0.995   0.604   0.126  0.3235 -0.9165  0.3455
  178MPD1    C3 2711   0.988   0.727   0.058  0.1871 -0.1695 -0.1438
  178MPD1    C4 2712   1.017   0.844   0.130  0.2909  0.7786 -0.2409
  178MPD1    C5 2713   1.055   0.834   0.256 -0.2127  0.2744  0.6819
  178MPD1     H 2714   0.974   0.514   0.069 -2.7619  1.3388 -2.0888
  178MPD1    H1 2715   1.030   0.939   0.079 -0.9175  1.6800  1.1268
  178MPD1    H2 2716   1.077   0.720   0.430  2.2778  1.2060 -0.6376
  178MPD1    H3 2717   1.084   0.920   0.314  0.9012  0.5258 -0.2452
  178MPD1     N 2718   0.976   0.743  17.616  1.0129 -0.1247  0.2712
  178MPD1    H5 2719   0.970   0.840  17.586 -1.5556 -0.8667 -1.5420
  178MPD1    N1 2720   1.012   0.476   0.335  0.4793 -0.1746 -0.1483
  178MPD1    H6 2721   0.981   0.482   0.432 -0.4573 -2.9087 -0.2647
  178MPD1    H7 2722   0.967   0.396   0.292 -0.9860  0.8606 -0.5515
  179MPD1     C 2723   0.056   3.697  16.647 -0.2335  0.0422 -1.3033
  179MPD1    C1 2724   0.030   3.654  16.514 -0.2973 -0.1835  0.6582
  179MPD1    C2 2725   0.132   3.612  16.437 -0.3531 -0.0165 -0.0947
  179MPD1    C3 2726   0.254   3.581  16.495 -0.0231 -0.2531  0.1706
  179MPD1    C4 2727   0.279   3.625  16.623  0.3322 -0.0060  0.1030
  179MPD1    C5 2728   0.179   3.677  16.699 -0.6794  0.3793 -0.5018
  179MPD1     H 2729   0.122   3.589  16.331  1.3292 -0.6490 -0.1228
  179MPD1    H1 2730   0.371   3.598  16.673  0.4418 -0.9086 -0.5949
  179MPD1    H2 2731   4.709   3.749  16.711  0.8579 -0.2131  0.1002
  179MPD1    H3 2732   0.196   3.707  16.801 -4.0812  0.9385 -0.1144
  179MPD1     N 2733   0.357   3.506  16.431 -0.5306 -0.4099  0.0371
  179MPD1    H5 2734   0.438   3.481  16.487 -0.2306  1.7550  0.5718
  179MPD1    N1 2735   4.633   3.692  16.455  0.3002 -0.1746 -0.8320
  179MPD1    H6 2736   4.555   3.667  16.515  2.7472  0.2129  2.5467
  179MPD1    H7 2737   4.608   3.656  16.363 -0.0903 -1.4524 -0.2270
  180MPD1     C 2738   0.178   0.481  15.226 -0.5908  0.1262 -0.5856
  180MPD1    C1 2739   0.284   0.519  15.140  0.0922  0.5430  0.1475
  180MPD1    C2 2740   0.283   0.443  15.024 -0.0689 -0.9194  0.0875
  180MPD1    C3 2741   0.182   0.357  14.986  0.3714  0.1316 -0.3611
  180MPD1    C4 2742   0.080   0.326  15.071  0.0099 -0.0447  0.0622
  180MPD1    C5 2743   0.078   0.389  15.189 -0.0436  0.0073 -0.3703
  180MPD1     H 2744   0.352   0.462  14.943 -0.5650  2.5534  0.4783
  180MPD1    H1 2745   0.003   0.251  15.057  0.2947 -0.2983 -0.1524
  180MPD1    H2 2746   0.164   0.537  15.317  1.8469  0.3744 -0.3570
  180MPD1    H3 2747   0.002   0.363  15.261 -1.0615 -0.5548 -1.6377
  180MPD1     N 2748   0.201   0.290  14.866  0.3851 -0.1497 -0.1976
  180MPD1    H5 2749   0.274   0.315  14.800 -0.6046  0.1787 -1.1676
  180MPD1    N1 2750   0.388   0.602  15.171 -0.2683 -0.2167  0.3090
  180MPD1    H6 2751   0.444   0.629  15.091 -2.1036  0.9770 -0.5876
  180MPD1    H7 2752   0.387   0.670  15.246 -0.3440 -0.4333  0.5036
  181MPD1     C 2753   1.451   2.232   8.885 -0.6235  0.2128  0.5231
  181MPD1    C1 2754   1.488   2.113   8.935  0.2212 -0.4362 -0.1808
  181MPD1    C2 2755   1.596   2.113   9.019 -0.5346  0.2274  0.6559
  181MPD1    C3 2756   1.664   2.223   9.064  0.7897  0.0373  0.4167
  181MPD1    C4 2757   1.609   2.346   9.022  0.2898 -1.0513  0.2451
  181MPD1    C5 2758   1.501   2.348   8.941  0.2201  0.1309 -0.4820
  181MPD1     H 2759   1.626   2.014   9.049  1.4901  0.3870 -0.8445
  181MPD1    H1 2760   1.648   2.442   9.051 -1.2928 -0.5666  0.7940
  181MPD1    H2 2761   1.375   2.240   8.808  1.2470 -1.7817 -1.5325
  181MPD1    H3 2762   1.470   2.442   8.896 -1.6700 -0.1397  0.2622
  181MPD1     N 2763   1.778   2.216   9.143  0.4670  0.7315 -0.0404
  181MPD1    H5 2764   1.809   2.304   9.182 -3.3754  1.5146  1.1803
  181MPD1    N1 2765   1.451   1.994   8.865  0.1233  0.0008 -0.1706
  181MPD1    H6 2766   1.357   1.989   8.825  0.5578 -0.2566 -1.1440
  181MPD1    H7 2767   1.462   1.911   8.923  1.7769 -0.1009 -0.6345
  182MPD1     C 2768   3.640   1.238   0.607  0.3108  0.3078  0.1130
  182MPD1    C1 2769   3.608   1.331   0.700 -0.1245  0.1072  0.2364
  182MPD1    C2 2770   3.496   1.323   0.778 -0.2735  0.2110  0.0193
  182MPD1    C3 2771   3.404   1.236   0.734  0.6722  0.3839  0.0001
  182MPD1    C4 2772   3.423   1.158   0.624 -0.0230 -0.0903  0.2654
  182MPD1    C5 2773   3.549   1.151   0.568  0.1385  0.2421  0.4176
  182MPD1     H 2774   3.489   1.389   0.864 -1.5241  0.4227 -0.2541
  182MPD1    H1 2775   3.358   1.074   0.600  0.8199 -0.2993 -1.3045
  182MPD1    H2 2776   3.739   1.229   0.565  0.4648  1.6268  0.1909
  182MPD1    H3 2777   3.571   1.076   0.493  0.9042 -0.8387  1.7336
  182MPD1     N 2778   3.277   1.211   0.797 -0.2706  0.0628 -0.3463
  182MPD1    H5 2779   3.218   1.148   0.743  0.3857 -0.6518 -0.2377
  182MPD1    N1 2780   3.702   1.431   0.740 -0.0140 -0.1382  0.3267
  182MPD1    H6 2781   3.758   1.458   0.659 -0.6706 -1.7166 -0.6626
  182MPD1    H7 2782   3.662   1.512   0.787 -1.3063 -0.8827  0.5061
  183MPD1     C 2783   4.381   1.660   9.511 -0.0140 -0.1346 -0.0204
  183MPD1    C1 2784   4.324   1.585   9.612 -0.4703 -0.2277 -0.5349
  183MPD1    C2 2785   4.185   1.597   9.622  0.2206  0.5537  1.1542
  183MPD1    C3 2786   4.104   1.687   9.549  0.7910 -0.0779  0.1079
  183MPD1    C4 2787   4.163   1.756   9.442  0.3600 -0.1355  0.0648
  183MPD1    C5 2788   4.302   1.744   9.428 -0.0779  0.1526  0.3495
  183MPD1     H 2789   4.142   1.533   9.698 -0.4697  1.2324  1.3329
  183MPD1    H1 2790   4.115   1.831   9.381 -0.5563 -0.1306  0.7895
  183MPD1    H2 2791   4.487   1.661   9.486 -0.7640  0.8835 -3.1501
  183MPD1    H3 2792   4.359   1.806   9.360  2.0641 -0.2904  1.7690
  183MPD1     N 2793   3.970   1.697   9.572  0.2359  0.3309  0.1895
  183MPD1    H5 2794   3.934   1.644   9.650  0.6628 -1.6038 -0.9327
  183MPD1    N1 2795   4.394   1.496   9.687 -0.2073  0.2948 -0.5585
  183MPD1    H6 2796   4.356   1.497   9.781  5.3335 -3.1734  1.7378
  183MPD1    H7 2797   4.493   1.521   9.682 -0.5537  1.3498 -2.5388
  184MPD1     C 2798   3.576   3.769  10.079 -0.7186 -0.5426  1.1165
  184MPD1    C1 2799   3.564   3.908  10.094 -0.0031  0.6360 -0.4942
  184MPD1    C2 2800   3.484   3.979   9.998 -0.0619 -0.2901  0.2986
  184MPD1    C3 2801   3.397   3.910   9.915 -0.2338 -0.6208 -0.4300
  184MPD1    C4 2802   3.399   3.773   9.911  0.3283  0.9851  0.1654
  184MPD1    C5 2803   3.492   3.705   9.987  0.9006 -0.1454  0.6005
  184MPD1     H 2804   3.484   4.087  10.002  2.8144 -0.3076  0.5210
  184MPD1    H1 2805   3.344   3.702   9.849 -0.0907  0.5232  1.0615
  184MPD1    H2 2806   3.640   3.705  10.139  2.1833  0.0816 -1.2772
  184MPD1    H3 2807   3.500   3.597   9.981  1.1765 -0.0807 -0.2759
  184MPD1     N 2808   3.312   3.973   9.818  0.1841 -0.3326 -0.1153
  184MPD1    H5 2809   3.268   3.907   9.755  0.9765 -2.0127  1.0873
  184MPD1    N1 2810   3.641   3.966  10.193  0.7885 -0.4464 -0.1031
  184MPD1    H6 2811   3.671   3.892  10.256  0.9507 -1.3401 -1.2202
  184MPD1    H7 2812   3.584   4.030  10.246  0.5047 -0.1643 -0.7485
  185MPD1     C 2813   2.595   3.616   9.577  0.2917 -0.0386  0.1168
  185MPD1    C1 2814   2.553   3.747   9.590 -0.7865  0.7969 -0.1933
  185MPD1    C2 2815   2.649   3.852   9.582 -0.5116 -0.4334  0.6023
  185MPD1    C3 2816   2.786   3.815   9.564 -0.0652  0.0351  0.1039
  185MPD1    C4 2817   2.824   3.683   9.555  0.2101 -0.0267 -0.0669
  185MPD1    C5 2818   2.731   3.584   9.565  0.0739 -0.6434 -0.0437
  185MPD1     H 2819   2.628   3.957   9.591 -2.0978 -0.8342  1.5833
  185MPD1    H1 2820   2.926   3.656   9.530  0.1062  0.0659 -0.6016
  185MPD1    H2 2821   2.519   3.539   9.574  0.9089 -0.6447  0.0453
  185MPD1    H3 2822   2.748   3.478   9.557  0.7309 -0.5581  0.2478
  185MPD1     N 2823   2.891   3.908   9.548 -0.0538  0.3171  0.3087
  185MPD1    H5 2824   2.985   3.873   9.561  0.2096 -0.2431 -3.1716
  185MPD1    N1 2825   2.420   3.779   9.568  0.4710  0.1891  0.4578
  185MPD1    H6 2826   2.395   3.873   9.596 -0.4263  0.6756 -1.9032
  185MPD1    H7 2827   2.353   3.717   9.615 -1.6353  0.9254 -1.5482
  186MPD1     C 2828   0.958   3.958  15.270 -0.6947  0.0061 -0.3623
  186MPD1    C1 2829   0.888   3.855  15.319 -0.1751 -0.1733 -0.0432
  186MPD1    C2 2830   0.879   3.845  15.459  0.2151 -0.3486  0.2563
  186MPD1    C3 2831   0.950   3.933  15.543  0.7341 -0.4536  0.3559
  186MPD1    C4 2832   1.027   4.032  15.491 -0.1585 -0.1045  0.4873
  186MPD1    C5 2833   1.022   4.046  15.350  0.2070 -0.2754 -0.1893
  186MPD1     H 2834   0.833   3.753  15.493 -2.6803  1.6612  1.8334
  186MPD1    H1 2835   1.069   4.106  15.558 -1.1164  1.6110 -0.8039
  186MPD1    H2 2836   0.971   3.966  15.163 -0.3611  2.1863 -0.1613
  186MPD1    H3 2837   1.069   4.131  15.301 -0.3575 -1.4927 -2.8741
  186MPD1     N 2838   0.933   3.929  15.684  0.3905  0.0100  0.0707
  186MPD1    H5 2839   0.996   3.980  15.745  1.5571 -1.3897  0.0505
  186MPD1    N1 2840   0.823   3.765  15.233  0.0629  0.1590 -0.1188
  186MPD1    H6 2841   0.829   3.668  15.262  1.2311  0.2357 -0.1051
  186MPD1    H7 2842   0.855   3.772  15.137 -0.2233 -1.5501 -0.3454
  187MPD1     C 2843   0.301   0.672  17.167  0.1637  0.2734 -0.0721
  187MPD1    C1 2844   0.379   0.758  17.089  0.2787  0.3187 -0.2911
  187MPD1    C2 2845   0.344   0.895  17.079 -0.0706  0.4323  0.0190
  187MPD1    C3 2846   0.235   0.942  17.143 -0.5100 -0.4660 -0.3349
  187MPD1    C4 2847   0.151   0.864  17.208  0.2149  0.4107  0.0494
  187MPD1    C5 2848   0.198   0.732  17.229 -0.3465  1.5439 -0.2215
  187MPD1     H 2849   0.396   0.963  17.012  2.1302 -1.4511 -0.1341
  187MPD1    H1 2850   0.060   0.901  17.254 -2.2120 -1.1952 -3.5217
  187MPD1    H2 2851   0.342   0.576  17.197  1.4881  0.2775 -1.8585
  187MPD1    H3 2852   0.149   0.680  17.310  0.8708  2.9269  1.4084
  187MPD1     N 2853   0.187   1.074  17.131 -0.4932 -0.1067  0.3368
  187MPD1    H5 2854   0.093   1.078  17.169  0.2153  0.1072  2.0323
  187MPD1    N1 2855   0.492   0.712  17.028 -0.3496  0.4281  0.3609
  187MPD1    H6 2856   0.523   0.617  17.047 -0.1745  0.4546  0.2109
  187MPD1    H7 2857   0.568   0.779  17.020 -2.1023  2.4525  0.4703
  188MPD1     C 2858   0.554   1.002   9.988  0.1658 -0.7449  0.3076
  188MPD1    C1 2859   0.429   0.975   9.956 -0.2523 -0.1833  0.9537
  188MPD1    C2 2860   0.406   0.862   9.876  0.5096  0.1760  0.0736
  188MPD1    C3 2861   0.505   0.769   9.855  0.6404  0.1426 -0.4296
  188MPD1    C4 2862   0.637   0.798   9.895  0.9284 -0.2284  0.4608
  188MPD1    C5 2863   0.657   0.916   9.963 -0.3086 -0.1489  0.4028
  188MPD1     H 2864   0.304   0.832   9.854 -0.7060 -0.0218  5.8318
  188MPD1    H1 2865   0.713   0.721   9.892  1.1529 -0.0196  0.8621
  188MPD1    H2 2866   0.574   1.098  10.034  2.3022 -1.5513  1.0742
  188MPD1    H3 2867   0.758   0.946   9.988 -0.5905 -0.9653  2.5532
  188MPD1     N 2868   0.486   0.638   9.806 -0.2037 -0.0419 -0.8574
  188MPD1    H5 2869   0.563   0.572   9.809 -0.0959 -0.0000 -2.6524
  188MPD1    N1 2870   0.330   1.078   9.980  0.0202 -0.4869 -0.3213
  188MPD1    H6 2871   0.350   1.138  10.060 -0.9009  0.7288 -0.9895
  188MPD1    H7 2872   0.238   1.038   9.997 -0.8222  1.4779 -0.2141
  189MPD1     C 2873   1.782   1.650   0.185 -0.0566  0.2373 -0.5259
  189MPD1    C1 2874   1.679   1.584   0.232  0.9052 -0.0625  0.0718
  189MPD1    C2 2875   1.558   1.650   0.237 -0.3833 -0.0572 -0.5192
  189MPD1    C3 2876   1.542   1.783   0.196 -0.1742  0.3305 -0.4301
  189MPD1    C4 2877   1.656   1.849   0.149  0.1255  0.2994 -0.5364
  189MPD1    C5 2878   1.775   1.785   0.146 -0.0954  0.6772 -0.2310
  189MPD1     H 2879   1.468   1.596   0.265 -0.1740 -0.6539 -0.9654
  189MPD1    H1 2880   1.656   1.953   0.119 -1.3140  0.9033  1.5204
  189MPD1    H2 2881   1.882   1.609   0.191  0.1452  1.0745  1.8750
  189MPD1    H3 2882   1.864   1.831   0.105  1.4661 -2.6586 -0.5496
  189MPD1     N 2883   1.409   1.839   0.195  0.0487  0.4784  0.2052
  189MPD1    H5 2884   1.339   1.781   0.241 -1.0197  1.0943 -0.6578
  189MPD1    N1 2885   1.695   1.459   0.279  0.5950 -0.8629  0.0320
  189MPD1    H6 2886   1.760   1.403   0.224 -0.2047 -1.5377 -0.2173
  189MPD1    H7 2887   1.609   1.405   0.282  0.1847 -0.2671 -0.9483
  190MPD1     C 2888   0.136   4.504  15.862 -0.2866 -0.0008 -0.0515
  190MPD1    C1 2889   0.135   4.641  15.865  0.3383  0.2111 -1.0869
  190MPD1    C2 2890   0.240   4.708  15.818  0.3618  0.4465  0.0239
  190MPD1    C3 2891   0.339   4.648  15.741  0.3206 -0.2503 -0.6146
  190MPD1    C4 2892   0.339   4.510  15.738 -0.3411 -0.0521  0.0705
  190MPD1    C5 2893   0.239   4.436  15.792 -0.8545 -0.1724 -0.2409
  190MPD1     H 2894   0.238   0.092  15.830  0.7436  0.5344 -0.7063
  190MPD1    H1 2895   0.425   4.456  15.702 -0.7346 -0.1167 -0.7785
  190MPD1    H2 2896   0.067   4.445  15.922  0.8942 -0.1657  1.1511
  190MPD1    H3 2897   0.240   4.328  15.792  0.7569 -0.1433  0.2125
  190MPD1     N 2898   0.446   0.002  15.691 -0.1706 -0.2029 -0.3149
  190MPD1    H5 2899   0.452   0.100  15.716 -0.6643 -0.4138  0.6400
  190MPD1    N1 2900   0.047   4.702  15.953  0.1054  0.4523  0.6936
  190MPD1    H6 2901   0.018   0.072  15.926 -0.0655  0.7431  1.9255
  190MPD1    H7 2902   4.685   4.649  15.968  1.1301 -1.6131 -0.7209
  191MPD1     C 2903   0.358   1.312  12.300 -0.5400 -0.8870 -0.4711
  191MPD1    C1 2904   0.225   1.345  12.267 -0.0435  0.3626 -0.4476
  191MPD1    C2 2905   0.198   1.473  12.225  0.2986  0.2814 -0.0880
  191MPD1    C3 2906   0.294   1.577  12.223  0.5924 -0.6641  0.3733
  191MPD1    C4 2907   0.418   1.549  12.257 -0.3321  0.2795 -0.4217
  191MPD1    C5 2908   0.446   1.414  12.289 -0.2167  0.4441  0.3078
  191MPD1     H 2909   0.098   1.504  12.194  0.8695  0.7283 -1.5161
  191MPD1    H1 2910   0.499   1.619  12.243 -1.5272  1.5926 -0.8099
  191MPD1    H2 2911   0.394   1.213  12.323  3.7653  0.9593  0.7459
  191MPD1    H3 2912   0.548   1.388  12.315  0.7087  0.8984 -2.7641
  191MPD1     N 2913   0.254   1.707  12.181  0.6576  0.8193 -0.2118
  191MPD1    H5 2914   0.154   1.712  12.168  0.9271 -0.0842 -2.5803
  191MPD1    N1 2915   0.127   1.248  12.255  0.6480  0.5976 -0.4596
  191MPD1    H6 2916   0.153   1.173  12.319 -1.8237  0.7454  0.6984
  191MPD1    H7 2917   0.035   1.280  12.283 -0.1384 -0.8674 -1.3776
  192MPD1     C 2918   4.286   2.054  12.493  0.7741 -0.3157  0.1062
  192MPD1    C1 2919   4.305   2.132  12.379  0.7239  0.2075 -0.7290
  192MPD1    C2 2920   4.429   2.138  12.320  0.5539 -0.7706 -0.2853
  192MPD1    C3 2921   4.535   2.068  12.379 -0.5410 -0.6163  1.1059
  192MPD1    C4 2922   4.515   1.993  12.492  0.4460  0.1299 -0.5317
  192MPD1    C5 2923   4.387   1.975  12.543 -0.0356 -0.8855 -0.6873
  192MPD1     H 2924   4.441   2.187  12.224 -1.1710 -0.0427 -0.1255
  192MPD1    H1 2925   4.592   1.929  12.533  0.3746  1.8483  2.2782
  192MPD1    H2 2926   4.187   2.042  12.537  1.3489  0.6504  1.6498
  192MPD1    H3 2927   4.356   1.904  12.619  1.2039 -3.3258 -2.4839
  192MPD1     N 2928   4.664   2.060  12.325  0.1654 -0.2957 -1.0856
  192MPD1    H5 2929   0.007   1.991  12.358 -0.0206  0.5822  1.1484
  192MPD1    N1 2930   4.190   2.189  12.318 -0.0256  0.0541 -0.3757
  192MPD1    H6 2931   4.222   2.279  12.282  0.7652 -0.1515 -0.1853
  192MPD1    H7 2932   4.128   2.228  12.389  3.3779  0.1192  2.5712
  193MPD1     C 2933   4.326   2.051  15.988 -0.3618  0.5025 -0.6007
  193MPD1    C1 2934   4.312   2.180  16.030 -0.3037 -0.1878 -0.3305
  193MPD1    C2 2935   4.406   2.230  16.125  0.2073  0.5341 -0.4144
  193MPD1    C3 2936   4.529   2.174  16.143 -0.1437  0.1566  0.2245
  193MPD1    C4 2937   4.554   2.053  16.075  0.6270 -0.5059 -0.0317
  193MPD1    C5 2938   4.452   1.998  16.008  0.3245 -0.0017  0.2259
  193MPD1     H 2939   4.387   2.325  16.175  2.4365 -0.5447  2.5117
  193MPD1    H1 2940   4.647   1.998  16.082  1.3153  0.5228 -1.0256
  193MPD1    H2 2941   4.260   1.989  15.928  1.4437  0.0883 -2.1250
  193MPD1    H3 2942   4.473   1.899  15.968 -0.5337  0.7203 -2.0170
  193MPD1     N 2943   4.627   2.223  16.239  0.3125 -0.7309 -0.3671
  193MPD1    H5 2944   4.705   2.166  16.271 -0.9804 -1.5341  1.3629
  193MPD1    N1 2945   4.182   2.236  16.022 -0.0978 -0.0262  0.4339
  193MPD1    H6 2946   4.189   2.333  16.051  0.8907  0.3028 -0.9011
  193MPD1    H7 2947   4.153   2.234  15.924  1.0681  1.8973  0.0500
  194MPD1     C 2948   3.227   4.558  16.758 -0.9109  0.8170  0.7600
  194MPD1    C1 2949   3.130   4.554  16.661  0.5036 -0.0588  0.1702
  194MPD1    C2 2950   3.057   4.442  16.646 -0.6566  0.4095 -0.1870
  194MPD1    C3 2951   3.075   4.320  16.714 -0.1137  0.5032  0.2905
  194MPD1    C4 2952   3.185   4.327  16.799 -0.0735  0.0430 -0.3503
  194MPD1    C5 2953   3.258   4.438  16.819  0.6677 -0.2985 -0.9823
  194MPD1     H 2954   2.978   4.443  16.572  0.0025  0.5425 -0.8811
  194MPD1    H1 2955   3.207   4.235  16.852 -2.4546 -0.1524  0.3023
  194MPD1    H2 2956   3.288   4.645  16.778  0.8703 -0.2321 -0.1994
  194MPD1    H3 2957   3.334   4.446  16.895 -0.3127  1.1819 -0.1590
  194MPD1     N 2958   2.998   4.201  16.694 -0.2345  0.6694  0.2589
  194MPD1    H5 2959   3.024   4.120  16.748 -2.1966  0.6422  1.1608
  194MPD1    N1 2960   3.095   4.674  16.602 -0.8016 -0.0052  0.6786
  194MPD1    H6 2961   3.039   4.669  16.517 -0.8885 -0.9389  0.7979
  194MPD1    H7 2962   3.178   0.007  16.587  0.0731 -1.0619  1.4947
  195MPD1     C 2963   0.574   0.449  17.459  0.1632 -0.7252 -0.1322
  195MPD1    C1 2964   0.587   0.333  17.391  0.5523 -0.1954 -0.5017
  195MPD1    C2 2965   0.477   0.275  17.326 -0.0946  0.2217 -0.3012
  195MPD1    C3 2966   0.352   0.328  17.348  0.0478  0.0063 -0.1601
  195MPD1    C4 2967   0.337   0.439  17.432  0.4451  0.4439  0.0573
  195MPD1    C5 2968   0.448   0.508  17.479  0.2957  0.3332  0.8300
  195MPD1     H 2969   0.489   0.192  17.258  3.5115  0.6002 -0.0842
  195MPD1    H1 2970   0.239   0.483  17.447  0.2397  0.4917 -1.4550
  195MPD1    H2 2971   0.662   0.493  17.506 -3.2293  3.9011  1.8157
  195MPD1    H3 2972   0.435   0.592  17.546  2.4122 -0.2050  1.9201
  195MPD1     N 2973   0.235   0.270  17.290  0.0088  0.2050  0.4050
  195MPD1    H5 2974   0.152   0.327  17.297  0.0790  0.0189  2.5309
  195MPD1    N1 2975   0.716   0.283  17.372 -0.4820 -0.8663 -0.7394
  195MPD1    H6 2976   0.724   0.185  17.346 -0.3438 -0.0031 -3.8772
  195MPD1    H7 2977   0.781   0.317  17.442 -1.3030 -1.3699  0.2743
  196MPD1     C 2978   4.510   2.123   0.011 -0.4841  0.0841  0.3121
  196MPD1    C1 2979   4.532   1.987   0.001  0.6347  0.2829 -0.1682
  196MPD1    C2 2980   4.444   1.897   0.056  0.0132  0.2313  0.1873
  196MPD1    C3 2981   4.343   1.940   0.141  0.3487  0.1898  0.0763
  196MPD1    C4 2982   4.329   2.075   0.157 -0.3889 -0.4804 -0.3742
  196MPD1    C5 2983   4.412   2.166   0.095 -0.5372  0.1256 -0.3153
  196MPD1     H 2984   4.467   1.791   0.054  0.6718  0.4164 -2.8907
  196MPD1    H1 2985   4.260   2.111   0.232  1.0468 -0.4121  0.9168
  196MPD1    H2 2986   4.559   2.197  17.647  0.2945 -0.8651 -0.2243
  196MPD1    H3 2987   4.405   2.274   0.107 -0.8722 -0.1601  2.0383
  196MPD1     N 2988   4.257   1.865   0.215 -0.2328 -0.1962  0.6122
  196MPD1    H5 2989   4.204   1.914   0.286  1.2520 -0.4790  1.9152
  196MPD1    N1 2990   4.627   1.947  17.603 -0.4736  0.4850  0.1115
  196MPD1    H6 2991   4.702   2.015  17.594  1.3695 -1.5748  0.1054
  196MPD1    H7 2992   4.669   1.861  17.637  0.8668  0.0414 -2.7028
  197MPD1     C 2993   3.044   2.848   0.014 -0.2395 -0.3650 -0.0230
  197MPD1    C1 2994   3.028   2.982  17.689 -0.0804 -0.5011 -0.1051
  197MPD1    C2 2995   3.113   3.048  17.600 -0.5303 -0.1555  0.2341
  197MPD1    C3 2996   3.225   2.991  17.541  0.5216 -0.7507  0.2998
  197MPD1    C4 2997   3.243   2.856  17.579  0.1660  0.0939  0.1433
  197MPD1    C5 2998   3.160   2.795  17.667 -0.1148 -0.1598  0.1799
  197MPD1     H 2999   3.077   3.148  17.578 -1.4972 -1.0098 -2.0811
  197MPD1    H1 3000   3.317   2.789  17.536 -0.6771  0.2487 -1.5532
  197MPD1    H2 3001   2.977   2.787   0.073 -0.0850 -0.9074 -0.4094
  197MPD1    H3 3002   3.168   2.689  17.690 -0.2941 -0.5409 -1.5091
  197MPD1     N 3003   3.310   3.055  17.449 -0.1025 -0.2067  0.5607
  197MPD1    H5 3004   3.395   3.011  17.415  0.0535  0.9658 -0.5538
  197MPD1    N1 3005   2.935   3.067   0.069  0.1127  0.0127 -0.2995
  197MPD1    H6 3006   2.898   3.144   0.013 -1.1680  1.0003  1.8807
  197MPD1    H7 3007   2.863   3.020   0.123  3.0435 -2.1827  1.6733
  198MPD1     C 3008   0.282   1.883  15.432 -0.1090  0.0276  0.0935
  198MPD1    C1 3009   0.325   1.796  15.535 -0.1742 -0.0258 -0.0583
  198MPD1    C2 3010   0.402   1.685  15.511  0.5357 -0.2467 -0.6453
  198MPD1    C3 3011   0.439   1.654  15.380  0.2587 -0.1062  0.8109
  198MPD1    C4 3012   0.399   1.743  15.280  0.4543  0.1963 -0.2285
  198MPD1    C5 3013   0.334   1.860  15.307 -0.9379 -0.3793  0.1411
  198MPD1     H 3014   0.436   1.620  15.590 -2.1835 -2.2057 -1.0797
  198MPD1    H1 3015   0.407   1.718  15.175  0.5571  1.6339 -0.5670
  198MPD1    H2 3016   0.225   1.972  15.453 -0.9167 -0.4600 -0.0324
  198MPD1    H3 3017   0.312   1.932  15.230 -1.9650 -1.1403 -0.2818
  198MPD1     N 3018   0.507   1.538  15.353 -0.2673 -0.1918 -0.4192
  198MPD1    H5 3019   0.534   1.477  15.430 -1.7640  0.6086  0.7370
  198MPD1    N1 3020   0.273   1.811  15.669 -0.2727  0.1082 -0.1306
  198MPD1    H6 3021   0.345   1.784  15.735 -0.3344 -2.2138 -1.0261
  198MPD1    H7 3022   0.244   1.906  15.693 -0.8490  0.0478 -0.5887
  199MPD1     C 3023   1.796   2.953  10.216 -0.4199  0.8160 -0.1246
  199MPD1    C1 3024   1.860   3.045  10.137  0.3623  0.4368  0.3614
  199MPD1    C2 3025   1.861   3.014  10.000 -0.1833 -0.3181 -0.5309
  199MPD1    C3 3026   1.800   2.900   9.949  0.2710  0.3577 -0.2189
  199MPD1    C4 3027   1.730   2.820  10.030  0.3864 -0.0261  0.4893
  199MPD1    C5 3028   1.721   2.850  10.163 -0.1187 -0.0493  0.2563
  199MPD1     H 3029   1.899   3.088   9.931 -1.0780 -0.1135 -0.8008
  199MPD1    H1 3030   1.659   2.750   9.989  2.3640 -1.4584 -0.4415
  199MPD1    H2 3031   1.783   2.969  10.322 -2.5811 -1.1020 -0.0928
  199MPD1    H3 3032   1.653   2.793  10.226 -0.0558 -1.9537 -1.3923
  199MPD1     N 3033   1.815   2.858   9.812  0.3871 -0.7874  0.4545
  199MPD1    H5 3034   1.772   2.766   9.806  0.8630 -0.8582 -2.2836
  199MPD1    N1 3035   1.940   3.141  10.191 -0.6027 -0.2127  0.1715
  199MPD1    H6 3036   1.942   3.234  10.150  0.0864 -0.1302  0.3936
  199MPD1    H7 3037   1.902   3.161  10.283  0.9435  0.0172  0.7593
  200MPD1     C 3038   1.315   2.634  14.802 -0.7345  0.4413 -0.6729
  200MPD1    C1 3039   1.291   2.647  14.669  0.1143 -0.1083 -0.8238
  200MPD1    C2 3040   1.393   2.672  14.577  0.0376  0.4442 -0.1783
  200MPD1    C3 3041   1.519   2.701  14.622  0.0311  0.4593 -0.2405
  200MPD1    C4 3042   1.546   2.686  14.751 -0.0930  0.7338  0.1297
  200MPD1    C5 3043   1.443   2.661  14.842 -0.5430  0.0433 -0.5979
  200MPD1     H 3044   1.380   2.694  14.472  0.0580  1.9523  0.1378
  200MPD1    H1 3045   1.646   2.689  14.794  0.3224  1.0797 -0.8653
  200MPD1    H2 3046   1.234   2.614  14.872 -0.1710  0.8966  0.1151
  200MPD1    H3 3047   1.481   2.636  14.940  1.2893  0.5356 -1.1805
  200MPD1     N 3048   1.614   2.731  14.522  0.2850  0.0543  0.0375
  200MPD1    H5 3049   1.579   2.723  14.427  1.5702 -1.2344 -0.3245
  200MPD1    N1 3050   1.162   2.668  14.617 -0.0434  0.7818 -0.0639
  200MPD1    H6 3051   1.091   2.612  14.663 -0.8772  0.6886 -1.4747
  200MPD1    H7 3052   1.162   2.635  14.520 -2.0115  0.9666 -0.1183
  201MPD1     C 3053   0.374   1.281  12.672 -0.4539 -0.1020 -0.7049
  201MPD1    C1 3054   0.403   1.283  12.805  0.5598  0.0833 -0.4081
  201MPD1    C2 3055   0.300   1.258  12.894  0.0963  0.5150 -0.0419
  201MPD1    C3 3056   0.173   1.228  12.844 -0.1797  0.4639  0.3164
  201MPD1    C4 3057   0.147   1.223  12.709  0.0340 -0.2841 -0.3735
  201MPD1    C5 3058   0.254   1.245  12.625 -0.0537 -0.2102  0.1061
  201MPD1     H 3059   0.316   1.256  13.001  0.4447  0.0542 -0.1032
  201MPD1    H1 3060   0.052   1.190  12.667  0.7793 -0.9063 -1.5621
  201MPD1    H2 3061   0.444   1.332  12.606 -1.4890 -0.8151 -2.3395
  201MPD1    H3 3062   0.237   1.233  12.518 -0.1821  2.7257 -0.2027
  201MPD1     N 3063   0.074   1.198  12.940  0.6470 -0.0055  0.1552
  201MPD1    H5 3064   0.112   1.187  13.034  0.3325  0.6747  0.3634
  201MPD1    N1 3065   0.534   1.333  12.841 -0.2711  0.1286  0.3851
  201MPD1    H6 3066   0.572   1.286  12.922 -1.1423  0.4878  1.0029
  201MPD1    H7 3067   0.595   1.330  12.760  0.1145  0.5379  0.6592
  202MPD1     C 3068   3.557   0.558   8.845  0.0191  0.4552 -0.9267
  202MPD1    C1 3069   3.604   0.452   8.918  0.3603  0.1806 -0.2872
  202MPD1    C2 3070   3.681   0.483   9.023 -0.2906 -0.3506  0.2958
  202MPD1    C3 3071   3.702   0.612   9.069 -0.2996  0.7951  0.2979
  202MPD1    C4 3072   3.640   0.715   9.000  0.7466  0.8330  0.6634
  202MPD1    C5 3073   3.563   0.690   8.893  1.0086  0.1416  0.1605
  202MPD1     H 3074   3.747   0.399   9.043 -1.4144 -0.9896  1.3034
  202MPD1    H1 3075   3.664   0.813   9.040  0.0008  1.1916  0.2171
  202MPD1    H2 3076   3.506   0.545   8.750  0.1056 -0.8653 -0.7919
  202MPD1    H3 3077   3.523   0.777   8.843 -1.2857 -1.1953 -0.3388
  202MPD1     N 3078   3.786   0.650   9.174 -0.7276 -0.4319  0.1491
  202MPD1    H5 3079   3.782   0.744   9.212 -1.4278 -0.1321 -0.6600
  202MPD1    N1 3080   3.620   0.323   8.860 -0.6147 -0.3085  0.0183
  202MPD1    H6 3081   3.539   0.297   8.805 -0.0501 -1.2502 -0.3631
  202MPD1    H7 3082   3.639   0.249   8.928  1.8581 -0.0526 -0.4181
  203MPD1     C 3083   2.658   2.127  12.406  0.0455  0.4087 -0.0713
  203MPD1    C1 3084   2.774   2.107  12.487  0.2744 -0.4881 -0.6936
  203MPD1    C2 3085   2.831   1.985  12.497  0.6228 -0.5248  0.7191
  203MPD1    C3 3086   2.807   1.888  12.401  1.2243  0.3647 -0.3550
  203MPD1    C4 3087   2.710   1.915  12.307  0.4394  0.3466 -0.5987
  203MPD1    C5 3088   2.633   2.026  12.318  0.4509 -0.6994  0.0478
  203MPD1     H 3089   2.910   1.968  12.569  0.8533 -1.5733  0.2115
  203MPD1    H1 3090   2.686   1.843  12.231 -1.2354  0.2804 -0.0117
  203MPD1    H2 3091   2.600   2.217  12.422  1.0106  1.2001 -1.0222
  203MPD1    H3 3092   2.552   2.031  12.245 -1.7562  1.7525  2.6647
  203MPD1     N 3093   2.883   1.769  12.405 -0.0933 -0.0252 -0.5487
  203MPD1    H5 3094   2.940   1.745  12.485 -1.6370 -1.8294  0.0186
  203MPD1    N1 3095   2.804   2.206  12.581  0.0208  0.3605  0.5137
  203MPD1    H6 3096   2.893   2.183  12.623  0.4888  1.4170  0.1033
  203MPD1    H7 3097   2.809   2.300  12.542 -2.3362 -0.2170 -1.2526
  204MPD1     C 3098   2.173   2.857  17.443 -0.2859 -0.0248 -1.0382
  204MPD1    C1 3099   2.237   2.825  17.325  0.4281 -0.3870 -0.0814
  204MPD1    C2 3100   2.183   2.865  17.207 -0.2884  0.0985 -0.0747
  204MPD1    C3 3101   2.063   2.930  17.198 -0.2822  0.1730 -0.0322
  204MPD1    C4 3102   1.993   2.953  17.315  0.1270 -0.1555 -0.7798
  204MPD1    C5 3103   2.051   2.919  17.436 -0.7479  0.6404 -0.9752
  204MPD1     H 3104   2.228   2.845  17.110  2.7187 -0.1913  1.3676
  204MPD1    H1 3105   1.892   2.990  17.319  0.0261 -0.3508 -1.5847
  204MPD1    H2 3106   2.212   2.826  17.539 -2.2162 -1.7523 -0.8166
  204MPD1    H3 3107   1.998   2.925  17.531 -0.3132  2.1729 -0.8341
  204MPD1     N 3108   2.012   2.969  17.071 -0.2384  0.3264  0.1726
  204MPD1    H5 3109   2.074   2.959  16.991  0.8724  0.4748  1.0300
  204MPD1    N1 3110   2.370   2.775  17.343 -0.1306 -0.0434  0.1434
  204MPD1    H6 3111   2.435   2.842  17.383 -0.1668  0.4857 -0.6662
  204MPD1    H7 3112   2.416   2.752  17.255 -0.6702 -1.8276  0.3258
  205MPD1     C 3113   2.669   2.150  16.556  0.8966 -0.2194 -0.0158
  205MPD1    C1 3114   2.623   2.024  16.585 -0.1782 -0.2935  0.4897
  205MPD1    C2 3115   2.501   2.017  16.661 -0.8247  0.1114  0.1370
  205MPD1    C3 3116   2.421   2.129  16.674  0.7765  0.1586 -0.7815
  205MPD1    C4 3117   2.464   2.255  16.624  0.0111  0.3892 -0.7333
  205MPD1    C5 3118   2.588   2.261  16.573 -0.2065 -0.0043  0.1275
  205MPD1     H 3119   2.464   1.925  16.705 -0.0570 -1.7322 -3.0075
  205MPD1    H1 3120   2.406   2.346  16.630  1.1775  1.1047 -0.1745
  205MPD1    H2 3121   2.769   2.159  16.514  1.2218 -1.0244  0.5925
  205MPD1    H3 3122   2.626   2.359  16.543  2.7337 -0.6208  1.8139
  205MPD1     N 3123   2.294   2.126  16.740 -0.2225  0.6119  0.3192
  205MPD1    H5 3124   2.246   2.215  16.743  0.5401  0.9746  1.6176
  205MPD1    N1 3125   2.717   1.915  16.582  0.4017  0.3021  0.0432
  205MPD1    H6 3126   2.760   1.927  16.490  0.3298  0.7592  0.0715
  205MPD1    H7 3127   2.665   1.827  16.576  1.3094 -0.3357  1.4922
  206MPD1     C 3128   2.845   0.250  15.525  0.6423 -0.0370  0.8166
  206MPD1    C1 3129   2.802   0.179  15.413 -0.0085  0.4782  0.2758
  206MPD1    C2 3130   2.759   0.041  15.430 -0.4338 -0.6527  0.4622
  206MPD1    C3 3131   2.738   4.718  15.560 -0.3330  0.2180 -0.2762
  206MPD1    C4 3132   2.760   0.074  15.668 -0.2288  0.1568 -0.0111
  206MPD1    C5 3133   2.816   0.199  15.649  0.1493 -0.2039  0.2224
  206MPD1     H 3134   2.747   4.706  15.339 -2.5281  0.8997 -0.2469
  206MPD1    H1 3135   2.740   0.034  15.767  0.0678 -1.9237 -0.7810
  206MPD1    H2 3136   2.878   0.353  15.518  0.6671 -0.1517 -0.9270
  206MPD1    H3 3137   2.841   0.260  15.735  0.5457 -0.8199  0.5444
  206MPD1     N 3138   2.690   4.592  15.591 -0.2548  0.2067 -0.0711
  206MPD1    H5 3139   2.671   4.571  15.688  0.1222  0.3218  0.0266
  206MPD1    N1 3140   2.840   0.218  15.288  0.1476  0.1041 -0.3692
  206MPD1    H6 3141   2.776   0.198  15.212 -1.0800  0.6593  0.5121
  206MPD1    H7 3142   2.851   0.320  15.284  0.7882  0.0784  0.7002
  207MPD1     C 3143   0.310   1.490   9.520  0.5537  0.2120 -0.7176
  207MPD1    C1 3144   0.270   1.451   9.646  0.0412 -0.1745 -0.9023
  207MPD1    C2 3145   0.351   1.483   9.749 -0.5257 -0.3847  0.2047
  207MPD1    C3 3146   0.461   1.572   9.727 -0.7213  0.1613 -0.5387
  207MPD1    C4 3147   0.500   1.604   9.608  0.5556  0.5219 -0.1762
  207MPD1    C5 3148   0.416   1.573   9.503 -0.1672  0.6512 -0.1258
  207MPD1     H 3149   0.321   1.455   9.849  0.3266  0.3981  0.6879
  207MPD1    H1 3150   0.587   1.668   9.593 -0.8958  2.3692 -0.6990
  207MPD1    H2 3151   0.256   1.468   9.429 -0.3014  0.0182 -0.1688
  207MPD1    H3 3152   0.431   1.607   9.401 -1.5791  2.0861  0.1319
  207MPD1     N 3153   0.534   1.636   9.830  0.3643  0.0675 -0.6756
  207MPD1    H5 3154   0.617   1.690   9.809 -0.6288  1.3889 -1.1587
  207MPD1    N1 3155   0.181   1.340   9.654 -0.2975 -0.5214  0.1297
  207MPD1    H6 3156   0.147   1.314   9.746 -1.7755  0.3196 -0.1807
  207MPD1    H7 3157   0.105   1.334   9.585  0.9150 -0.5861 -1.2014
  208MPD1     C 3158   2.902   1.405  17.067 -0.1939  0.3689  0.3301
  208MPD1    C1 3159   2.801   1.491  17.069  0.1533 -0.1084 -0.1842
  208MPD1    C2 3160   2.702   1.480  17.166  0.1440 -0.5177  0.1350
  208MPD1    C3 3161   2.718   1.392  17.276 -0.3333 -0.1029  0.0466
  208MPD1    C4 3162   2.834   1.319  17.278 -0.0300  0.1055 -0.6945
  208MPD1    C5 3163   2.915   1.325  17.172 -0.2861  0.4884 -0.2311
  208MPD1     H 3164   2.613   1.541  17.157  0.7426  0.1576 -1.3401
  208MPD1    H1 3165   2.862   1.262  17.365 -1.0271  0.7183  0.0241
  208MPD1    H2 3166   2.981   1.410  16.992  0.6006 -0.5294  1.1034
  208MPD1    H3 3167   3.005   1.266  17.167 -0.5908  0.0035 -0.0525
  208MPD1     N 3168   2.621   1.389  17.380  0.9373  0.0309  0.4307
  208MPD1    H5 3169   2.544   1.454  17.385  1.9712  1.2668  0.4393
  208MPD1    N1 3170   2.780   1.572  16.958 -0.1426 -0.7650 -0.5718
  208MPD1    H6 3171   2.716   1.651  16.967 -0.5499 -0.6317 -4.4009
  208MPD1    H7 3172   2.863   1.619  16.921 -0.5369 -0.3396 -0.9163
  209MPD1     C 3173   1.244   1.538  11.705  0.2603 -0.3418  0.1710
  209MPD1    C1 3174   1.221   1.674  11.688  0.1645 -0.0951 -0.1214
  209MPD1    C2 3175   1.110   1.719  11.616 -1.0627  0.6556 -0.9221
  209MPD1    C3 3176   1.023   1.629  11.558  0.2166  0.4451  0.5038
  209MPD1    C4 3177   1.043   1.496  11.575 -0.0017 -0.4062 -0.1329
  209MPD1    C5 3178   1.158   1.447  11.638 -0.4319 -0.0111 -0.0386
  209MPD1     H 3179   1.089   1.824  11.632  0.2459  0.7880 -0.0842
  209MPD1    H1 3180   0.986   1.418  11.525 -2.5313  0.8605  0.7745
  209MPD1    H2 3181   1.330   1.505  11.763  1.2119 -0.8250 -1.5033
  209MPD1    H3 3182   1.171   1.339  11.633  1.2414  0.3006 -2.2906
  209MPD1     N 3183   0.904   1.671  11.485 -0.5549  0.0270 -0.6921
  209MPD1    H5 3184   0.890   1.771  11.493 -0.2100 -0.2577  3.4519
  209MPD1    N1 3185   1.306   1.769  11.747  0.0933  0.0808  0.0220
  209MPD1    H6 3186   1.404   1.739  11.745  0.4964  1.3458  1.0653
  209MPD1    H7 3187   1.304   1.855  11.693  0.3245  0.8126  1.1881
  210MPD1     C 3188   0.600   2.538  11.314  0.7085  0.3034 -0.6679
  210MPD1    C1 3189   0.611   2.455  11.421 -0.2105 -0.0730 -0.0806
  210MPD1    C2 3190   0.630   2.320  11.398 -0.1529  0.5577 -0.2771
  210MPD1    C3 3191   0.622   2.267  11.273 -0.5130  0.4031  0.4188
  210MPD1    C4 3192   0.609   2.354  11.169  0.0835  0.5357 -0.6608
  210MPD1    C5 3193   0.599   2.490  11.185  0.4077 -0.5017 -0.0408
  210MPD1     H 3194   0.644   2.252  11.481  1.6571  1.8522  0.4750
  210MPD1    H1 3195   0.614   2.308  11.071  1.7789 -0.2160 -0.2213
  210MPD1    H2 3196   0.593   2.646  11.325  0.0176  0.2244 -0.2966
  210MPD1    H3 3197   0.599   2.564  11.106  1.5523 -2.3913 -1.7860
  210MPD1     N 3198   0.629   2.137  11.243 -0.3638 -0.5161 -0.0096
  210MPD1    H5 3199   0.633   2.117  11.144 -0.1247 -0.6360  0.0247
  210MPD1    N1 3200   0.624   2.505  11.551  0.0331 -0.1889 -0.3410
  210MPD1    H6 3201   0.575   2.448  11.619  0.5765 -0.1469  0.0868
  210MPD1    H7 3202   0.577   2.595  11.546  0.6429  0.1364 -0.2375
  211MPD1     C 3203   3.277   1.350  16.792  0.8075 -0.0193 -0.1493
  211MPD1    C1 3204   3.238   1.465  16.737 -0.0520 -0.1001 -0.3928
  211MPD1    C2 3205   3.100   1.476  16.697 -0.8240 -1.1724  0.6190
  211MPD1    C3 3206   3.012   1.366  16.701 -0.0703 -0.2821  0.1215
  211MPD1    C4 3207   3.057   1.251  16.761 -0.4143  0.4346  0.1675
  211MPD1    C5 3208   3.188   1.247  16.802 -0.5554 -0.4855 -0.0071
  211MPD1     H 3209   3.069   1.572  16.657 -2.1349 -1.0781  1.8867
  211MPD1    H1 3210   2.994   1.165  16.779 -0.0697 -0.4319 -2.7780
  211MPD1    H2 3211   3.378   1.332  16.826  1.1405 -1.3635 -1.8539
  211MPD1    H3 3212   3.222   1.151  16.839 -2.5196 -1.4888 -0.8217
  211MPD1     N 3213   2.880   1.375  16.644  0.1816 -0.1978 -0.9675
  211MPD1    H5 3214   2.851   1.464  16.603 -0.1949  0.2466  0.2503
  211MPD1    N1 3215   3.327   1.569  16.705 -1.0522 -0.1721  0.6928
  211MPD1    H6 3216   3.280   1.660  16.703  1.4836  1.0814 -1.2596
  211MPD1    H7 3217   3.402   1.577  16.772 -1.3170 -2.1807  1.2335
  212MPD1     C 3218   1.988   4.563  16.262 -0.0045  0.4884  0.0944
  212MPD1    C1 3219   1.901   4.648  16.324 -1.1924 -0.3970 -0.1886
  212MPD1    C2 3220   1.782   4.606  16.383 -0.5107  0.3808  0.1432
  212MPD1    C3 3221   1.751   4.468  16.378 -0.3179  0.0663  0.3853
  212MPD1    C4 3222   1.836   4.383  16.314  0.4019 -0.3398 -0.6970
  212MPD1    C5 3223   1.956   4.434  16.260  0.2407  0.2899 -0.3868
  212MPD1     H 3224   1.723   4.685  16.428 -0.4942  0.6601 -0.3261
  212MPD1    H1 3225   1.819   4.277  16.298  1.5922 -1.0245  2.6998
  212MPD1    H2 3226   2.078   4.594  16.209  0.9155 -3.8082 -0.9371
  212MPD1    H3 3227   2.028   4.369  16.210  0.6403  1.1935 -0.9885
  212MPD1     N 3228   1.644   4.410  16.440 -0.9094  0.4851  0.5196
  212MPD1    H5 3229   1.634   4.309  16.435 -0.0120  0.3885  0.5834
  212MPD1    N1 3230   1.926   0.063  16.311  0.0263 -0.5885  0.4181
  212MPD1    H6 3231   1.889   0.126  16.381  0.0439  1.2903 -1.2711
  212MPD1    H7 3232   2.027   0.068  16.321 -0.2322 -1.2595  3.4407
  213MPD1     C 3233   0.723   0.930  15.098  0.3291 -0.4492  0.0409
  213MPD1    C1 3234   0.652   1.033  15.050 -0.4713  0.5918 -0.2684
  213MPD1    C2 3235   0.519   1.038  15.091 -0.3926  0.4950 -0.1015
  213MPD1    C3 3236   0.468   0.967  15.201 -0.0835 -0.6549 -0.0591
  213MPD1    C4 3237   0.555   0.889  15.269 -0.8163  0.3485 -0.0235
  213MPD1    C5 3238   0.687   0.873  15.217  0.3703  0.6754 -0.5794
  213MPD1     H 3239   0.454   1.101  15.031  0.2002  0.8935 -0.3257
  213MPD1    H1 3240   0.525   0.839  15.361  2.6641  0.3961  1.1800
  213MPD1    H2 3241   0.828   0.918  15.071  0.3396 -1.4150  0.5135
  213MPD1    H3 3242   0.748   0.809  15.280  1.4114 -0.0570 -2.3327
  213MPD1     N 3243   0.329   0.989  15.234  0.6926 -0.0365  0.3312
  213MPD1    H5 3244   0.276   1.067  15.197  2.0170  0.8516  0.3452
  213MPD1    N1 3245   0.684   1.075  14.919 -0.7633  0.1929  0.1277
  213MPD1    H6 3246   0.633   1.161  14.896 -1.1074 -0.0969 -0.1921
  213MPD1    H7 3247   0.781   1.107  14.924 -1.0042  0.7155  1.5252
  214MPD1     C 3248   4.379   0.271  15.482  0.2057  0.3268 -0.9140
  214MPD1    C1 3249   4.346   0.320  15.356 -0.2066 -0.2409 -1.2099
  214MPD1    C2 3250   4.429   0.425  15.312  0.5653 -0.4516  0.0438
  214MPD1    C3 3251   4.524   0.487  15.397 -0.6015  0.2697 -0.2090
  214MPD1    C4 3252   4.542   0.440  15.527  0.4849 -0.3696 -0.2746
  214MPD1    C5 3253   4.472   0.336  15.566 -0.8104 -0.8097  0.6777
  214MPD1     H 3254   4.415   0.462  15.211  0.1216 -0.1091  0.2298
  214MPD1    H1 3255   4.609   0.494  15.592  1.2217 -1.7839  0.1376
  214MPD1    H2 3256   4.326   0.187  15.525  2.0708 -0.3215  0.0835
  214MPD1    H3 3257   4.499   0.288  15.660  0.1969  1.0531  1.3398
  214MPD1     N 3258   4.601   0.597  15.359 -0.0191  0.7613  0.2764
  214MPD1    H5 3259   4.680   0.614  15.421 -0.9056  0.8036  1.3958
  214MPD1    N1 3260   4.271   0.239  15.271  0.3660 -0.3393  0.6114
  214MPD1    H6 3261   4.237   0.304  15.200  2.7394 -1.3210 -1.4210
  214MPD1    H7 3262   4.197   0.188  15.319 -0.0292  0.9388  1.3429
  215MPD1     C 3263   0.425   0.985  10.488 -0.0276  0.8933 -0.2693
  215MPD1    C1 3264   0.344   1.011  10.590  0.1627 -1.1861 -0.1045
  215MPD1    C2 3265   0.322   1.144  10.617 -0.1949 -0.4577 -0.1861
  215MPD1    C3 3266   0.394   1.239  10.548  0.8057 -0.2137 -0.6510
  215MPD1    C4 3267   0.490   1.218  10.453 -0.7960  0.2116  0.3702
  215MPD1    C5 3268   0.501   1.083  10.426  0.6046  0.0954  0.3292
  215MPD1     H 3269   0.249   1.175  10.690  0.0656 -2.9031  1.1116
  215MPD1    H1 3270   0.553   1.299  10.418  0.7571 -0.2968  1.9695
  215MPD1    H2 3271   0.435   0.883  10.453  1.2768  1.1708 -0.6883
  215MPD1    H3 3272   0.573   1.049  10.352 -1.3473 -0.8170 -1.1431
  215MPD1     N 3273   0.365   1.374  10.587  0.1572  0.2163 -0.7363
  215MPD1    H5 3274   0.304   1.394  10.666  1.7911 -0.3171  0.6588
  215MPD1    N1 3275   0.263   0.914  10.649 -0.1025 -0.1025  0.1732
  215MPD1    H6 3276   0.295   0.819  10.632  0.2411 -0.1302  0.9935
  215MPD1    H7 3277   0.256   0.932  10.749  0.2992 -0.9602  0.3599
  216MPD1     C 3278   1.827   0.612  17.399  0.3837  0.2419  0.1783
  216MPD1    C1 3279   1.749   0.511  17.460  0.3951 -0.4408 -0.3285
  216MPD1    C2 3280   1.778   0.383  17.426  0.1999 -0.1881  0.6064
  216MPD1    C3 3281   1.871   0.355  17.329  0.1905 -0.0748 -0.0505
  216MPD1    C4 3282   1.951   0.455  17.277  0.1718 -0.0321 -0.1267
  216MPD1    C5 3283   1.926   0.578  17.321  0.0064 -0.6777  0.2332
  216MPD1     H 3284   1.718   0.305  17.472 -0.3741  0.4135  0.8735
  216MPD1    H1 3285   2.034   0.447  17.208 -0.1879  4.0981 -1.0525
  216MPD1    H2 3286   1.799   0.717  17.409 -0.3765  0.1392 -0.9435
  216MPD1    H3 3287   1.972   0.666  17.278 -0.2498 -0.0779  1.1978
  216MPD1     N 3288   1.894   0.223  17.290  0.6482  0.3492 -0.1193
  216MPD1    H5 3289   1.846   0.152  17.345  0.6337  0.4660  0.0173
  216MPD1    N1 3290   1.634   0.542  17.532  0.4085  0.7757 -0.5020
  216MPD1    H6 3291   1.596   0.461  17.582  3.6532 -0.1127  0.5471
  216MPD1    H7 3292   1.660   0.610  17.604  1.9446 -0.7463  0.3829
  217MPD1     C 3293   2.495   4.071   8.685 -1.2447  0.5070 -0.3618
  217MPD1    C1 3294   2.382   4.154   8.688  0.6570 -0.8186 -0.2418
  217MPD1    C2 3295   2.401   4.282   8.716 -0.0684  0.5722 -0.1010
  217MPD1    C3 3296   2.531   4.331   8.720  0.4682 -0.1237 -0.7355
  217MPD1    C4 3297   2.646   4.246   8.726  0.2773  0.5184 -0.8625
  217MPD1    C5 3298   2.618   4.111   8.705 -1.0706 -0.2356  0.3333
  217MPD1     H 3299   2.319   4.353   8.710 -0.7907 -0.0520  2.2978
  217MPD1    H1 3300   2.747   4.280   8.747  0.2667  1.2900 -2.0616
  217MPD1    H2 3301   2.488   3.965   8.664  2.3272  0.0877  0.4725
  217MPD1    H3 3302   2.703   4.046   8.688 -1.3276  0.0698 -2.0752
  217MPD1     N 3303   2.561   4.472   8.722  0.3824  0.1042  0.3359
  217MPD1    H5 3304   2.661   4.490   8.722  0.3664  0.1825  1.8257
  217MPD1    N1 3305   2.258   4.093   8.655  0.5628 -0.0435 -0.6659
  217MPD1    H6 3306   2.174   4.148   8.670  0.4833 -0.6726  1.1927
  217MPD1    H7 3307   2.252   3.997   8.689  1.3803  0.8178  1.9429
  218MPD1     C 3308   3.727   1.951  12.491  0.4292  0.6183  1.4692
  218MPD1    C1 3309   3.839   2.031  12.458 -0.6009  0.5350  0.4302
  218MPD1    C2 3310   3.960   1.966  12.427  0.3139 -0.4246  0.7521
  218MPD1    C3 3311   3.978   1.828  12.428  0.0765 -0.2819 -0.0514
  218MPD1    C4 3312   3.873   1.755  12.482 -0.2355  0.1483  0.5432
  218MPD1    C5 3313   3.746   1.813  12.506 -0.3082 -0.5505  0.1243
  218MPD1     H 3314   4.044   2.021  12.388  0.6899 -2.3389 -1.1332
  218MPD1    H1 3315   3.878   1.647  12.486 -1.5197  0.0959  0.6122
  218MPD1    H2 3316   3.627   1.991  12.508  0.3142  0.2983  1.5501
  218MPD1    H3 3317   3.675   1.749  12.559 -0.1459 -0.3985  0.5267
  218MPD1     N 3318   4.096   1.776  12.373 -0.0617  0.4663  0.2077
  218MPD1    H5 3319   4.158   1.835  12.319 -1.8379  0.8474 -1.3979
  218MPD1    N1 3320   3.823   2.169  12.458  0.6162  0.7798  0.4328
  218MPD1    H6 3321   3.772   2.201  12.540 -5.0989 -1.1954 -2.3769
  218MPD1    H7 3322   3.904   2.230  12.445  1.2057 -0.3333 -1.0099
  219MPD1     C 3323   4.554   2.027  11.730 -0.3844 -0.9289 -0.1644
  219MPD1    C1 3324   4.657   2.008  11.817  0.0929 -0.4641 -0.1384
  219MPD1    C2 3325   4.636   1.945  11.941 -0.3168 -0.5004  0.2419
  219MPD1    C3 3326   4.509   1.903  11.972 -0.8552 -1.0552  0.4240
  219MPD1    C4 3327   4.409   1.929  11.882 -0.4074 -0.5172 -0.9682
  219MPD1    C5 3328   4.431   1.999  11.774 -0.3986  0.0881  0.2670
  219MPD1     H 3329   0.000   1.911  11.994 -0.1009 -0.6561 -0.2223
  219MPD1    H1 3330   4.312   1.884  11.902 -0.5252 -1.0654 -2.7074
  219MPD1    H2 3331   4.570   2.083  11.639 -0.9407 -0.5241 -0.0156
  219MPD1    H3 3332   4.350   2.031  11.709 -1.4615 -0.7439  1.1930
  219MPD1     N 3333   4.478   1.819  12.080 -0.3772  0.3262  0.1162
  219MPD1    H5 3334   4.382   1.784  12.080 -0.3605  0.2810  0.0996
  219MPD1    N1 3335   0.045   2.090  11.793 -0.3674 -0.6949 -0.3464
  219MPD1    H6 3336   0.054   2.073  11.693  0.3880 -1.3645 -0.1710
  219MPD1    H7 3337   0.133   2.067  11.840 -1.8351 -2.4292  1.5354
  220MPD1     C 3338   4.486   2.421   9.080  0.0449 -0.1047  0.5881
  220MPD1    C1 3339   4.605   2.405   9.148  0.1628 -0.5040  0.3511
  220MPD1    C2 3340   4.600   2.317   9.253  0.5119  0.0042  0.7466
  220MPD1    C3 3341   4.486   2.246   9.296 -0.1429  0.5502 -0.4515
  220MPD1    C4 3342   4.374   2.267   9.214  0.3949 -0.5461 -0.7408
  220MPD1    C5 3343   4.376   2.346   9.107 -0.3558 -0.3463  0.9390
  220MPD1     H 3344   4.688   2.311   9.317  0.1883 -2.1025  1.0052
  220MPD1    H1 3345   4.283   2.213   9.241 -0.2208 -0.7043 -3.1278
  220MPD1    H2 3346   4.469   2.501   9.008 -1.3986 -0.1721  0.8544
  220MPD1    H3 3347   4.279   2.359   9.061  0.6470  0.5147 -0.9322
  220MPD1     N 3348   4.497   2.162   9.415  0.2936  0.0326  0.1818
  220MPD1    H5 3349   4.578   2.176   9.475 -0.2646 -1.7416  1.3460
  220MPD1    N1 3350   4.714   2.487   9.121 -0.2069 -0.5455  0.5488
  220MPD1    H6 3351   4.706   2.519   9.025  0.4979  2.9995  1.6753
  220MPD1    H7 3352   0.074   2.430   9.123  0.3409  0.2563  0.1546
  221MPD1     C 3353   1.682   1.300  16.911 -0.4494  0.2877  0.4062
  221MPD1    C1 3354   1.662   1.187  16.829  0.5701  0.2933 -0.7760
  221MPD1    C2 3355   1.763   1.100  16.795  0.0470 -0.2456 -0.3833
  221MPD1    C3 3356   1.884   1.112  16.861  0.1397  0.5385 -0.2308
  221MPD1    C4 3357   1.906   1.215  16.950 -0.8982 -0.3749  0.2558
  221MPD1    C5 3358   1.804   1.310  16.969  0.1971  0.1962  0.0761
  221MPD1     H 3359   1.751   1.027  16.715 -0.2268  0.1948 -0.7459
  221MPD1    H1 3360   2.003   1.218  16.998 -0.5048 -3.5724 -0.3130
  221MPD1    H2 3361   1.602   1.373  16.906 -1.6362 -1.1093 -1.1213
  221MPD1    H3 3362   1.824   1.405  17.018 -1.3811  0.1927  0.7336
  221MPD1     N 3363   1.999   1.022  16.839 -0.0676  0.7876  0.2171
  221MPD1    H5 3364   2.085   1.047  16.886 -0.8121  0.2210  1.8745
  221MPD1    N1 3365   1.542   1.185  16.751  0.0722  0.1227  0.5606
  221MPD1    H6 3366   1.502   1.092  16.743  1.0506 -0.2066 -0.4627
  221MPD1    H7 3367   1.463   1.230  16.797 -0.5456  0.3869 -0.7766
  222MPD1     C 3368   1.564   4.015  16.767 -0.2032 -0.0889  0.0649
  222MPD1    C1 3369   1.612   4.134  16.796  0.1540 -0.3049  0.0229
  222MPD1    C2 3370   1.542   4.212  16.884  0.0181 -0.1119 -0.8350
  222MPD1    C3 3371   1.437   4.154  16.957  0.2550 -0.8886  0.6723
  222MPD1    C4 3372   1.402   4.023  16.942  0.4451  0.7001  0.2257
  222MPD1    C5 3373   1.463   3.952  16.843 -0.0238 -0.5308  0.1497
  222MPD1     H 3374   1.554   4.319  16.897 -0.4722  0.1349 -2.4448
  222MPD1    H1 3375   1.336   3.978  17.015 -0.1865  0.8703 -0.2419
  222MPD1    H2 3376   1.597   3.957  16.681 -1.9104  0.3229 -0.8745
  222MPD1    H3 3377   1.443   3.847  16.829 -1.5711 -0.1332 -0.6356
  222MPD1     N 3378   1.353   4.228  17.046  0.1420 -0.2288 -0.4352
  222MPD1    H5 3379   1.272   4.178  17.082 -1.3240  1.6569 -1.1314
  222MPD1    N1 3380   1.697   4.201  16.709  0.0327 -0.4033  0.1427
  222MPD1    H6 3381   1.727   4.288  16.754 -1.2997 -0.2011  0.6508
  222MPD1    H7 3382   1.776   4.149  16.672  1.8276  0.9297  2.0125
  223MPD1     C 3383   1.151   3.797   0.018 -0.8663 -0.6760 -0.2766
  223MPD1    C1 3384   1.270   3.805  17.646 -0.0825  0.9671  0.6103
  223MPD1    C2 3385   1.283   3.924  17.574 -0.2640  0.1050 -0.2175
  223MPD1    C3 3386   1.193   4.027  17.568 -0.1911  0.2028 -0.0551
  223MPD1    C4 3387   1.079   4.007  17.648  0.5510  0.3722  0.4827
  223MPD1    C5 3388   1.068   3.895   0.027  0.3117 -0.3703 -0.3120
  223MPD1     H 3389   1.376   3.923  17.519  0.5196  2.0777  1.0914
  223MPD1    H1 3390   0.996   4.077  17.652  0.1565 -0.0620 -0.1741
  223MPD1    H2 3391   1.127   3.706   0.071  0.6114 -2.0915 -2.0233
  223MPD1    H3 3392   0.978   3.883   0.085 -0.0619  1.0332 -0.6117
  223MPD1     N 3393   1.219   4.136  17.482 -0.6473  0.4022 -0.0377
  223MPD1    H5 3394   1.305   4.135  17.427  0.0679 -0.8691  1.0973
  223MPD1    N1 3395   1.368   3.702  17.646  0.0985  0.0675  0.2645
  223MPD1    H6 3396   1.462   3.728  17.616 -0.5658  1.1476 -0.9020
  223MPD1    H7 3397   1.367   3.644   0.032  2.2579  1.3682  1.2201
  224MPD1     C 3398   1.980   1.123   8.677  0.4835  0.2908 -0.5323
  224MPD1    C1 3399   2.097   1.086   8.619  0.2571  1.1815  0.8075
  224MPD1    C2 3400   2.219   1.109   8.685  0.2985  0.3835 -0.3034
  224MPD1    C3 3401   2.219   1.147   8.823 -0.3688 -0.5034 -0.7361
  224MPD1    C4 3402   2.094   1.173   8.884 -0.2422  0.7605 -0.9038
  224MPD1    C5 3403   1.978   1.155   8.813 -0.5426  0.1676 -0.5919
  224MPD1     H 3404   2.314   1.091   8.636  0.2496 -0.8470  0.0472
  224MPD1    H1 3405   2.082   1.200   8.988  2.8221  0.9885 -0.5867
  224MPD1    H2 3406   1.885   1.126   8.626  0.1236 -0.8141  0.0609
  224MPD1    H3 3407   1.883   1.176   8.861  0.5319 -0.6206  1.8618
  224MPD1     N 3408   2.333   1.154   8.907  0.1497 -0.4409 -0.1390
  224MPD1    H5 3409   2.315   1.180   9.003  1.7863 -1.6816  0.4919
  224MPD1    N1 3410   2.101   1.061   8.485  0.2959 -0.2265  0.2686
  224MPD1    H6 3411   2.193   1.030   8.454 -0.3814  0.4341 -2.3828
  224MPD1    H7 3412   2.029   0.996   8.453  0.1448 -0.5477  1.2407
  225MPD1     C 3413   4.407   2.550  12.751 -0.2213 -0.3678  0.5002
  225MPD1    C1 3414   4.321   2.455  12.739  0.0422  0.0057  0.6007
  225MPD1    C2 3415   4.219   2.469  12.650  0.3447  0.0825 -0.0510
  225MPD1    C3 3416   4.200   2.578  12.578  0.4218 -0.6160 -0.1729
  225MPD1    C4 3417   4.270   2.692  12.610 -0.2642 -0.6960  0.4406
  225MPD1    C5 3418   4.377   2.671  12.692 -0.1622 -0.1929  0.2868
  225MPD1     H 3419   4.178   2.372  12.624 -1.8183  0.3964  2.1659
  225MPD1    H1 3420   4.246   2.787  12.566  1.5344 -0.9821 -1.1432
  225MPD1    H2 3421   4.502   2.538  12.802 -0.1707 -0.3713  0.4054
  225MPD1    H3 3422   4.442   2.756  12.703 -1.4157  0.4714  2.5798
  225MPD1     N 3423   4.104   2.582  12.469  0.2017 -0.5069 -0.2013
  225MPD1    H5 3424   4.113   2.668  12.417 -0.6927  0.1729  0.7683
  225MPD1    N1 3425   4.361   2.325  12.775 -0.2115 -0.3482 -0.0297
  225MPD1    H6 3426   4.283   2.259  12.774 -0.0953 -0.4726 -1.9521
  225MPD1    H7 3427   4.400   2.326  12.869  0.7262  1.1933 -0.4325
  226MPD1     C 3428   2.009   2.490   8.917 -0.1801  0.4016 -0.5515
  226MPD1    C1 3429   2.025   2.362   8.870  0.2647 -0.2593  0.0072
  226MPD1    C2 3430   2.129   2.283   8.913  0.0912  0.3225 -0.4769
  226MPD1    C3 3431   2.223   2.336   9.002  0.0482 -0.1173 -0.1452
  226MPD1    C4 3432   2.189   2.455   9.067  0.2628 -0.0214  0.0265
  226MPD1    C5 3433   2.084   2.532   9.026 -0.3254 -0.6997  0.2119
  226MPD1     H 3434   2.153   2.189   8.864  2.4043  0.2579  0.7674
  226MPD1    H1 3435   2.245   2.487   9.154 -0.4207 -0.9472  0.8126
  226MPD1    H2 3436   1.916   2.540   8.892 -0.0477 -0.0734 -1.9920
  226MPD1    H3 3437   2.057   2.619   9.085 -1.0325 -1.1891  0.6147
  226MPD1     N 3438   2.331   2.254   9.026  0.4026 -0.8168  0.2774
  226MPD1    H5 3439   2.355   2.172   8.970  1.5017 -0.7872  0.7062
  226MPD1    N1 3440   1.954   2.325   8.754 -0.2582 -0.5390  0.7783
  226MPD1    H6 3441   1.870   2.376   8.730 -0.4170  0.4833  3.4873
  226MPD1    H7 3442   1.945   2.224   8.743  1.4248 -0.8511  2.0963
  227MPD1     C 3443   2.508   1.480   8.702 -0.4761  0.2773 -0.5364
  227MPD1    C1 3444   2.402   1.538   8.759  0.2879 -0.1087  0.2779
  227MPD1    C2 3445   2.426   1.658   8.826 -0.8076  0.2868  0.0127
  227MPD1    C3 3446   2.552   1.713   8.837  0.1406  0.0138 -0.2771
  227MPD1    C4 3447   2.651   1.660   8.761  0.3513  0.1443 -0.6852
  227MPD1    C5 3448   2.632   1.540   8.695 -0.8802 -0.2090  0.0379
  227MPD1     H 3449   2.340   1.696   8.881 -2.2538  1.0149 -2.7517
  227MPD1    H1 3450   2.754   1.692   8.759  0.2333  0.4796 -1.5124
  227MPD1    H2 3451   2.489   1.390   8.644  0.4425  0.1056 -0.5784
  227MPD1    H3 3452   2.713   1.479   8.656 -0.9814 -2.3476  3.1580
  227MPD1     N 3453   2.578   1.826   8.924 -0.1813  0.0331 -0.2879
  227MPD1    H5 3454   2.495   1.860   8.972  0.9457  1.9729  0.3048
  227MPD1    N1 3455   2.277   1.488   8.734  0.2472 -0.3317 -0.6172
  227MPD1    H6 3456   2.275   1.389   8.713 -2.0214 -0.0718 -1.6072
  227MPD1    H7 3457   2.217   1.497   8.816 -0.1143 -0.2699 -0.8933
  228MPD1     C 3458   1.539   0.654  12.930 -0.2246 -0.2291  0.1277
  228MPD1    C1 3459   1.453   0.708  12.833 -0.1136 -0.1843 -0.0555
  228MPD1    C2 3460   1.337   0.646  12.800  0.9232  0.1748  1.0555
  228MPD1    C3 3461   1.308   0.521  12.843  0.5856 -0.3264  0.4465
  228MPD1    C4 3462   1.390   0.467  12.939  0.2127 -0.1420  0.4338
  228MPD1    C5 3463   1.505   0.537  12.987 -0.5285 -0.2155  0.1661
  228MPD1     H 3464   1.261   0.690  12.737 -0.7903 -2.0690  1.5558
  228MPD1    H1 3465   1.366   0.377  12.993  1.3398  1.4736  3.6232
  228MPD1    H2 3466   1.630   0.706  12.956 -1.2218  0.9980  1.1421
  228MPD1    H3 3467   1.561   0.505  13.074  0.7021 -0.1044 -0.5816
  228MPD1     N 3468   1.181   0.465  12.810 -0.1868  0.6712  0.0376
  228MPD1    H5 3469   1.131   0.522  12.743  1.1432  0.3777 -1.2135
  228MPD1    N1 3470   1.475   0.835  12.780  0.4211  0.1307 -0.3909
  228MPD1    H6 3471   1.428   0.845  12.691 -0.0220  0.4875 -0.1174
  228MPD1    H7 3472   1.565   0.884  12.776  1.6639 -2.0132  1.3606
  229MPD1     C 3473   0.505   4.167  14.499 -0.4353  0.6926  0.0645
  229MPD1    C1 3474   0.511   4.051  14.426  0.5883 -0.8833  0.0883
  229MPD1    C2 3475   0.591   3.945  14.462 -0.2756 -0.1470  0.6229
  229MPD1    C3 3476   0.673   3.958  14.571 -0.1091 -0.0612 -0.5737
  229MPD1    C4 3477   0.675   4.077  14.644 -0.4263  0.4326 -0.3894
  229MPD1    C5 3478   0.582   4.182  14.615  0.1320 -0.7971  0.0588
  229MPD1     H 3479   0.581   3.848  14.415  1.0177 -0.1956  0.4491
  229MPD1    H1 3480   0.749   4.094  14.721  0.8885  0.7179 -1.7052
  229MPD1    H2 3481   0.447   4.256  14.475 -1.1265  0.9015  2.4919
  229MPD1    H3 3482   0.575   4.277  14.668 -0.9492 -1.3990  0.9857
  229MPD1     N 3483   0.762   3.856  14.616 -0.5817 -0.0107  0.1321
  229MPD1    H5 3484   0.819   3.874  14.698  0.3761 -1.0545 -0.2984
  229MPD1    N1 3485   0.407   4.035  14.329 -0.4208  0.0192  0.0168
  229MPD1    H6 3486   0.377   4.127  14.296  0.3957  0.1350 -0.4007
  229MPD1    H7 3487   0.435   3.974  14.252 -0.2012  2.1030 -1.5521
  230MPD1     C 3488   1.420   3.636  15.278  0.0733  0.4147  0.3555
  230MPD1    C1 3489   1.312   3.726  15.253  0.2134  0.1856 -0.5275
  230MPD1    C2 3490   1.212   3.695  15.162  0.0692 -0.4562  0.1596
  230MPD1    C3 3491   1.222   3.571  15.081 -0.1652 -0.0989  0.1061
  230MPD1    C4 3492   1.335   3.494  15.098 -0.1513 -0.3762  0.5511
  230MPD1    C5 3493   1.426   3.526  15.193 -0.6413  0.2548  0.1781
  230MPD1     H 3494   1.117   3.747  15.164  0.5420  0.4541 -1.3439
  230MPD1    H1 3495   1.337   3.401  15.041 -1.6686 -2.1314  3.3361
  230MPD1    H2 3496   1.493   3.655  15.356 -0.3618 -2.7498  1.5556
  230MPD1    H3 3497   1.516   3.465  15.199 -0.7185 -0.0999 -2.3322
  230MPD1     N 3498   1.136   3.531  14.978 -0.0456  0.2559  0.5735
  230MPD1    H5 3499   1.152   3.438  14.941  1.9845  1.7097 -2.2676
  230MPD1    N1 3500   1.289   3.832  15.344  0.4474  0.9515  0.2461
  230MPD1    H6 3501   1.370   3.882  15.380  0.8427  0.0479  0.6047
  230MPD1    H7 3502   1.231   3.908  15.308  0.5944  0.3271 -1.3132
  231MPD1     C 3503   3.338   0.292  15.484  0.3045  0.8090 -0.6277
  231MPD1    C1 3504   3.379   0.243  15.368 -0.3748  0.1509  0.1657
  231MPD1    C2 3505   3.421   0.334  15.284 -0.0668  0.2903  0.2594
  231MPD1    C3 3506   3.449   0.463  15.313  0.0212 -0.4974  0.4393
  231MPD1    C4 3507   3.400   0.516  15.428 -0.0444  0.1364 -0.7774
  231MPD1    C5 3508   3.346   0.426  15.513  0.4974  0.5908  0.8240
  231MPD1     H 3509   3.456   0.291  15.190  1.1068 -0.0322  0.8483
  231MPD1    H1 3510   3.396   0.621  15.454 -0.5514 -0.0135 -0.2452
  231MPD1    H2 3511   3.280   0.230  15.550  0.9133 -1.6150 -2.3745
  231MPD1    H3 3512   3.290   0.475  15.592 -1.2772  0.5489 -0.3996
  231MPD1     N 3513   3.517   0.545  15.223  0.1780 -0.4124  0.0501
  231MPD1    H5 3514   3.550   0.496  15.141  0.4306 -1.6931  0.8983
  231MPD1    N1 3515   3.358   0.110  15.338  0.3285 -0.0269 -0.0176
  231MPD1    H6 3516   3.418   0.069  15.267  0.2528 -0.6500  0.2779
  231MPD1    H7 3517   3.356   0.047  15.418  2.0184  0.3941  0.3499
  232MPD1     C 3518   0.903   3.375  17.068  0.6458 -0.0298  0.0752
  232MPD1    C1 3519   0.849   3.473  17.150  0.3601 -0.1541 -0.6662
  232MPD1    C2 3520   0.761   3.429  17.252  0.1286 -0.4374  0.1470
  232MPD1    C3 3521   0.739   3.306  17.284 -0.4922  0.8231 -0.3778
  232MPD1    C4 3522   0.805   3.215  17.210  0.0973  0.2697  0.2572
  232MPD1    C5 3523   0.874   3.242  17.098  0.3587 -0.0482  0.1610
  232MPD1     H 3524   0.716   3.505  17.316 -0.5919  0.0264 -0.9147
  232MPD1    H1 3525   0.797   3.107  17.223 -0.0299  0.3289  0.6855
  232MPD1    H2 3526   0.945   3.396  16.970 -1.1981  0.0499 -0.7018
  232MPD1    H3 3527   0.913   3.160  17.039 -0.0339 -1.7698  2.3179
  232MPD1     N 3528   0.649   3.277  17.396  0.3735 -0.2870  0.4243
  232MPD1    H5 3529   0.604   3.358  17.439  1.4383 -0.1366  1.2612
  232MPD1    N1 3530   0.864   3.609  17.129 -0.1702 -0.0318  0.3246
  232MPD1    H6 3531   0.942   3.633  17.067 -0.9008 -0.9089 -0.9390
  232MPD1    H7 3532   0.867   3.671  17.210 -1.1173 -1.0054  1.0962
  233MPD1     C 3533   2.523   1.350   2.786  0.5387 -0.5639 -0.5471
  233MPD1    C1 3534   2.446   1.302   2.684 -0.7673 -0.6410  0.0888
  233MPD1    C2 3535   2.496   1.288   2.555 -0.3233 -0.6721  0.2379
  233MPD1    C3 3536   2.635   1.309   2.530  0.5782 -0.7020 -0.2958
  233MPD1    C4 3537   2.713   1.355   2.636 -0.3064 -0.3786  0.7368
  233MPD1    C5 3538   2.657   1.375   2.759 -0.9439 -0.1117  0.0653
  233MPD1     H 3539   2.421   1.267   2.480  0.5259 -1.4773 -0.3906
  233MPD1    H1 3540   2.819   1.373   2.629 -0.6480  0.8413 -1.1483
  233MPD1    H2 3541   2.480   1.370   2.884  0.6650 -1.9185 -0.2068
  233MPD1    H3 3542   2.712   1.394   2.850 -1.4799 -1.9251  0.7565
  233MPD1     N 3543   2.683   1.310   2.398  0.3650 -0.0860  0.0608
  233MPD1    H5 3544   2.783   1.330   2.401  0.4247 -0.4909  0.7194
  233MPD1    N1 3545   2.305   1.279   2.716 -0.6189 -0.2583 -0.1213
  233MPD1    H6 3546   2.233   1.296   2.646 -0.7240  0.9349  0.2797
  233MPD1    H7 3547   2.277   1.334   2.797  1.9191 -0.2173  0.7341
  234MPD1     C 3548   3.916   0.269   9.804 -1.7675 -0.2476 -0.0303
  234MPD1    C1 3549   3.827   0.365   9.845  0.5192  0.0015  0.1436
  234MPD1    C2 3550   3.733   0.410   9.754  0.3118 -0.4508 -0.3676
  234MPD1    C3 3551   3.729   0.350   9.630 -0.5476 -0.2112  0.5655
  234MPD1    C4 3552   3.812   0.245   9.592  1.2910 -0.0565  0.4831
  234MPD1    C5 3553   3.908   0.207   9.685  0.1503 -0.3216  0.5045
  234MPD1     H 3554   3.654   0.477   9.786 -0.9455 -2.6303  1.1088
  234MPD1    H1 3555   3.815   0.195   9.497  0.1207 -1.3385  1.1130
  234MPD1    H2 3556   3.993   0.241   9.875 -1.5546 -0.4309 -0.3341
  234MPD1    H3 3557   3.980   0.129   9.659 -0.7029 -1.0755  0.3865
  234MPD1     N 3558   3.637   0.405   9.529 -0.4704  0.4980  0.1887
  234MPD1    H5 3559   3.572   0.475   9.563 -2.0013 -0.7482 -0.1686
  234MPD1    N1 3560   3.853   0.445   9.960  0.1806 -0.9395 -0.2113
  234MPD1    H6 3561   3.765   0.488   9.987 -0.2851 -2.7164  1.1248
  234MPD1    H7 3562   3.905   0.391  10.029 -0.4357  1.2441  1.9891
  235MPD1     C 3563   0.117   2.867  10.952 -0.3359  0.2974 -0.3776
  235MPD1    C1 3564   0.217   2.961  10.947  0.0164  0.0207 -0.3617
  235MPD1    C2 3565   0.293   2.962  10.827  0.5990  0.5825 -0.1403
  235MPD1    C3 3566   0.274   2.868  10.724  0.7617  0.7292  0.6213
  235MPD1    C4 3567   0.162   2.786  10.733  0.1168 -0.2541 -0.1370
  235MPD1    C5 3568   0.090   2.786  10.849  0.1149  0.1957  0.4588
  235MPD1     H 3569   0.373   3.032  10.808 -0.6934  2.4831  1.3645
  235MPD1    H1 3570   0.138   2.721  10.649 -0.1484 -1.7808  1.1220
  235MPD1    H2 3571   0.059   2.863  11.043  0.7421  1.5196  0.3747
  235MPD1    H3 3572   0.014   2.711  10.864  1.4639 -1.3383 -0.3255
  235MPD1     N 3573   0.366   2.859  10.620 -0.4705 -0.0848  0.1074
  235MPD1    H5 3574   0.451   2.913  10.633 -0.7667  0.2168  0.7530
  235MPD1    N1 3575   0.231   3.063  11.042 -0.0664  0.0908 -0.1151
  235MPD1    H6 3576   0.327   3.095  11.052 -0.0806 -0.4583  1.8119
  235MPD1    H7 3577   0.195   3.031  11.132  2.4915 -0.3003  0.7726
  236MPD1     C 3578   0.074   4.037   9.641  0.1039 -0.3607  0.1304
  236MPD1    C1 3579   0.160   4.066   9.745 -0.8662  0.0558 -0.0315
  236MPD1    C2 3580   0.206   3.962   9.826  0.8244 -0.5078  0.2698
  236MPD1    C3 3581   0.156   3.834   9.810 -0.7574  0.5769 -0.2677
  236MPD1    C4 3582   0.069   3.808   9.703 -0.2992 -0.0945 -0.1901
  236MPD1    C5 3583   0.027   3.913   9.624  0.1560 -0.2322 -0.3245
  236MPD1     H 3584   0.271   3.987   9.910 -0.1588 -2.9943  1.7750
  236MPD1    H1 3585   0.034   3.708   9.683  2.7453 -0.9628 -1.2084
  236MPD1    H2 3586   0.033   4.108   9.570  1.2047  1.5336  1.3683
  236MPD1    H3 3587   4.683   3.890   9.542 -0.4458 -1.8742  0.6195
  236MPD1     N 3588   0.179   3.726   9.899 -0.3890 -0.4321  0.0470
  236MPD1    H5 3589   0.126   3.646   9.866 -0.7895  0.2948 -1.0636
  236MPD1    N1 3590   0.220   4.192   9.739  0.1120 -0.1052 -0.2773
  236MPD1    H6 3591   0.256   4.210   9.833  1.2283 -0.4454 -0.6402
  236MPD1    H7 3592   0.148   4.260   9.715  0.3745  0.6354  1.0200
  237MPD1     C 3593   4.699   2.440  14.971  0.3536  0.0910 -0.0367
  237MPD1    C1 3594   4.631   2.455  15.091  0.1536  0.0889  0.4007
  237MPD1    C2 3595   4.535   2.358  15.112  0.2530 -0.3576 -0.4727
  237MPD1    C3 3596   4.526   2.239  15.043  0.7588  0.4554  0.1359
  237MPD1    C4 3597   4.612   2.221  14.933 -0.1452  0.0450 -0.0701
  237MPD1    C5 3598   4.690   2.326  14.894 -0.1727  1.5245  0.6911
  237MPD1     H 3599   4.473   2.378  15.199  2.5579  0.6614  0.9468
  237MPD1    H1 3600   4.623   2.122  14.890  0.7067 -0.6296  1.7255
  237MPD1    H2 3601   0.047   2.516  14.944  0.9741 -0.7540 -0.7246
  237MPD1    H3 3602   0.029   2.318  14.806  0.4138  0.2754  1.2200
  237MPD1     N 3603   4.437   2.133  15.071 -0.9823  0.3160 -0.4383
  237MPD1    H5 3604   4.453   2.049  15.015  0.4362 -0.6838  1.4717
  237MPD1    N1 3605   4.626   2.577  15.161 -0.8839 -0.2400 -0.1485
  237MPD1    H6 3606   4.707   2.637  15.150 -1.1424 -0.1377 -1.5550
  237MPD1    H7 3607   4.614   2.577  15.262 -3.4804 -0.8631 -0.4537
  238MPD1     C 3608   1.243   1.414  14.654  0.1284  0.1644  0.0547
  238MPD1    C1 3609   1.190   1.373  14.776 -0.3165 -0.0921 -0.0479
  238MPD1    C2 3610   1.144   1.245  14.788 -0.3527  0.1139 -0.3463
  238MPD1    C3 3611   1.125   1.168  14.667  0.5183 -0.6875  0.1095
  238MPD1    C4 3612   1.188   1.202  14.552 -0.2320  0.1807  0.5697
  238MPD1    C5 3613   1.241   1.331  14.548  0.0544 -1.2968 -0.5164
  238MPD1     H 3614   1.113   1.209  14.885  1.9475  1.5438  0.9124
  238MPD1    H1 3615   1.187   1.149  14.457  1.0613  1.2739 -0.0518
  238MPD1    H2 3616   1.288   1.512  14.643 -0.6580  0.5677  0.4140
  238MPD1    H3 3617   1.288   1.363  14.456  0.7355  0.7248  0.5209
  238MPD1     N 3618   1.074   1.034  14.673  0.1085 -0.4391 -0.7613
  238MPD1    H5 3619   1.110   0.981  14.594  2.3397  2.0522 -1.4347
  238MPD1    N1 3620   1.209   1.446  14.896 -0.1681  0.4872  0.3551
  238MPD1    H6 3621   1.209   1.547  14.882  1.8329  0.5847  1.1996
  238MPD1    H7 3622   1.137   1.425  14.965 -0.9994 -0.1452 -0.6901
  239MPD1     C 3623   1.476   1.673  14.800  0.3700 -0.3249 -0.0791
  239MPD1    C1 3624   1.420   1.796  14.817  0.1814  0.2301  0.8144
  239MPD1    C2 3625   1.376   1.870  14.704  0.5860 -0.1667 -0.2276
  239MPD1    C3 3626   1.419   1.826  14.578  0.7200  0.0543  0.2095
  239MPD1    C4 3627   1.495   1.713  14.559 -0.0633 -0.0385  0.3018
  239MPD1    C5 3628   1.519   1.636  14.674 -0.0423  0.4687  0.8243
  239MPD1     H 3629   1.312   1.955  14.720  0.2686 -0.4443 -0.0279
  239MPD1    H1 3630   1.522   1.677  14.460 -1.5006  0.2280 -0.1741
  239MPD1    H2 3631   1.495   1.602  14.880  0.0527 -0.1687  0.1369
  239MPD1    H3 3632   1.578   1.545  14.670 -0.7852 -0.0129  0.8790
  239MPD1     N 3633   1.385   1.899  14.463 -0.6571  0.2110 -0.2759
  239MPD1    H5 3634   1.416   1.862  14.373  0.0969 -3.1910  1.3971
  239MPD1    N1 3635   1.366   1.827  14.938  0.7862 -0.2254 -0.3535
  239MPD1    H6 3636   1.405   1.789  15.024  0.7970 -0.6137 -0.5305
  239MPD1    H7 3637   1.355   1.927  14.955 -0.0264 -0.0317 -1.9327
  240MPD1     C 3638   1.254   1.239  13.979  0.2815  0.2425 -0.1149
  240MPD1    C1 3639   1.193   1.359  14.017 -0.5724  0.6405 -0.1647
  240MPD1    C2 3640   1.094   1.356  14.105  0.4713  0.0665  0.1691
  240MPD1    C3 3641   1.058   1.238  14.169 -0.5792  0.6415  0.5508
  240MPD1    C4 3642   1.130   1.123  14.154 -0.2520  0.2507 -0.4950
  240MPD1    C5 3643   1.220   1.130  14.047  0.7428 -0.1926  0.1657
  240MPD1     H 3644   1.038   1.447  14.121 -0.7015 -0.8742  1.5143
  240MPD1    H1 3645   1.101   1.027  14.194  0.4821 -0.0805 -0.7556
  240MPD1    H2 3646   1.318   1.220  13.893 -2.1562 -0.2168 -1.8340
  240MPD1    H3 3647   1.270   1.040  14.013 -0.4059 -1.0836  0.8244
  240MPD1     N 3648   0.949   1.237  14.258  0.1056  0.0427 -0.1858
  240MPD1    H5 3649   0.905   1.326  14.280  1.3389  0.5188  0.3384
  240MPD1    N1 3650   1.220   1.470  13.937  0.6478  0.0867 -0.0429
  240MPD1    H6 3651   1.313   1.463  13.895  0.0948 -0.7865 -1.1101
  240MPD1    H7 3652   1.220   1.554  13.994 -1.1035 -0.5785  0.9127
  241MPD1     C 3653   0.954   1.752  14.962 -0.6765 -0.4262 -0.0798
  241MPD1    C1 3654   0.833   1.686  14.997  0.3128  0.4074 -0.2927
  241MPD1    C2 3655   0.782   1.598  14.903 -0.0040  0.0264  0.3250
  241MPD1    C3 3656   0.853   1.568  14.786  0.1042  0.5863 -0.7190
  241MPD1    C4 3657   0.962   1.639  14.748 -0.0380 -0.1637  0.4428
  241MPD1    C5 3658   1.008   1.731  14.832 -0.5734  0.6207  0.8343
  241MPD1     H 3659   0.691   1.545  14.930  2.2604 -3.0989  1.8070
  241MPD1    H1 3660   1.019   1.616  14.659 -1.5697 -0.8159 -0.3657
  241MPD1    H2 3661   1.002   1.820  15.031  0.9852  1.1028 -2.7281
  241MPD1    H3 3662   1.096   1.788  14.803 -0.2464 -0.7617 -0.9056
  241MPD1     N 3663   0.807   1.477  14.682  0.0224 -0.2290  0.0031
  241MPD1    H5 3664   0.855   1.475  14.593 -0.9893  1.2866 -0.5850
  241MPD1    N1 3665   0.774   1.702  15.126  0.2618 -0.1018  0.3676
  241MPD1    H6 3666   0.674   1.689  15.116  0.0971  1.0494  0.6004
  241MPD1    H7 3667   0.793   1.787  15.178 -0.8003  1.2575 -1.4900
  242MPD1     C 3668   0.343   3.870  15.816  0.2530 -0.1525 -0.9442
  242MPD1    C1 3669   0.249   3.968  15.787  1.2365  0.1095  0.8797
  242MPD1    C2 3670   0.256   4.031  15.660  0.1259  1.0242  0.5375
  242MPD1    C3 3671   0.343   3.982  15.562  0.0392 -0.1278  0.0097
  242MPD1    C4 3672   0.420   3.870  15.594  0.4178  0.7641  0.3918
  242MPD1    C5 3673   0.418   3.814  15.720  0.3216 -0.0153  0.5283
  242MPD1     H 3674   0.196   4.119  15.640  1.3036  2.0271  1.4585
  242MPD1    H1 3675   0.484   3.828  15.517 -0.7484 -0.3484  0.0240
  242MPD1    H2 3676   0.343   3.830  15.917 -1.0335  2.2012 -0.0167
  242MPD1    H3 3677   0.464   3.720  15.749  1.8557 -0.0624 -2.0141
  242MPD1     N 3678   0.352   4.024  15.424  0.0324  0.5543 -0.6806
  242MPD1    H5 3679   0.424   3.981  15.366 -0.7390 -0.1506 -1.1063
  242MPD1    N1 3680   0.173   4.022  15.894 -0.2636  0.0468 -0.0853
  242MPD1    H6 3681   0.154   3.961  15.973  0.1716 -1.2370 -0.9736
  242MPD1    H7 3682   0.080   4.058  15.870 -1.0963 -1.3730  1.0298
  243MPD1     C 3683   2.580   4.343  16.804 -0.7905  0.1442 -0.5779
  243MPD1    C1 3684   2.544   4.312  16.676 -0.0450 -0.1826  0.1239
  243MPD1    C2 3685   2.479   4.197  16.659 -0.2482  0.3076 -0.2018
  243MPD1    C3 3686   2.449   4.114  16.765  0.2051 -0.2626 -0.6856
  243MPD1    C4 3687   2.484   4.145  16.895 -0.6714  1.0443  0.6358
  243MPD1    C5 3688   2.549   4.262  16.914  0.1524 -0.0013  0.0333
  243MPD1     H 3689   2.446   4.167  16.560  1.1943  0.8549 -0.8520
  243MPD1    H1 3690   2.446   4.091  16.982  2.1752 -1.0444  0.6049
  243MPD1    H2 3691   2.632   4.436  16.827 -0.8478 -0.5728  2.4524
  243MPD1    H3 3692   2.586   4.289  17.013 -3.8941  3.1592  0.6885
  243MPD1     N 3693   2.365   4.004  16.735 -0.0786  0.2051  0.3127
  243MPD1    H5 3694   2.318   4.007  16.645  0.9213 -0.5772 -0.2435
  243MPD1    N1 3695   2.565   4.401  16.573  0.4642  0.3589  0.2269
  243MPD1    H6 3696   2.565   4.361  16.480 -1.3437 -0.5700  0.6252
  243MPD1    H7 3697   2.655   4.448  16.586  1.6670 -1.8258 -0.0580
  244MPD1     C 3698   2.385   3.080  17.108 -0.1901 -0.1959  0.6055
  244MPD1    C1 3699   2.381   3.204  17.168 -0.8408  0.2324 -0.4059
  244MPD1    C2 3700   2.335   3.313  17.096 -0.1732  0.1524  0.0934
  244MPD1    C3 3701   2.296   3.303  16.966 -0.6523 -0.6565  0.6937
  244MPD1    C4 3702   2.304   3.179  16.906 -0.1869  0.5281  0.4458
  244MPD1    C5 3703   2.353   3.075  16.973 -0.2925 -0.3643 -0.6497
  244MPD1     H 3704   2.340   3.414  17.135 -3.2202  0.2313  0.2925
  244MPD1    H1 3705   2.272   3.164  16.803  0.0284  0.3426  0.4077
  244MPD1    H2 3706   2.433   2.996  17.157  0.4553 -1.1765 -1.7144
  244MPD1    H3 3707   2.357   2.982  16.918 -1.7232 -0.5302 -0.4708
  244MPD1     N 3708   2.269   3.425  16.899  0.6816 -0.2565  0.2008
  244MPD1    H5 3709   2.302   3.506  16.949 -0.8037 -0.0058  0.7692
  244MPD1    N1 3710   2.397   3.207  17.305 -0.1344  0.8685  0.0951
  244MPD1    H6 3711   2.437   3.296  17.334  2.8285 -0.7471  0.9746
  244MPD1    H7 3712   2.456   3.137  17.350 -1.1841  0.2001  0.4322
  245MPD1     C 3713   3.823   3.363  13.265  0.1593  0.2572  0.6556
  245MPD1    C1 3714   3.860   3.407  13.387  0.1376 -0.2894 -0.0230
  245MPD1    C2 3715   3.919   3.532  13.401  0.1833 -0.2032  0.1258
  245MPD1    C3 3716   3.946   3.615  13.297  0.2322 -0.0640 -0.7981
  245MPD1    C4 3717   3.912   3.568  13.173  0.4085 -0.5570 -0.0941
  245MPD1    C5 3718   3.852   3.442  13.154  0.1904 -0.1799  0.1860
  245MPD1     H 3719   3.948   3.574  13.497  2.0609 -0.9458 -0.1182
  245MPD1    H1 3720   3.937   3.623  13.084 -1.2760  2.5610  1.3621
  245MPD1    H2 3721   3.774   3.267  13.251  3.9166 -1.1460 -2.8711
  245MPD1    H3 3722   3.831   3.409  13.053  1.4024  0.6186 -0.3274
  245MPD1     N 3723   4.012   3.730  13.331  0.5430  0.8431 -0.2243
  245MPD1    H5 3724   4.019   3.761  13.428 -0.9817 -2.0915  0.8436
  245MPD1    N1 3725   3.828   3.333  13.504  0.2910 -0.3922 -0.2273
  245MPD1    H6 3726   3.887   3.363  13.581  0.0008 -0.0847 -0.1237
  245MPD1    H7 3727   3.851   3.237  13.480  1.1210 -0.4974  0.9921
  246MPD1     C 3728   1.417   4.084   9.361 -0.3800 -0.1181  0.6483
  246MPD1    C1 3729   1.317   4.030   9.283  0.5160 -0.0456 -0.4945
  246MPD1    C2 3730   1.232   4.121   9.234 -0.3511 -0.2133 -0.4509
  246MPD1    C3 3731   1.246   4.263   9.250  1.2595  1.2652 -0.7472
  246MPD1    C4 3732   1.344   4.307   9.338  1.3782 -0.2501 -0.8392
  246MPD1    C5 3733   1.426   4.214   9.398  0.1767 -0.3745  0.5439
  246MPD1     H 3734   1.141   4.087   9.186  1.4323 -1.6690 -2.8159
  246MPD1    H1 3735   1.371   4.412   9.327  0.4617  0.3298  2.5429
  246MPD1    H2 3736   1.495   4.025   9.408 -0.4261  0.1977  1.1181
  246MPD1    H3 3737   1.511   4.252   9.453  1.4400 -1.3625 -0.7524
  246MPD1     N 3738   1.155   4.351   9.185 -0.5045  0.3583 -0.0900
  246MPD1    H5 3739   1.104   4.314   9.105  1.1662  0.2357 -1.1091
  246MPD1    N1 3740   1.310   3.895   9.257  0.4060  0.7711 -0.2371
  246MPD1    H6 3741   1.392   3.840   9.279  0.7701  2.2296  2.1049
  246MPD1    H7 3742   1.261   3.879   9.169 -0.4098  0.5628  0.2559
  247MPD1     C 3743   3.490   4.341  16.145 -0.0696  0.0178  0.4804
  247MPD1    C1 3744   3.502   4.305  16.279 -0.3490 -0.4962 -0.4525
  247MPD1    C2 3745   3.494   4.174  16.313  0.0034  0.1127 -0.0375
  247MPD1    C3 3746   3.503   4.072  16.217  0.5905  0.6332 -0.7681
  247MPD1    C4 3747   3.500   4.114  16.084 -0.1682 -0.1359  0.3719
  247MPD1    C5 3748   3.490   4.244  16.049 -0.4243  0.3554  0.2206
  247MPD1     H 3749   3.488   4.152  16.419  0.9328 -0.3150 -0.0714
  247MPD1    H1 3750   3.496   4.046  16.000  0.5908  1.1460 -0.6873
  247MPD1    H2 3751   3.496   4.442  16.106  2.1802 -0.2787  0.0147
  247MPD1    H3 3752   3.474   4.277  15.948 -0.6261  0.5453  0.3148
  247MPD1     N 3753   3.521   3.935  16.243  0.1065  0.2979 -0.6207
  247MPD1    H5 3754   3.523   3.876  16.160  1.2746  0.4754 -0.7178
  247MPD1    N1 3755   3.495   4.402  16.377  0.7798  0.1962 -0.0133
  247MPD1    H6 3756   3.530   4.493  16.346  2.2613 -0.2099  0.4796
  247MPD1    H7 3757   3.555   4.382  16.457  2.0714  0.8182 -0.8197
  248MPD1     C 3758   3.669   3.126  17.642  0.0281  0.4831  0.1106
  248MPD1    C1 3759   3.593   3.048   0.028  0.5045  0.1582  0.6875
  248MPD1    C2 3760   3.476   3.102   0.078 -0.8154 -1.1812 -0.1737
  248MPD1    C3 3761   3.444   3.233   0.058  0.7380 -0.5636  0.5388
  248MPD1    C4 3762   3.521   3.310  17.669  0.3354 -0.0378 -0.0596
  248MPD1    C5 3763   3.632   3.256  17.612  0.5891 -0.3746  0.3411
  248MPD1     H 3764   3.417   3.035   0.140  1.2048 -0.7326  2.2019
  248MPD1    H1 3765   3.491   3.413  17.651 -1.4965 -0.2331  1.8887
  248MPD1    H2 3766   3.763   3.086  17.605 -1.0187 -1.1615 -0.7406
  248MPD1    H3 3767   3.695   3.304  17.538  2.2002 -0.0893  1.8939
  248MPD1     N 3768   3.319   3.279   0.116  0.2688  0.3626  0.2466
  248MPD1    H5 3769   3.272   3.224   0.187 -2.3187  0.6004 -1.2734
  248MPD1    N1 3770   3.621   2.909   0.026 -0.3835 -0.0300  0.0916
  248MPD1    H6 3771   3.720   2.889   0.028 -0.8733 -2.4658  0.0285
  248MPD1    H7 3772   3.585   2.869   0.112 -1.6432 -0.6753 -0.7244
  249MPD1     C 3773   0.933   2.532   9.214  0.5307 -0.2455 -0.5438
  249MPD1    C1 3774   1.012   2.629   9.158  0.0736  0.4790 -0.9527
  249MPD1    C2 3775   1.130   2.673   9.221  0.4280  0.2997 -1.1425
  249MPD1    C3 3776   1.149   2.639   9.349 -0.3712 -0.5149 -0.5115
  249MPD1    C4 3777   1.063   2.550   9.416 -0.3489 -0.6765  0.5821
  249MPD1    C5 3778   0.958   2.503   9.346  0.3474 -0.3938 -0.3594
  249MPD1     H 3779   1.202   2.740   9.176  1.4873 -1.5501 -2.1930
  249MPD1    H1 3780   1.070   2.517   9.519 -0.2700 -0.1037  0.7609
  249MPD1    H2 3781   0.851   2.486   9.160 -0.2939 -1.3206  1.6164
  249MPD1    H3 3782   0.900   2.429   9.401 -1.5495  0.2942 -1.4486
  249MPD1     N 3783   1.263   2.700   9.401 -0.4434  0.4783  0.0335
  249MPD1    H5 3784   1.323   2.763   9.349  0.6574  0.4220  1.2098
  249MPD1    N1 3785   1.002   2.655   9.027  0.0914  0.2814  0.2909
  249MPD1    H6 3786   0.917   2.615   8.987 -0.7399 -1.1577  3.4955
  249MPD1    H7 3787   1.005   2.756   9.013 -0.1693  0.2273 -0.1608
  250MPD2     C 3788   2.123   2.364  13.067  0.1811  0.4676  0.4577
  250MPD2    C1 3789   2.197   2.375  12.950  0.4354 -0.0157  0.0323
  250MPD2    C2 3790   2.150   2.307  12.840  0.0175 -0.0497  0.3114
  250MPD2    C3 3791   2.028   2.240  12.849 -0.2698  0.5435 -1.2427
  250MPD2    C4 3792   1.960   2.235  12.966 -0.3120 -0.5558 -0.0366
  250MPD2    C5 3793   2.005   2.300  13.072 -0.1873  0.5907 -0.5131
  250MPD2     H 3794   2.207   2.292  12.749  0.3252 -1.1712  0.6907
  250MPD2    H1 3795   1.868   2.179  12.973 -1.0948  0.7301  0.0294
  250MPD2    H2 3796   2.166   2.398  13.160  0.4798  1.8300 -0.1830
  250MPD2    H3 3797   1.952   2.292  13.166  0.4238 -4.1198 -0.5804
  250MPD2     N 3798   1.967   2.168  12.746  0.3522 -0.1667 -0.2866
  250MPD2    H5 3799   1.884   2.115  12.768  0.5523 -0.2392  0.2918
  250MPD2    N1 3800   2.317   2.443  12.950 -0.5597 -0.2266  0.7100
  250MPD2    H7 3801   2.342   2.501  13.030 -0.9143  2.3262 -1.0144
  251TMC3    C1 3802   2.488   2.575  12.860 -0.0932 -0.4211 -0.0466
  251TMC3    C2 3803   2.432   2.681  12.917 -0.2481 -0.8247 -0.2467
  251TMC3    C3 3804   2.492   2.801  12.908  0.2609  0.3490 -0.2273
  251TMC3    C4 3805   2.601   2.591  12.782 -0.2120 -0.3992 -0.5995
  251TMC3    C5 3806   2.659   2.716  12.781 -0.9503  0.5207 -0.0535
  251TMC3    C6 3807   2.607   2.824  12.843 -0.3363  0.4325 -0.6150
  251TMC3     C 3808   2.404   2.454  12.845 -0.4535  0.6790  0.1427
  251TMC3     O 3809   2.422   2.394  12.739  0.0136 -0.2632  0.2564
  251TMC3     H 3810   2.337   2.677  12.969  0.3061  1.0127  0.9108
  251TMC3    H1 3811   2.652   2.507  12.736  1.6008 -0.2191  1.0682
  251TMC3    H2 3812   2.652   2.922  12.835 -1.6734  1.1519  0.6699
  251TMC3    C7 3813   2.805   2.715  12.776 -0.2400  0.1213  0.4212
  251TMC3    C8 3814   2.405   2.912  12.951  0.0335 -0.3332  0.3464
  251TMC3    O1 3815   2.849   2.607  12.755  0.1740 -0.1764  0.3939
  251TMC3    O2 3816   2.322   2.889  13.039 -0.2682 -0.2186 -0.3010
  252TMC3    C1 3817   2.984   2.518   8.992 -0.2319  0.0479  0.0108
  252TMC3    C2 3818   3.116   2.546   8.995  1.0586 -0.6350 -0.5600
  252TMC3    C3 3819   3.158   2.638   9.092  0.6257 -0.7548 -0.4886
  252TMC3    C4 3820   2.889   2.587   9.066  0.4194  0.1419  0.0631
  252TMC3    C5 3821   2.933   2.694   9.154  0.5226 -0.6665 -0.1108
  252TMC3    C6 3822   3.071   2.720   9.159  0.9695  0.2465 -0.4158
  252TMC3     C 3823   2.951   2.422   8.887  0.2535  0.1980 -0.0274
  252TMC3     O 3824   3.034   2.339   8.856  0.5134  0.2968  0.0009
  252TMC3     H 3825   3.182   2.476   8.945  0.3154 -1.8140  0.1172
  252TMC3    H1 3826   2.789   2.546   9.073  1.2305 -1.4059  2.5403
  252TMC3    H2 3827   3.117   2.810   9.197 -2.5401  2.6604 -1.9210
  252TMC3    C7 3828   2.872   2.695   9.291 -0.2926  0.1116 -0.2150
  252TMC3    C8 3829   3.301   2.626   9.114  0.0992 -0.9229 -0.1855
  252TMC3    O1 3830   2.953   2.713   9.383 -0.0204 -0.0160 -0.0610
  252TMC3    O2 3831   3.364   2.537   9.057  0.3359 -0.4451  0.5289
  253MPD2     C 3832   3.517   1.999  14.817  0.1792 -0.4971 -0.2704
  253MPD2    C1 3833   3.381   2.005  14.827 -0.4445  0.3541 -0.0885
  253MPD2    C2 3834   3.320   2.005  14.949 -0.0322 -0.1159 -0.1968
  253MPD2    C3 3835   3.397   2.022  15.062  0.0926  0.3679  0.1960
  253MPD2    C4 3836   3.532   2.014  15.046  0.1890  0.1469  0.6463
  253MPD2    C5 3837   3.596   2.000  14.929 -0.1989 -0.1239  0.1169
  253MPD2     H 3838   3.212   2.001  14.952 -0.0733  1.5762  0.7366
  253MPD2    H1 3839   3.600   2.011  15.131 -0.1547  1.9902  0.9646
  253MPD2    H2 3840   3.569   1.993  14.722 -0.6136 -2.4058 -0.5836
  253MPD2    H3 3841   3.703   1.989  14.919 -0.0195 -0.3095  2.2600
  253MPD2     N 3842   3.341   2.043  15.189 -0.2816  0.0384 -0.0406
  253MPD2    H5 3843   3.406   2.091  15.252  0.1127 -1.2724  0.5442
  253MPD2    N1 3844   3.300   2.003  14.712 -0.4009 -0.1933  0.1475
  253MPD2    H7 3845   3.200   2.006  14.733  0.0804  0.2624  2.4399
  254TMC3    C1 3846   3.191   2.075  15.363  0.2241 -0.3724 -0.0312
  254TMC3    C2 3847   3.060   2.103  15.409 -0.5349  0.4032  0.0848
  254TMC3    C3 3848   3.035   2.105  15.546  0.3179 -0.1934  0.1499
  254TMC3    C4 3849   3.294   2.077  15.455  0.6082  0.1085 -0.6163
  254TMC3    C5 3850   3.262   2.078  15.588 -0.6598  0.2370 -0.0693
  254TMC3    C6 3851   3.135   2.086  15.636 -0.5509  0.2540 -1.0387
  254TMC3     C 3852   3.212   2.047  15.222  0.6017  0.3937 -0.3278
  254TMC3     O 3853   3.113   2.039  15.150 -0.6618  0.5149 -0.6673
  254TMC3     H 3854   2.980   2.094  15.336  1.2024  0.1672 -1.7766
  254TMC3    H1 3855   3.399   2.056  15.436  0.7709  0.2091  0.1571
  254TMC3    H2 3856   3.115   2.114  15.739  1.0844 -0.3075 -0.5739
  254TMC3    C7 3857   3.360   2.082  15.701 -0.0047 -0.6824  0.6695
  254TMC3    C8 3858   2.920   2.171  15.601  0.5068 -0.2459 -0.4329
  254TMC3    O1 3859   3.314   2.053  15.809 -0.7717  0.5292  0.0567
  254TMC3    O2 3860   2.898   2.174  15.722 -0.3760 -0.4523  0.5857
  255MPD2     C 3861   1.880   3.864   9.911 -0.1967 -0.1153  0.5433
  255MPD2    C1 3862   1.990   3.948   9.897  0.1124  0.4986  0.3956
  255MPD2    C2 3863   2.119   3.899   9.905 -0.4573  0.0078 -0.5658
  255MPD2    C3 3864   2.147   3.772   9.939  0.5498  0.3649  0.2394
  255MPD2    C4 3865   2.047   3.689   9.980 -1.1278  0.5569 -0.4560
  255MPD2    C5 3866   1.913   3.736   9.955  0.3540  0.3897  0.1069
  255MPD2     H 3867   2.200   3.970   9.899  0.5048 -1.0640 -0.1840
  255MPD2    H1 3868   2.055   3.593  10.029  3.5243  0.4318 -1.4778
  255MPD2    H2 3869   1.778   3.894   9.893  0.3444  1.4447  0.0846
  255MPD2    H3 3870   1.834   3.666   9.978  1.6505 -1.5758 -1.4786
  255MPD2     N 3871   2.283   3.732   9.936  0.0862 -0.0205  0.5093
  255MPD2    H5 3872   2.358   3.798   9.917 -0.2662  0.8374  2.0994
  255MPD2    N1 3873   1.955   4.079   9.842 -0.2421  0.1269 -0.0410
  255MPD2    H7 3874   1.860   4.097   9.811 -0.5618 -1.0568  0.2421
  256TMC3    C1 3875   1.998   4.300   9.768  0.7972  0.0471  0.4717
  256TMC3    C2 3876   2.090   4.399   9.763  0.0482 -0.6570 -0.0996
  256TMC3    C3 3877   2.077   4.503   9.678  0.4363 -0.7339 -0.0780
  256TMC3    C4 3878   1.892   4.294   9.686  0.8371 -0.6111  0.2614
  256TMC3    C5 3879   1.889   4.391   9.589  0.1934 -0.2725 -0.3370
  256TMC3    C6 3880   1.980   4.495   9.586  0.5021 -0.0642  0.0766
  256TMC3     C 3881   2.047   4.183   9.826 -0.0393  0.3319 -0.8087
  256TMC3     O 3882   2.163   4.185   9.861 -0.5541  0.4796  0.7911
  256TMC3     H 3883   2.177   4.405   9.827  0.6507  2.4415 -1.1934
  256TMC3    H1 3884   1.818   4.216   9.680  0.5698 -0.3737  0.4790
  256TMC3    H2 3885   1.984   4.571   9.509 -1.0123  0.2143  0.2789
  256TMC3    C7 3886   1.811   4.367   9.466  0.5510  0.3169  0.8351
  256TMC3    C8 3887   2.147   4.626   9.725  0.1524  0.2742 -0.9644
  256TMC3    O1 3888   1.765   4.252   9.452 -0.0041 -0.5783  0.1706
  256TMC3    O2 3889   2.231   4.606   9.813  0.3014 -0.2635 -0.1441
  257MPD2     C 3890   1.303   2.494  12.946 -0.6300  0.0868 -0.2478
  257MPD2    C1 3891   1.242   2.388  12.885 -0.1083  0.7885 -0.0025
  257MPD2    C2 3892   1.177   2.291  12.963  0.4994  0.7166 -0.0649
  257MPD2    C3 3893   1.181   2.306  13.099  0.1287  0.9123 -0.1284
  257MPD2    C4 3894   1.256   2.401  13.165 -0.1528  0.1081 -0.5077
  257MPD2    C5 3895   1.320   2.492  13.087 -0.3380 -0.3857  0.3852
  257MPD2     H 3896   1.116   2.213  12.919  0.5306  1.3906 -1.3173
  257MPD2    H1 3897   1.264   2.413  13.273  0.8044  1.2713 -0.7145
  257MPD2    H2 3898   1.354   2.572  12.891  1.3161 -0.5421  0.6773
  257MPD2    H3 3899   1.365   2.578  13.136  1.4354  0.8598 -3.4456
  257MPD2     N 3900   1.102   2.215  13.167 -0.1010 -0.3897  0.3543
  257MPD2    H5 3901   1.028   2.165  13.118  0.5213 -0.4040 -0.5789
  257MPD2    N1 3902   1.257   2.390  12.748 -0.1888 -0.2806  0.4496
  257MPD2    H7 3903   1.313   2.467  12.714 -0.6639  0.6417  1.7755
  258TMC3    C1 3904   0.996   2.103  13.352 -0.2894  0.0475  0.4063
  258TMC3    C2 3905   0.871   2.132  13.315  0.1602 -0.9832  0.2282
  258TMC3    C3 3906   0.775   2.091  13.402 -0.7161 -0.4157 -0.6224
  258TMC3    C4 3907   1.032   2.030  13.468  0.8872 -0.5799 -0.2275
  258TMC3    C5 3908   0.933   1.987  13.538  0.5046 -0.0455 -0.3420
  258TMC3    C6 3909   0.804   2.018  13.509  0.0058  0.1791 -0.4409
  258TMC3     C 3910   1.105   2.184  13.296  0.9353  0.3085 -0.0315
  258TMC3     O 3911   1.194   2.208  13.376 -0.0047  0.2445  0.3609
  258TMC3     H 3912   0.844   2.200  13.235  2.1719  1.8865  1.9685
  258TMC3    H1 3913   1.138   2.017  13.488  1.6856  1.6923 -2.9143
  258TMC3    H2 3914   0.721   1.990  13.573 -0.3412 -1.0656 -1.4328
  258TMC3    C7 3915   0.962   1.947  13.679  0.6073 -0.1739 -0.4257
  258TMC3    C8 3916   0.636   2.118  13.378  0.0861 -0.2624  0.2398
  258TMC3    O1 3917   0.884   1.986  13.765 -0.0322 -0.3603  0.1007
  258TMC3    O2 3918   0.565   2.165  13.467  0.3966  0.5154 -0.8176
  259MPD2     C 3919   3.909   4.168   0.643 -0.5407  0.0204  0.0922
  259MPD2    C1 3920   3.842   4.060   0.589 -0.1789 -0.4235 -0.7252
  259MPD2    C2 3921   3.890   3.998   0.477 -1.0302  0.1422 -0.2027
  259MPD2    C3 3922   4.014   4.038   0.426 -0.1060 -0.8858  0.1757
  259MPD2    C4 3923   4.079   4.149   0.487 -0.7441  0.4111  0.0673
  259MPD2    C5 3924   4.026   4.211   0.595 -0.1412  0.1223 -0.0428
  259MPD2     H 3925   3.836   3.914   0.435 -0.6371  0.3497 -1.1231
  259MPD2    H1 3926   4.177   4.192   0.467 -1.1458 -0.2722 -3.4345
  259MPD2    H2 3927   3.866   4.224   0.726  0.2152  2.3036 -1.0553
  259MPD2    H3 3928   4.093   4.285   0.637 -0.7803  0.9951 -0.5751
  259MPD2     N 3929   4.084   3.958   0.331  0.0741  0.4399  0.6488
  259MPD2    H5 3930   4.040   3.877   0.290  0.7313  0.6907 -0.5367
  259MPD2    N1 3931   3.722   4.031   0.647 -0.5004 -0.3500  0.3456
  259MPD2    H7 3932   3.700   4.097   0.720  2.2050 -1.3624  2.0650
  260TMC3    C1 3933   4.257   3.873   0.204 -0.0975  0.2856 -0.4943
  260TMC3    C2 3934   4.350   3.907   0.111 -0.5386 -0.0619  0.7706
  260TMC3    C3 3935   4.426   3.814   0.050 -0.2489  0.4571 -0.4456
  260TMC3    C4 3936   4.217   3.752   0.236 -0.5401  0.2042 -0.0735
  260TMC3    C5 3937   4.287   3.651   0.173 -0.0387 -0.1149 -0.1643
  260TMC3    C6 3938   4.395   3.687   0.084 -0.5284 -0.0265 -0.1962
  260TMC3     C 3939   4.210   3.984   0.287  0.4213  0.7164  0.2176
  260TMC3     O 3940   4.275   4.086   0.288 -0.2508 -0.5074 -0.5118
  260TMC3     H 3941   4.368   4.012   0.091  0.3949 -0.3941 -0.1331
  260TMC3    H1 3942   4.153   3.741   0.322  0.2664  0.6771  0.5830
  260TMC3    H2 3943   4.429   3.600   0.029 -0.3393 -0.9168  1.3067
  260TMC3    C7 3944   4.292   3.517   0.232  0.2338  0.0933  0.3164
  260TMC3    C8 3945   4.563   3.848   0.007  0.1927  0.5648 -0.2940
  260TMC3    O1 3946   4.389   3.448   0.208  0.3704 -0.1950  0.0365
  260TMC3    O2 3947   4.592   3.968   0.002 -0.2077  0.4710  0.2688
  261MPD2     C 3948   1.999   2.008  11.921 -0.1612 -0.3363  0.9588
  261MPD2    C1 3949   1.964   2.114  12.000 -0.4226 -0.1292  0.1262
  261MPD2    C2 3950   1.955   2.239  11.942 -0.9242 -0.5955  0.8598
  261MPD2    C3 3951   1.975   2.265  11.806 -0.0324 -0.3941  0.0220
  261MPD2    C4 3952   2.016   2.158  11.733  0.3045  0.3687  0.1690
  261MPD2    C5 3953   2.017   2.029  11.784 -0.0332  0.2114 -0.2726
  261MPD2     H 3954   1.922   2.322  12.003 -1.4644 -1.1391  1.3103
  261MPD2    H1 3955   2.054   2.169  11.632 -1.1681  1.8911 -0.2330
  261MPD2    H2 3956   2.012   1.908  11.959  0.8688  0.0299  1.5583
  261MPD2    H3 3957   2.036   1.938  11.727  0.6824  1.3905 -1.9328
  261MPD2     N 3958   1.967   2.390  11.742 -0.1264 -0.3374 -0.2670
  261MPD2    H5 3959   1.987   2.373  11.644 -0.4620  0.6747 -0.5164
  261MPD2    N1 3960   1.949   2.094  12.142  0.1353  0.4500 -0.4842
  261MPD2    H7 3961   1.922   2.176  12.195 -0.3908  1.1123 -1.7742
  262TMC3    C1 3962   1.947   2.623  11.704 -0.3358  0.3088  0.1566
  262TMC3    C2 3963   1.896   2.740  11.748  0.2524 -0.2721 -0.0605
  262TMC3    C3 3964   1.932   2.852  11.679  0.2863 -0.4124 -0.0676
  262TMC3    C4 3965   2.039   2.608  11.603 -0.0420 -0.1399  0.1683
  262TMC3    C5 3966   2.077   2.727  11.546  0.4183 -0.7311  0.4136
  262TMC3    C6 3967   2.034   2.850  11.581 -0.1889  0.0671 -0.0284
  262TMC3     C 3968   1.938   2.511  11.799 -0.4620 -0.2435  0.4228
  262TMC3     O 3969   1.884   2.536  11.909  0.2158 -0.2512 -0.0007
  262TMC3     H 3970   1.831   2.752  11.834  0.2057 -0.6020 -0.0487
  262TMC3    H1 3971   2.092   2.515  11.583 -2.0917 -1.0788 -0.8383
  262TMC3    H2 3972   2.047   2.937  11.516 -1.3291  0.3477  0.1195
  262TMC3    C7 3973   2.199   2.717  11.464 -0.5645  0.2751  0.3421
  262TMC3    C8 3974   1.866   2.984  11.703 -0.1121 -0.1828  0.4828
  262TMC3    O1 3975   2.227   2.611  11.409 -0.5263 -0.0391  0.8130
  262TMC3    O2 3976   1.935   3.083  11.687  0.6144 -0.1219  0.1151
  263MPD2     C 3977   3.039   1.056  11.356  0.7875  0.0049  0.0520
  263MPD2    C1 3978   3.152   1.101  11.295 -0.4303  0.5732 -0.5802
  263MPD2    C2 3979   3.147   1.106  11.153 -0.0144 -0.0439 -0.2536
  263MPD2    C3 3980   3.027   1.086  11.085 -0.0223 -0.5544  0.2745
  263MPD2    C4 3981   2.912   1.058  11.158  0.3035  0.5698 -1.0538
  263MPD2    C5 3982   2.926   1.034  11.291 -0.0413 -0.3144  0.1646
  263MPD2     H 3983   3.233   1.134  11.093  0.2230 -0.0433  0.0935
  263MPD2    H1 3984   2.813   1.068  11.116 -0.9537 -0.4636  1.6634
  263MPD2    H2 3985   3.042   1.045  11.464  0.3660 -0.2605  0.0366
  263MPD2    H3 3986   2.842   1.000  11.350 -0.6983 -1.2419 -1.3240
  263MPD2     N 3987   3.023   1.124  10.950  0.0714 -0.0465 -0.0450
  263MPD2    H5 3988   3.113   1.150  10.909 -0.3765  1.4257 -0.1069
  263MPD2    N1 3989   3.267   1.128  11.377 -0.3582  0.0871  0.3702
  263MPD2    H7 3990   3.260   1.102  11.475 -0.7488 -2.5779 -0.3787
  264TMC3    C1 3991   2.942   1.217  10.766 -0.0653 -0.1019  0.5801
  264TMC3    C2 3992   2.883   1.339  10.745  0.6081  0.3022 -0.9730
  264TMC3    C3 3993   2.890   1.398  10.622 -0.0827 -0.6222 -0.6339
  264TMC3    C4 3994   3.018   1.154  10.673  0.9015  0.1235 -0.2101
  264TMC3    C5 3995   3.026   1.217  10.547  0.4505  0.6002  0.3972
  264TMC3    C6 3996   2.969   1.338  10.530 -0.1192  0.4961  0.5237
  264TMC3     C 3997   2.910   1.148  10.882 -1.0947  0.2481 -0.5587
  264TMC3     O 3998   2.792   1.139  10.914 -0.3697  0.2133 -0.3032
  264TMC3     H 3999   2.819   1.369  10.828  1.4579  0.3303 -0.3304
  264TMC3    H1 4000   3.057   1.056  10.699  0.2481 -0.3951 -1.1799
  264TMC3    H2 4001   2.990   1.396  10.441  1.4592  0.0466  0.5875
  264TMC3    C7 4002   3.139   1.187  10.453 -0.3599 -0.5698 -0.0280
  264TMC3    C8 4003   2.853   1.542  10.611  0.1669 -0.3544  0.3804
  264TMC3    O1 4004   3.165   1.271  10.368 -0.8809  0.5678 -0.4531
  264TMC3    O2 4005   2.883   1.603  10.504  0.3865  0.3209  0.1092
  265MPD2     C 4006   4.543   1.829  15.350  0.0079 -0.4399  0.5270
  265MPD2    C1 4007   4.622   1.943  15.324  0.2646  0.0010 -0.1658
  265MPD2    C2 4008   4.711   1.953  15.218  0.6324  0.3997 -0.4685
  265MPD2    C3 4009   4.712   1.847  15.130  0.9391  0.2710 -0.1565
  265MPD2    C4 4010   4.630   1.736  15.149 -0.8888  0.2727 -0.2247
  265MPD2    C5 4011   4.552   1.720  15.258  0.0276  0.5898 -0.5472
  265MPD2     H 4012   0.036   2.048  15.200 -0.7676  1.2581  0.2862
  265MPD2    H1 4013   4.622   1.657  15.075 -0.5196  0.8111 -0.8501
  265MPD2    H2 4014   4.473   1.834  15.433 -0.6915 -2.3199  0.0505
  265MPD2    H3 4015   4.487   1.634  15.273 -0.4204  0.8724 -0.8902
  265MPD2     N 4016   0.073   1.849  15.017  0.3778 -0.4556 -0.1048
  265MPD2    H5 4017   0.070   1.777  14.946 -1.2921 -0.2708 -0.2230
  265MPD2    N1 4018   4.615   2.069  15.400  0.0245 -0.2134  0.2354
  265MPD2    H7 4019   4.675   2.147  15.374  0.4863 -0.2883  1.0695
  266TMC3    C1 4020   4.576   2.202  15.601  0.3448 -0.1651  0.6392
  266TMC3    C2 4021   4.609   2.201  15.737 -0.2477  0.7084  0.6127
  266TMC3    C3 4022   4.618   2.319  15.801 -0.2766 -0.5206 -0.1594
  266TMC3    C4 4023   4.549   2.318  15.531 -0.0605 -0.1746 -0.3410
  266TMC3    C5 4024   4.567   2.431  15.598 -0.2301 -0.7296  0.4636
  266TMC3    C6 4025   4.590   2.436  15.736  0.2583 -0.3446  0.0199
  266TMC3     C 4026   4.571   2.072  15.528  1.0949 -0.3042  0.0839
  266TMC3     O 4027   4.542   1.977  15.600  0.7261 -0.1056 -0.2787
  266TMC3     H 4028   4.612   2.105  15.786 -0.5836 -0.1956 -1.1441
  266TMC3    H1 4029   4.511   2.304  15.431  2.2071 -0.5588 -1.1557
  266TMC3    H2 4030   4.584   2.525  15.797  0.5809  0.0572 -0.5331
  266TMC3    C7 4031   4.529   2.547  15.527  0.1836  0.1933  0.0404
  266TMC3    C8 4032   4.717   2.320  15.908 -0.9118 -0.0763 -0.8447
  266TMC3    O1 4033   4.478   2.531  15.417 -0.0935 -0.1832  0.2411
  266TMC3    O2 4034   0.075   2.228  15.920 -0.5939 -0.3950  0.0401
  267MPD2     C 4035   1.815   4.034  17.666 -0.7956 -0.0759  0.2250
  267MPD2    C1 4036   1.902   4.004  17.560 -0.1365  0.6971 -0.1484
  267MPD2    C2 4037   1.935   4.106  17.468  0.8162  0.1174  0.1413
  267MPD2    C3 4038   1.897   4.235  17.494  0.4930  0.2523  0.0256
  267MPD2    C4 4039   1.817   4.266  17.603 -0.3062  0.3898 -0.1200
  267MPD2    C5 4040   1.782   4.166  17.692 -0.3607 -0.0975 -0.2549
  267MPD2     H 4041   2.007   4.087  17.389  0.0364 -1.8849 -0.0727
  267MPD2    H1 4042   1.797   4.370  17.623 -2.8960 -0.3619  1.1953
  267MPD2    H2 4043   1.790   3.958   0.042  0.1673 -0.3440  0.2632
  267MPD2    H3 4044   1.739   4.198   0.089  2.0203  1.6183  0.2412
  267MPD2     N 4045   1.943   4.336  17.401  0.4974 -0.3474  0.3107
  267MPD2    H5 4046   2.008   4.301  17.331 -0.7445 -1.4642 -0.2784
  267MPD2    N1 4047   1.957   3.873  17.563  0.2064  0.4945  0.4924
  267MPD2    H7 4048   1.922   3.802  17.626  0.7628  2.0861  2.5969
  268TMC3    C1 4049   2.113   3.699  17.520 -0.1786 -0.6304 -0.3720
  268TMC3    C2 4050   2.242   3.666  17.472  0.3564  0.2948 -0.9508
  268TMC3    C3 4051   2.301   3.549  17.515  0.2785  0.4751  0.0514
  268TMC3    C4 4052   2.040   3.607  17.593  0.1638 -0.4086 -0.4222
  268TMC3    C5 4053   2.100   3.496  17.640  0.3410 -0.3969  0.3412
  268TMC3    C6 4054   2.231   3.471  17.601 -0.3503 -0.8943 -0.2586
  268TMC3     C 4055   2.061   3.826  17.479 -0.0707  0.6469  0.4569
  268TMC3     O 4056   2.118   3.886  17.392 -0.6231  0.0617 -0.2915
  268TMC3     H 4057   2.289   3.743  17.412 -1.1458  0.2685 -2.1592
  268TMC3    H1 4058   1.932   3.614  17.593  0.1368 -0.8624  0.8763
  268TMC3    H2 4059   2.288   3.385  17.634  0.7939 -0.4752 -1.1217
  268TMC3    C7 4060   2.012   3.387  17.685  0.5693 -0.3423  0.1631
  268TMC3    C8 4061   2.422   3.506  17.452  0.1362  0.3141  0.2065
  268TMC3    O1 4062   1.893   3.403  17.674 -0.2991 -0.2846  0.1478
  268TMC3    O2 4063   2.499   3.436  17.515  0.1118 -0.1960 -0.1546
  269MPD2     C 4064   2.469   2.258  15.203 -0.0639  0.0044 -0.2444
  269MPD2    C1 4065   2.355   2.293  15.267 -0.4400 -0.6633  0.1304
  269MPD2    C2 4066   2.334   2.424  15.301 -0.5967  0.6561 -0.7935
  269MPD2    C3 4067   2.405   2.522  15.240  0.2305  1.1088  0.2156
  269MPD2    C4 4068   2.509   2.483  15.163  0.0740  0.1365  0.1274
  269MPD2    C5 4069   2.548   2.352  15.153 -0.5591  0.5512  0.2702
  269MPD2     H 4070   2.251   2.454  15.365 -0.7951  0.1488 -0.8134
  269MPD2    H1 4071   2.577   2.552  15.115 -1.6984  2.0540  0.3898
  269MPD2    H2 4072   2.493   2.156  15.174  2.4739  0.5784 -0.1090
  269MPD2    H3 4073   2.624   2.325  15.081 -1.5085  1.9611 -1.2430
  269MPD2     N 4074   2.372   2.659  15.261  0.4221  0.2586  0.7991
  269MPD2    H5 4075   2.293   2.686  15.319  0.3522  0.5533  0.5635
  269MPD2    N1 4076   2.278   2.179  15.298  0.0448 -0.4896  0.2357
  269MPD2    H7 4077   2.320   2.092  15.266  2.1601  0.0291  1.5621
  270TMC3    C1 4078   2.123   2.023  15.333 -0.6357  0.1120 -0.1915
  270TMC3    C2 4079   2.006   1.989  15.263  0.2088  0.1222  0.3309
  270TMC3    C3 4080   2.024   1.903  15.162 -0.3776  0.2075 -0.1014
  270TMC3    C4 4081   2.241   1.948  15.310  0.8634 -0.2801 -0.3528
  270TMC3    C5 4082   2.244   1.853  15.213  0.3207 -0.1750  0.0434
  270TMC3    C6 4083   2.133   1.834  15.127  0.1290  0.5172  0.2013
  270TMC3     C 4084   2.151   2.162  15.351 -0.2549  0.3685 -0.4700
  270TMC3     O 4085   2.054   2.238  15.355  0.0656 -0.6707  0.4937
  270TMC3     H 4086   1.918   2.052  15.271 -0.3215 -0.4886 -0.7026
  270TMC3    H1 4087   2.325   1.959  15.377  1.6550  1.0210 -1.5554
  270TMC3    H2 4088   2.143   1.772  15.039 -2.3012  0.1903  0.1578
  270TMC3    C7 4089   2.375   1.796  15.176  0.4766  0.1012  0.0875
  270TMC3    C8 4090   1.943   1.932  15.054 -0.5560 -0.3040 -0.3811
  270TMC3    O1 4091   2.473   1.856  15.214  0.0631 -0.0675 -0.2684
  270TMC3    O2 4092   1.822   1.943  15.081  0.2211 -0.1064  0.2669
  271MPD2     C 4093   1.651   2.479  13.546 -0.0624  0.4474 -0.4052
  271MPD2    C1 4094   1.593   2.398  13.641  0.7177 -0.0024 -0.8229
  271MPD2    C2 4095   1.460   2.397  13.654  0.4965  0.7799  0.0471
  271MPD2    C3 4096   1.385   2.484  13.577  0.7213  0.1203 -0.7474
  271MPD2    C4 4097   1.435   2.566  13.489  0.4187 -0.5038 -0.0332
  271MPD2    C5 4098   1.572   2.558  13.468 -0.2234 -0.3975  0.0534
  271MPD2     H 4099   1.415   2.330  13.726  0.0650  1.0036 -0.0116
  271MPD2    H1 4100   1.381   2.639  13.430 -1.6772 -0.6767  1.6812
  271MPD2    H2 4101   1.756   2.470  13.521 -0.0526 -3.2292  0.9038
  271MPD2    H3 4102   1.618   2.616  13.389 -0.2402  2.1380  1.8895
  271MPD2     N 4103   1.246   2.493  13.590 -0.0793  0.0569 -0.1362
  271MPD2    H5 4104   1.199   2.556  13.526 -2.4180  0.5137  2.0382
  271MPD2    N1 4105   1.668   2.310  13.723  0.0664 -0.5976  0.1802
  271MPD2    H7 4106   1.612   2.245  13.778 -0.1288  0.9979  1.8670
  272TMC3    C1 4107   1.855   2.218  13.838  0.2903  0.3232  0.2104
  272TMC3    C2 4108   1.960   2.135  13.817 -0.0476  0.1966 -0.3223
  272TMC3    C3 4109   1.994   2.047  13.916  0.0206  0.4613 -0.5616
  272TMC3    C4 4110   1.795   2.222  13.959 -0.4596  0.0835 -0.7267
  272TMC3    C5 4111   1.825   2.130  14.056 -1.1351  0.2165  1.0793
  272TMC3    C6 4112   1.931   2.043  14.039  0.3450 -0.2275  0.4082
  272TMC3     C 4113   1.809   2.309  13.728  0.5411 -0.7058 -0.3932
  272TMC3     O 4114   1.893   2.367  13.663  0.4503 -0.4809  0.4925
  272TMC3     H 4115   2.004   2.138  13.718  0.0492 -0.5992 -0.3030
  272TMC3    H1 4116   1.727   2.305  13.972 -0.5037 -0.1514  0.5345
  272TMC3    H2 4117   1.974   1.985  14.120 -1.6221 -0.8568  1.0122
  272TMC3    C7 4118   1.795   2.164  14.189  0.3565 -0.3990 -0.1867
  272TMC3    C8 4119   2.107   1.974  13.886 -0.4399  0.2007  0.2349
  272TMC3    O1 4120   1.862   2.110  14.269 -0.1273 -0.1180 -0.0385
  272TMC3    O2 4121   2.159   1.988  13.773 -0.1666  1.0374  0.5165
  273MPD2     C 4122   3.313   0.347  11.730 -0.3213  0.0189  0.1830
  273MPD2    C1 4123   3.444   0.366  11.730 -0.5842 -0.1386 -1.0324
  273MPD2    C2 4124   3.531   0.298  11.643 -0.8213 -0.3486  0.5188
  273MPD2    C3 4125   3.480   0.201  11.559 -0.3120 -0.4065  0.0989
  273MPD2    C4 4126   3.345   0.179  11.577 -0.3755  1.2412  0.2478
  273MPD2    C5 4127   3.260   0.252  11.657  0.5231  0.1971 -0.1888
  273MPD2     H 4128   3.638   0.310  11.645 -0.7942 -0.3941 -0.6394
  273MPD2    H1 4129   3.294   0.116  11.505  1.2661 -1.3612  1.3664
  273MPD2    H2 4130   3.248   0.416  11.781 -1.1755  0.0956 -1.0352
  273MPD2    H3 4131   3.154   0.235  11.646  0.6959 -0.3343 -0.9734
  273MPD2     N 4132   3.547   0.144  11.448  0.4509 -0.2360 -0.7951
  273MPD2    H5 4133   3.487   0.113  11.372  0.8442  1.5847 -1.8383
  273MPD2    N1 4134   3.492   0.470  11.816  0.3260  0.1769 -0.8543
  273MPD2    H7 4135   3.423   0.509  11.880 -0.5560 -1.9306 -0.4860
  274TMC3    C1 4136   3.710   0.160  11.281 -0.4890  0.4781 -0.0163
  274TMC3    C2 4137   3.630   0.083  11.196 -0.3522  0.6706  0.5526
  274TMC3    C3 4138   3.624   0.115  11.061 -0.0219  0.1214  0.7979
  274TMC3    C4 4139   3.772   0.269  11.227 -0.2498 -0.8725 -0.6846
  274TMC3    C5 4140   3.750   0.300  11.099 -0.1511  0.3363 -0.7691
  274TMC3    C6 4141   3.676   0.228  11.017 -0.5228 -0.3685 -0.2855
  274TMC3     C 4142   3.683   0.164  11.426  0.2776 -0.1437 -0.3484
  274TMC3     O 4143   3.766   0.217  11.496  0.2218  0.5150  0.3379
  274TMC3     H 4144   3.567   0.004  11.236  1.3500 -0.2984  1.3381
  274TMC3    H1 4145   3.834   0.334  11.288 -1.4661 -1.1386  0.8156
  274TMC3    H2 4146   3.711   0.229  10.914  0.4013 -1.9985  0.0061
  274TMC3    C7 4147   3.750   0.435  11.046 -0.0203 -0.3535  0.1645
  274TMC3    C8 4148   3.532   0.058  10.976 -0.1723  0.3184 -0.7086
  274TMC3    O1 4149   3.724   0.447  10.926 -0.4176 -0.4277 -0.8247
  274TMC3    O2 4150   3.462   4.699  11.036  0.0138 -0.2195  0.1545
  275MPD2     C 4151   3.322   3.080  14.224 -0.0857 -0.3996  0.1473
  275MPD2    C1 4152   3.240   3.118  14.331  0.7235 -0.2829 -0.1846
  275MPD2    C2 4153   3.104   3.121  14.305  0.7580  0.6258  0.3053
  275MPD2    C3 4154   3.047   3.074  14.187  0.4775 -0.8885  0.4258
  275MPD2    C4 4155   3.131   3.046  14.081  0.4913  0.8687 -0.0600
  275MPD2    C5 4156   3.269   3.040  14.103  0.5650 -0.6017 -0.0226
  275MPD2     H 4157   3.041   3.154  14.386 -2.0976 -0.0315 -1.6446
  275MPD2    H1 4158   3.095   3.018  13.983 -1.3948 -0.5358  1.0426
  275MPD2    H2 4159   3.430   3.080  14.233  0.0659  3.5687 -1.7890
  275MPD2    H3 4160   3.337   3.010  14.024  0.8631  0.2032 -0.0662
  275MPD2     N 4161   2.908   3.080  14.171 -0.1989  0.1518  0.1163
  275MPD2    H5 4162   2.873   3.079  14.076 -0.9162  1.7610  0.3580
  275MPD2    N1 4163   3.294   3.158  14.454 -0.1683 -0.2160  0.2591
  275MPD2    H7 4164   3.227   3.202  14.517  0.1492  1.3927 -0.5271
  276TMC3    C1 4165   3.432   3.140  14.631 -0.0108 -0.7338 -0.1246
  276TMC3    C2 4166   3.327   3.094  14.712 -0.4614  0.1026 -0.0881
  276TMC3    C3 4167   3.344   3.082  14.842 -0.1197  0.2685 -0.7904
  276TMC3    C4 4168   3.552   3.168  14.691 -0.4903 -0.6591  0.5537
  276TMC3    C5 4169   3.555   3.166  14.829 -0.4195 -0.0704  0.5129
  276TMC3    C6 4170   3.456   3.124  14.904  0.3365 -1.0948 -0.2620
  276TMC3     C 4171   3.426   3.153  14.487 -0.0532  0.2214  0.4639
  276TMC3     O 4172   3.532   3.142  14.424 -0.5397 -0.1744  0.3736
  276TMC3     H 4173   3.232   3.068  14.664  0.8644 -2.1932 -1.5031
  276TMC3    H1 4174   3.629   3.213  14.629 -1.5187 -2.0527 -1.7278
  276TMC3    H2 4175   3.469   3.105  15.009 -1.6995  2.0004  0.5645
  276TMC3    C7 4176   3.673   3.212  14.907 -0.0016 -0.0881  0.3873
  276TMC3    C8 4177   3.293   2.962  14.907 -0.0175  0.2668  0.1546
  276TMC3    O1 4178   3.658   3.226  15.031 -0.0279 -0.3886 -0.3467
  276TMC3    O2 4179   3.269   2.966  15.028  0.1284 -0.4685 -0.4473
  277MPD2     C 4180   0.529   1.682  13.068  0.2417 -0.0470 -0.4569
  277MPD2    C1 4181   0.396   1.667  13.054 -0.7087  0.1550  0.1873
  277MPD2    C2 4182   0.322   1.699  13.166 -0.4457 -0.1142 -0.0933
  277MPD2    C3 4183   0.373   1.751  13.280 -0.1285 -0.4783  0.8306
  277MPD2    C4 4184   0.506   1.778  13.293  0.3010 -0.1081  0.3721
  277MPD2    C5 4185   0.577   1.740  13.185 -0.5079 -0.0804  0.6001
  277MPD2     H 4186   0.217   1.671  13.172 -0.6211  0.4008 -0.7610
  277MPD2    H1 4187   0.556   1.819  13.380  0.6080  0.7660 -0.2193
  277MPD2    H2 4188   0.594   1.654  12.986 -0.1436 -3.0144  0.2320
  277MPD2    H3 4189   0.683   1.763  13.192 -0.3363 -1.0404  1.2332
  277MPD2     N 4190   0.285   1.764  13.387 -0.2779  0.2400  0.0106
  277MPD2    H5 4191   0.193   1.723  13.374  0.3912 -1.6563  1.2688
  277MPD2    N1 4192   0.348   1.603  12.940 -0.3578 -0.1902  0.7911
  277MPD2    H7 4193   0.425   1.576  12.879 -2.0488 -1.1412 -0.9278
  278TMC3    C1 4194   0.181   1.841  13.581 -0.3934  0.3645  0.1497
  278TMC3    C2 4195   0.131   1.718  13.615  0.9649 -0.5760  0.2032
  278TMC3    C3 4196   0.046   1.708  13.722 -0.3204  0.4077 -0.4736
  278TMC3    C4 4197   0.130   1.955  13.635  0.0345  0.1651 -0.2087
  278TMC3    C5 4198   0.029   1.942  13.732 -0.3202  0.3296  0.4039
  278TMC3    C6 4199   4.718   1.817  13.786 -0.4798 -0.1796 -0.9265
  278TMC3     C 4200   0.300   1.838  13.496  0.3856 -0.8422 -0.0213
  278TMC3     O 4201   0.384   1.923  13.528  0.2458 -0.4042 -0.2488
  278TMC3     H 4202   0.175   1.628  13.573  2.2424  0.7449 -1.2954
  278TMC3    H1 4203   0.147   2.051  13.587 -1.7206  0.2753 -0.5886
  278TMC3    H2 4204   4.650   1.807  13.871 -2.1525 -0.4513 -2.3067
  278TMC3    C7 4205   4.658   2.051  13.736 -0.1808 -0.9449 -0.6461
  278TMC3    C8 4206   4.717   1.580  13.766  0.4201 -0.0394 -0.9405
  278TMC3    O1 4207   4.689   2.158  13.684 -0.7618  0.2528  0.6677
  278TMC3    O2 4208   4.703   1.554  13.883 -0.3715  0.6065 -0.6272
  279MPD2     C 4209   3.873   1.678  17.626 -0.2656 -0.2095  0.5088
  279MPD2    C1 4210   3.827   1.753  17.519  0.0161 -0.3087 -0.2436
  279MPD2    C2 4211   3.916   1.815  17.434 -0.6189 -0.4732 -0.2853
  279MPD2    C3 4212   4.053   1.795  17.454  0.1898 -1.1178 -0.3199
  279MPD2    C4 4213   4.095   1.713  17.557  0.0454 -0.0792  0.2160
  279MPD2    C5 4214   4.012   1.659  17.645  0.5065  0.2566  0.5602
  279MPD2     H 4215   3.892   1.864  17.341  0.5648  0.4229 -0.1099
  279MPD2    H1 4216   4.201   1.691  17.565  0.4147  1.7332  0.3267
  279MPD2    H2 4217   3.808   1.630   0.000  0.7708  0.4147  1.8846
  279MPD2    H3 4218   4.058   1.591   0.019 -1.0634  0.8362  2.1403
  279MPD2     N 4219   4.158   1.860  17.382  0.0549  0.1037  0.4214
  279MPD2    H5 4220   4.252   1.827  17.404  0.7630  1.2453 -0.8677
  279MPD2    N1 4221   3.689   1.769  17.503 -0.3865 -0.3839  0.5439
  279MPD2    H7 4222   3.637   1.768  17.590  1.0414  0.8892  1.4039
  280TMC3    C1 4223   3.507   1.885  17.404 -0.2153 -0.1748  0.0996
  280TMC3    C2 4224   3.434   1.856  17.510  0.2276 -0.2523 -0.1681
  280TMC3    C3 4225   3.325   1.932  17.534  0.2850 -0.3401 -0.4112
  280TMC3    C4 4226   3.481   1.997  17.330 -0.0065 -0.1931  0.4479
  280TMC3    C5 4227   3.383   2.084  17.363 -0.5143  0.1250  0.8434
  280TMC3    C6 4228   3.307   2.049  17.468 -0.1614  0.5154 -0.0940
  280TMC3     C 4229   3.633   1.812  17.385 -0.2300  0.1861  0.9638
  280TMC3     O 4230   3.684   1.816  17.272  0.1888  0.0499  0.1738
  280TMC3     H 4231   3.453   1.769  17.571 -1.2469 -0.8015 -0.5106
  280TMC3    H1 4232   3.557   2.032  17.261 -0.5388  0.9489  0.4453
  280TMC3    H2 4233   3.243   2.121  17.517  0.3986 -0.1998  1.6731
  280TMC3    C7 4234   3.432   2.223  17.362 -0.3590  0.8965 -0.5012
  280TMC3    C8 4235   3.253   1.909  17.651  0.0098  0.0425  0.0816
  280TMC3    O1 4236   3.549   2.244  17.393  0.1400  0.0169  0.0776
  280TMC3    O2 4237   3.314   1.856   0.046  0.1395  0.3652  0.7087
  281TMC3    C1 4238   2.975   2.492  13.051 -0.1286 -0.6153 -0.0865
  281TMC3    C2 4239   3.097   2.544  13.013  0.3768  0.0891 -0.1593
  281TMC3    C3 4240   3.167   2.475  12.921 -0.8468 -0.1931 -0.1711
  281TMC3    C4 4241   2.927   2.373  12.997 -0.3069  0.1107 -0.2874
  281TMC3    C5 4242   3.005   2.306  12.908 -0.4077  0.7075  0.0979
  281TMC3    C6 4243   3.124   2.359  12.871 -0.1634  0.5458  0.9898
  281TMC3     C 4244   2.896   2.564  13.145  0.4866 -0.3575  0.1945
  281TMC3     O 4245   2.816   2.500  13.214 -1.1192 -0.0200  0.6799
  281TMC3     H 4246   3.131   2.630  13.070  1.5124 -1.3250  1.2858
  281TMC3    H1 4247   2.834   2.332  13.033  0.5022 -1.4341  0.0483
  281TMC3    H2 4248   3.181   2.316  12.789  0.9203  0.0774  1.9908
  281TMC3    C7 4249   2.977   2.175  12.857  0.1344  0.2775  0.2344
  281TMC3    C8 4250   3.300   2.521  12.880 -0.0704 -0.5904  0.1125
  281TMC3    O1 4251   3.040   2.135  12.765  0.1575  0.2889 -0.5609
  281TMC3    O2 4252   3.382   2.434  12.875 -0.1084 -0.0450 -0.1359
  282MPD2     C 4253   0.203   3.851  15.172  0.2740 -0.2179 -0.5634
  282MPD2    C1 4254   0.071   3.885  15.198 -0.3767  0.1956 -1.0059
  282MPD2    C2 4255   4.709   3.918  15.102  1.1134  0.0197 -0.3403
  282MPD2    C3 4256   0.018   3.891  14.969  0.0125 -0.5376  0.6853
  282MPD2    C4 4257   0.152   3.865  14.945  0.1293 -0.4819 -0.2955
  282MPD2    C5 4258   0.244   3.842  15.048  0.2142 -0.1941  0.2506
  282MPD2     H 4259   4.606   3.940  15.127  0.8344 -2.1955  0.4516
  282MPD2    H1 4260   0.189   3.873  14.844  1.2015 -1.4654  0.0183
  282MPD2    H2 4261   0.270   3.838  15.256 -2.1535  2.6240  1.8313
  282MPD2    H3 4262   0.347   3.814  15.029 -0.1378 -0.7449 -0.8239
  282MPD2     N 4263   4.642   3.910  14.873  0.6353  0.4732  0.5053
  282MPD2    H5 4264   4.548   3.931  14.907  1.3521  3.2327  0.8139
  282MPD2    N1 4265   0.017   3.900  15.325  0.1745 -0.2222  0.2876
  282MPD2    H7 4266   4.650   3.945  15.330 -0.3559 -1.5173  2.3475
  283TMC3    C1 4267   4.693   3.842  15.551 -0.5050  0.2011  0.2421
  283TMC3    C2 4268   4.658   3.977  15.583  0.5872  0.2335  0.3601
  283TMC3    C3 4269   4.585   3.998  15.693 -0.7733  0.1315  0.1144
  283TMC3    C4 4270   4.662   3.740  15.640 -0.0342  0.2958 -0.1097
  283TMC3    C5 4271   4.589   3.773  15.752  0.1839 -0.0690  0.4178
  283TMC3    C6 4272   4.537   3.897  15.767 -0.6678 -0.0607 -0.1996
  283TMC3     C 4273   0.066   3.834  15.442 -0.1932  1.0943  0.4421
  283TMC3     O 4274   0.151   3.751  15.457 -0.2934 -0.5167 -0.6242
  283TMC3     H 4275   4.699   4.054  15.518  0.8423 -1.8283 -1.9169
  283TMC3    H1 4276   4.682   3.640  15.604 -0.2379 -0.5890  2.1808
  283TMC3    H2 4277   4.476   3.915  15.855 -1.7172 -0.0430 -0.9337
  283TMC3    C7 4278   4.535   3.668  15.832 -0.1080  0.4831 -0.2604
  283TMC3    C8 4279   4.560   4.139  15.734 -0.1208 -0.2405  0.5151
  283TMC3    O1 4280   4.491   3.690  15.944 -0.5031 -0.2977  0.3935
  283TMC3    O2 4281   4.528   4.157  15.850 -0.3729 -0.0605 -0.1775
  284MPD2     C 4282   2.718   2.889  11.631  0.3493 -0.1404 -0.5551
  284MPD2    C1 4283   2.763   2.819  11.523 -0.6057  0.5136  0.3253
  284MPD2    C2 4284   2.719   2.689  11.500  0.0516 -0.2644 -0.1282
  284MPD2    C3 4285   2.648   2.616  11.595  0.4319  0.6317 -0.5317
  284MPD2    C4 4286   2.607   2.685  11.709  0.4974  0.0963 -0.4052
  284MPD2    C5 4287   2.640   2.816  11.717  0.3485  0.9057  0.6442
  284MPD2     H 4288   2.760   2.649  11.408 -0.3657 -2.1692  0.5097
  284MPD2    H1 4289   2.545   2.635  11.782  1.8620  0.6282  1.1214
  284MPD2    H2 4290   2.746   2.991  11.656  2.1786 -0.9926  0.8917
  284MPD2    H3 4291   2.592   2.864  11.802  1.6300  1.3880  1.0897
  284MPD2     N 4292   2.620   2.480  11.571 -0.0423  0.1824  0.6677
  284MPD2    H5 4293   2.564   2.441  11.647 -2.1837  1.7060 -0.1224
  284MPD2    N1 4294   2.862   2.863  11.439  0.1176  0.1717  0.0582
  284MPD2    H7 4295   2.897   2.792  11.375 -0.4341  0.7518 -0.8984
  285TMC3    C1 4296   3.031   2.999  11.339  0.4960  0.5250 -0.1142
  285TMC3    C2 4297   3.071   2.886  11.261  0.5847  0.7845 -0.0969
  285TMC3    C3 4298   3.194   2.892  11.202 -0.0635  0.4411  0.0158
  285TMC3    C4 4299   3.110   3.103  11.348  0.5232  0.0559 -0.0330
  285TMC3    C5 4300   3.234   3.098  11.296 -0.2655 -0.5834 -0.8569
  285TMC3    C6 4301   3.284   2.989  11.225 -0.5539  0.2064 -0.1774
  285TMC3     C 4302   2.938   2.977  11.449  0.5470 -0.5979  0.3657
  285TMC3     O 4303   2.928   3.065  11.535 -0.1526 -0.0607  0.0895
  285TMC3     H 4304   3.012   2.795  11.251  0.3337  1.1197 -1.6722
  285TMC3    H1 4305   3.076   3.184  11.411 -0.5991 -0.5845  0.1754
  285TMC3    H2 4306   3.380   2.997  11.177  0.5049 -0.1831  1.8898
  285TMC3    C7 4307   3.321   3.210  11.324  0.3766  0.8043 -0.0679
  285TMC3    C8 4308   3.200   2.817  11.080  0.1754 -0.2298  0.2423
  285TMC3    O1 4309   3.276   3.319  11.312 -0.1939  0.1350 -0.0096
  285TMC3    O2 4310   3.133   2.715  11.083 -0.1024 -0.2361  0.2559
  286MPD2     C 4311   2.395   2.002   1.484  0.0130 -0.1291 -0.4090
  286MPD2    C1 4312   2.414   1.973   1.347 -0.0316  0.4231  0.5469
  286MPD2    C2 4313   2.516   1.885   1.316  0.1076 -0.2362 -0.2709
  286MPD2    C3 4314   2.603   1.834   1.404  0.0856  0.2800 -0.0552
  286MPD2    C4 4315   2.575   1.854   1.537  0.5357 -0.2655 -0.2183
  286MPD2    C5 4316   2.470   1.935   1.578 -0.1551  0.5290  0.5277
  286MPD2     H 4317   2.545   1.872   1.212  0.2116  1.0721 -0.4117
  286MPD2    H1 4318   2.643   1.805   1.607 -0.9847 -1.0189  0.7366
  286MPD2    H2 4319   2.330   2.075   1.531 -2.1455 -1.4988 -1.2313
  286MPD2    H3 4320   2.457   1.946   1.685 -1.3456  1.7421  0.2551
  286MPD2     N 4321   2.707   1.750   1.357  0.0641  0.1963  0.0120
  286MPD2    H5 4322   2.693   1.719   1.261 -0.5293  0.0579  0.1424
  286MPD2    N1 4323   2.354   2.041   1.239  0.3261  0.1575  0.5446
  286MPD2    H7 4324   2.377   2.019   1.143  0.8318 -1.1913  0.9788
  287TMC3    C1 4325   2.914   1.638   1.335 -0.2737  0.2259 -0.0245
  287TMC3    C2 4326   2.899   1.663   1.201  0.0195 -0.1671 -0.6128
  287TMC3    C3 4327   2.995   1.601   1.117 -0.0778  0.0153 -0.3171
  287TMC3    C4 4328   3.019   1.568   1.387  0.2729  0.1465  0.0879
  287TMC3    C5 4329   3.113   1.513   1.305 -0.1152 -0.4889 -0.5824
  287TMC3    C6 4330   3.105   1.535   1.169  0.1433  0.0347  0.0095
  287TMC3     C 4331   2.823   1.711   1.425 -0.0887  0.0038  0.3451
  287TMC3     O 4332   2.855   1.722   1.546  0.2924  0.7979 -0.1061
  287TMC3     H 4333   2.817   1.721   1.161  0.0082 -0.1076 -0.5047
  287TMC3    H1 4334   3.037   1.564   1.494 -0.4519  0.8496  0.2368
  287TMC3    H2 4335   3.173   1.488   1.099 -0.0326  2.2045 -1.6429
  287TMC3    C7 4336   3.232   1.456   1.369  0.7174 -0.2604 -0.4215
  287TMC3    C8 4337   2.993   1.611   0.968  0.3594  0.4470 -0.2822
  287TMC3    O1 4338   3.229   1.437   1.491  0.2387  0.0769  0.4077
  287TMC3    O2 4339   3.098   1.587   0.913 -0.1803  0.1826  0.2715
  288TMC3    C1 4340   4.632   1.316  14.592  0.0077  1.3505 -0.0374
  288TMC3    C2 4341   4.593   1.261  14.708 -0.0757  0.1859  0.7780
  288TMC3    C3 4342   4.589   1.338  14.822  0.4154 -0.2130 -0.2385
  288TMC3    C4 4343   4.669   1.454  14.581 -0.3999  0.5249 -0.0219
  288TMC3    C5 4344   4.670   1.525  14.696 -0.6517  0.7476  0.2101
  288TMC3    C6 4345   4.621   1.471  14.814 -0.2012  0.0314  0.1775
  288TMC3     C 4346   4.686   1.229  14.481  1.2995 -0.0143  0.3917
  288TMC3     O 4347   4.645   1.115  14.472  0.3407 -0.1960  0.0333
  288TMC3     H 4348   4.574   1.155  14.716  0.7384 -0.1462 -1.6865
  288TMC3    H1 4349   4.711   1.495  14.490 -1.4649  1.0504 -0.2616
  288TMC3    H2 4350   4.599   1.519  14.908 -0.5183  1.2890 -0.5313
  288TMC3    C7 4351   4.695   1.664  14.693  0.5595  0.5063  0.9120
  288TMC3    C8 4352   4.517   1.292  14.941 -0.1672 -0.2373  0.0655
  288TMC3    O1 4353   4.682   1.719  14.800  0.4335 -0.4889 -0.1340
  288TMC3    O2 4354   4.516   1.366  15.038  0.7570  0.1931  0.1995
  289MPD2     C 4355   0.361   0.800  14.846  0.1880  0.1905 -0.4143
  289MPD2    C1 4356   0.378   0.844  14.714  0.9243  0.2407  0.0532
  289MPD2    C2 4357   0.268   0.824  14.634 -0.0991 -0.1277  0.7019
  289MPD2    C3 4358   0.141   0.777  14.680 -0.5065 -0.3313 -0.0041
  289MPD2    C4 4359   0.134   0.734  14.811  0.5453 -0.1544 -0.2951
  289MPD2    C5 4360   0.245   0.742  14.888 -0.2916 -0.1250 -0.0725
  289MPD2     H 4361   0.273   0.852  14.530  0.1042 -0.1803  0.6973
  289MPD2    H1 4362   0.039   0.714  14.860  0.9354  1.5971  1.1538
  289MPD2    H2 4363   0.430   0.825  14.925  2.1560  0.8988 -2.3610
  289MPD2    H3 4364   0.244   0.714  14.992  0.0410  0.4126  0.0728
  289MPD2     N 4365   0.026   0.764  14.601  0.3960  0.0308 -0.3127
  289MPD2    H5 4366   4.662   0.740  14.645  1.2954  0.9224  1.9604
  289MPD2    N1 4367   0.490   0.920  14.685  0.4289 -0.4134 -0.3806
  289MPD2    H7 4368   0.540   0.946  14.770  0.4914 -4.6166  0.8590
  290TMC3    C1 4369   4.613   0.731  14.419  0.4330  0.6262  0.0662
  290TMC3    C2 4370   4.577   0.816  14.313 -0.1924  0.1988  0.1275
  290TMC3    C3 4371   4.445   0.820  14.273  0.0946 -1.1173 -0.1194
  290TMC3    C4 4372   4.526   0.665  14.493  0.1409  0.5186  0.3079
  290TMC3    C5 4373   4.399   0.679  14.459 -0.8618 -0.8675 -0.0601
  290TMC3    C6 4374   4.352   0.748  14.346  0.5435  0.2721 -0.1478
  290TMC3     C 4375   0.023   0.752  14.467 -0.5608 -0.5473 -0.2628
  290TMC3     O 4376   0.118   0.759  14.394  0.3427  0.1458  0.1356
  290TMC3     H 4377   4.653   0.882  14.271 -1.6747  1.3018 -0.8139
  290TMC3    H1 4378   4.550   0.618  14.587  3.2057  1.6151  0.0795
  290TMC3    H2 4379   4.248   0.753  14.318  1.3277 -1.9675 -3.4845
  290TMC3    C7 4380   4.305   0.590  14.508 -0.6669  0.6144  0.0398
  290TMC3    C8 4381   4.400   0.929  14.194 -1.0382 -0.3441  0.6659
  290TMC3    O1 4382   4.204   0.635  14.556  0.1437 -0.6831  0.1612
  290TMC3    O2 4383   4.293   0.926  14.141 -0.6451 -0.1030 -0.3173
  291MPD2     C 4384   4.143   0.479  17.431  0.1140  0.9207 -0.0826
  291MPD2    C1 4385   4.119   0.359  17.366 -0.0347 -0.2501  0.2846
  291MPD2    C2 4386   4.228   0.296  17.311  0.3333  0.0407  0.3622
  291MPD2    C3 4387   4.359   0.332  17.330 -0.1295  0.2476 -0.1796
  291MPD2    C4 4388   4.376   0.453  17.392  0.6207 -0.6045  0.0041
  291MPD2    C5 4389   4.269   0.522  17.447  0.5113 -0.5882  0.1303
  291MPD2     H 4390   4.216   0.200  17.263  0.5043  0.9475 -1.5143
  291MPD2    H1 4391   4.476   0.491  17.404 -0.7193  2.6891  0.7725
  291MPD2    H2 4392   4.062   0.537  17.474 -1.1062  1.5273 -3.1766
  291MPD2    H3 4393   4.290   0.613  17.502  0.9399 -0.1044 -0.8519
  291MPD2     N 4394   4.476   0.269  17.281 -0.4125  0.0934  0.4106
  291MPD2    H5 4395   4.567   0.312  17.296 -0.0851 -0.5359  0.2656
  291MPD2    N1 4396   3.990   0.305  17.335 -0.9264 -0.6119 -0.1508
  291MPD2    H7 4397   3.993   0.223  17.276  2.5326 -0.8091  0.2817
  292TMC3    C1 4398   3.767   0.261  17.334 -0.1383  1.0584  0.1479
  292TMC3    C2 4399   3.644   0.312  17.342 -0.0503  0.2534 -0.8998
  292TMC3    C3 4400   3.540   0.228  17.367  0.1621  0.0768  0.6698
  292TMC3    C4 4401   3.780   0.126  17.353 -0.4782  0.3650 -0.5562
  292TMC3    C5 4402   3.674   0.043  17.362 -0.2058  0.4228 -0.2208
  292TMC3    C6 4403   3.547   0.094  17.363 -0.0990 -0.5550 -0.3441
  292TMC3     C 4404   3.870   0.353  17.374  0.4424 -0.3243 -0.8359
  292TMC3     O 4405   3.836   0.454  17.441  0.2542 -0.2725  0.0383
  292TMC3     H 4406   3.635   0.420  17.353 -1.1353  0.1558 -0.7897
  292TMC3    H1 4407   3.874   0.075  17.369  0.2467  2.0065  0.4507
  292TMC3    H2 4408   3.466   0.022  17.372 -0.5326  0.1948  1.6472
  292TMC3    C7 4409   3.706   4.635  17.420  0.3517  0.2577 -0.1526
  292TMC3    C8 4410   3.429   0.291  17.440  0.1155 -0.5783  0.5856
  292TMC3    O1 4411   3.789   4.569  17.362 -1.1398 -0.4648  0.5055
  292TMC3    O2 4412   3.464   0.372  17.524  0.5080  0.0751  0.4707
  293MPD2     C 4413   1.433   2.032  12.330 -0.2712  0.2368 -0.2391
  293MPD2    C1 4414   1.325   1.997  12.410  0.4436  0.1926 -0.0848
  293MPD2    C2 4415   1.338   2.007  12.542 -0.2024 -0.0724 -0.3250
  293MPD2    C3 4416   1.456   2.054  12.601  0.2935  0.2101  0.0964
  293MPD2    C4 4417   1.559   2.097  12.523  0.4932  0.1981  0.1466
  293MPD2    C5 4418   1.546   2.094  12.386  0.9200 -0.1272 -0.1994
  293MPD2     H 4419   1.261   1.989  12.616  0.5394 -1.6225  0.0687
  293MPD2    H1 4420   1.647   2.150  12.556  0.6474 -0.2747  0.5073
  293MPD2    H2 4421   1.437   2.019  12.222 -1.4281  0.2621 -0.2908
  293MPD2    H3 4422   1.629   2.123  12.322 -0.1972 -0.1266 -1.6582
  293MPD2     N 4423   1.457   2.086  12.736 -0.1415  0.2453  0.2792
  293MPD2    H5 4424   1.367   2.090  12.783  0.2044 -1.7435  1.0949
  293MPD2    N1 4425   1.216   1.937  12.348 -0.4070  0.6977  0.8459
  293MPD2    H7 4426   1.214   1.929  12.246 -1.0418  0.3393  0.8889
  294TMC3    C1 4427   1.021   1.812  12.318  0.6700 -0.9956  0.0884
  294TMC3    C2 4428   0.940   1.704  12.356 -0.4227 -0.1072  0.6183
  294TMC3    C3 4429   0.837   1.677  12.273  0.1222 -0.1940  0.5910
  294TMC3    C4 4430   1.004   1.880  12.206 -0.2434 -0.0132  0.2963
  294TMC3    C5 4431   0.897   1.843  12.125  0.4057  0.0447  0.4551
  294TMC3    C6 4432   0.815   1.737  12.150  0.2196 -0.6483  0.2247
  294TMC3     C 4433   1.114   1.867  12.414 -0.0020 -0.2896 -0.5397
  294TMC3     O 4434   1.103   1.827  12.529  0.6484  0.1075 -0.0675
  294TMC3     H 4435   0.946   1.651  12.450  0.6377  0.7952  1.0569
  294TMC3    H1 4436   1.044   1.980  12.196  1.4382 -0.8885 -1.5411
  294TMC3    H2 4437   0.726   1.711  12.095 -0.3032 -0.4985  1.0068
  294TMC3    C7 4438   0.864   1.938  12.024  0.3893  0.0299 -0.6913
  294TMC3    C8 4439   0.791   1.541  12.287 -0.6985  0.1181 -0.1930
  294TMC3    O1 4440   0.743   1.955  12.014 -0.3081 -0.2971  0.5024
  294TMC3    O2 4441   0.755   1.503  12.397  0.0957 -0.0695 -0.5533
  295MPD2     C 4442   1.510   0.649   0.588 -0.1442 -0.8392 -1.1065
  295MPD2    C1 4443   1.404   0.611   0.517  0.2683  0.9871  0.7866
  295MPD2    C2 4444   1.295   0.555   0.579  0.3033 -0.0283  0.0045
  295MPD2    C3 4445   1.295   0.550   0.725 -0.3433 -0.1787  0.0504
  295MPD2    C4 4446   1.402   0.606   0.793  0.5974 -0.9351 -0.1055
  295MPD2    C5 4447   1.506   0.645   0.723  0.1761 -0.1916  0.5115
  295MPD2     H 4448   1.214   0.513   0.521 -0.7811  1.8999  0.1225
  295MPD2    H1 4449   1.411   0.594   0.900  2.7751  0.7444 -0.0990
  295MPD2    H2 4450   1.606   0.676   0.544  0.1372  0.8095  0.5355
  295MPD2    H3 4451   1.589   0.679   0.784 -0.7432  0.7280  1.2371
  295MPD2     N 4452   1.194   0.483   0.798  0.5277  1.5927  0.3264
  295MPD2    H5 4453   1.216   0.481   0.897 -1.0914  0.8113  0.6779
  295MPD2    N1 4454   1.391   0.624   0.377 -0.2633 -0.0323 -0.5416
  295MPD2    H7 4455   1.296   0.599   0.349  0.0947  0.7787 -2.5307
  296TMC3    C1 4456   0.980   0.377   0.847 -0.5466 -0.2161  0.2699
  296TMC3    C2 4457   1.020   0.381   0.981 -0.4441 -0.1828 -0.5446
  296TMC3    C3 4458   0.956   0.283   1.056 -0.0627 -0.1170  0.4201
  296TMC3    C4 4459   0.870   0.305   0.795  0.6108  0.2124 -0.1810
  296TMC3    C5 4460   0.826   0.204   0.878  0.2298  0.1047 -0.3672
  296TMC3    C6 4461   0.868   0.190   1.010 -0.2165 -0.0112  0.2568
  296TMC3     C 4462   1.069   0.448   0.753  0.4745  0.8434 -0.4535
  296TMC3     O 4463   1.019   0.472   0.642  0.2939  0.1678 -0.4194
  296TMC3     H 4464   1.109   0.432   1.015  0.6613 -2.4245 -0.0414
  296TMC3    H1 4465   0.859   0.292   0.688 -1.8575  2.2746 -0.1918
  296TMC3    H2 4466   0.848   0.103   1.070  0.0360  0.0227  0.3897
  296TMC3    C7 4467   0.697   0.149   0.860  0.3875  0.1697  0.2613
  296TMC3    C8 4468   0.965   0.297   1.200 -0.1364  0.7981 -0.9711
  296TMC3    O1 4469   0.662   0.056   0.933 -0.0103  0.1275 -0.5775
  296TMC3    O2 4470   0.912   0.209   1.266  0.3226 -0.0371  0.0884
  297MPD2     C 4471   3.664   2.555  16.552 -0.2474 -0.2423  0.4862
  297MPD2    C1 4472   3.672   2.598  16.419 -0.4447  0.0793 -1.0064
  297MPD2    C2 4473   3.781   2.672  16.375 -0.3942 -0.9653  0.0697
  297MPD2    C3 4474   3.886   2.690  16.464  0.3076 -0.3619  0.3330
  297MPD2    C4 4475   3.886   2.626  16.587 -0.3930  0.4268  0.6954
  297MPD2    C5 4476   3.770   2.570  16.634 -0.4720  0.1746  0.7765
  297MPD2     H 4477   3.780   2.703  16.271  0.9912 -0.8979  0.0805
  297MPD2    H1 4478   3.965   2.626  16.661  0.9560  1.2038 -0.7567
  297MPD2    H2 4479   3.577   2.501  16.589  0.5191 -0.9527  1.2616
  297MPD2    H3 4480   3.756   2.528  16.733 -1.4493 -1.5695 -0.1156
  297MPD2     N 4481   3.989   2.781  16.437 -0.0126  0.0408 -0.0093
  297MPD2    H5 4482   4.065   2.780  16.505 -1.2274 -0.5743  1.3246
  297MPD2    N1 4483   3.569   2.579  16.327  0.1334 -0.4326 -0.3617
  297MPD2    H7 4484   3.596   2.591  16.230  1.7164  0.5010  0.1931
  298TMC3    C1 4485   3.359   2.518  16.241 -0.5200  0.0320 -0.4718
  298TMC3    C2 4486   3.423   2.510  16.120 -0.0194 -0.0948 -0.7628
  298TMC3    C3 4487   3.341   2.539  16.009  0.5947  0.1994  0.1276
  298TMC3    C4 4488   3.227   2.562  16.248 -0.0912  0.4250 -0.0001
  298TMC3    C5 4489   3.159   2.596  16.139 -0.4772 -0.0842 -0.1331
  298TMC3    C6 4490   3.220   2.597  16.020  0.4602 -0.3107 -0.5631
  298TMC3     C 4491   3.444   2.527  16.354  0.2339  0.7168  0.6354
  298TMC3     O 4492   3.390   2.514  16.463 -0.1075 -0.5545 -0.4317
  298TMC3     H 4493   3.516   2.456  16.104 -0.6159 -1.7602  1.3751
  298TMC3    H1 4494   3.180   2.575  16.345  1.7700  1.0585  0.8250
  298TMC3    H2 4495   3.172   2.653  15.941 -0.2327  0.1881  0.2114
  298TMC3    C7 4496   3.037   2.664  16.150 -0.1442 -0.2017 -0.3857
  298TMC3    C8 4497   3.401   2.515  15.884  0.6003  0.2130 -0.1368
  298TMC3    O1 4498   3.007   2.718  16.258 -0.0461  0.0449  0.1149
  298TMC3    O2 4499   3.520   2.521  15.873  0.7779 -0.8439  0.2674
  299MPD2     C 4500   4.535   2.421   9.715  0.3073  0.2356  0.2345
  299MPD2    C1 4501   4.451   2.350   9.796  0.2484  0.3618  0.1883
  299MPD2    C2 4502   4.323   2.331   9.753 -0.4462  0.3695  0.5977
  299MPD2    C3 4503   4.277   2.390   9.636  0.4016 -0.6515 -0.5874
  299MPD2    C4 4504   4.367   2.466   9.560 -0.6595  0.2359  0.0451
  299MPD2    C5 4505   4.497   2.469   9.596 -0.3943  0.4824 -0.2188
  299MPD2     H 4506   4.252   2.274   9.812  1.3886 -0.9601  1.5034
  299MPD2    H1 4507   4.335   2.493   9.460  1.5661  0.0226 -0.7120
  299MPD2    H2 4508   4.637   2.433   9.748  1.0290  3.1312 -2.9975
  299MPD2    H3 4509   4.572   2.518   9.534 -1.2142  0.6285 -1.0931
  299MPD2     N 4510   4.144   2.375   9.587  0.0551  0.3401 -0.3650
  299MPD2    H5 4511   4.115   2.430   9.507 -1.6744  0.0503  0.0511
  299MPD2    N1 4512   4.504   2.312   9.921 -0.3328 -0.5238  0.1915
  299MPD2    H7 4513   4.601   2.336   9.937 -0.6205 -0.2754  1.5639
  300TMC3    C1 4514   3.916   2.339   9.611 -0.6088 -0.4740  0.0810
  300TMC3    C2 4515   3.908   2.474   9.642  0.2492 -0.4948  0.8407
  300TMC3    C3 4516   3.787   2.510   9.689 -0.2226 -0.1126  0.8106
  300TMC3    C4 4517   3.814   2.247   9.607  0.5562 -0.4613  0.8884
  300TMC3    C5 4518   3.700   2.294   9.668  0.1451 -0.3246 -0.4956
  300TMC3    C6 4519   3.681   2.423   9.713 -0.2639 -0.2459  0.0907
  300TMC3     C 4520   4.051   2.285   9.631  0.7623 -0.4382 -0.2479
  300TMC3     O 4521   4.073   2.182   9.694  0.8824 -0.1763  0.0747
  300TMC3     H 4522   3.994   2.528   9.680  0.5325 -1.0360  0.9752
  300TMC3    H1 4523   3.819   2.140   9.593  0.2685  0.0753 -3.1398
  300TMC3    H2 4524   3.594   2.449   9.773 -0.5013  1.2544 -0.9001
  300TMC3    C7 4525   3.599   2.193   9.690  0.0970  0.0777  0.4377
  300TMC3    C8 4526   3.783   2.652   9.746 -0.0668  0.2579 -0.1602
  300TMC3    O1 4527   3.597   2.098   9.608 -0.0751  0.2946  0.1529
  300TMC3    O2 4528   3.882   2.720   9.747 -0.1165  0.0762  0.1239
  301MPD2     C 4529   0.552   3.604   0.386  0.5807  0.1696 -0.4473
  301MPD2    C1 4530   0.449   3.588   0.481  0.4138 -0.3453 -0.0221
  301MPD2    C2 4531   0.434   3.468   0.547  0.2021 -0.4055 -0.0218
  301MPD2    C3 4532   0.537   3.377   0.532 -0.3436  0.0801  0.3479
  301MPD2    C4 4533   0.644   3.403   0.453  0.2933  0.4248  0.1871
  301MPD2    C5 4534   0.647   3.512   0.368  0.2824  0.2311 -0.3914
  301MPD2     H 4535   0.349   3.453   0.613  0.5405 -0.6479  0.3589
  301MPD2    H1 4536   0.713   3.321   0.435 -1.9152 -1.8392  1.9053
  301MPD2    H2 4537   0.553   3.698   0.332 -1.1935  1.3592  1.5746
  301MPD2    H3 4538   0.722   3.527   0.291  2.0308 -0.6318  1.1445
  301MPD2     N 4539   0.540   3.248   0.599 -0.0907  0.1792  0.3833
  301MPD2    H5 4540   0.622   3.189   0.607 -0.5125 -0.5586 -0.5496
  301MPD2    N1 4541   0.371   3.693   0.517  0.3359 -0.3489  0.2078
  301MPD2    H7 4542   0.311   3.673   0.597 -0.4685  1.0640 -0.0316
  302TMC3    C1 4543   0.426   3.052   0.682  0.3890 -0.0551  0.5250
  302TMC3    C2 4544   0.546   2.993   0.729 -0.5255 -0.9785  0.0062
  302TMC3    C3 4545   0.543   2.873   0.792  0.0804  0.3137 -0.6621
  302TMC3    C4 4546   0.307   2.994   0.706 -0.0277  0.4629  0.1578
  302TMC3    C5 4547   0.311   2.874   0.781 -0.4626 -0.9363  0.1579
  302TMC3    C6 4548   0.426   2.806   0.819  0.4245  0.3013  0.3712
  302TMC3     C 4549   0.417   3.185   0.621  0.0249  0.7066 -0.5418
  302TMC3     O 4550   0.302   3.226   0.597 -0.1312  0.5341  0.1696
  302TMC3     H 4551   0.644   3.035   0.705  0.1741 -1.1422  2.5643
  302TMC3    H1 4552   0.216   3.039   0.667 -0.2626  0.1268  0.3227
  302TMC3    H2 4553   0.416   2.712   0.872 -1.3495 -0.4312 -1.2737
  302TMC3    C7 4554   0.200   2.841   0.874  0.0373 -0.4886 -0.3300
  302TMC3    C8 4555   0.661   2.791   0.791  0.3278 -0.3265  0.2114
  302TMC3    O1 4556   0.218   2.754   0.959  0.5173  0.6472  0.7442
  302TMC3    O2 4557   0.647   2.672   0.796 -0.2068  0.2763  0.4200
  303MPD2     C 4558   1.055   2.738  10.461 -0.2599  0.1092  0.2518
  303MPD2    C1 4559   1.087   2.610  10.476 -0.2457 -0.0595 -0.3849
  303MPD2    C2 4560   1.126   2.536  10.367  0.3018 -0.1909  0.6699
  303MPD2    C3 4561   1.142   2.589  10.237  0.0580 -0.0722 -0.1716
  303MPD2    C4 4562   1.108   2.724  10.226  0.2088 -0.2044  0.7036
  303MPD2    C5 4563   1.064   2.792  10.333  0.2994 -0.2409  0.4496
  303MPD2     H 4564   1.141   2.429  10.380  3.3023  0.5105  2.7257
  303MPD2    H1 4565   1.114   2.772  10.129  1.4014  1.6881  1.7129
  303MPD2    H2 4566   1.036   2.807  10.543  0.7347  0.4789  0.1701
  303MPD2    H3 4567   1.054   2.899  10.321  1.7229 -0.0806  0.6935
  303MPD2     N 4568   1.148   2.517  10.118 -0.6341 -0.8497  0.2250
  303MPD2    H5 4569   1.111   2.566  10.037 -1.6842 -1.2862  0.4471
  303MPD2    N1 4570   1.089   2.550  10.611  0.9623 -0.4576 -0.5383
  303MPD2    H7 4571   1.044   2.598  10.688  2.1340 -0.0603 -0.1010
  304TMC3    C1 4572   1.175   2.425  10.788 -0.1243 -0.2128  0.5545
  304TMC3    C2 4573   1.068   2.435  10.865  0.2825  0.0283 -0.3228
  304TMC3    C3 4574   1.073   2.393  10.998  0.7145  0.6796 -0.5057
  304TMC3    C4 4575   1.295   2.380  10.843 -0.1892 -0.6954 -0.1050
  304TMC3    C5 4576   1.312   2.369  10.977  0.3867 -0.0422  0.4909
  304TMC3    C6 4577   1.201   2.380  11.049  0.5000 -0.5651  0.1788
  304TMC3     C 4578   1.166   2.443  10.640 -0.3402  0.2667  0.3023
  304TMC3     O 4579   1.246   2.374  10.572  0.4104  0.2464 -0.4680
  304TMC3     H 4580   0.972   2.456  10.820  0.3444 -0.2499 -0.5856
  304TMC3    H1 4581   1.375   2.359  10.773 -1.7938  2.1687 -2.7922
  304TMC3    H2 4582   1.212   2.362  11.156  0.0936  1.7203  0.5916
  304TMC3    C7 4583   1.364   2.234  11.003  0.3935  0.2202  0.5450
  304TMC3    C8 4584   0.995   2.272  11.023 -0.5674 -0.4404  0.4464
  304TMC3    O1 4585   1.281   2.147  11.046  0.4749  0.0387 -0.1834
  304TMC3    O2 4586   0.931   2.224  10.933  0.4373  0.1970 -0.5226
  305MPD2     C 4587   4.502   4.268  13.724 -0.3411 -0.3699 -0.7741
  305MPD2    C1 4588   4.519   4.136  13.749  0.7142  0.6593  0.1748
  305MPD2    C2 4589   4.503   4.045  13.643  0.1287 -1.2232 -0.1232
  305MPD2    C3 4590   4.491   4.095  13.511 -0.4148 -0.4568  0.2148
  305MPD2    C4 4591   4.487   4.233  13.490  0.5377  0.0351 -0.3786
  305MPD2    C5 4592   4.482   4.318  13.600 -0.5419 -0.5071  0.0662
  305MPD2     H 4593   4.502   3.938  13.660  1.6657 -1.1573  0.3822
  305MPD2    H1 4594   4.492   4.273  13.389  1.3864  1.8198  0.3598
  305MPD2    H2 4595   4.515   4.341  13.803  0.3460 -2.3683  0.9634
  305MPD2    H3 4596   4.485   4.424  13.577  1.0165 -0.4526  0.5490
  305MPD2     N 4597   4.483   4.023  13.391 -0.1897 -0.0114  0.0638
  305MPD2    H5 4598   4.467   4.084  13.312  0.6513 -1.3443 -1.1337
  305MPD2    N1 4599   4.542   4.096  13.879 -0.0338  0.0329 -0.4215
  305MPD2    H7 4600   4.556   4.180  13.934  0.2630 -0.2109 -0.1256
  306TMC3    C1 4601   4.629   3.977  14.062  0.0842  0.1920 -1.2452
  306TMC3    C2 4602   0.005   3.883  14.095  0.2143  0.1073 -0.2905
  306TMC3    C3 4603   0.039   3.868  14.231  0.2201  0.1128 -0.4764
  306TMC3    C4 4604   4.552   4.029  14.160  0.2312 -0.7872 -0.8056
  306TMC3    C5 4605   4.589   4.012  14.290  0.2083  0.9392 -0.0998
  306TMC3    C6 4606   4.693   3.929  14.330  0.6312 -0.1465 -0.2903
  306TMC3     C 4607   4.573   3.968  13.921 -0.2562 -0.9458  0.1777
  306TMC3     O 4608   4.572   3.861  13.862 -0.4103 -0.4670 -0.7155
  306TMC3     H 4609   0.072   3.833  14.027  0.4818 -0.4072  0.3537
  306TMC3    H1 4610   4.459   4.073  14.128  0.0793  0.4362  1.3741
  306TMC3    H2 4611   4.716   3.917  14.435  2.0174  2.0813 -0.3255
  306TMC3    C7 4612   4.519   4.081  14.399  0.4866  0.1364 -0.6057
  306TMC3    C8 4613   0.166   3.795  14.260 -0.1637  0.8372 -1.1161
  306TMC3    O1 4614   4.402   4.119  14.379 -0.8682 -0.6194 -0.2326
  306TMC3    O2 4615   0.221   3.726  14.171  0.0654 -0.1107  0.2318
  307MPD2     C 4616   2.512   1.683   0.107 -0.0030  0.2731  0.0469
  307MPD2    C1 4617   2.432   1.769   0.029  0.3158 -0.3341 -0.1893
  307MPD2    C2 4618   2.318   1.830   0.086  0.4278  0.5134  0.1744
  307MPD2    C3 4619   2.282   1.801   0.216 -0.4940 -0.2516 -0.9071
  307MPD2    C4 4620   2.368   1.718   0.289 -0.2576  1.1915 -0.8389
  307MPD2    C5 4621   2.477   1.659   0.238 -0.3140 -0.0508 -0.5049
  307MPD2     H 4622   2.249   1.895   0.032 -0.6862 -0.9189 -0.1271
  307MPD2    H1 4623   2.347   1.693   0.392  1.0143 -0.4152 -0.9775
  307MPD2    H2 4624   2.585   1.617   0.061 -1.1599  0.4458 -2.0526
  307MPD2    H3 4625   2.533   1.589   0.298 -0.9574 -0.8402 -0.8267
  307MPD2     N 4626   2.163   1.858   0.271 -0.3615 -0.3150 -1.0824
  307MPD2    H5 4627   2.107   1.914   0.208 -0.4972  0.8986  0.1360
  307MPD2    N1 4628   2.475   1.806  17.598  0.0862  0.0370  0.2967
  307MPD2    H7 4629   2.426   1.888  17.564 -1.2796 -0.4858  0.9905
  308TMC3    C1 4630   1.745   1.870   0.479  0.1871 -0.0363  0.5294
  308TMC3    C2 4631   1.724   2.003   0.442 -0.4685  0.2695  0.1378
  308TMC3    C3 4632   1.827   2.067   0.375 -0.0672 -0.3072 -0.1131
  308TMC3    C4 4633   1.876   1.813   0.466 -0.4524 -0.8567  0.1189
  308TMC3    C5 4634   1.969   1.890   0.411 -0.3012  0.5373  0.4014
  308TMC3    C6 4635   1.948   2.014   0.369 -0.1739 -0.3137  0.3964
  308TMC3     C 4636   1.657   1.798   0.565  0.5312 -0.0654 -0.4145
  308TMC3     O 4637   1.704   1.693   0.611  0.2791  0.2576  0.9038
  308TMC3     H 4638   1.637   2.059   0.473 -1.7964 -0.2070 -2.7150
  308TMC3    H1 4639   1.911   1.721   0.510  2.6141 -0.4357 -1.4296
  308TMC3    H2 4640   2.026   2.072   0.320 -1.7497  1.3625 -0.1430
  308TMC3    C7 4641   2.103   1.831   0.399 -0.2601  0.1280 -0.3195
  308TMC3    C8 4642   1.801   2.196   0.318 -0.0756 -0.6704  0.2278
  308TMC3    O1 4643   2.140   1.748   0.488  0.0850  0.2706 -0.3203
  308TMC3    O2 4644   1.894   2.265   0.290  0.2796 -0.1199  0.9967
  309MPD2     C 4645   1.341   1.997  17.122 -0.6381  0.5697  0.3484
  309MPD2    C1 4646   1.324   2.094  17.030  0.3454 -0.5571  0.1089
  309MPD2    C2 4647   1.244   2.206  17.064 -0.0389  0.3108  0.1012
  309MPD2    C3 4648   1.184   2.213  17.191 -0.6447  0.3025  0.0958
  309MPD2    C4 4649   1.204   2.112  17.279  0.3818  0.1678  0.4728
  309MPD2    C5 4650   1.286   2.011  17.243 -0.1092 -0.2822  0.2990
  309MPD2     H 4651   1.236   2.293  16.999 -1.6421 -0.0274 -0.1527
  309MPD2    H1 4652   1.155   2.119  17.375 -0.2751  0.5594  0.1136
  309MPD2    H2 4653   1.393   1.905  17.097  0.4512  2.0212 -2.7717
  309MPD2    H3 4654   1.299   1.935  17.319  0.0817 -0.4968  0.0541
  309MPD2     N 4655   1.102   2.318  17.228  0.0137 -0.6221 -0.2099
  309MPD2    H5 4656   1.057   2.306  17.318  2.0287  1.9202  1.1258
  309MPD2    N1 4657   1.387   2.087  16.903 -0.2776  0.3517 -0.0068
  309MPD2    H7 4658   1.374   2.173  16.850 -2.3591  0.0447 -0.0245
  310TMC3    C1 4659   1.558   2.039  16.753  0.3243 -0.8297 -0.2973
  310TMC3    C2 4660   1.516   2.130  16.651 -0.3281  0.1794  0.3168
  310TMC3    C3 4661   1.600   2.148  16.544 -0.6877  0.2310 -0.0802
  310TMC3    C4 4662   1.678   1.971  16.746  0.1085  0.5304  0.1184
  310TMC3    C5 4663   1.754   1.992  16.634  0.1652  0.1299  0.2354
  310TMC3    C6 4664   1.716   2.084  16.535  0.5038 -0.4932 -0.3928
  310TMC3     C 4665   1.469   1.987  16.853  0.1761 -0.0002 -0.1301
  310TMC3     O 4666   1.497   1.879  16.892  0.3447 -0.1452  0.4012
  310TMC3     H 4667   1.424   2.186  16.662 -1.5886 -1.7337 -0.4964
  310TMC3    H1 4668   1.718   1.906  16.822  1.0842  0.8411 -0.1213
  310TMC3    H2 4669   1.773   2.112  16.447  1.6313  0.7085  0.7275
  310TMC3    C7 4670   1.883   1.925  16.621  0.1982 -0.5290 -0.2029
  310TMC3    C8 4671   1.587   2.273  16.467 -0.1810  0.6583  0.1161
  310TMC3    O1 4672   1.896   1.823  16.685  0.3814 -0.3212 -0.0207
  310TMC3    O2 4673   1.626   2.267  16.350 -0.0258  0.0908 -0.3744
  311MPD2     C 4674   3.717   3.290  12.779 -0.2304  0.6438 -0.2059
  311MPD2    C1 4675   3.727   3.428  12.799 -0.0564 -0.4855  0.2729
  311MPD2    C2 4676   3.617   3.490  12.853  0.1912 -0.6217  0.5040
  311MPD2    C3 4677   3.503   3.424  12.884 -1.0146  0.6048  0.8748
  311MPD2    C4 4678   3.497   3.284  12.876  0.0905  0.1916  0.0233
  311MPD2    C5 4679   3.610   3.226  12.820 -0.4548 -1.1567 -0.5255
  311MPD2     H 4680   3.618   3.598  12.855  1.5122 -0.6421  1.2480
  311MPD2    H1 4681   3.413   3.223  12.906 -0.4449  2.2756  2.8353
  311MPD2    H2 4682   3.790   3.233  12.722 -0.8656  1.3739 -1.7523
  311MPD2    H3 4683   3.606   3.120  12.796  0.2680 -1.0787 -0.9739
  311MPD2     N 4684   3.403   3.503  12.938  0.7439 -0.4035 -0.4258
  311MPD2    H5 4685   3.424   3.596  12.971 -1.0042 -0.4316  0.8011
  311MPD2    N1 4686   3.830   3.505  12.762 -0.0767 -0.0143  0.4148
  311MPD2    H7 4687   3.815   3.604  12.751 -3.0912 -0.3668  1.5202
  312TMC3    C1 4688   3.178   3.568  13.002 -0.5594  0.5162 -0.3264
  312TMC3    C2 4689   3.083   3.585  12.910  0.5946  0.3372  0.3829
  312TMC3    C3 4690   3.029   3.712  12.903 -0.9820  0.6274  0.2951
  312TMC3    C4 4691   3.223   3.657  13.096 -0.2679 -0.5163  0.1127
  312TMC3    C5 4692   3.160   3.779  13.087 -0.0977 -0.1221 -0.3574
  312TMC3    C6 4693   3.062   3.816  12.995 -0.4762  0.1612 -0.9401
  312TMC3     C 4694   3.270   3.465  12.951 -0.3046  0.1009  0.0017
  312TMC3     O 4695   3.225   3.363  12.896 -0.0957  0.8544 -0.0055
  312TMC3     H 4696   3.059   3.509  12.837  1.8465 -0.1755  0.4998
  312TMC3    H1 4697   3.307   3.634  13.160 -0.6382  1.5676  1.3612
  312TMC3    H2 4698   3.019   3.913  13.015 -0.0632  0.1435  0.0494
  312TMC3    C7 4699   3.215   3.888  13.165  0.0010 -0.0318  0.4498
  312TMC3    C8 4700   2.896   3.725  12.841 -0.3682  0.6030  0.4963
  312TMC3    O1 4701   3.196   3.998  13.115 -0.4274  0.1963 -0.0816
  312TMC3    O2 4702   2.842   3.626  12.790 -0.1756 -0.9679 -0.6389
  313MPD2     C 4703   2.752   2.840  10.831 -0.1998  0.4739  0.2960
  313MPD2    C1 4704   2.819   2.872  10.720  0.1064  0.3090  0.3661
  313MPD2    C2 4705   2.801   2.808  10.604 -0.3325 -0.3170  0.3023
  313MPD2    C3 4706   2.728   2.690  10.607  0.2153 -0.0482  0.5191
  313MPD2    C4 4707   2.659   2.653  10.724 -0.2922 -0.5830 -0.3881
  313MPD2    C5 4708   2.662   2.736  10.832  0.3622 -0.3812 -0.1751
  313MPD2     H 4709   2.859   2.824  10.514  1.6352 -3.5682  1.0011
  313MPD2    H1 4710   2.612   2.555  10.721 -2.9433  0.5933  2.2888
  313MPD2    H2 4711   2.750   2.897  10.924 -0.1643  0.7112  0.1523
  313MPD2    H3 4712   2.604   2.699  10.916 -1.3522  1.3878 -0.5872
  313MPD2     N 4713   2.732   2.615  10.486 -0.2130 -0.6904  0.7844
  313MPD2    H5 4714   2.787   2.654  10.410  1.8421 -1.1626  2.0449
  313MPD2    N1 4715   2.909   2.982  10.725 -0.0021  0.0151  0.0374
  313MPD2    H7 4716   2.950   3.002  10.633 -2.2226 -0.1498 -0.9839
  314TMC3    C1 4717   3.074   3.134  10.795  0.2754 -0.7203  0.4092
  314TMC3    C2 4718   3.182   3.151  10.875  0.2410  0.2987  0.4519
  314TMC3    C3 4719   3.294   3.214  10.814 -0.4721  0.6161  0.1565
  314TMC3    C4 4720   3.059   3.189  10.669 -0.5773 -0.1158 -0.3619
  314TMC3    C5 4721   3.169   3.249  10.621  0.5184 -0.6422  0.0388
  314TMC3    C6 4722   3.290   3.264  10.688  0.6702  0.2233 -0.0519
  314TMC3     C 4723   2.977   3.030  10.838  0.4272 -0.8798 -0.1480
  314TMC3     O 4724   2.975   2.999  10.957  1.2757  0.1597 -0.1408
  314TMC3     H 4725   3.186   3.114  10.977 -1.0639 -1.2580 -0.0632
  314TMC3    H1 4726   2.967   3.191  10.612  0.7709  1.0173 -2.5016
  314TMC3    H2 4727   3.374   3.309  10.636  1.4845  0.8704  1.8412
  314TMC3    C7 4728   3.156   3.312  10.492  0.4332  0.6043 -0.1668
  314TMC3    C8 4729   3.417   3.218  10.889  0.0997 -0.0019  0.4117
  314TMC3    O1 4730   3.043   3.342  10.466 -0.0833 -0.5698 -0.0240
  314TMC3    O2 4731   3.435   3.121  10.969 -0.3885 -0.0229 -0.8331
  315MPD2     C 4732   2.480   2.657   0.081  0.7010 -0.2588  0.3036
  315MPD2    C1 4733   2.612   2.627   0.067 -0.3478 -0.0298 -0.3013
  315MPD2    C2 4734   2.692   2.686  17.673  0.0196  0.1580 -0.2178
  315MPD2    C3 4735   2.639   2.778  17.586 -0.2003 -0.0251 -0.2223
  315MPD2    C4 4736   2.509   2.818  17.609  0.7640  0.7051  0.4329
  315MPD2    C5 4737   2.428   2.755   0.003 -0.2014 -0.5263  0.2694
  315MPD2     H 4738   2.795   2.653  17.670 -0.1397 -0.3935  0.2317
  315MPD2    H1 4739   2.469   2.901  17.553  1.9057 -0.4513 -2.0750
  315MPD2    H2 4740   2.420   2.621   0.163  0.5341  2.4733  1.3922
  315MPD2    H3 4741   2.329   2.794   0.025  0.5383  1.5359  0.0014
  315MPD2     N 4742   2.724   2.834  17.483 -0.0197 -0.1808  0.4942
  315MPD2    H5 4743   2.820   2.799  17.479 -1.0838 -2.7944 -1.7975
  315MPD2    N1 4744   2.683   2.546   0.164  0.5506 -0.1789  0.1871
  315MPD2    H7 4745   2.784   2.548   0.156  0.4882 -1.1928 -0.8545
  316TMC3    C1 4746   2.803   2.968  17.310 -0.3232 -0.3684 -0.1491
  316TMC3    C2 4747   2.936   2.925  17.332 -0.2441  0.2766  0.4105
  316TMC3    C3 4748   3.031   2.967  17.247  0.0309 -0.2277  0.1839
  316TMC3    C4 4749   2.770   3.054  17.208 -0.5463 -0.3764 -0.3428
  316TMC3    C5 4750   2.869   3.104  17.133 -0.7725  0.0540  0.1945
  316TMC3    C6 4751   3.000   3.061  17.148 -0.3900 -0.7233 -0.3439
  316TMC3     C 4752   2.697   2.932  17.396  0.4345  0.2539  0.0559
  316TMC3     O 4753   2.591   2.991  17.382 -0.0222 -0.2972  0.5223
  316TMC3     H 4754   2.969   2.867  17.417 -2.3031 -0.6301  0.6040
  316TMC3    H1 4755   2.668   3.085  17.188  0.0393  0.7358 -1.6212
  316TMC3    H2 4756   3.073   3.116  17.089 -1.3248  0.7495 -0.0977
  316TMC3    C7 4757   2.842   3.199  17.025  0.4802 -0.2356  0.3304
  316TMC3    C8 4758   3.148   2.889  17.229  0.0149 -0.5239 -0.1697
  316TMC3    O1 4759   2.939   3.262  16.979 -0.1795  0.1848 -0.7537
  316TMC3    O2 4760   3.224   2.933  17.144 -0.1707 -0.0630 -0.0861
  317MPD2     C 4761   4.691   0.618  12.262  0.2118 -0.4693 -0.1483
  317MPD2    C1 4762   0.088   0.549  12.271 -0.8508  0.2472 -0.1035
  317MPD2    C2 4763   0.135   0.502  12.395 -0.4906  0.2163  0.0862
  317MPD2    C3 4764   0.068   0.531  12.510 -0.1390 -0.2456 -0.3453
  317MPD2    C4 4765   4.660   0.585  12.504 -0.3380 -0.1845 -0.0911
  317MPD2    C5 4766   4.614   0.622  12.380  0.1193 -0.1526 -0.0697
  317MPD2     H 4767   0.238   0.468  12.389 -0.6106 -0.2450  0.5929
  317MPD2    H1 4768   4.601   0.602  12.593 -2.0964 -1.2843 -1.0451
  317MPD2    H2 4769   4.641   0.655  12.173  0.1439 -0.9959 -0.3334
  317MPD2    H3 4770   4.525   0.682  12.364 -0.1829 -0.6780 -0.3493
  317MPD2     N 4771   0.143   0.511  12.625  0.3504  0.6377 -0.5753
  317MPD2    H5 4772   0.234   0.468  12.616 -0.0550 -0.3390 -0.0379
  317MPD2    N1 4773   0.169   0.531  12.155  0.0674 -0.6259 -0.0042
  317MPD2    H7 4774   0.262   0.497  12.177  0.4920 -0.1078 -1.0184
  318TMC3    C1 4775   0.181   0.498  12.855 -0.0269 -0.2404  0.0647
  318TMC3    C2 4776   0.131   0.414  12.951 -0.6945 -0.1539  0.8660
  318TMC3    C3 4777   0.222   0.357  13.038  0.4206  0.2128  0.0285
  318TMC3    C4 4778   0.309   0.532  12.838 -0.7888 -0.0984 -0.5207
  318TMC3    C5 4779   0.392   0.480  12.930 -0.3341 -0.1599  0.3043
  318TMC3    C6 4780   0.355   0.393  13.031 -0.3083  0.1867 -0.6923
  318TMC3     C 4781   0.093   0.532  12.756  0.0574 -0.0907 -0.9472
  318TMC3     O 4782   4.717   0.581  12.799  0.3345  0.3890 -0.3263
  318TMC3     H 4783   0.029   0.379  12.937 -0.8078  0.2020  0.8098
  318TMC3    H1 4784   0.329   0.609  12.764 -2.3059  1.1799  0.3802
  318TMC3    H2 4785   0.420   0.343  13.102 -1.1688 -1.1585 -0.8677
  318TMC3    C7 4786   0.519   0.545  12.929  0.3219  0.1781 -0.1385
  318TMC3    C8 4787   0.190   0.235  13.105 -0.3856 -0.4376  0.3050
  318TMC3    O1 4788   0.547   0.613  12.833 -0.0206 -0.1881 -0.1724
  318TMC3    O2 4789   0.277   0.157  13.142  0.3411 -0.0658 -0.0264
  319MPD2     C 4790   1.234   2.268  16.120  0.2185  0.2533  0.2003
  319MPD2    C1 4791   1.137   2.168  16.145  0.0749 -0.4649  0.0408
  319MPD2    C2 4792   1.127   2.069  16.052  0.5066 -0.7112 -0.0902
  319MPD2    C3 4793   1.197   2.063  15.929  0.7634 -0.2554  0.4751
  319MPD2    C4 4794   1.290   2.165  15.912 -0.5856 -0.1011 -0.2061
  319MPD2    C5 4795   1.309   2.257  16.014 -0.0188  0.6306  0.1560
  319MPD2     H 4796   1.046   1.998  16.067 -0.7042  0.6201 -0.2645
  319MPD2    H1 4797   1.358   2.158  15.828 -0.0058 -1.3961  0.3698
  319MPD2    H2 4798   1.255   2.336  16.201  0.3915  0.6750 -0.1989
  319MPD2    H3 4799   1.381   2.336  15.996 -0.8518  1.7849  1.8394
  319MPD2     N 4800   1.157   1.975  15.817  0.2627 -0.7118  0.1353
  319MPD2    H5 4801   1.193   1.995  15.724  0.3107  1.0544  0.5241
  319MPD2    N1 4802   1.070   2.152  16.267 -0.0782  0.7588 -0.1231
  319MPD2    H7 4803   1.036   2.058  16.284  0.5196  0.2189 -1.9330
  320TMC3    C1 4804   1.020   1.820  15.701 -0.3754 -0.4715  0.7077
  320TMC3    C2 4805   0.992   1.905  15.596  0.6921  0.2094 -0.2175
  320TMC3    C3 4806   0.909   1.862  15.499 -0.5510  0.2875  0.1442
  320TMC3    C4 4807   0.957   1.698  15.719 -0.1717 -0.0934  0.7351
  320TMC3    C5 4808   0.872   1.667  15.615  0.5666 -0.0896  0.6176
  320TMC3    C6 4809   0.846   1.740  15.502  0.6047  0.4435 -0.4593
  320TMC3     C 4810   1.071   1.863  15.827 -0.2340  0.3902 -0.1479
  320TMC3     O 4811   1.030   1.821  15.933 -0.0972 -1.1131  0.7542
  320TMC3     H 4812   1.019   2.009  15.590 -1.3331  0.7152 -0.7040
  320TMC3    H1 4813   0.993   1.625  15.790  1.8910  0.2403  0.0588
  320TMC3    H2 4814   0.764   1.717  15.435  1.9043  2.9810 -2.9426
  320TMC3    C7 4815   0.757   1.594  15.650  0.8845  0.0428  0.6841
  320TMC3    C8 4816   0.838   1.957  15.424 -0.3584 -0.0342  0.5340
  320TMC3    O1 4817   0.699   1.531  15.566 -0.2096 -0.1428  0.2137
  320TMC3    O2 4818   0.806   1.923  15.312 -0.3664 -0.0271  0.1291
  321TMC3    C1 4819   0.950   2.203  16.463  0.1164  0.4503  0.4197
  321TMC3    C2 4820   0.871   2.091  16.446 -0.2144  0.3737  0.0782
  321TMC3    C3 4821   0.763   2.074  16.525 -0.0067 -0.2369 -0.4953
  321TMC3    C4 4822   0.922   2.296  16.556  0.3207 -0.2319 -0.1138
  321TMC3    C5 4823   0.816   2.276  16.634 -0.5512 -0.2602  0.5767
  321TMC3    C6 4824   0.731   2.168  16.615 -0.2831 -0.4520  0.4477
  321TMC3     C 4825   1.031   2.249  16.353  0.4743  0.0106 -0.0612
  321TMC3     O 4826   1.044   2.367  16.347  0.2856 -0.5468  0.0266
  321TMC3     H 4827   0.894   2.008  16.380  0.4437  0.2017  0.5234
  321TMC3    H1 4828   0.988   2.379  16.579  2.9214 -2.3744  0.2525
  321TMC3    H2 4829   0.648   2.159  16.685 -1.0532  0.7976 -0.3093
  321TMC3    C7 4830   0.857   2.263  16.775  0.1316  0.3207  0.2976
  321TMC3    C8 4831   0.742   1.939  16.581  0.4174  0.3455  0.8893
  321TMC3    O1 4832   0.969   2.213  16.791 -0.2539  0.3151  0.0627
  321TMC3    O2 4833   0.665   1.924  16.671  0.6865 -0.4806  0.4158
  322MPD2     C 4834   4.540   3.352  13.243 -0.2037  0.2302  0.4477
  322MPD2    C1 4835   4.545   3.294  13.365 -0.5047  0.1292  0.4897
  322MPD2    C2 4836   4.541   3.154  13.366  0.2359 -0.1199 -0.4682
  322MPD2    C3 4837   4.519   3.076  13.253 -0.1834 -0.5891 -0.1217
  322MPD2    C4 4838   4.508   3.143  13.134 -0.0854 -0.4638 -0.2798
  322MPD2    C5 4839   4.519   3.278  13.128 -0.4339  0.3264  0.2653
  322MPD2     H 4840   4.547   3.102  13.461  1.4258 -0.7149 -0.8691
  322MPD2    H1 4841   4.487   3.095  13.039  0.8926 -0.2299 -0.6076
  322MPD2    H2 4842   4.566   3.457  13.231  1.9370 -0.3534 -0.1183
  322MPD2    H3 4843   4.532   3.327  13.033 -0.5047  2.9849  1.6222
  322MPD2     N 4844   4.512   2.936  13.266  0.4218 -0.0933 -0.4374
  322MPD2    H5 4845   4.519   2.896  13.359 -0.2779  0.1837 -0.2640
  322MPD2    N1 4846   4.549   3.387  13.475 -0.2250 -0.0828 -0.0915
  322MPD2    H7 4847   4.561   3.485  13.451  1.3457  0.2420  2.0430
  323TMC3    C1 4848   4.553   3.449  13.704  0.3713  0.0109  0.3838
  323TMC3    C2 4849   4.636   3.555  13.677  0.4360  0.1210  0.2286
  323TMC3    C3 4850   4.705   3.605  13.785  0.4088  0.3669 -0.0352
  323TMC3    C4 4851   4.532   3.400  13.831  0.0237 -0.2971 -0.1196
  323TMC3    C5 4852   4.614   3.441  13.937  0.3210 -0.2993  0.3706
  323TMC3    C6 4853   4.705   3.547  13.907 -0.3055 -0.8697  0.4333
  323TMC3     C 4854   4.531   3.341  13.607 -0.4642  0.1930 -0.3198
  323TMC3     O 4855   4.514   3.230  13.651 -0.5824  0.2555 -0.0035
  323TMC3     H 4856   4.658   3.582  13.574 -0.1834 -0.6354 -0.1024
  323TMC3    H1 4857   4.473   3.313  13.856 -1.4521  0.7994  0.2080
  323TMC3    H2 4858   0.050   3.582  13.982 -1.0349  0.3913  0.5074
  323TMC3    C7 4859   4.635   3.354  14.051 -0.6140  0.0640  0.0470
  323TMC3    C8 4860   0.085   3.703  13.769  0.1810 -0.7737  0.0945
  323TMC3    O1 4861   4.611   3.236  14.034 -0.4766  0.9271 -0.1094
  323TMC3    O2 4862   0.168   3.718  13.858  0.3377  0.8646 -0.0589
  324MPD2     C 4863   1.918   4.548  13.872 -0.2482 -0.4832 -0.1826
  324MPD2    C1 4864   1.900   4.581  14.009  0.0229  0.3267 -0.6000
  324MPD2    C2 4865   1.767   4.582  14.062 -0.7652 -0.1628  0.3894
  324MPD2    C3 4866   1.654   4.550  13.983  0.1001 -0.3620  0.8476
  324MPD2    C4 4867   1.675   4.523  13.853  0.0293 -0.4950  0.2999
  324MPD2    C5 4868   1.804   4.526  13.795 -0.0886  0.2773  0.1986
  324MPD2     H 4869   1.759   4.592  14.169 -0.2317  1.0443  0.3239
  324MPD2    H1 4870   1.589   4.502  13.790 -0.8476  1.2350  0.9455
  324MPD2    H2 4871   2.014   4.542  13.822 -1.1268  2.1361 -2.1581
  324MPD2    H3 4872   1.810   4.514  13.687  1.6511 -1.6337  0.5171
  324MPD2     N 4873   1.519   4.525  14.040 -0.1356 -0.4373  0.1283
  324MPD2    H5 4874   1.447   4.493  13.977 -1.2682  1.7162  0.3381
  324MPD2    N1 4875   2.003   4.632  14.093  0.1180 -0.4843 -0.0777
  324MPD2    H7 4876   1.973   4.656  14.187  0.4636  0.3709 -0.1761
  325TMC3    C1 4877   1.330   4.524  14.200  0.5105  0.2512 -0.2902
  325TMC3    C2 4878   1.249   4.483  14.098 -0.1097 -0.2479  0.1038
  325TMC3    C3 4879   1.120   4.468  14.140 -0.0128  0.0407  0.6079
  325TMC3    C4 4880   1.292   4.567  14.323  0.0177  0.0884  0.4439
  325TMC3    C5 4881   1.156   4.560  14.351  0.5548  0.0015 -0.0322
  325TMC3    C6 4882   1.072   4.499  14.265 -0.8793  0.7460  0.4733
  325TMC3     C 4883   1.476   4.551  14.171 -0.3820 -1.1534  0.0847
  325TMC3     O 4884   1.549   4.580  14.264  0.0102  0.3629 -0.7268
  325TMC3     H 4885   1.287   4.434  14.009  0.1077  1.0769 -0.5395
  325TMC3    H1 4886   1.357   4.599  14.404  1.9397 -2.1779 -0.1952
  325TMC3    H2 4887   0.966   4.486  14.285 -0.6472 -2.6765 -0.4732
  325TMC3    C7 4888   1.108   4.632  14.472 -0.1145 -0.1437 -0.6618
  325TMC3    C8 4889   1.034   4.383  14.067  0.4388  0.1228 -0.7123
  325TMC3    O1 4890   1.195   4.681  14.546 -0.1636  0.1821  0.3021
  325TMC3    O2 4891   1.093   4.320  13.982 -0.3497 -0.1285  0.4717
  326MPD2     C 4892   3.242   0.341  11.296  0.1780  0.7448 -0.3191
  326MPD2    C1 4893   3.194   0.341  11.166  0.1706  0.4892 -0.1848
  326MPD2    C2 4894   3.251   0.427  11.073  0.3937 -0.0778 -0.0548
  326MPD2    C3 4895   3.361   0.500  11.100  0.1493  0.0585  0.3486
  326MPD2    C4 4896   3.423   0.478  11.225  0.2362  0.3352  0.1367
  326MPD2    C5 4897   3.357   0.413  11.322 -0.0651  0.7089 -0.5319
  326MPD2     H 4898   3.199   0.435  10.979 -0.4501 -0.5753  0.3719
  326MPD2    H1 4899   3.513   0.525  11.264  0.1870 -0.7113  1.5103
  326MPD2    H2 4900   3.197   0.288  11.379 -1.9789  0.3181 -1.7746
  326MPD2    H3 4901   3.399   0.427  11.421  1.5374 -0.4538 -1.0412
  326MPD2     N 4902   3.419   0.605  11.021  0.3858  0.5974 -0.1617
  326MPD2    H5 4903   3.505   0.646  11.056  1.6151  0.0324 -2.5281
  326MPD2    N1 4904   3.090   0.257  11.120  0.7730 -0.6083  0.4326
  326MPD2    H7 4905   3.061   0.277  11.025  1.9206 -2.9171 -0.4005
  327TMC3    C1 4906   2.926   0.103  11.124  0.0272 -0.1122  0.1526
  327TMC3    C2 4907   2.837   0.176  11.052 -0.0791 -0.4013 -0.2220
  327TMC3    C3 4908   2.796   0.132  10.935  0.0810  0.7529 -0.5399
  327TMC3    C4 4909   2.983   4.716  11.061  0.5041 -0.0810 -0.6946
  327TMC3    C5 4910   2.935   4.674  10.943 -0.1975  0.5474  0.5810
  327TMC3    C6 4911   2.850   0.027  10.869 -0.3235  0.5323 -0.3648
  327TMC3     C 4912   3.030   0.167  11.199 -0.2982 -0.2286 -0.4462
  327TMC3     O 4913   3.056   0.121  11.307 -0.2105 -0.1886  0.0268
  327TMC3     H 4914   2.814   0.274  11.092  0.3696 -0.0968 -0.7128
  327TMC3    H1 4915   3.068   4.668  11.108  0.1033 -1.7817 -1.6989
  327TMC3    H2 4916   2.818   0.003  10.768 -0.6210 -3.9800  0.7667
  327TMC3    C7 4917   3.042   4.614  10.864  0.4781  0.3888 -0.0921
  327TMC3    C8 4918   2.716   0.219  10.852  0.3345  0.1358  0.4564
  327TMC3    O1 4919   3.129   4.556  10.921 -0.3498  0.0849  0.1197
  327TMC3    O2 4920   2.756   0.244  10.739 -0.1083  0.4183  0.1612
  328MPD2     C 4921   0.534   0.423  16.321 -0.0206 -0.2372  0.1884
  328MPD2    C1 4922   0.417   0.367  16.287 -0.6122  0.2160  0.3796
  328MPD2    C2 4923   0.302   0.404  16.352  0.3063 -0.4920 -0.0302
  328MPD2    C3 4924   0.300   0.494  16.457 -0.2212  0.8675 -0.5224
  328MPD2    C4 4925   0.415   0.567  16.471  0.0857 -0.2816 -0.5198
  328MPD2    C5 4926   0.533   0.526  16.408  0.4812 -0.4367 -0.7290
  328MPD2     H 4927   0.205   0.361  16.331  1.2058 -0.4320 -4.4879
  328MPD2    H1 4928   0.427   0.640  16.550 -0.7930 -0.0990 -0.5569
  328MPD2    H2 4929   0.629   0.396  16.276 -0.0710  1.0790 -0.7157
  328MPD2    H3 4930   0.627   0.568  16.443 -0.2342 -0.5524  1.3372
  328MPD2     N 4931   0.191   0.543  16.529 -0.3944 -0.0269 -0.4031
  328MPD2    H5 4932   0.212   0.620  16.592 -0.8128  0.4258 -0.8155
  328MPD2    N1 4933   0.425   0.249  16.203  0.4178 -0.4415  0.6614
  328MPD2    H7 4934   0.513   0.222  16.160  1.7614  1.4016  2.2247
  329TMC3    C1 4935   0.346   0.037  16.115  0.4903 -0.7625 -0.0945
  329TMC3    C2 4936   0.282   4.661  16.179  0.3926  0.4520 -0.0035
  329TMC3    C3 4937   0.352   4.539  16.184  0.3162 -0.6183 -0.2461
  329TMC3    C4 4938   0.466   0.015  16.057 -0.4201 -0.0999 -0.4856
  329TMC3    C5 4939   0.520   4.618  16.055 -0.3118 -0.3623  0.1097
  329TMC3    C6 4940   0.472   4.514  16.117  0.4526 -0.2158  0.0997
  329TMC3     C 4941   0.320   0.165  16.169 -0.7924 -0.2084 -0.2634
  329TMC3     O 4942   0.210   0.170  16.221 -0.2466 -0.3022 -0.2723
  329TMC3     H 4943   0.180   4.661  16.217 -0.1043  0.4940 -1.3116
  329TMC3    H1 4944   0.510   0.093  15.997 -1.3905  0.3379 -0.6394
  329TMC3    H2 4945   0.517   4.415  16.125 -2.8006 -1.4697  2.9203
  329TMC3    C7 4946   0.626   4.595  15.963 -0.7097  0.0538 -0.2294
  329TMC3    C8 4947   0.300   4.440  16.280  0.0888 -0.2197  0.2419
  329TMC3    O1 4948   0.698   4.690  15.938  0.4360 -0.0373  0.3079
  329TMC3    O2 4949   0.280   4.327  16.236 -0.0406  0.1213  0.3078
  330TMC3    C1 4950   3.482   0.128   9.747  0.5035  0.1017  0.3683
  330TMC3    C2 4951   3.489   0.067   9.629 -0.6489  0.2909 -0.1911
  330TMC3    C3 4952   3.549   4.667   9.629  0.2701  0.3461  0.9518
  330TMC3    C4 4953   3.549   0.085   9.856  0.0089 -0.1171  0.7621
  330TMC3    C5 4954   3.624   4.694   9.848 -0.5385 -0.0069  0.4520
  330TMC3    C6 4955   3.618   4.619   9.732  0.5207 -0.1440  0.8162
  330TMC3     C 4956   3.414   0.258   9.752  0.5264 -0.0225  0.5661
  330TMC3     O 4957   3.432   0.326   9.849  0.7290 -0.1621  0.0677
  330TMC3     H 4958   3.441   0.098   9.536  0.6942 -0.1071 -1.0105
  330TMC3    H1 4959   3.558   0.153   9.940  1.5575 -0.0264  0.5333
  330TMC3    H2 4960   3.674   4.526   9.724  2.7403  1.1383  1.4569
  330TMC3    C7 4961   3.696   4.649   9.963  0.4507 -0.1646 -0.0872
  330TMC3    C8 4962   3.506   4.576   9.526  0.5585 -0.1312  0.7300
  330TMC3    O1 4963   3.679   4.719  10.064  0.2261 -0.4590 -0.2332
  330TMC3    O2 4964   3.453   4.628   9.426  0.2165  0.1189 -0.3049
  331MPD2     C 4965   0.754   3.558  12.720 -0.3816 -0.1437  0.8069
  331MPD2    C1 4966   0.811   3.660  12.657 -0.2787  0.6631 -0.8056
  331MPD2    C2 4967   0.880   3.637  12.544 -0.8592 -0.1094  0.2653
  331MPD2    C3 4968   0.897   3.508  12.494 -0.2300 -0.0781  0.5998
  331MPD2    C4 4969   0.832   3.405  12.554  0.0465  0.0919  0.0369
  331MPD2    C5 4970   0.764   3.429  12.672  0.1627 -0.1644  0.3178
  331MPD2     H 4971   0.931   3.716  12.491  1.0615 -1.8581 -0.5154
  331MPD2    H1 4972   0.830   3.305  12.512  3.3914 -0.0907  0.3383
  331MPD2    H2 4973   0.703   3.588  12.811  1.8427  2.5519  1.1694
  331MPD2    H3 4974   0.725   3.345  12.728 -1.8239  2.0743  2.2745
  331MPD2     N 4975   0.987   3.491  12.384  0.3071 -0.5010 -0.2391
  331MPD2    H5 4976   1.011   3.569  12.324 -0.2650  2.1577  3.0007
  331MPD2    N1 4977   0.805   3.797  12.703  0.6797 -0.2967  0.0479
  331MPD2    H7 4978   0.869   3.864  12.661 -1.0944  0.5894 -1.2140
  332TMC3    C1 4979   1.139   3.402  12.231 -0.2983 -0.3861  0.5771
  332TMC3    C2 4980   1.164   3.529  12.189  0.2437 -0.8185 -0.3639
  332TMC3    C3 4981   1.270   3.548  12.099  0.1179  0.6533 -0.1880
  332TMC3    C4 4982   1.234   3.302  12.208  0.5606  0.3863  0.1053
  332TMC3    C5 4983   1.348   3.327  12.130  0.2926  0.2912 -0.3975
  332TMC3    C6 4984   1.364   3.451  12.069  0.0098 -0.4411 -0.3909
  332TMC3     C 4985   1.058   3.381  12.351  0.1400 -0.3002  0.1593
  332TMC3     O 4986   1.044   3.274  12.407 -0.4385 -0.0339  0.1455
  332TMC3     H 4987   1.094   3.611  12.196 -1.3052 -2.2718  1.0732
  332TMC3    H1 4988   1.228   3.220  12.278 -0.5474 -1.0433 -1.6762
  332TMC3    H2 4989   1.450   3.482  12.010 -0.3250  0.7698 -0.2409
  332TMC3    C7 4990   1.458   3.239  12.156 -0.0028 -0.2376  0.1251
  332TMC3    C8 4991   1.328   3.685  12.112  0.2564  0.4200 -0.6336
  332TMC3    O1 4992   1.428   3.121  12.178 -0.0608  0.0899  0.2426
  332TMC3    O2 4993   1.305   3.737  12.223 -0.5930  0.2136 -0.8034
  333MPD2     C 4994   1.405   4.334  10.676  0.4423  0.0705 -0.4970
  333MPD2    C1 4995   1.442   4.201  10.664 -0.1190  0.9060  0.0695
  333MPD2    C2 4996   1.429   4.117  10.774 -0.6443  0.6082  0.5598
  333MPD2    C3 4997   1.372   4.156  10.896 -0.2896 -0.3711  0.1400
  333MPD2    C4 4998   1.331   4.288  10.898 -0.1556  0.6804 -0.2581
  333MPD2    C5 4999   1.348   4.383  10.790  0.6286 -0.1595  0.5910
  333MPD2     H 5000   1.460   4.014  10.765  1.0668  1.1413  0.2842
  333MPD2    H1 5001   1.287   4.334  10.986 -2.1416 -0.5919 -0.6046
  333MPD2    H2 5002   1.409   4.409  10.599  1.9562  0.4494 -0.0437
  333MPD2    H3 5003   1.326   4.489  10.804 -0.2088 -0.2051 -0.3836
  333MPD2     N 5004   1.347   4.062  10.999 -0.0127 -0.5120 -0.3031
  333MPD2    H5 5005   1.396   3.974  10.991  1.2548  0.1566 -0.0228
  333MPD2    N1 5006   1.506   4.167  10.542 -0.3434  0.1885 -0.0652
  333MPD2    H7 5007   1.506   4.241  10.473 -0.7449  1.0160  0.8294
  334TMC3    C1 5008   1.679   4.063  10.395  0.9035  0.0980  0.5407
  334TMC3    C2 5009   1.784   3.971  10.402 -0.0041  0.1850  0.7519
  334TMC3    C3 5010   1.883   3.988  10.307 -0.0294  0.4301  0.4138
  334TMC3    C4 5011   1.670   4.157  10.297  0.3008  0.6863 -0.9729
  334TMC3    C5 5012   1.766   4.162  10.200 -0.5804  0.3641  0.0822
  334TMC3    C6 5013   1.878   4.080  10.205 -0.9495 -0.0827 -1.1779
  334TMC3     C 5014   1.595   4.059  10.520  0.6663  0.7538 -0.6799
  334TMC3     O 5015   1.615   3.970  10.600  0.1174  0.1166 -0.1444
  334TMC3     H 5016   1.794   3.895  10.478 -0.3441 -1.1966 -0.5756
  334TMC3    H1 5017   1.579   4.214  10.279 -1.1204 -1.4170 -0.3921
  334TMC3    H2 5018   1.958   4.092  10.133  0.1055 -0.3872 -0.0499
  334TMC3    C7 5019   1.781   4.289  10.135 -0.1721 -0.0483 -0.3096
  334TMC3    C8 5020   1.994   3.892  10.322  0.4971 -0.2674 -0.3018
  334TMC3    O1 5021   1.883   4.356  10.158  0.0830 -0.1113  0.5004
  334TMC3    O2 5022   1.969   3.781  10.362  0.1077  0.0114 -0.0688
  335TMC3    C1 5023   0.971   0.702  17.387  0.0075  0.6773  0.4377
  335TMC3    C2 5024   0.905   0.630  17.292  0.2027 -0.3739 -1.2980
  335TMC3    C3 5025   0.922   0.665  17.161 -0.5254  0.1332  0.1713
  335TMC3    C4 5026   1.039   0.815  17.357 -0.2841  0.2322 -0.0147
  335TMC3    C5 5027   1.043   0.860  17.227  0.1647  0.4509  0.6745
  335TMC3    C6 5028   0.981   0.782  17.136 -0.3285  0.5553  0.1584
  335TMC3     C 5029   0.969   0.651  17.519 -0.3226  0.5231 -0.1145
  335TMC3     O 5030   0.944   0.532  17.535  0.0606  0.3267  0.6597
  335TMC3     H 5031   0.849   0.538  17.306 -0.7424  0.2804 -0.7727
  335TMC3    H1 5032   1.085   0.869  17.439  2.2478 -1.1668 -0.5228
  335TMC3    H2 5033   1.003   0.812  17.034 -0.2576  0.7503  0.2320
  335TMC3    C7 5034   1.176   0.888  17.183 -0.8803  0.0482  0.1405
  335TMC3    C8 5035   0.837   0.604  17.057  0.3672 -1.2548  0.7847
  335TMC3    O1 5036   1.220   0.804  17.100  0.0135  0.4711 -0.0021
  335TMC3    O2 5037   0.847   0.671  16.953  0.1368 -0.0628  0.1869
  336MPD2     C 5038   0.865   2.926  16.549 -0.0082 -0.3923  0.2316
  336MPD2    C1 5039   0.860   2.955  16.408 -0.5765  0.4041  0.6665
  336MPD2    C2 5040   0.906   2.863  16.316  0.3192  0.7333  0.3598
  336MPD2    C3 5041   0.949   2.742  16.363 -0.1837  0.1472  0.2559
  336MPD2    C4 5042   0.951   2.710  16.498  0.2362  0.4094 -0.6668
  336MPD2    C5 5043   0.908   2.798  16.588  0.8224 -0.2316  0.5482
  336MPD2     H 5044   0.899   2.887  16.211 -0.5489 -2.5081 -0.3207
  336MPD2    H1 5045   0.993   2.614  16.525  0.7031  0.3151 -1.7129
  336MPD2    H2 5046   0.833   2.993  16.629  0.7615  1.0806 -0.6911
  336MPD2    H3 5047   0.896   2.771  16.692 -1.8283  0.7212  0.4955
  336MPD2     N 5048   0.998   2.643  16.266  0.5510  0.1203  0.4843
  336MPD2    H5 5049   1.033   2.554  16.302  2.4584  1.3674  1.6715
  336MPD2    N1 5050   0.806   3.069  16.349 -0.2108  0.7153  0.0809
  336MPD2    H7 5051   0.790   3.058  16.250 -2.6072 -1.7805  0.7296
  337TMC3    C1 5052   0.685   3.267  16.320 -0.5244  0.6956 -0.3922
  337TMC3    C2 5053   0.696   3.241  16.184  0.3925  0.1342  0.1275
  337TMC3    C3 5054   0.603   3.273  16.096  0.1573  0.4128 -0.2109
  337TMC3    C4 5055   0.577   3.334  16.360 -0.1272 -0.1392  0.1120
  337TMC3    C5 5056   0.474   3.369  16.274  0.0525 -0.3351  0.4437
  337TMC3    C6 5057   0.486   3.327  16.141  0.0525 -0.0279 -0.4162
  337TMC3     C 5058   0.758   3.175  16.410 -0.0470 -0.6081  0.2446
  337TMC3     O 5059   0.741   3.190  16.529 -0.3189  0.0040  0.8723
  337TMC3     H 5060   0.793   3.207  16.149  1.1194  2.4903 -0.1748
  337TMC3    H1 5061   0.565   3.334  16.468 -2.5811  1.0082 -0.1536
  337TMC3    H2 5062   0.407   3.341  16.068  0.3662  1.2358 -0.5111
  337TMC3    C7 5063   0.348   3.442  16.310 -0.5558 -0.8861 -0.3466
  337TMC3    C8 5064   0.588   3.164  15.999  0.2675 -0.4356 -0.4929
  337TMC3    O1 5065   0.265   3.462  16.220  0.0906  0.5617 -0.4009
  337TMC3    O2 5066   0.632   3.054  16.037 -0.2257 -0.3724  0.3712
  338MPD2     C 5067   0.160   1.852   0.648  0.7297 -0.0751 -0.0052
  338MPD2    C1 5068   0.237   1.968   0.616 -0.2790 -0.3131 -0.3068
  338MPD2    C2 5069   0.173   2.089   0.636 -0.2601  0.0294 -0.0503
  338MPD2    C3 5070   0.046   2.099   0.692 -0.0120  0.5130  0.0626
  338MPD2    C4 5071   4.700   1.985   0.734 -0.3546  0.3128  0.7107
  338MPD2    C5 5072   0.039   1.864   0.715 -0.6441 -0.3331  0.0382
  338MPD2     H 5073   0.237   2.175   0.620  1.1651 -0.4407  3.1134
  338MPD2    H1 5074   4.596   1.992   0.760 -0.7221 -0.6773 -0.4810
  338MPD2    H2 5075   0.201   1.753   0.630 -0.2430 -0.6047  0.7277
  338MPD2    H3 5076   4.713   1.774   0.747  0.2647 -0.7006  0.4195
  338MPD2     N 5077   0.002   2.234   0.704  0.1424 -0.8026 -0.5656
  338MPD2    H5 5078   0.073   2.301   0.675 -0.8664  0.1759 -0.7248
  338MPD2    N1 5079   0.363   1.971   0.553  0.2593 -0.0575  0.3380
  338MPD2    H7 5080   0.396   2.056   0.510  4.8057 -1.0280  1.8846
  339TMC3    C1 5081   4.584   2.410   0.727 -0.5105  0.1751 -0.7582
  339TMC3    C2 5082   4.481   2.464   0.802  0.8327 -0.4065 -0.3143
  339TMC3    C3 5083   4.452   2.597   0.789  0.5636 -0.5198  0.1338
  339TMC3    C4 5084   4.654   2.491   0.640  0.0815 -0.5412 -0.3399
  339TMC3    C5 5085   4.636   2.628   0.645 -0.3708  0.1976 -0.1837
  339TMC3    C6 5086   4.536   2.679   0.714 -0.5256  0.3250  0.3966
  339TMC3     C 5087   4.599   2.265   0.735  0.4446 -0.2165 -0.0678
  339TMC3     O 5088   4.510   2.199   0.782  1.2304 -0.2302 -0.0854
  339TMC3     H 5089   4.410   2.404   0.857 -0.9039  1.4060 -0.6101
  339TMC3    H1 5090   0.014   2.456   0.580  1.3064  0.5368  0.7498
  339TMC3    H2 5091   4.521   2.785   0.724  1.1116  0.6054 -0.1309
  339TMC3    C7 5092   0.023   2.716   0.594  0.3601  0.0130 -0.6071
  339TMC3    C8 5093   4.357   2.665   0.875 -0.0643 -0.4568 -0.0392
  339TMC3    O1 5094   4.715   2.831   0.575 -0.4477 -0.5909  0.3371
  339TMC3    O2 5095   4.325   2.781   0.843  0.3107 -0.1867  1.0928
  340MPD2     C 5096   1.545   4.462   9.028 -0.0022  0.1557 -0.4264
  340MPD2    C1 5097   1.612   4.348   9.079 -0.0675 -0.2122  0.4406
  340MPD2    C2 5098   1.687   4.351   9.192  0.0673 -0.4548  0.2780
  340MPD2    C3 5099   1.716   4.468   9.265 -0.3572 -0.0581  0.4047
  340MPD2    C4 5100   1.656   4.574   9.210 -0.4935 -0.5132  0.1569
  340MPD2    C5 5101   1.568   4.580   9.099  0.1599  0.8747 -0.4046
  340MPD2     H 5102   1.745   4.264   9.220  0.4020 -0.1199  0.6141
  340MPD2    H1 5103   1.673   4.667   9.263  2.5422  0.8586 -3.1774
  340MPD2    H2 5104   1.468   4.445   8.954 -0.5261 -0.2475  0.2121
  340MPD2    H3 5105   1.534   4.675   9.061  2.8091  2.1994  0.6120
  340MPD2     N 5106   1.793   4.476   9.386  0.2622  0.4660  0.4910
  340MPD2    H5 5107   1.802   4.573   9.416 -0.7907 -0.5007  3.8780
  340MPD2    N1 5108   1.604   4.218   9.024  0.0815 -0.0149 -0.5008
  340MPD2    H7 5109   1.652   4.142   9.071  0.5427  0.4807 -0.1921
  341TMC3    C1 5110   1.553   4.043   8.889  0.3594  0.5306  0.0984
  341TMC3    C2 5111   1.447   3.961   8.882  0.2743 -0.3252  0.1349
  341TMC3    C3 5112   1.467   3.821   8.878 -0.4472  0.2320  1.4560
  341TMC3    C4 5113   1.678   3.980   8.904  0.6321 -0.3903  0.0293
  341TMC3    C5 5114   1.695   3.849   8.895  0.5799  0.0459 -0.1978
  341TMC3    C6 5115   1.593   3.764   8.882  0.2454 -0.2619  0.1508
  341TMC3     C 5116   1.521   4.176   8.926 -0.9060 -0.1365  0.4314
  341TMC3     O 5117   1.423   4.225   8.868  0.1588 -0.2001  0.3940
  341TMC3     H 5118   1.347   4.002   8.886  1.2560  1.7757  2.6283
  341TMC3    H1 5119   1.762   4.048   8.915  0.2980 -0.0413  0.4533
  341TMC3    H2 5120   1.603   3.658   8.904 -0.1024 -0.0528  1.3343
  341TMC3    C7 5121   1.825   3.788   8.901 -0.3038  0.4113  0.6388
  341TMC3    C8 5122   1.357   3.740   8.919 -0.5812 -0.1532 -0.8328
  341TMC3    O1 5123   1.828   3.669   8.881 -0.2748  1.1134 -0.5177
  341TMC3    O2 5124   1.273   3.795   8.991  0.5592  0.0837 -0.0533
  342MPD2     C 5125   3.961   3.266  16.871  0.2445 -0.4368 -0.0665
  342MPD2    C1 5126   3.932   3.234  17.000 -0.6737  0.6059 -0.1426
  342MPD2    C2 5127   3.912   3.344  17.084 -0.5846  0.2690  0.5175
  342MPD2    C3 5128   3.918   3.475  17.039 -0.3423 -0.1013 -0.3340
  342MPD2    C4 5129   3.962   3.499  16.910  0.0430 -0.4788 -0.1511
  342MPD2    C5 5130   3.987   3.391  16.831 -0.0544  0.2394 -0.8694
  342MPD2     H 5131   3.882   3.327  17.186 -0.0251 -1.3675  0.4150
  342MPD2    H1 5132   3.980   3.593  16.860 -0.7665 -0.2456 -0.0002
  342MPD2    H2 5133   3.974   3.186  16.800 -1.0128 -1.7432  1.1767
  342MPD2    H3 5134   4.013   3.408  16.727 -1.3352  0.2015 -1.1886
  342MPD2     N 5135   3.903   3.581  17.124 -0.4155 -0.3760 -0.0226
  342MPD2    H5 5136   3.930   3.675  17.098 -0.2618 -0.6972 -1.0270
  342MPD2    N1 5137   3.944   3.101  17.043 -0.0768 -0.0609  0.1960
  342MPD2    H7 5138   3.961   3.034  16.968  0.9732  1.2100 -0.7141
  343TMC3    C1 5139   3.987   2.917  17.173  0.0067 -0.1976 -0.2045
  343TMC3    C2 5140   4.101   2.873  17.222  0.6123 -0.0657  0.4228
  343TMC3    C3 5141   4.149   2.747  17.187  0.6446  0.6843  0.6548
  343TMC3    C4 5142   3.910   2.836  17.100  0.0157 -0.5196  0.5037
  343TMC3    C5 5143   3.952   2.709  17.067 -0.2979 -0.0332  0.3653
  343TMC3    C6 5144   4.074   2.663  17.110  1.2499  0.0851 -0.3633
  343TMC3     C 5145   3.957   3.054  17.170  0.9625  0.5978  0.6301
  343TMC3     O 5146   3.980   3.121  17.268  0.2309 -0.5335 -0.1232
  343TMC3     H 5147   4.168   2.944  17.271  1.9813 -0.0484 -1.4724
  343TMC3    H1 5148   3.822   2.877  17.052 -0.3833  0.0994  1.7695
  343TMC3    H2 5149   4.116   2.567  17.082  1.1572  0.0416 -0.3524
  343TMC3    C7 5150   3.850   2.615  17.024  0.2704 -0.0851 -0.1034
  343TMC3    C8 5151   4.290   2.751  17.174 -0.3579 -0.2946  0.1583
  343TMC3    O1 5152   3.748   2.669  16.983  0.0237 -0.4659 -0.4540
  343TMC3    O2 5153   4.352   2.789  17.275  0.4147  0.8024  0.6840
  344MPD2     C 5154   4.605   2.801  10.425 -0.1155  0.2974  0.0390
  344MPD2    C1 5155   4.671   2.750  10.318  0.0456  0.6539 -1.9455
  344MPD2    C2 5156   0.041   2.837  10.260 -0.0988 -0.5247  0.3931
  344MPD2    C3 5157   0.070   2.966  10.308  0.9288  0.4575 -0.5933
  344MPD2    C4 5158   0.001   3.000  10.420  0.5650  1.1075 -0.6564
  344MPD2    C5 5159   4.632   2.923  10.481  0.7268 -0.3521  0.0055
  344MPD2     H 5160   0.103   2.805  10.177  0.2731 -0.6001  0.7028
  344MPD2    H1 5161   0.015   3.100  10.459  2.3886 -0.2711  2.2980
  344MPD2    H2 5162   4.532   2.738  10.475  0.2613 -0.6388 -0.5791
  344MPD2    H3 5163   4.572   2.960  10.564  2.4339  1.0424  0.6107
  344MPD2     N 5164   0.182   3.045  10.273  0.0652  0.2547  0.0999
  344MPD2    H5 5165   0.221   3.110  10.340  0.6229 -0.1621  0.1743
  344MPD2    N1 5166   4.660   2.611  10.280 -1.0530  0.8420 -0.5356
  344MPD2    H7 5167   4.697   2.583  10.190 -1.5029 -0.0183 -0.4603
  345TMC3    C1 5168   0.365   3.107  10.141 -0.4708 -0.3437  0.4326
  345TMC3    C2 5169   0.421   3.157  10.256  0.4019 -0.2823 -0.5562
  345TMC3    C3 5170   0.515   3.256  10.247 -0.3830 -1.1485  0.6750
  345TMC3    C4 5171   0.391   3.153  10.019  0.3541 -0.4112  0.1455
  345TMC3    C5 5172   0.468   3.266  10.018 -0.0851 -0.6582  0.1364
  345TMC3    C6 5173   0.536   3.312  10.126 -0.1770  0.1407 -0.5500
  345TMC3     C 5174   0.247   3.025  10.153  0.3954 -0.1321 -0.1579
  345TMC3     O 5175   0.197   2.966  10.057 -0.6212  0.2618  0.8242
  345TMC3     H 5176   0.409   3.108  10.352 -1.6473  0.8595 -0.2421
  345TMC3    H1 5177   0.329   3.131   9.933 -0.9477 -2.1655  1.5234
  345TMC3    H2 5178   0.596   3.402  10.118  1.3322 -0.7467  0.8511
  345TMC3    C7 5179   0.441   3.370   9.919 -0.3784 -0.1028 -0.2662
  345TMC3    C8 5180   0.578   3.306  10.367  0.0417  0.6741  0.0603
  345TMC3    O1 5181   0.452   3.484   9.960  0.3512 -0.7600  0.2498
  345TMC3    O2 5182   0.543   3.268  10.478  0.6011  0.0527  0.0652
  346MPD2     C 5183   4.428   4.722  13.979 -0.3435  0.3894 -0.0343
  346MPD2    C1 5184   4.552   4.680  13.935  0.3844 -0.0589  0.2683
  346MPD2    C2 5185   4.657   4.703  14.024 -0.1280  0.5340 -0.1311
  346MPD2    C3 5186   4.638   0.028  14.158 -0.1802  0.3382 -0.2735
  346MPD2    C4 5187   4.508   0.080  14.183 -0.2275  0.1758  0.0793
  346MPD2    C5 5188   4.409   0.063  14.092  0.6022 -0.3287  0.6176
  346MPD2     H 5189   0.035   4.683  13.995 -1.1956 -2.0250 -2.0907
  346MPD2    H1 5190   4.493   0.146  14.268 -0.4194 -0.3910  0.4870
  346MPD2    H2 5191   4.334   4.718  13.924  0.0723  0.8169 -0.7685
  346MPD2    H3 5192   4.310   0.101  14.114  0.6233  0.8816 -1.4220
  346MPD2     N 5193   0.020   0.068  14.241 -0.1056  0.4835 -0.1329
  346MPD2    H5 5194   0.114   0.070  14.203 -0.5728 -1.1266 -1.4047
  346MPD2    N1 5195   4.580   4.641  13.798 -0.7411  0.5664  0.0356
  346MPD2    H7 5196   4.502   4.668  13.739 -2.0435 -1.1508  0.9707
  347TMC3    C1 5197   0.107   0.110  14.460 -0.0020  0.4100 -0.2934
  347TMC3    C2 5198   0.236   0.087  14.425  0.3076 -0.5340 -0.1699
  347TMC3    C3 5199   0.326   0.111  14.527  0.1302  0.1591  0.6359
  347TMC3    C4 5200   0.066   0.161  14.580 -0.1249  0.0614  0.4932
  347TMC3    C5 5201   0.153   0.175  14.676 -0.5715  0.4735  0.7407
  347TMC3    C6 5202   0.288   0.151  14.649 -0.4367  0.0773 -0.2162
  347TMC3     C 5203   4.720   0.069  14.376  1.3147  0.1338  0.1184
  347TMC3     O 5204   4.613   0.052  14.436 -0.1127  0.6493  0.1992
  347TMC3     H 5205   0.269   0.035  14.336  2.0261 -1.6221  1.1033
  347TMC3    H1 5206   4.686   0.189  14.596  0.3676  1.1812  1.7366
  347TMC3    H2 5207   0.349   0.132  14.736 -0.7557 -1.5221 -0.3539
  347TMC3    C7 5208   0.108   0.214  14.806  0.0988  0.6121 -0.5995
  347TMC3    C8 5209   0.460   0.094  14.496 -0.1348 -0.1870  0.6768
  347TMC3    O1 5210   4.716   0.187  14.834 -0.0815 -0.4298 -0.1147
  347TMC3    O2 5211   0.488   0.033  14.391 -0.4882 -0.1709  0.0012
  348MPD2     C 5212   3.742   4.142  11.962 -0.4344  0.1165  0.5226
  348MPD2    C1 5213   3.877   4.157  11.944 -0.1610 -0.7403 -0.4333
  348MPD2    C2 5214   3.912   4.263  11.855  0.1196 -0.6273  0.7698
  348MPD2    C3 5215   3.816   4.333  11.785 -0.8228 -0.0258  0.5090
  348MPD2    C4 5216   3.683   4.307  11.809 -0.1939  0.2580 -0.3699
  348MPD2    C5 5217   3.643   4.216  11.900 -0.2265  0.4288  0.9142
  348MPD2     H 5218   4.018   4.276  11.835 -0.4230  2.4135  0.0181
  348MPD2    H1 5219   3.612   4.365  11.751 -0.7034 -0.8183 -0.8239
  348MPD2    H2 5220   3.706   4.062  12.026  1.8780  0.2702  2.0082
  348MPD2    H3 5221   3.539   4.186  11.894 -0.0355  0.2044 -1.2617
  348MPD2     N 5222   3.837   4.431  11.682  0.2597 -0.1500 -0.2902
  348MPD2    H5 5223   3.755   4.458  11.630 -0.5978  0.0502  1.1522
  348MPD2    N1 5224   3.980   4.085  12.006 -0.4964 -0.8303  0.3964
  348MPD2    H7 5225   4.075   4.121  11.995 -0.9194  0.3238  0.5564
  349TMC3    C1 5226   4.078   3.906  12.133  0.7138  0.0107 -0.1010
  349TMC3    C2 5227   4.051   3.786  12.200  0.6871 -0.3485 -0.1139
  349TMC3    C3 5228   4.121   3.675  12.166 -0.1735  0.0866 -1.0031
  349TMC3    C4 5229   4.185   3.911  12.050  0.9372 -0.2701 -0.4951
  349TMC3    C5 5230   4.263   3.798  12.031 -0.0699  0.4886  0.1181
  349TMC3    C6 5231   4.233   3.681  12.091  0.2106 -0.5328  0.0525
  349TMC3     C 5232   3.959   3.979  12.088  0.0173 -0.0903 -0.1644
  349TMC3     O 5233   3.855   3.919  12.109  0.2818 -0.0495  0.1748
  349TMC3     H 5234   3.965   3.780  12.265  0.2880  1.1342 -0.5029
  349TMC3    H1 5235   4.198   3.996  11.985 -1.3564  0.2664 -0.2647
  349TMC3    H2 5236   4.299   3.596  12.079  1.6455  0.6175 -0.2326
  349TMC3    C7 5237   4.282   3.790  11.884 -0.0969 -0.6623 -0.5433
  349TMC3    C8 5238   4.083   3.553  12.236 -0.1590 -0.3653 -0.2107
  349TMC3    O1 5239   4.203   3.705  11.841 -0.4667  0.8231 -0.3961
  349TMC3    O2 5240   3.995   3.555  12.321 -0.8443  0.4478  0.0569
  350MPD2     C 5241   2.105   2.498   9.716  0.1932 -0.3728  0.4439
  350MPD2    C1 5242   2.221   2.452   9.656  1.0540 -0.0451  0.0604
  350MPD2    C2 5243   2.337   2.463   9.722  0.5034 -0.0516  0.3640
  350MPD2    C3 5244   2.335   2.516   9.850 -0.1827 -0.3817 -0.2551
  350MPD2    C4 5245   2.222   2.559   9.911 -0.1862  0.0385 -0.1724
  350MPD2    C5 5246   2.108   2.554   9.839  0.6744 -0.9030  0.0858
  350MPD2     H 5247   2.436   2.444   9.683 -0.6402  1.5741 -3.2709
  350MPD2    H1 5248   2.210   2.619  10.001 -0.0018  0.8957 -0.7140
  350MPD2    H2 5249   2.005   2.507   9.673 -0.1164  0.0882  1.2559
  350MPD2    H3 5250   2.018   2.597   9.880 -1.1803 -3.4990 -1.2230
  350MPD2     N 5251   2.456   2.509   9.924  0.4974 -0.0278 -0.5080
  350MPD2    H5 5252   2.540   2.464   9.890  1.4214  0.8788  0.5940
  350MPD2    N1 5253   2.221   2.390   9.528  0.0741 -0.2789 -0.1138
  350MPD2    H7 5254   2.310   2.357   9.493  0.7822 -1.0144  2.3683
  351TMC3    C1 5255   2.120   2.257   9.360 -0.1432 -0.5845 -0.0942
  351TMC3    C2 5256   2.208   2.155   9.374  0.2478  0.9815  0.0790
  351TMC3    C3 5257   2.197   2.052   9.279  0.3854 -0.3172  0.5388
  351TMC3    C4 5258   2.008   2.252   9.281 -0.6837 -0.0797  0.0497
  351TMC3    C5 5259   1.989   2.136   9.211  0.1446 -0.0862 -0.4375
  351TMC3    C6 5260   2.087   2.043   9.196  0.3985 -0.4281 -0.7568
  351TMC3     C 5261   2.104   2.352   9.466 -0.1966  0.0905  0.5828
  351TMC3     O 5262   1.987   2.376   9.491  0.4529  0.6054 -0.4234
  351TMC3     H 5263   2.284   2.151   9.452 -0.0441 -1.1055  0.2719
  351TMC3    H1 5264   1.952   2.343   9.264 -2.0039 -0.8397  0.3996
  351TMC3    H2 5265   2.073   1.958   9.130  0.0874 -1.1012  0.1764
  351TMC3    C7 5266   1.868   2.113   9.136 -0.5524 -0.0619 -0.3587
  351TMC3    C8 5267   2.309   1.959   9.259  0.8211 -0.5510  0.0407
  351TMC3    O1 5268   1.855   2.006   9.086 -0.1029  0.2705 -0.3606
  351TMC3    O2 5269   2.292   1.887   9.163 -0.6270  0.8737  0.2086
  352MPD2     C 5270   4.461   4.564   0.629 -0.6640 -0.3412  0.2662
  352MPD2    C1 5271   4.587   4.574   0.579  0.2443  0.6029 -0.0410
  352MPD2    C2 5272   4.671   4.463   0.571 -0.3036 -0.8554 -0.3323
  352MPD2    C3 5273   4.619   4.334   0.601 -0.5724  0.0668  0.1860
  352MPD2    C4 5274   4.486   4.329   0.639 -0.3394  0.2063 -1.1123
  352MPD2    C5 5275   4.410   4.443   0.656 -0.2401 -0.0552 -0.5810
  352MPD2     H 5276   0.051   4.477   0.540 -0.4868  0.5742 -0.2714
  352MPD2    H1 5277   4.434   4.235   0.650  0.5511  0.3065  3.7733
  352MPD2    H2 5278   4.392   4.647   0.639 -1.1856 -0.6761 -0.6334
  352MPD2    H3 5279   4.306   4.427   0.683  0.5840  0.0628  2.5958
  352MPD2     N 5280   4.693   4.221   0.620  0.0423  0.3568  0.4327
  352MPD2    H5 5281   4.643   4.146   0.667 -0.5757  1.8517  2.1470
  352MPD2    N1 5282   4.630   4.706   0.548  0.4226  0.1195  0.3985
  352MPD2    H7 5283   4.552   0.046   0.549 -0.4979 -1.0378  3.8732
  353TMC3    C1 5284   0.167   4.089   0.615 -0.6110 -0.1232 -0.2747
  353TMC3    C2 5285   0.232   4.015   0.520 -0.1826 -0.7570 -1.0570
  353TMC3    C3 5286   0.283   3.902   0.565  0.5639 -0.9833  0.7560
  353TMC3    C4 5287   0.132   4.049   0.740 -0.1288  0.5938  0.3424
  353TMC3    C5 5288   0.182   3.932   0.778 -0.2655  0.1456 -1.2027
  353TMC3    C6 5289   0.260   3.853   0.695  0.2724 -0.5659  0.0541
  353TMC3     C 5290   0.100   4.209   0.573 -0.7875 -0.1084  0.1703
  353TMC3     O 5291   0.152   4.277   0.486  0.2458 -0.0508 -0.1478
  353TMC3     H 5292   0.244   4.056   0.420 -2.9265 -1.1594 -1.5328
  353TMC3    H1 5293   0.089   4.117   0.813  1.9053  0.5947  1.5363
  353TMC3    H2 5294   0.310   3.767   0.738  0.8850  0.2192  0.9094
  353TMC3    C7 5295   0.101   3.850   0.867  0.1146  0.4170 -0.0991
  353TMC3    C8 5296   0.365   3.828   0.473 -0.5305 -0.5288  0.5718
  353TMC3    O1 5297   0.091   3.730   0.842  0.5211  0.5357  0.3699
  353TMC3    O2 5298   0.404   3.873   0.369  0.0238 -0.2248 -0.3182
  354TMC3    C1 5299   3.021   0.715  13.308 -0.3705 -0.1919  0.3457
  354TMC3    C2 5300   3.025   0.850  13.277 -0.4294 -0.2653  0.0271
  354TMC3    C3 5301   2.985   0.890  13.156  0.3569  1.1139  0.3619
  354TMC3    C4 5302   2.979   0.617  13.224  0.5452  0.3543 -0.2080
  354TMC3    C5 5303   2.961   0.661  13.094  0.2622  0.3282 -0.6477
  354TMC3    C6 5304   2.945   0.790  13.063 -0.0629  0.5406  0.0017
  354TMC3     C 5305   2.992   0.690  13.449  0.0505 -0.2916  0.4908
  354TMC3     O 5306   2.920   0.596  13.478  0.0346 -0.2157  0.2165
  354TMC3     H 5307   3.051   0.927  13.350 -3.3354  0.3966  0.3550
  354TMC3    H1 5308   3.007   0.516  13.253 -0.3604  0.1178 -0.1561
  354TMC3    H2 5309   2.914   0.809  12.961 -0.7656  1.3534  0.3658
  354TMC3    C7 5310   3.036   0.584  12.992  0.3835  0.3429 -0.4830
  354TMC3    C8 5311   3.064   0.986  13.085 -0.0371  0.3269  0.6303
  354TMC3    O1 5312   3.067   0.469  13.021 -0.0076 -0.6481  0.5639
  354TMC3    O2 5313   3.086   0.959  12.968  0.7236 -0.1588  0.2340
  355MPD2     C 5314   2.876   1.304  11.513  0.6766 -0.2429  0.0598
  355MPD2    C1 5315   2.926   1.353  11.395  0.0190 -0.2383 -0.5296
  355MPD2    C2 5316   3.058   1.396  11.389  0.7455 -0.1557  0.2454
  355MPD2    C3 5317   3.137   1.405  11.502 -0.7035  0.4412  0.6789
  355MPD2    C4 5318   3.092   1.353  11.615  0.6161  0.0456  0.4753
  355MPD2    C5 5319   2.957   1.310  11.631  0.1217 -0.0188  0.6909
  355MPD2     H 5320   3.095   1.421  11.290  0.9690  0.0746  0.3879
  355MPD2    H1 5321   3.155   1.353  11.703 -1.2716 -2.8336  1.8126
  355MPD2    H2 5322   2.776   1.263  11.523  0.6437  0.0467  0.8651
  355MPD2    H3 5323   2.923   1.269  11.726 -0.5225 -1.2716 -0.0798
  355MPD2     N 5324   3.261   1.476  11.509  0.4507 -0.0217 -0.3617
  355MPD2    H5 5325   3.294   1.490  11.604  2.1100 -4.1531 -0.3125
  355MPD2    N1 5326   2.837   1.350  11.284 -0.5695 -0.1990  0.0633
  355MPD2    H7 5327   2.752   1.294  11.291 -1.7944  1.5843 -0.6419
  356TMC3    C1 5328   3.395   1.673  11.449 -0.0405  0.0229  0.1745
  356TMC3    C2 5329   3.428   1.756  11.352  0.3707  0.4521 -0.1735
  356TMC3    C3 5330   3.478   1.881  11.387 -0.5870  0.1312 -0.2482
  356TMC3    C4 5331   3.395   1.706  11.579  0.4537 -0.8499 -0.1032
  356TMC3    C5 5332   3.445   1.826  11.613  0.3939 -0.0834  0.2897
  356TMC3    C6 5333   3.498   1.911  11.519  0.0350  0.2507  0.0155
  356TMC3     C 5334   3.328   1.545  11.411  1.0835 -0.4852  0.1035
  356TMC3     O 5335   3.289   1.546  11.300  0.1206  0.2979  0.4913
  356TMC3     H 5336   3.422   1.730  11.247  0.9646  0.8800 -0.3130
  356TMC3    H1 5337   3.373   1.629  11.652  0.0455  0.4581  1.1659
  356TMC3    H2 5338   3.519   2.014  11.546  0.2576  1.0995 -3.4550
  356TMC3    C7 5339   3.475   1.840  11.757  0.2631  0.0595  1.0208
  356TMC3    C8 5340   3.516   1.971  11.273 -0.4808  0.0451  0.7705
  356TMC3    O1 5341   3.432   1.755  11.838 -0.4198  0.4831  0.2592
  356TMC3    O2 5342   3.451   1.962  11.169 -0.1535  0.0517  0.5273
  357MPD2     C 5343   2.570   1.438   1.329 -0.0172  0.4564  0.4225
  357MPD2    C1 5344   2.691   1.377   1.341  0.5576 -0.3089  0.3340
  357MPD2    C2 5345   2.748   1.368   1.466  0.3506  0.0726  0.5511
  357MPD2    C3 5346   2.684   1.406   1.583 -0.3970 -0.6406  0.4213
  357MPD2    C4 5347   2.563   1.477   1.561  0.0310 -0.3406 -0.4225
  357MPD2    C5 5348   2.517   1.494   1.443 -0.6223  0.2312 -0.3399
  357MPD2     H 5349   2.840   1.312   1.480  0.6601  0.2288 -0.8965
  357MPD2    H1 5350   2.496   1.510   1.639  0.8488 -4.5037  2.0276
  357MPD2    H2 5351   2.513   1.441   1.237  1.1097 -1.0691 -0.3290
  357MPD2    H3 5352   2.428   1.551   1.420 -0.9088 -1.3912 -3.2382
  357MPD2     N 5353   2.717   1.349   1.708 -0.0025 -0.2664 -0.0335
  357MPD2    H5 5354   2.807   1.301   1.708  0.3595  0.4167 -0.2684
  357MPD2    N1 5355   2.754   1.326   1.222  0.5813 -0.1293 -0.8636
  357MPD2    H7 5356   2.712   1.355   1.135 -0.9921  0.1468 -0.0116
  358TMC3    C1 5357   2.912   1.223   1.084 -0.0836  0.4201 -0.8218
  358TMC3    C2 5358   2.825   1.225   0.979  0.4892 -0.3113  0.2198
  358TMC3    C3 5359   2.874   1.242   0.854 -0.0091 -0.2982  0.7985
  358TMC3    C4 5360   3.044   1.222   1.066  0.2053 -0.4536 -0.2373
  358TMC3    C5 5361   3.091   1.241   0.938  1.0206 -0.1829  0.3048
  358TMC3    C6 5362   3.011   1.242   0.827 -0.7979 -1.1625  0.1854
  358TMC3     C 5363   2.871   1.255   1.216 -0.0499  0.5145  0.3114
  358TMC3     O 5364   2.939   1.213   1.309  0.2504 -0.3408  0.0780
  358TMC3     H 5365   2.720   1.202   0.990  0.9273 -1.9468  0.9649
  358TMC3    H1 5366   3.114   1.219   1.149  1.0189  4.0408 -0.7757
  358TMC3    H2 5367   3.044   1.288   0.734 -1.5444 -0.0269  0.4799
  358TMC3    C7 5368   3.236   1.260   0.915  0.0583  0.3106 -0.0001
  358TMC3    C8 5369   2.781   1.205   0.742 -0.6845 -0.8307  0.1322
  358TMC3    O1 5370   3.304   1.320   0.996  0.1488 -0.2986  0.2829
  358TMC3    O2 5371   2.690   1.287   0.733  0.2823 -0.2940 -0.3713
  359MPD2     C 5372   3.253   1.002  12.241  0.6246 -0.5618  0.4638
  359MPD2    C1 5373   3.263   0.870  12.201 -0.4010 -0.1647  0.6054
  359MPD2    C2 5374   3.143   0.793  12.184  0.2016  0.7955 -1.1479
  359MPD2    C3 5375   3.017   0.854  12.219  0.2876 -0.1679 -0.0385
  359MPD2    C4 5376   3.013   0.976  12.273  0.0106 -0.1273 -0.5328
  359MPD2    C5 5377   3.131   1.045  12.289 -0.3441 -0.6053  0.1854
  359MPD2     H 5378   3.150   0.694  12.141 -0.6597 -0.6697  2.0936
  359MPD2    H1 5379   2.916   1.017  12.297 -0.6081 -2.2701  0.5633
  359MPD2    H2 5380   3.337   1.071  12.246  0.2773 -0.1550  0.7271
  359MPD2    H3 5381   3.126   1.151  12.313 -0.9865 -1.5150  4.0573
  359MPD2     N 5382   2.897   0.784  12.209 -0.8131 -0.2063  0.2832
  359MPD2    H5 5383   2.821   0.838  12.248 -0.1442 -0.7515  2.3124
  359MPD2    N1 5384   3.387   0.811  12.150  0.2078  0.0224  0.3220
  359MPD2    H7 5385   3.372   0.720  12.108  0.7070  0.8187 -1.5846
  360TMC3    C1 5386   3.596   0.805  12.054  0.8787  0.5393  0.9435
  360TMC3    C2 5387   3.692   0.888  12.007 -0.3470  0.3632  0.3256
  360TMC3    C3 5388   3.791   0.834  11.922  0.3942 -0.6118 -0.0590
  360TMC3    C4 5389   3.571   0.676  11.995  0.4652  0.2715 -0.1017
  360TMC3    C5 5390   3.645   0.648  11.890  0.6206  0.6210 -0.1260
  360TMC3    C6 5391   3.760   0.720  11.846  0.8471 -0.0122 -0.0927
  360TMC3     C 5392   3.509   0.866  12.154  0.5727 -0.7387  0.1994
  360TMC3     O 5393   3.551   0.966  12.211  0.3101  0.1378  0.0901
  360TMC3     H 5394   3.725   0.966  12.076 -0.9485  0.3268  0.6545
  360TMC3    H1 5395   3.490   0.614  12.032 -0.7847  2.4956  0.9237
  360TMC3    H2 5396   3.804   0.706  11.748 -0.4963 -3.5648 -0.2334
  360TMC3    C7 5397   3.614   0.536  11.795  0.3794 -0.3569  0.1066
  360TMC3    C8 5398   3.887   0.931  11.868 -0.6762 -0.0736  0.7056
  360TMC3    O1 5399   3.692   0.515  11.701  0.2904  0.1765  0.5914
  360TMC3    O2 5400   3.880   1.042  11.913  0.0943  0.1951  0.4633
  361MPD2     C 5401   4.233   3.630  17.038  0.2351  0.0110  0.0193
  361MPD2    C1 5402   4.309   3.746  17.042  0.6705 -0.4514 -0.1506
  361MPD2    C2 5403   4.446   3.737  17.033  0.0210  0.8355  0.0846
  361MPD2    C3 5404   4.517   3.615  17.004  0.5307  0.0702 -0.1652
  361MPD2    C4 5405   4.432   3.502  16.998  0.2699 -0.5857 -0.4437
  361MPD2    C5 5406   4.299   3.515  17.006  0.6270  0.4425 -0.0712
  361MPD2     H 5407   4.496   3.833  17.027  0.4570  0.5986 -0.0741
  361MPD2    H1 5408   4.470   3.401  16.991  0.1940 -0.6096 -0.5100
  361MPD2    H2 5409   4.125   3.628  17.037  0.2254  0.9921 -0.6899
  361MPD2    H3 5410   4.247   3.421  16.993 -1.2656  1.5818 -0.6242
  361MPD2     N 5411   4.657   3.602  17.010 -0.7518 -0.9543 -0.2886
  361MPD2    H5 5412   4.693   3.508  17.000  0.2696 -0.5422 -0.5126
  361MPD2    N1 5413   4.251   3.873  17.044 -0.4664  0.5858 -0.0884
  361MPD2    H7 5414   4.321   3.946  17.047  0.8597 -0.6547 -0.6141
  362TMC3    C1 5415   4.101   4.047  17.005  0.3594  0.3747 -0.1797
  362TMC3    C2 5416   3.986   4.098  17.061  0.9742  0.7048 -0.2671
  362TMC3    C3 5417   3.961   4.228  17.030  0.4940 -0.8502 -0.9539
  362TMC3    C4 5418   4.181   4.113  16.919 -0.1205 -0.3247  0.0784
  362TMC3    C5 5419   4.150   4.245  16.889 -0.5245  0.3901  0.0803
  362TMC3    C6 5420   4.043   4.302  16.947 -0.9533  0.2015  0.2142
  362TMC3     C 5421   4.118   3.899  17.026 -0.1943  0.7082 -0.4018
  362TMC3     O 5422   4.019   3.831  17.018  0.6405 -0.3606  0.1648
  362TMC3     H 5423   3.919   4.042  17.125  3.6742  1.3487  3.1259
  362TMC3    H1 5424   4.262   4.057  16.872  1.1645  0.9628  0.7405
  362TMC3    H2 5425   4.029   4.407  16.922 -0.3000  1.0928  3.4906
  362TMC3    C7 5426   4.180   4.287  16.754 -0.0996 -0.0996  0.3352
  362TMC3    C8 5427   3.847   4.288  17.101  0.1804 -0.4498 -0.0196
  362TMC3    O1 5428   4.086   4.350  16.709 -0.0419 -0.0699  0.4838
  362TMC3    O2 5429   3.802   4.220  17.192 -0.2609  0.5910  0.4411
  363TMC3    C1 5430   3.745   1.761   9.525 -0.6851  0.7113  0.0621
  363TMC3    C2 5431   3.704   1.646   9.590  0.3142 -0.0770  0.3950
  363TMC3    C3 5432   3.569   1.623   9.589 -0.5770  0.1176 -0.5520
  363TMC3    C4 5433   3.650   1.840   9.461 -0.1525  0.1751 -0.4191
  363TMC3    C5 5434   3.519   1.822   9.490  0.1980  0.5503  0.2028
  363TMC3    C6 5435   3.474   1.704   9.541  0.3796  0.2464 -0.1374
  363TMC3     C 5436   3.885   1.797   9.515 -0.2463 -0.3730  0.1164
  363TMC3     O 5437   3.914   1.893   9.451  0.8685  0.6951  0.1740
  363TMC3     H 5438   3.769   1.582   9.648  0.6950 -0.5369 -0.5549
  363TMC3    H1 5439   3.675   1.942   9.432 -1.1995  0.5318 -0.0513
  363TMC3    H2 5440   3.370   1.673   9.545  0.2520  1.1037  3.4837
  363TMC3    C7 5441   3.416   1.889   9.411 -0.1686  0.0223  0.1320
  363TMC3    C8 5442   3.510   1.497   9.642  0.4401 -0.3806 -0.4618
  363TMC3    O1 5443   3.332   1.824   9.356 -0.1224  0.2180  0.7724
  363TMC3    O2 5444   3.403   1.516   9.705 -0.2358 -0.5379 -0.3711
  364MPD2     C 5445   2.450   0.665  10.835  0.6710 -0.8919  0.5406
  364MPD2    C1 5446   2.544   0.616  10.753  0.0760  0.7953 -0.0486
  364MPD2    C2 5447   2.606   0.491  10.782  0.1381 -0.5086 -0.8705
  364MPD2    C3 5448   2.568   0.417  10.887  0.4889 -0.1063 -0.0533
  364MPD2    C4 5449   2.472   0.471  10.973  0.3774 -0.8303 -0.6887
  364MPD2    C5 5450   2.409   0.592  10.942 -0.4343  0.0595 -0.6599
  364MPD2     H 5451   2.690   0.457  10.723  0.5632 -1.8551  0.5298
  364MPD2    H1 5452   2.448   0.429  11.070 -0.0823 -0.3227 -0.5861
  364MPD2    H2 5453   2.411   0.766  10.825  1.7598 -0.3875  1.3339
  364MPD2    H3 5454   2.344   0.638  11.016 -1.0474  0.2720 -1.3331
  364MPD2     N 5455   2.616   0.289  10.919 -0.3327 -0.3417 -0.5151
  364MPD2    H5 5456   2.578   0.252  11.005 -0.2864  1.4227  0.2569
  364MPD2    N1 5457   2.581   0.697  10.641  0.3532 -0.4144 -0.3858
  364MPD2    H7 5458   2.524   0.780  10.630  1.4013  0.2087 -1.0569
  365TMC3    C1 5459   2.694   0.768  10.449  0.1755  0.2708 -0.2516
  365TMC3    C2 5460   2.713   0.726  10.316  0.5726 -0.0447  0.3668
  365TMC3    C3 5461   2.709   0.827  10.225 -0.4695 -0.7806  0.5577
  365TMC3    C4 5462   2.674   0.900  10.483 -0.3723 -0.8571  0.4325
  365TMC3    C5 5463   2.676   0.997  10.383  0.0864 -0.6537 -0.3184
  365TMC3    C6 5464   2.694   0.959  10.261 -0.3897  0.0992 -0.9761
  365TMC3     C 5465   2.681   0.661  10.542  0.2719 -0.7088 -0.3986
  365TMC3     O 5466   2.736   0.556  10.513  0.3040  0.3617  0.0994
  365TMC3     H 5467   2.742   0.627  10.283  0.1110 -0.2644  0.6189
  365TMC3    H1 5468   2.671   0.927  10.588  2.0178  1.4808 -0.0989
  365TMC3    H2 5469   2.673   1.027  10.179 -1.4770  0.2349 -0.5860
  365TMC3    C7 5470   2.632   1.129  10.414 -0.1858 -0.2676 -0.4301
  365TMC3    C8 5471   2.698   0.800  10.083 -0.3281  0.1152  0.4615
  365TMC3    O1 5472   2.661   1.215  10.330  0.0312  0.4431 -0.0274
  365TMC3    O2 5473   2.720   0.879   9.991  0.1370  0.2940  0.1610
  366MPD2     C 5474   0.391   2.501  14.961 -0.3484  0.4090 -0.0136
  366MPD2    C1 5475   0.517   2.547  14.986  0.3083  0.2075  0.0013
  366MPD2    C2 5476   0.619   2.457  14.992 -0.3883  1.6826  0.3552
  366MPD2    C3 5477   0.602   2.322  14.961 -0.0620  0.7698  0.1136
  366MPD2    C4 5478   0.471   2.280  14.934 -0.1477  0.9680 -0.7046
  366MPD2    C5 5479   0.366   2.368  14.943 -0.4855 -0.3505  0.1143
  366MPD2     H 5480   0.713   2.501  15.021  0.3592 -0.1581  0.7329
  366MPD2    H1 5481   0.452   2.179  14.900  0.8462 -0.7693  3.8878
  366MPD2    H2 5482   0.311   2.575  14.955 -0.6041  0.1575  0.2395
  366MPD2    H3 5483   0.266   2.341  14.911 -0.4212  0.0985 -0.4574
  366MPD2     N 5484   0.714   2.242  14.943 -0.0616  0.2808 -0.0134
  366MPD2    H5 5485   0.801   2.295  14.948  0.5380 -0.6748 -0.1632
  366MPD2    N1 5486   0.561   2.684  15.004 -0.0917  0.4235 -0.8050
  366MPD2    H7 5487   0.654   2.701  15.043 -0.8216  2.9597 -0.2114
  367TMC3    C1 5488   0.568   2.919  15.027 -0.4012 -0.2762  0.3227
  367TMC3    C2 5489   0.668   2.908  15.124  0.5078 -0.5900 -0.7262
  367TMC3    C3 5490   0.684   3.015  15.208 -0.5676  0.0585  0.6813
  367TMC3    C4 5491   0.482   3.030  15.023  0.0495  0.2663  0.1274
  367TMC3    C5 5492   0.506   3.128  15.109  0.2039 -0.3133  0.0928
  367TMC3    C6 5493   0.611   3.129  15.197 -0.6569  0.4718  0.5220
  367TMC3     C 5494   0.490   2.798  14.996  0.4310 -0.4686 -0.0740
  367TMC3     O 5495   0.375   2.807  14.957  0.2913  0.5094  0.7907
  367TMC3     H 5496   0.727   2.818  15.133 -3.6397 -3.0514  1.8326
  367TMC3    H1 5497   0.395   3.030  14.958  0.7185  2.7025 -0.7786
  367TMC3    H2 5498   0.621   3.223  15.251 -0.3370 -0.0978  1.4402
  367TMC3    C7 5499   0.408   3.237  15.121  0.0093 -0.2617  0.3395
  367TMC3    C8 5500   0.780   3.011  15.321 -0.3678 -0.2345  0.8078
  367TMC3    O1 5501   0.374   3.264  15.235  0.3503 -0.0486 -1.2159
  367TMC3    O2 5502   0.878   2.939  15.312  0.2701  0.1514  0.2728
  368MPD2     C 5503   1.640   4.417  12.999  0.9292 -0.0541  0.3740
  368MPD2    C1 5504   1.641   4.554  12.962  0.4902  0.1580 -0.6206
  368MPD2    C2 5505   1.762   4.613  12.955 -0.6685 -0.2128 -0.2243
  368MPD2    C3 5506   1.882   4.550  12.992 -0.5770 -0.1666  0.6044
  368MPD2    C4 5507   1.884   4.417  13.020 -0.3125 -0.8710 -0.3234
  368MPD2    C5 5508   1.766   4.353  13.024  0.1900  0.5630  0.4508
  368MPD2     H 5509   1.769   4.712  12.912 -0.1106 -0.2897 -0.3098
  368MPD2    H1 5510   1.981   4.372  13.036 -0.0145  0.9933  3.1022
  368MPD2    H2 5511   1.548   4.361  13.006  0.0466  1.5990  2.0832
  368MPD2    H3 5512   1.767   4.246  13.040  0.5511  0.0471 -2.9996
  368MPD2     N 5513   2.008   4.620  12.993 -0.5418  0.1828  0.9861
  368MPD2    H5 5514   2.090   4.561  13.004  1.0113  1.6729 -2.6079
  368MPD2    N1 5515   1.513   4.610  12.924 -0.5190 -0.2322  0.0200
  368MPD2    H7 5516   1.434   4.547  12.916 -1.2826  0.8578 -0.9334
  369TMC3    C1 5517   1.372   0.044  12.827  0.0691 -0.7721 -0.4890
  369TMC3    C2 5518   1.375   0.129  12.717 -0.0327  0.3096  0.6703
  369TMC3    C3 5519   1.261   0.129  12.642  0.0973 -0.0141 -0.1643
  369TMC3    C4 5520   1.268   4.692  12.867  0.3316 -0.0748  0.1058
  369TMC3    C5 5521   1.156   4.698  12.790 -0.3852 -0.0490  0.4603
  369TMC3    C6 5522   1.153   0.060  12.679 -0.6265 -0.9812  0.5001
  369TMC3     C 5523   1.499   0.021  12.888 -0.6509  0.7636  0.6578
  369TMC3     O 5524   1.574   0.117  12.905 -0.0632  0.2453  0.2520
  369TMC3     H 5525   1.466   0.175  12.681 -0.4534  1.8429  1.5359
  369TMC3    H1 5526   1.271   4.629  12.955 -0.9519 -1.7468 -1.0456
  369TMC3    H2 5527   1.065   0.074  12.618  0.0566  1.1779 -0.0042
  369TMC3    C7 5528   1.037   4.643  12.862  0.1662 -0.0607 -0.2618
  369TMC3    C8 5529   1.264   0.199  12.515 -0.7843  0.3491 -0.3908
  369TMC3    O1 5530   1.033   4.662  12.983 -0.1362 -0.3851 -0.3564
  369TMC3    O2 5531   1.156   0.238  12.477 -0.0175 -0.0171  0.6662
  370TMC3    C1 5532   1.125   0.015  16.144  0.3333 -0.3885  0.6170
  370TMC3    C2 5533   1.009   4.694  16.211 -0.1878 -0.5837  0.5558
  370TMC3    C3 5534   0.945   4.584  16.157  0.1149  0.4449 -0.4068
  370TMC3    C4 5535   1.157   4.687  16.021  0.1049  0.1379 -0.0093
  370TMC3    C5 5536   1.094   4.572  15.971 -0.0343 -0.0977  0.5223
  370TMC3    C6 5537   0.985   4.518  16.037  0.2983  0.3325 -0.1929
  370TMC3     C 5538   1.225   0.083  16.221  0.5181 -1.1022 -0.4619
  370TMC3     O 5539   1.224   0.075  16.343 -0.1968 -0.4136 -0.3370
  370TMC3     H 5540   0.995   0.021  16.305  1.3623 -1.6095  1.3396
  370TMC3    H1 5541   1.246   4.722  15.969  0.0669  0.8207  0.3766
  370TMC3    H2 5542   0.932   4.434  15.993  0.5082  0.0414  0.1074
  370TMC3    C7 5543   1.126   4.549  15.834  0.1409  0.2880 -0.6877
  370TMC3    C8 5544   0.862   4.503  16.241 -0.1702 -0.3666 -0.0830
  370TMC3    O1 5545   1.144   4.648  15.762 -0.6365  0.3639 -0.5897
  370TMC3    O2 5546   0.815   4.398  16.202 -1.0017 -0.1849  0.5280
  371TMC3    C1 5547   2.374   2.891  15.233 -0.3905 -0.2825 -0.3883
  371TMC3    C2 5548   2.245   2.909  15.277 -0.0264  0.4748  0.3243
  371TMC3    C3 5549   2.192   3.032  15.298  0.5618 -1.4788  0.0973
  371TMC3    C4 5550   2.450   3.001  15.206 -0.2896  0.5957 -1.0176
  371TMC3    C5 5551   2.396   3.123  15.229 -0.3729  0.3484  0.3132
  371TMC3    C6 5552   2.268   3.147  15.261  0.0841  0.5662  0.8543
  371TMC3     C 5553   2.427   2.766  15.198  0.1026 -0.6369 -0.0649
  371TMC3     O 5554   2.528   2.771  15.127 -0.0974  0.0062  0.8691
  371TMC3     H 5555   2.177   2.825  15.288 -0.5793  0.8442 -0.2565
  371TMC3    H1 5556   2.551   2.991  15.168  0.0473 -0.4173  0.1157
  371TMC3    H2 5557   2.233   3.249  15.275  1.4656  1.1829 -0.1120
  371TMC3    C7 5558   2.490   3.235  15.226  0.0062  0.5996 -0.7383
  371TMC3    C8 5559   2.054   3.040  15.341  0.1503  0.8688  0.3433
  371TMC3    O1 5560   2.437   3.344  15.209  0.0263 -0.0932 -0.5759
  371TMC3    O2 5561   2.020   2.936  15.394 -0.2102  0.0150  0.1044
  372MPD2     C 5562   2.051   4.636  13.385 -0.5092  0.4966 -0.3790
  372MPD2    C1 5563   2.138   4.535  13.357 -0.6963  0.0071 -0.3829
  372MPD2    C2 5564   2.092   4.408  13.340  0.5665  0.3810 -0.7735
  372MPD2    C3 5565   1.959   4.380  13.366 -0.4164  0.0348  0.0714
  372MPD2    C4 5566   1.871   4.486  13.394  0.7272 -0.3477  0.0733
  372MPD2    C5 5567   1.923   4.612  13.407  0.3836  0.1310  0.6630
  372MPD2     H 5568   2.153   4.322  13.317 -1.2715 -0.1528 -3.5837
  372MPD2    H1 5569   1.763   4.479  13.407  0.7357  0.5921  0.6784
  372MPD2    H2 5570   2.079   0.010  13.424  1.9411  0.1713 -1.3233
  372MPD2    H3 5571   1.851   4.686  13.439 -0.7189 -0.2770 -0.8611
  372MPD2     N 5572   1.907   4.249  13.350  0.0413  0.0561 -0.3578
  372MPD2    H5 5573   1.976   4.180  13.323 -0.3352 -0.7277  0.7200
  372MPD2    N1 5574   2.281   4.553  13.333 -0.6915 -0.2131 -0.2454
  372MPD2    H7 5575   2.331   4.474  13.294  2.0111  2.3394 -1.9272
  373TMC3    C1 5576   1.769   4.061  13.369 -0.4518 -0.9884 -0.0220
  373TMC3    C2 5577   1.716   3.997  13.486  0.0757  0.4274 -0.9417
  373TMC3    C3 5578   1.716   3.857  13.480  0.6132  0.3077 -0.0889
  373TMC3    C4 5579   1.820   3.996  13.260 -0.0057 -0.3054  0.7577
  373TMC3    C5 5580   1.803   3.858  13.261 -0.8810 -0.3494  0.9357
  373TMC3    C6 5581   1.740   3.793  13.361 -0.1809 -0.3136  0.0623
  373TMC3     C 5582   1.781   4.203  13.372  0.4884  0.1180 -0.0388
  373TMC3     O 5583   1.685   4.267  13.411 -0.2509  0.7397  0.0811
  373TMC3     H 5584   1.675   4.057  13.567  0.9023 -1.1569  0.6360
  373TMC3    H1 5585   1.870   4.037  13.173  0.4225 -1.5431  0.4217
  373TMC3    H2 5586   1.725   3.686  13.347 -0.9462  0.0131 -1.6051
  373TMC3    C7 5587   1.924   3.784  13.222 -0.3144 -0.3872 -0.4553
  373TMC3    C8 5588   1.742   3.773  13.600 -0.7262  0.1793  0.1532
  373TMC3    O1 5589   1.985   3.804  13.115 -0.0869  0.3228 -0.2036
  373TMC3    O2 5590   1.808   3.673  13.587  0.0151  0.0422  0.3280
  374TMC3    C1 5591   3.192   4.138   9.682 -0.2641 -0.5999  0.0061
  374TMC3    C2 5592   3.196   4.270   9.655  0.3820  0.6537  0.0207
  374TMC3    C3 5593   3.089   4.332   9.596  0.2451 -0.6607 -0.3664
  374TMC3    C4 5594   3.082   4.067   9.660  0.2182  0.6213  0.0959
  374TMC3    C5 5595   2.991   4.119   9.580  0.2840  0.2058 -0.9775
  374TMC3    C6 5596   2.989   4.259   9.544 -0.6647  0.2820 -0.4547
  374TMC3     C 5597   3.289   4.104   9.798  0.1004 -0.2277  0.3682
  374TMC3     O 5598   3.325   4.207   9.854  0.0742  0.1822  0.4136
  374TMC3     H 5599   3.289   4.322   9.675 -0.0702  1.6933 -0.6041
  374TMC3    H1 5600   3.080   3.968   9.702 -0.2215  0.9152  0.7692
  374TMC3    H2 5601   2.906   4.303   9.489 -0.3037 -0.2661 -1.4385
  374TMC3    C7 5602   2.871   4.046   9.543 -0.0490 -0.0395 -0.4737
  374TMC3    C8 5603   3.053   4.459   9.656 -0.2252 -0.0094  0.1075
  374TMC3    O1 5604   2.773   4.112   9.509 -0.1046  0.3520 -0.1621
  374TMC3    O2 5605   2.960   4.522   9.607 -0.0729 -0.0645  0.0762
  375MPD2     C 5606   2.480   0.542  16.967  0.0805 -0.3591 -0.0015
  375MPD2    C1 5607   2.385   0.477  16.887  0.6844  0.7371 -0.4040
  375MPD2    C2 5608   2.419   0.396  16.778 -0.1244  0.4976 -0.1318
  375MPD2    C3 5609   2.555   0.399  16.742  0.2326 -0.3679 -0.1158
  375MPD2    C4 5610   2.647   0.469  16.806  0.2563  0.3443 -1.0707
  375MPD2    C5 5611   2.614   0.533  16.923  0.0997  0.3090 -0.3453
  375MPD2     H 5612   2.339   0.353  16.719  0.5415 -0.1673 -0.5463
  375MPD2    H1 5613   2.750   0.468  16.772  0.9410 -1.1622  1.0218
  375MPD2    H2 5614   2.458   0.594  17.059 -1.7820 -1.5181  0.1967
  375MPD2    H3 5615   2.692   0.577  16.984  0.7347  0.1314 -1.0318
  375MPD2     N 5616   2.594   0.346  16.613  0.0415  0.3701  0.3490
  375MPD2    H5 5617   2.687   0.370  16.581 -0.2266  1.8737  0.6773
  375MPD2    N1 5618   2.245   0.494  16.906 -0.4694 -0.1594  0.1986
  375MPD2    H7 5619   2.179   0.432  16.860 -2.6699  1.3536  1.3589
  376TMC3    C1 5620   2.606   0.212  16.423 -1.2122 -0.0722  0.3976
  376TMC3    C2 5621   2.739   0.181  16.442 -1.2306  0.0383  0.3683
  376TMC3    C3 5622   2.830   0.216  16.342  0.4537 -0.6584  0.3759
  376TMC3    C4 5623   2.572   0.283  16.309 -0.4053  0.0300 -0.7617
  376TMC3    C5 5624   2.670   0.314  16.216 -0.1575  0.2554  0.3021
  376TMC3    C6 5625   2.804   0.287  16.228  0.2786 -0.3171 -0.5276
  376TMC3     C 5626   2.529   0.254  16.537 -0.0366  0.7833  0.0343
  376TMC3     O 5627   2.415   0.212  16.551  0.0466 -0.4018  0.0156
  376TMC3     H 5628   2.779   0.130  16.529 -1.0097  0.0496  0.2731
  376TMC3    H1 5629   2.471   0.321  16.298 -0.8449 -1.0804 -0.5055
  376TMC3    H2 5630   2.872   0.308  16.146  1.9502 -2.8847  0.1972
  376TMC3    C7 5631   2.623   0.345  16.087  0.7918 -0.4987  0.6776
  376TMC3    C8 5632   2.937   0.124  16.326  0.5577 -0.2981  0.2691
  376TMC3    O1 5633   2.707   0.414  16.029 -0.1243 -0.1173 -0.0356
  376TMC3    O2 5634   2.928   0.012  16.374  0.6371 -0.4230 -0.5078
  377MPD2     C 5635   0.253   0.097  12.095 -0.5948  0.3213 -0.0617
  377MPD2    C1 5636   0.331   0.052  12.200 -0.1103 -0.2593 -0.2959
  377MPD2    C2 5637   0.282   0.071  12.330 -0.3807 -0.2776  0.3720
  377MPD2    C3 5638   0.157   0.124  12.356  0.5997  0.1887 -0.0232
  377MPD2    C4 5639   0.085   0.169  12.245 -0.2797 -0.5649  0.1618
  377MPD2    C5 5640   0.135   0.155  12.120  0.7773  0.2304 -0.3871
  377MPD2     H 5641   0.342   0.049  12.418 -0.0227 -1.0873 -0.0743
  377MPD2    H1 5642   4.723   0.234  12.260 -0.8811 -1.6152  1.2356
  377MPD2    H2 5643   0.292   0.099  11.994  0.2551  1.2045  0.2896
  377MPD2    H3 5644   0.082   0.187  12.031  1.6163  0.1049 -0.9361
  377MPD2     N 5645   0.105   0.136  12.490 -0.0998  0.1424 -0.0314
  377MPD2    H5 5646   0.154   0.080  12.560  0.7502 -0.0901 -0.8160
  377MPD2    N1 5647   0.465   0.009  12.168 -0.9150 -0.4082  0.0393
  377MPD2    H7 5648   0.491   4.718  12.071  0.4972  0.0584  0.3511
  378TMC3    C1 5649   0.856   4.621  12.062  0.2545  0.3473  0.0886
  378TMC3    C2 5650   0.730   4.661  12.094 -0.0372 -0.3919  0.4175
  378TMC3    C3 5651   0.688   4.656  12.220  0.0743 -0.1067  0.3347
  378TMC3    C4 5652   0.944   4.584  12.154  0.4001 -0.6988  0.1311
  378TMC3    C5 5653   0.905   4.596  12.286  0.2586 -0.3430  0.3772
  378TMC3    C6 5654   0.779   4.629  12.323 -0.2190  0.5646  0.2945
  378TMC3     C 5655   0.895   4.646  11.931 -0.5146 -0.3373 -0.2959
  378TMC3     O 5656   0.805   4.654  11.848 -0.2030  0.0849 -0.2908
  378TMC3     H 5657   0.660   4.677  12.013 -2.0264 -0.3257  2.1700
  378TMC3    H1 5658   1.034   4.530  12.129  2.0033  1.6057  0.9901
  378TMC3    H2 5659   0.765   4.641  12.430  1.9588  0.4209  0.6046
  378TMC3    C7 5660   1.004   4.579  12.394 -0.4275 -0.5211  0.5148
  378TMC3    C8 5661   0.557   4.687  12.261  0.9072  0.1657 -0.1153
  378TMC3    O1 5662   0.957   4.567  12.509  0.6588  0.4465 -0.3715
  378TMC3    O2 5663   0.544   4.668  12.384  0.0518  0.0810 -0.3939
  379MPD2     C 5664   1.300   2.697  16.394 -0.3423 -0.0047  0.0480
  379MPD2    C1 5665   1.385   2.635  16.301  0.0817  0.0550 -0.2729
  379MPD2    C2 5666   1.452   2.522  16.343  0.6872 -0.2368  0.2986
  379MPD2    C3 5667   1.451   2.482  16.479  0.0179  0.3189  0.0010
  379MPD2    C4 5668   1.367   2.553  16.562  0.2175  0.3093 -0.3781
  379MPD2    C5 5669   1.292   2.655  16.524 -0.3552 -0.7692 -0.1516
  379MPD2     H 5670   1.510   2.467  16.271  1.1581 -0.0278  0.5196
  379MPD2    H1 5671   1.339   2.522  16.662  2.7943  0.7567  0.4781
  379MPD2    H2 5672   1.253   2.793  16.375 -0.2321 -0.3260 -1.7788
  379MPD2    H3 5673   1.222   2.709  16.587 -0.7990 -0.1469 -1.1707
  379MPD2     N 5674   1.508   2.366  16.536 -0.0378  0.0844  0.5251
  379MPD2    H5 5675   1.481   2.349  16.632 -1.9914 -1.5607 -0.3091
  379MPD2    N1 5676   1.382   2.694  16.170  0.0234  0.4099  0.8273
  379MPD2    H7 5677   1.312   2.767  16.160  1.1184  1.2019 -0.8557
  380TMC3    C1 5678   1.455   2.754  15.956  0.5838  0.7052  0.1836
  380TMC3    C2 5679   1.522   2.713  15.842  0.3425  0.4149 -0.1752
  380TMC3    C3 5680   1.465   2.762  15.717  0.1930  0.7036 -0.5112
  380TMC3    C4 5681   1.349   2.842  15.948 -0.0572 -0.0447  0.0454
  380TMC3    C5 5682   1.302   2.881  15.826  0.2122 -0.1059  0.4018
  380TMC3    C6 5683   1.350   2.837  15.711  0.3735  0.4834 -1.0045
  380TMC3     C 5684   1.469   2.666  16.074 -0.6784  0.4313 -0.2166
  380TMC3     O 5685   1.564   2.594  16.068 -0.3590 -0.6423 -1.2974
  380TMC3     H 5686   1.621   2.670  15.854  0.8679  1.9111  0.9172
  380TMC3    H1 5687   1.301   2.882  16.036  0.5556  0.1467  0.2957
  380TMC3    H2 5688   1.331   2.874  15.611  0.8301 -0.3049 -1.3849
  380TMC3    C7 5689   1.189   2.972  15.834 -0.3981 -1.0548 -0.0737
  380TMC3    C8 5690   1.548   2.754  15.600 -0.1558  0.4120  0.0488
  380TMC3    O1 5691   1.144   3.002  15.942 -0.3593 -0.1899  0.3018
  380TMC3    O2 5692   1.529   2.831  15.510 -0.6075 -0.0279 -0.2663
  381TMC3    C1 5693   0.833   3.890  15.889  0.3992  0.5669 -0.2222
  381TMC3    C2 5694   0.947   3.940  15.938  0.3016  0.9730  0.0956
  381TMC3    C3 5695   0.936   4.042  16.031 -0.2449 -0.3056 -0.3585
  381TMC3    C4 5696   0.713   3.917  15.944  0.8708 -0.6236  0.5092
  381TMC3    C5 5697   0.706   4.006  16.047  0.1300  0.7856  0.4441
  381TMC3    C6 5698   0.813   4.080  16.088  0.1310  0.0795  0.6536
  381TMC3     C 5699   0.833   3.858  15.744  0.3577  0.3939  0.0986
  381TMC3     O 5700   0.723   3.825  15.702  0.4078  0.3833 -0.3156
  381TMC3     H 5701   1.041   3.900  15.903  0.1039 -1.1935  2.0215
  381TMC3    H1 5702   0.624   3.869  15.904  0.7988  1.6177 -1.9413
  381TMC3    H2 5703   0.806   4.149  16.172 -3.4464  2.1020 -1.2954
  381TMC3    C7 5704   0.594   3.997  16.140 -0.4776  0.6810 -0.1248
  381TMC3    C8 5705   1.060   4.118  16.048 -0.2633 -0.5287  0.2588
  381TMC3    O1 5706   0.512   3.914  16.109  0.5616  0.3300  0.1462
  381TMC3    O2 5707   1.130   4.107  15.946 -0.3886 -0.2863  0.0592
  382MPD2     C 5708   0.144   2.141  16.894 -0.0407 -0.0757  1.0691
  382MPD2    C1 5709   0.181   2.091  17.014 -0.6186  0.6442  0.2709
  382MPD2    C2 5710   0.188   1.952  17.022 -0.1127 -0.4942  0.0707
  382MPD2    C3 5711   0.142   1.872  16.919 -0.8530 -0.2741  0.6556
  382MPD2    C4 5712   0.099   1.925  16.802  0.3228  0.3742  0.0838
  382MPD2    C5 5713   0.095   2.064  16.785  0.3573 -0.6025  0.0654
  382MPD2     H 5714   0.224   1.909  17.115  1.9923 -3.3016 -2.0300
  382MPD2    H1 5715   0.067   1.857  16.723  2.0310 -0.3407  0.0070
  382MPD2    H2 5716   0.170   2.245  16.875  4.5747 -1.1575  1.5078
  382MPD2    H3 5717   0.061   2.105  16.691  0.6547  0.0627  0.2500
  382MPD2     N 5718   0.141   1.729  16.922 -0.8913 -0.1465  0.0912
  382MPD2    H5 5719   0.106   1.676  16.843 -0.5072 -1.0581  0.5453
  382MPD2    N1 5720   0.231   2.164  17.126 -0.2050  0.6774  0.2822
  382MPD2    H7 5721   0.237   2.111  17.213 -0.4972  0.5568  0.2310
  383TMC3    C1 5722   0.127   1.515  17.007  0.1079 -0.2338  0.0818
  383TMC3    C2 5723   4.724   1.492  16.969  0.0451  0.1579  1.3471
  383TMC3    C3 5724   4.676   1.360  16.970 -0.2695 -0.7356 -0.2740
  383TMC3    C4 5725   0.212   1.416  17.048  0.7568 -0.3305  0.2755
  383TMC3    C5 5726   0.157   1.288  17.056 -0.2650  0.5074  0.3933
  383TMC3    C6 5727   0.029   1.257  17.011  0.0133  0.7459 -0.1746
  383TMC3     C 5728   0.174   1.651  17.030 -0.0092  0.5557  0.0948
  383TMC3     O 5729   0.253   1.676  17.121  0.2556 -0.4210 -0.5170
  383TMC3     H 5730   4.662   1.579  16.948  2.2924  1.3291 -0.4070
  383TMC3    H1 5731   0.314   1.439  17.077  0.2749  0.0159  1.6693
  383TMC3    H2 5732   4.707   1.159  17.018  2.1196 -0.2362 -0.2843
  383TMC3    C7 5733   0.247   1.183  17.080  0.2823  0.0263 -0.0793
  383TMC3    C8 5734   4.530   1.343  16.966  0.3310 -0.2170  0.0502
  383TMC3    O1 5735   0.368   1.201  17.057  0.3176 -0.2480 -0.4770
  383TMC3    O2 5736   4.464   1.429  16.912 -0.4742  0.3115  0.8888
  384MPD2     C 5737   2.314   2.382  11.659 -0.0828 -0.3801 -1.2296
  384MPD2    C1 5738   2.339   2.329  11.782  0.2029 -0.3014 -0.5908
  384MPD2    C2 5739   2.361   2.190  11.789  0.0945  0.3800  0.3346
  384MPD2    C3 5740   2.366   2.102  11.685  0.1566  1.1493  0.1036
  384MPD2    C4 5741   2.342   2.161  11.562  0.3021  0.8796 -0.1552
  384MPD2    C5 5742   2.324   2.298  11.547 -0.1167 -0.1904 -0.7400
  384MPD2     H 5743   2.371   2.146  11.888 -0.6536 -1.6929 -0.5113
  384MPD2    H1 5744   2.351   2.093  11.478 -2.8514 -0.2209  0.4176
  384MPD2    H2 5745   2.304   2.490  11.653  0.4147 -0.2407  0.5594
  384MPD2    H3 5746   2.309   2.334  11.446 -3.6103 -1.5462 -0.7007
  384MPD2     N 5747   2.372   1.962  11.709  0.8405  0.0932 -0.4265
  384MPD2    H5 5748   2.356   1.942  11.807 -3.5629 -2.4993 -1.6548
  384MPD2    N1 5749   2.329   2.406  11.907  0.3986 -0.3296  0.0397
  384MPD2    H7 5750   2.356   2.356  11.991  1.4772  1.6457  0.8883
  385TMC3    C1 5751   2.323   1.744  11.695  0.7843 -0.1533 -0.0455
  385TMC3    C2 5752   2.196   1.704  11.671 -0.1973 -0.2518 -0.1479
  385TMC3    C3 5753   2.121   1.649  11.777  0.1648 -0.1034  0.8364
  385TMC3    C4 5754   2.367   1.743  11.826  0.7100 -0.3750 -0.2049
  385TMC3    C5 5755   2.285   1.718  11.930 -0.0824 -0.7321  0.8055
  385TMC3    C6 5756   2.155   1.673  11.909  0.0446  1.3057  0.2813
  385TMC3     C 5757   2.365   1.862  11.622 -0.1501 -0.0974  0.1514
  385TMC3     O 5758   2.360   1.861  11.500 -0.3142  0.0734  0.4950
  385TMC3     H 5759   2.147   1.714  11.575 -1.6496 -1.5293  0.4587
  385TMC3    H1 5760   2.470   1.770  11.846  1.5944 -1.9129 -2.6889
  385TMC3    H2 5761   2.084   1.647  11.987  1.4761 -2.9391  0.1438
  385TMC3    C7 5762   2.306   1.821  12.032 -0.6186 -0.4350 -0.3597
  385TMC3    C8 5763   1.995   1.590  11.753 -0.1233  0.1335 -0.9337
  385TMC3    O1 5764   2.361   1.924  11.989  0.2079  0.1980  0.3538
  385TMC3    O2 5765   1.913   1.583  11.845 -0.1571 -0.6267 -0.0235
  386TMC3    C1 5766   1.485   4.633  11.025  0.0206 -0.0974 -0.6835
  386TMC3    C2 5767   1.548   4.688  10.919  0.4321 -0.1138 -0.0817
  386TMC3    C3 5768   1.532   0.098  10.890  0.5797 -0.4155  0.8627
  386TMC3    C4 5769   1.404   4.718  11.103  0.9493 -0.3701 -0.0127
  386TMC3    C5 5770   1.375   0.122  11.064  0.1202  0.0957  0.7341
  386TMC3    C6 5771   1.447   0.182  10.959  0.1190 -0.6693 -0.9359
  386TMC3     C 5772   1.546   4.531  11.103  0.2690 -0.3667  0.4364
  386TMC3     O 5773   1.466   4.464  11.162 -0.4974 -0.0058  0.2242
  386TMC3     H 5774   1.618   4.634  10.857 -0.7875 -1.5634 -0.2064
  386TMC3    H1 5775   1.359   4.686  11.196  0.5405  2.8122  0.9046
  386TMC3    H2 5776   1.422   0.285  10.938  2.6189  0.6063  2.2551
  386TMC3    C7 5777   1.289   0.199  11.151  0.0008  0.3560  0.3542
  386TMC3    C8 5778   1.604   0.158  10.784  0.2097  0.6541  0.5735
  386TMC3    O1 5779   1.278   0.163  11.266 -0.1166 -0.3287  0.1262
  386TMC3    O2 5780   1.630   0.085  10.691  0.5038  0.2466 -0.5820
  387MPD2     C 5781   0.170   0.040   9.243  0.3882  0.0838 -0.4870
  387MPD2    C1 5782   0.294   0.026   9.305 -0.6732 -0.2659 -0.0857
  387MPD2    C2 5783   0.343   4.626   9.311 -0.5845 -0.1850  0.1217
  387MPD2    C3 5784   0.285   4.512   9.266 -0.3204 -0.5677 -0.4917
  387MPD2    C4 5785   0.169   4.525   9.190 -0.6966  0.0439  0.3235
  387MPD2    C5 5786   0.111   4.653   9.186 -0.4020 -0.2137 -0.7154
  387MPD2     H 5787   0.438   4.612   9.363  0.1683  0.1893 -1.1535
  387MPD2    H1 5788   0.115   4.443   9.144 -0.0225 -0.7039  0.8663
  387MPD2    H2 5789   0.144   0.139   9.208  0.9246  0.5325  0.3795
  387MPD2    H3 5790   0.033   4.673   9.113 -0.8777 -1.1487 -0.4615
  387MPD2     N 5791   0.346   4.389   9.309  0.6027 -0.1034  0.7177
  387MPD2    H5 5792   0.444   4.400   9.336  0.4220  0.9414  0.9424
  387MPD2    N1 5793   0.371   0.122   9.375 -0.2883 -0.8723  0.0710
  387MPD2    H7 5794   0.468   0.098   9.394  0.2875  0.7449 -0.7246
  388TMC3    C1 5795   0.419   0.315   9.499 -0.2178  0.0593 -0.3306
  388TMC3    C2 5796   0.369   0.426   9.554  0.4548  0.2364  0.5070
  388TMC3    C3 5797   0.405   0.462   9.685 -0.3051 -0.6699  0.5963
  388TMC3    C4 5798   0.505   0.229   9.568  0.2876  0.0472  0.0732
  388TMC3    C5 5799   0.556   0.279   9.685 -0.0941  0.0137  0.4870
  388TMC3    C6 5800   0.509   0.392   9.747  0.3440  0.0395 -0.5902
  388TMC3     C 5801   0.335   0.250   9.406 -0.2309 -0.5802  0.0741
  388TMC3     O 5802   0.234   0.307   9.369  0.1267 -0.5715  0.1178
  388TMC3     H 5803   0.309   0.500   9.502  0.1618  0.0210  0.5424
  388TMC3    H1 5804   0.560   0.146   9.525 -1.5340 -2.6273  2.9066
  388TMC3    H2 5805   0.548   0.413   9.846  0.3175 -0.0907 -0.5523
  388TMC3    C7 5806   0.620   0.182   9.779 -0.1925  0.0739  0.1354
  388TMC3    C8 5807   0.376   0.597   9.736  0.3082  0.3470  0.3787
  388TMC3    O1 5808   0.702   0.218   9.860  0.0778  0.2956 -0.3571
  388TMC3    O2 5809   0.290   0.667   9.688  0.0250 -0.0004  0.5800
  389MPD2     C 5810   4.029   3.026  11.050  0.2191 -0.1187  0.3902
  389MPD2    C1 5811   3.942   2.973  10.956  0.0833  0.8915  0.2825
  389MPD2    C2 5812   3.855   2.876  10.997  0.4568  0.3387 -0.0664
  389MPD2    C3 5813   3.851   2.830  11.129 -0.8168 -0.5452 -0.3084
  389MPD2    C4 5814   3.935   2.885  11.229  0.6183  0.1043  0.1396
  389MPD2    C5 5815   4.032   2.974  11.181 -0.0595 -1.4943  0.2317
  389MPD2     H 5816   3.774   2.842  10.932  0.8185 -0.5427 -0.0606
  389MPD2    H1 5817   3.940   2.858  11.334  0.5838  0.3538  0.2068
  389MPD2    H2 5818   4.106   3.097  11.021  1.4063 -1.8967 -0.8204
  389MPD2    H3 5819   4.116   3.010  11.239 -0.8767  1.7796 -0.5936
  389MPD2     N 5820   3.763   2.730  11.166 -0.3248  0.7721 -0.3211
  389MPD2    H5 5821   3.727   2.727  11.261 -0.3638 -0.5831 -0.3797
  389MPD2    N1 5822   3.943   3.023  10.822  0.2360  0.5916  0.2829
  389MPD2    H7 5823   3.990   3.110  10.802  0.6432 -0.0804 -1.6820
  390TMC3    C1 5824   3.586   2.569  11.141 -0.2551 -0.3852 -0.3731
  390TMC3    C2 5825   3.566   2.578  11.272 -0.3247  0.1414 -0.8487
  390TMC3    C3 5826   3.446   2.539  11.311  0.1517  0.0373  0.7643
  390TMC3    C4 5827   3.490   2.543  11.049 -0.3178  0.2143  0.4937
  390TMC3    C5 5828   3.365   2.522  11.094 -0.4787  0.4834 -0.2171
  390TMC3    C6 5829   3.340   2.520  11.228  0.2650  0.3778  0.2623
  390TMC3     C 5830   3.687   2.652  11.082  0.2713  0.0390  0.1951
  390TMC3     O 5831   3.697   2.648  10.959 -0.3137 -0.3100  0.3074
  390TMC3     H 5832   3.637   2.601  11.351 -0.5378 -0.7162 -0.4023
  390TMC3    H1 5833   3.507   2.538  10.942 -1.3460  1.4734  0.2607
  390TMC3    H2 5834   3.239   2.517  11.268  0.7579 -1.5488  1.3421
  390TMC3    C7 5835   3.295   2.423  11.021  0.1292  0.1046 -0.3956
  390TMC3    C8 5836   3.439   2.429  11.409  0.3705  0.1899 -0.1266
  390TMC3    O1 5837   3.363   2.341  10.957  0.1625  0.1565 -0.5899
  390TMC3    O2 5838   3.496   2.445  11.518 -0.4323 -0.2368  0.0499
  391MPD2     C 5839   3.625   4.193  11.098 -0.5102 -0.3581  0.0271
  391MPD2    C1 5840   3.686   4.317  11.085 -0.5379  0.5701  0.4734
  391MPD2    C2 5841   3.660   4.386  10.972 -0.2558 -0.4509 -0.6565
  391MPD2    C3 5842   3.573   4.342  10.877 -0.0883  0.0087  0.1197
  391MPD2    C4 5843   3.502   4.221  10.892 -0.2800 -0.5070  0.2506
  391MPD2    C5 5844   3.539   4.144  11.000 -0.3223 -0.3549 -0.4825
  391MPD2     H 5845   3.702   4.484  10.952 -0.9182 -0.5488 -2.4640
  391MPD2    H1 5846   3.416   4.199  10.831 -1.1258  0.1246  1.2220
  391MPD2    H2 5847   3.647   4.126  11.181 -0.8942 -0.2392  0.2266
  391MPD2    H3 5848   3.491   4.048  11.019  1.4234 -0.4966  3.3232
  391MPD2     N 5849   3.546   4.439  10.768  0.0637 -0.1746  0.2036
  391MPD2    H5 5850   3.610   4.518  10.766  1.6065 -1.5086 -1.9454
  391MPD2    N1 5851   3.777   4.359  11.186  0.2796  0.5722  0.6501
  391MPD2    H7 5852   3.789   4.308  11.273 -0.8127 -0.6041  0.1032
  392TMC3    C1 5853   3.462   4.530  10.569  0.1195 -0.3843 -0.2167
  392TMC3    C2 5854   3.363   4.542  10.478  0.4204 -0.6172  0.9350
  392TMC3    C3 5855   3.389   4.613  10.365  0.2940 -0.2559 -0.2405
  392TMC3    C4 5856   3.574   4.605  10.558  0.1073 -0.1894  0.5102
  392TMC3    C5 5857   3.599   4.674  10.444 -0.1557 -0.1467 -0.1028
  392TMC3    C6 5858   3.507   4.680  10.340  1.2354 -0.3088 -0.6453
  392TMC3     C 5859   3.454   4.425  10.667 -0.1999  0.0758 -0.5984
  392TMC3     O 5860   3.351   4.361  10.669 -0.8307 -0.5418 -1.0116
  392TMC3     H 5861   3.263   4.500  10.485 -0.1287  0.6971  0.8077
  392TMC3    H1 5862   3.656   4.589  10.627  1.0441  1.1372 -0.3066
  392TMC3    H2 5863   3.530   0.004  10.246  0.3653  1.0208 -0.1747
  392TMC3    C7 5864   3.703   0.045  10.438 -0.6779  0.4630  0.4635
  392TMC3    C8 5865   3.301   4.606  10.251  0.1690  0.2955 -1.1889
  392TMC3    O1 5866   3.756   0.047  10.551  0.0107  0.6234 -0.3455
  392TMC3    O2 5867   3.243   4.499  10.235  0.1555  0.5982 -0.0689
  393TMC3    C1 5868   2.343   2.777  10.579 -0.2941 -0.3099 -0.2253
  393TMC3    C2 5869   2.306   2.849  10.686  0.7855 -0.4386  0.3833
  393TMC3    C3 5870   2.247   2.771  10.784 -0.3686  0.1938  0.1938
  393TMC3    C4 5871   2.329   2.640  10.559  1.0527  0.4633  0.4200
  393TMC3    C5 5872   2.272   2.570  10.656 -0.1699  1.2153  0.4300
  393TMC3    C6 5873   2.227   2.632  10.774  0.7202  0.0600 -0.1315
  393TMC3     C 5874   2.442   2.836  10.482 -0.0231 -0.3147  0.1896
  393TMC3     O 5875   2.464   2.773  10.379 -0.0131  0.4526 -0.2133
  393TMC3     H 5876   2.319   2.956  10.683  1.4495 -0.4828  1.5717
  393TMC3    H1 5877   2.367   2.600  10.465  1.3202  0.8008  0.3862
  393TMC3    H2 5878   2.180   2.572  10.851 -0.7057 -0.4925 -1.4242
  393TMC3    C7 5879   2.288   2.425  10.657  0.3516  0.7031 -0.4629
  393TMC3    C8 5880   2.185   2.825  10.906 -0.0726  0.3254 -0.2067
  393TMC3    O1 5881   2.290   2.376  10.772  0.0746 -0.1761  0.9837
  393TMC3    O2 5882   2.098   2.752  10.958 -0.0451 -0.9640 -0.0880
  394TMC3    C1 5883   3.898   3.047  10.589 -0.2730 -0.0290  1.0615
  394TMC3    C2 5884   3.804   3.008  10.495 -0.7194 -0.8175 -0.2337
  394TMC3    C3 5885   3.837   3.020  10.366 -0.2330 -0.3570  0.3215
  394TMC3    C4 5886   4.029   3.069  10.555  0.0082 -0.6797  0.8676
  394TMC3    C5 5887   4.059   3.065  10.425 -0.0006 -0.0817 -0.1786
  394TMC3    C6 5888   3.963   3.044  10.332  0.4105  0.2259 -0.8432
  394TMC3     C 5889   3.863   2.987  10.714  0.5879  0.3037 -0.3565
  394TMC3     O 5890   3.776   2.901  10.710 -0.0696  0.1449 -0.5542
  394TMC3     H 5891   3.700   2.995  10.522 -0.4699  2.3851  2.2900
  394TMC3    H1 5892   4.111   3.094  10.621  1.2843 -0.1662 -0.8986
  394TMC3    H2 5893   3.978   3.050  10.224 -0.0724 -0.5247 -0.9556
  394TMC3    C7 5894   4.200   3.093  10.380  1.0654 -0.0667  0.3368
  394TMC3    C8 5895   3.726   2.999  10.274 -0.3516  0.2246  0.3869
  394TMC3    O1 5896   4.278   3.158  10.451  0.0990 -0.1790  0.0803
  394TMC3    O2 5897   3.615   2.969  10.327 -0.4136  0.1652  0.4458
  395TMC3    C1 5898   3.158   0.369  14.138  0.1238 -0.4125  0.0556
  395TMC3    C2 5899   3.041   0.343  14.211 -0.0275  0.3985 -0.5714
  395TMC3    C3 5900   3.018   0.412  14.323 -0.0942 -0.0931 -0.1593
  395TMC3    C4 5901   3.237   0.476  14.185 -0.0643  0.1267 -0.1167
  395TMC3    C5 5902   3.204   0.539  14.303  0.6277  0.1490 -0.0803
  395TMC3    C6 5903   3.087   0.514  14.373  0.1524 -0.3136 -0.8404
  395TMC3     C 5904   3.250   0.254  14.130 -0.1542  0.7473  0.0391
  395TMC3     O 5905   3.358   0.281  14.182 -0.2122  0.9657 -0.1585
  395TMC3     H 5906   2.974   0.261  14.189  1.5856 -1.3316  0.9350
  395TMC3    H1 5907   3.328   0.494  14.129  1.0373 -1.0951  1.2839
  395TMC3    H2 5908   3.081   0.553  14.473 -1.2426  0.9671 -1.4241
  395TMC3    C7 5909   3.317   0.567  14.387  0.6386  0.0310 -0.9178
  395TMC3    C8 5910   2.938   0.353  14.426 -0.1782 -0.2169 -0.6465
  395TMC3    O1 5911   3.300   0.656  14.471 -0.4256  0.1566  0.0104
  395TMC3    O2 5912   2.900   0.424  14.519  0.8045 -0.1323  0.2783
  396MPD2     C 5913   3.243   1.887  17.048  0.3472  0.0534 -0.6033
  396MPD2    C1 5914   3.359   1.830  16.993  0.6383 -0.5127 -0.0460
  396MPD2    C2 5915   3.402   1.875  16.870  0.2098  0.1583 -0.0857
  396MPD2    C3 5916   3.347   1.984  16.806 -1.2160 -0.0956  0.1817
  396MPD2    C4 5917   3.234   2.044  16.863  0.4220  0.4395 -0.1321
  396MPD2    C5 5918   3.180   1.993  16.985 -0.2753 -0.7850 -0.1316
  396MPD2     H 5919   3.494   1.829  16.836  0.4320 -0.3265  1.1694
  396MPD2    H1 5920   3.176   2.120  16.812  0.0989 -0.2950 -0.8695
  396MPD2    H2 5921   3.209   1.848  17.143  0.9158  0.0217 -0.4139
  396MPD2    H3 5922   3.087   2.032  17.025 -1.0134 -0.5139 -2.1219
  396MPD2     N 5923   3.426   2.045  16.701 -0.1601 -0.2198  0.5242
  396MPD2    H5 5924   3.522   2.016  16.684 -0.4599 -1.7661  1.4401
  396MPD2    N1 5925   3.406   1.718  17.071 -0.2902  0.4619 -0.0204
  396MPD2    H7 5926   3.357   1.690  17.155 -0.2385 -2.2483 -0.8798
  397TMC3    C1 5927   3.559   1.535  17.122  0.5562  0.3153 -0.2465
  397TMC3    C2 5928   3.676   1.482  17.081  0.3391 -0.2828  0.2558
  397TMC3    C3 5929   3.691   1.350  17.077 -0.8688  0.0441  0.1690
  397TMC3    C4 5930   3.453   1.448  17.158 -0.0995  0.3693 -0.0975
  397TMC3    C5 5931   3.475   1.315  17.147  0.2520  0.0917 -0.4114
  397TMC3    C6 5932   3.595   1.260  17.117 -0.0054 -0.2831 -0.5046
  397TMC3     C 5933   3.514   1.639  17.026 -0.1347 -0.2166  0.6588
  397TMC3     O 5934   3.583   1.653  16.925  0.4702 -0.0926 -0.4262
  397TMC3     H 5935   3.741   1.546  17.021 -1.8127  0.1661 -1.5820
  397TMC3    H1 5936   3.350   1.480  17.169  0.1004 -1.2038  5.8733
  397TMC3    H2 5937   3.611   1.153  17.112 -1.5058 -0.5583  0.6057
  397TMC3    C7 5938   3.364   1.216  17.167 -0.1498  0.3480  0.5571
  397TMC3    C8 5939   3.737   1.307  16.943 -0.2343 -0.2525 -0.1702
  397TMC3    O1 5940   3.370   1.121  17.088  0.1785 -0.3630 -0.2468
  397TMC3    O2 5941   3.777   1.192  16.928  0.2106 -0.1393 -0.1502
  398MPD2     C 5942   1.132   2.545  17.528  0.3770 -0.0707 -0.7326
  398MPD2    C1 5943   1.229   2.447  17.516  0.9350 -0.5992  0.4163
  398MPD2    C2 5944   1.352   2.477  17.463  0.6288  0.2710  0.3053
  398MPD2    C3 5945   1.389   2.605  17.429 -0.4564 -0.4008  0.6980
  398MPD2    C4 5946   1.291   2.698  17.435 -0.2809  0.1820 -1.0794
  398MPD2    C5 5947   1.169   2.666  17.493 -0.2398 -0.6914  0.1381
  398MPD2     H 5948   1.429   2.402  17.448  0.1813 -0.2350  0.5420
  398MPD2    H1 5949   1.304   2.801  17.406  2.5099  0.1924  0.2027
  398MPD2    H2 5950   1.033   2.526  17.567  0.5265  0.8219  0.0583
  398MPD2    H3 5951   1.099   2.748  17.506  3.7495  2.5692  1.1847
  398MPD2     N 5952   1.518   2.636  17.378 -0.3486 -0.1779 -0.3941
  398MPD2    H5 5953   1.587   2.563  17.361  0.8793  1.0828 -0.7437
  398MPD2    N1 5954   1.213   2.313  17.557 -0.3141  0.2503 -0.1102
  398MPD2    H7 5955   1.301   2.264  17.563 -0.0627  0.7329  0.1443
  399TMC3    C1 5956   1.112   2.129  17.675  0.6614  0.4068  0.0562
  399TMC3    C2 5957   1.222   2.113   0.055  0.7263  0.3583  0.3245
  399TMC3    C3 5958   1.242   2.003   0.132 -0.4945 -0.5527 -0.0994
  399TMC3    C4 5959   1.008   2.033  17.680 -0.0073 -0.0390  0.1372
  399TMC3    C5 5960   1.028   1.911   0.052 -1.1487 -0.4824 -0.4196
  399TMC3    C6 5961   1.141   1.901   0.136  1.1461  0.3817  0.1836
  399TMC3     C 5962   1.095   2.252  17.607 -0.2324  0.6875  0.5704
  399TMC3     O 5963   0.980   2.287  17.581 -0.3401  0.0124  0.5692
  399TMC3     H 5964   1.304   2.182   0.037  1.5220 -0.1705  1.9422
  399TMC3    H1 5965   0.910   2.071  17.654 -0.0823  1.1405  2.1507
  399TMC3    H2 5966   1.158   1.813   0.196  1.0692 -0.1603 -0.5822
  399TMC3    C7 5967   0.915   1.827   0.090  0.7932  0.3322 -0.1267
  399TMC3    C8 5968   1.380   1.956   0.129  0.2726 -0.1540 -0.0189
  399TMC3    O1 5969   0.917   1.759   0.190  0.3925 -0.2155  0.5561
  399TMC3    O2 5970   1.460   2.038   0.085 -0.2906  0.2726 -0.0538
  400TMC3    C1 5971   4.692   0.594  16.587 -0.0532  0.2416  0.3163
  400TMC3    C2 5972   4.562   0.554  16.568 -0.4316  0.2085  0.5763
  400TMC3    C3 5973   4.463   0.648  16.555  0.1151 -0.4411 -0.1066
  400TMC3    C4 5974   4.721   0.726  16.600  0.0889 -0.2865  0.6088
  400TMC3    C5 5975   4.622   0.813  16.594  0.1144  0.5419  0.0629
  400TMC3    C6 5976   4.488   0.782  16.577  0.4985 -0.4638 -0.4388
  400TMC3     C 5977   0.063   0.497  16.527 -0.0233 -0.7167  0.3343
  400TMC3     O 5978   0.020   0.400  16.469  0.3242 -0.3180 -0.4146
  400TMC3     H 5979   4.533   0.449  16.568  0.6182 -0.0856  0.7556
  400TMC3    H1 5980   0.102   0.754  16.598  0.4579 -1.7302 -0.0744
  400TMC3    H2 5981   4.419   0.863  16.557  2.4626  1.1005 -0.8258
  400TMC3    C7 5982   4.664   0.947  16.576  0.1511  0.4741 -0.3810
  400TMC3    C8 5983   4.321   0.612  16.552 -0.8302  0.2655  0.5285
  400TMC3    O1 5984   0.057   0.958  16.541  0.2145  0.0037  0.0758
  400TMC3    O2 5985   4.238   0.688  16.603 -0.3755 -0.2317 -0.9393
  401MPD2     C 5986   2.205   0.159  17.484 -0.1372 -0.2846  0.4728
  401MPD2    C1 5987   2.295   0.075  17.424  0.8082 -0.4160  0.3929
  401MPD2    C2 5988   2.298   4.668  17.448  1.0934 -0.1456  0.5638
  401MPD2    C3 5989   2.223   4.612  17.548 -0.3947 -0.8060 -0.0716
  401MPD2    C4 5990   2.145   4.696  17.623  1.1227  0.0290 -0.6183
  401MPD2    C5 5991   2.138   0.107  17.591  0.3875  0.5244  0.2109
  401MPD2     H 5992   2.367   4.608  17.391  1.3709 -0.8029  1.5865
  401MPD2    H1 5993   2.084   4.668   0.012  1.4761  1.8094  0.2004
  401MPD2    H2 5994   2.207   0.265  17.462  0.6839 -0.8822 -2.3090
  401MPD2    H3 5995   2.094   0.167  17.670  0.6248  0.6848  0.2199
  401MPD2     N 5996   2.225   4.472  17.573 -0.3007 -0.5760  0.1575
  401MPD2    H5 5997   2.275   4.414  17.506  0.7897  0.8446 -0.2625
  401MPD2    N1 5998   2.376   0.114  17.316  0.5068  0.0602 -0.4478
  401MPD2    H7 5999   2.420   0.034  17.271  1.3804  0.4425 -0.2677
  402TMC3    C1 6000   2.187   4.256  17.682 -1.0036  0.0439 -0.8469
  402TMC3    C2 6001   2.148   4.192   0.104 -0.0807  0.5915 -0.0166
  402TMC3    C3 6002   2.187   4.060   0.103  0.6809  0.0994  0.2552
  402TMC3    C4 6003   2.251   4.200  17.573 -0.1803 -0.1696  0.4926
  402TMC3    C5 6004   2.286   4.071  17.583  0.2242 -0.6477 -0.4720
  402TMC3    C6 6005   2.246   3.999  17.695  0.3028 -0.4344 -0.3038
  402TMC3     C 6006   2.158   4.400  17.675  0.8836  0.4990  0.1021
  402TMC3     O 6007   2.104   4.450   0.072  0.0151  0.2631  0.0661
  402TMC3     H 6008   2.088   4.239   0.181 -1.1904 -0.5166 -0.2053
  402TMC3    H1 6009   2.307   4.252  17.495 -1.7922  0.0421 -0.5116
  402TMC3    H2 6010   2.263   3.892   0.004  1.2836 -0.1937  1.1521
  402TMC3    C7 6011   2.394   4.016  17.511 -0.4510  0.6578 -0.5560
  402TMC3    C8 6012   2.172   3.972   0.219  0.1125 -0.5804  0.0914
  402TMC3    O1 6013   2.414   4.064  17.399 -0.2626 -0.0578  0.4114
  402TMC3    O2 6014   2.171   3.850   0.201 -0.0102 -0.3430  0.2107
  403MPD2     C 6015   1.800   2.764  12.970  0.0679 -0.1848  0.9529
  403MPD2    C1 6016   1.806   2.668  13.067  0.1432 -0.7467  0.7936
  403MPD2    C2 6017   1.881   2.686  13.182  0.1202 -0.7789 -0.3972
  403MPD2    C3 6018   1.954   2.799  13.208 -0.2681  0.3730 -0.0687
  403MPD2    C4 6019   1.941   2.893  13.110 -0.9301  0.0837 -0.3740
  403MPD2    C5 6020   1.874   2.876  12.992 -0.2505 -0.1871  0.2716
  403MPD2     H 6021   1.881   2.608  13.257  0.1395 -2.3425 -2.0206
  403MPD2    H1 6022   2.006   2.980  13.104 -0.4593 -0.0153  2.7874
  403MPD2    H2 6023   1.761   2.739  12.872 -0.3462 -0.3108  1.1523
  403MPD2    H3 6024   1.880   2.941  12.905  0.2984  0.5128  0.8355
  403MPD2     N 6025   2.042   2.806  13.320 -0.0417 -0.8391  0.1753
  403MPD2    H5 6026   2.057   2.733  13.389 -2.5862 -0.8126  0.7618
  403MPD2    N1 6027   1.734   2.548  13.034  0.0986 -0.4375 -0.3100
  403MPD2    H7 6028   1.698   2.547  12.939 -1.3845 -1.6193  0.2548
  404TMC3    C1 6029   1.618   2.343  13.086 -0.1275 -0.2863 -0.6044
  404TMC3    C2 6030   1.555   2.278  13.190 -0.0023 -0.0555  0.7161
  404TMC3    C3 6031   1.484   2.164  13.169  0.4591 -0.9183 -0.0308
  404TMC3    C4 6032   1.616   2.296  12.960 -0.3238 -0.1275  0.9142
  404TMC3    C5 6033   1.548   2.182  12.939 -0.2099 -1.0881 -0.2110
  404TMC3    C6 6034   1.485   2.113  13.041 -0.5945 -0.0762  0.6132
  404TMC3     C 6035   1.715   2.446  13.128  0.2661 -0.0600  1.2091
  404TMC3     O 6036   1.760   2.430  13.242  0.3982 -0.0128  0.5992
  404TMC3     H 6037   1.564   2.313  13.293  0.4857 -0.7859  0.9213
  404TMC3    H1 6038   1.675   2.344  12.883 -0.8820  2.0649  1.8499
  404TMC3    H2 6039   1.443   2.016  13.017  1.2706 -1.3283  2.3795
  404TMC3    C7 6040   1.575   2.118  12.806  0.9047  0.0285 -0.3053
  404TMC3    C8 6041   1.517   2.073  13.272  0.0275  0.3952 -0.4109
  404TMC3    O1 6042   1.694   2.102  12.775  0.3259  0.4723 -0.0412
  404TMC3    O2 6043   1.589   1.976  13.244  0.5841  0.1615 -0.9471
  405MPD2     C 6044   2.002   3.350  14.332 -0.6945  0.1833 -0.3777
  405MPD2    C1 6045   1.978   3.238  14.258  0.2454 -0.4116  0.2805
  405MPD2    C2 6046   1.886   3.248  14.150  0.1759 -0.0535 -0.3517
  405MPD2    C3 6047   1.830   3.366  14.108  0.3500 -0.2775  0.5611
  405MPD2    C4 6048   1.871   3.478  14.178 -0.2656 -0.3747  0.3182
  405MPD2    C5 6049   1.962   3.475  14.282 -0.8869 -0.5859 -0.5479
  405MPD2     H 6050   1.841   3.168  14.094 -2.6697  2.7199 -2.0440
  405MPD2    H1 6051   1.838   3.576  14.147 -0.6715 -1.3121 -2.1525
  405MPD2    H2 6052   2.066   3.341  14.419 -0.1004 -0.9463 -0.9312
  405MPD2    H3 6053   1.990   3.559  14.345 -0.5885  0.1365 -1.6280
  405MPD2     N 6054   1.749   3.364  13.993  0.9797  0.0861  0.0476
  405MPD2    H5 6055   1.763   3.276  13.944  0.1438  0.6393 -1.1768
  405MPD2    N1 6056   2.017   3.108  14.300  0.1162  0.2722 -0.0721
  405MPD2    H7 6057   2.056   3.098  14.393 -0.7396 -2.6036 -0.0154
  406TMC3    C1 6058   1.423   3.512  13.708 -0.2200 -0.1079  0.5761
  406TMC3    C2 6059   1.405   3.378  13.691  0.4526 -0.4805 -0.4219
  406TMC3    C3 6060   1.508   3.291  13.708  0.5450 -0.3972  0.5790
  406TMC3    C4 6061   1.524   3.553  13.787  0.1104 -0.1017  0.2923
  406TMC3    C5 6062   1.621   3.464  13.817 -0.5805  0.2523  0.6266
  406TMC3    C6 6063   1.622   3.338  13.765  0.0218  0.3055  0.4177
  406TMC3     C 6064   1.308   3.589  13.716 -0.5353  0.1215  0.5716
  406TMC3     O 6065   1.313   3.711  13.695  0.5052  0.6543  0.3938
  406TMC3     H 6066   1.323   3.346  13.628  0.3630  0.4314 -0.7544
  406TMC3    H1 6067   1.540   3.658  13.805 -0.8066  0.2188 -0.7428
  406TMC3    H2 6068   1.712   3.279  13.754  0.7942  1.1650  2.0101
  406TMC3    C7 6069   1.677   3.475  13.951 -0.2584  0.8456  1.1656
  406TMC3    C8 6070   1.488   3.146  13.696  0.4444  0.0579 -0.2303
  406TMC3    O1 6071   1.635   3.574  14.012  0.1073  0.0085 -0.1203
  406TMC3    O2 6072   1.377   3.113  13.657 -0.5419 -0.1892  0.4062
  407MPD2     C 6073   4.446   4.075   9.255  0.4051  0.2044 -0.3209
  407MPD2    C1 6074   4.572   4.127   9.268  0.3494 -0.2188 -0.1718
  407MPD2    C2 6075   4.605   4.224   9.362 -0.2843 -0.6106 -0.2389
  407MPD2    C3 6076   4.500   4.273   9.440  0.2857  0.8918  0.9010
  407MPD2    C4 6077   4.373   4.224   9.427  0.5387  0.5305 -0.0091
  407MPD2    C5 6078   4.349   4.126   9.333  0.2862  0.5870  0.0327
  407MPD2     H 6079   4.708   4.256   9.370 -0.5811  0.3447 -0.3090
  407MPD2    H1 6080   4.293   4.267   9.486  0.2958  1.1417 -0.7783
  407MPD2    H2 6081   4.423   4.014   9.169 -1.2625 -0.6685  0.7429
  407MPD2    H3 6082   4.246   4.095   9.317 -0.0011  0.8784  1.3415
  407MPD2     N 6083   4.522   4.368   9.548 -0.0797 -0.2155 -0.3855
  407MPD2    H5 6084   4.442   4.407   9.596  0.6979 -0.2892  0.9752
  407MPD2    N1 6085   4.674   4.082   9.183 -0.3013  0.1398 -0.4116
  407MPD2    H7 6086   0.035   4.137   9.185 -0.7019  0.7935 -1.4126
  408TMC3    C1 6087   0.074   3.955   9.033  0.1970  0.2956  0.0889
  408TMC3    C2 6088   0.141   3.836   9.047 -0.1346  0.0440 -0.4876
  408TMC3    C3 6089   0.267   3.838   8.982 -0.0049  0.4480  0.3143
  408TMC3    C4 6090   0.127   4.071   8.974 -0.3751 -0.3390 -0.0339
  408TMC3    C5 6091   0.256   4.068   8.922 -0.4051 -0.5541  0.9842
  408TMC3    C6 6092   0.326   3.949   8.923 -0.4747  0.4472  0.2879
  408TMC3     C 6093   4.679   3.967   9.110 -0.7523  0.5959  0.0127
  408TMC3     O 6094   4.605   3.874   9.120  0.5340  0.1413 -0.7296
  408TMC3     H 6095   0.091   3.749   9.089  0.4645 -0.3102 -0.4937
  408TMC3    H1 6096   0.073   4.165   8.973  0.6495  0.2361 -1.6941
  408TMC3    H2 6097   0.422   3.942   8.873 -1.3037  0.4271 -1.2998
  408TMC3    C7 6098   0.339   4.178   8.926  0.2261 -1.0714  0.0341
  408TMC3    C8 6099   0.358   3.747   9.055  0.6170  0.5989  0.4810
  408TMC3    O1 6100   0.457   4.153   8.955 -0.3874  0.5231 -0.4911
  408TMC3    O2 6101   0.315   3.642   9.109 -0.1559  0.0510 -0.0635
  409MPD2     C 6102   3.514   0.555  16.386 -0.7756  0.6534 -0.2422
  409MPD2    C1 6103   3.581   0.594  16.503 -0.0676  0.2986 -0.0382
  409MPD2    C2 6104   3.649   0.708  16.499  0.3758 -0.0594  0.0602
  409MPD2    C3 6105   3.663   0.786  16.389 -0.2878  0.3613  0.2667
  409MPD2    C4 6106   3.596   0.745  16.277  0.3086 -0.5577 -0.9166
  409MPD2    C5 6107   3.523   0.630  16.273 -0.1974 -0.1527 -0.5383
  409MPD2     H 6108   3.688   0.751  16.591  1.0502  1.5950 -0.9985
  409MPD2    H1 6109   3.609   0.806  16.187 -2.9085  1.3837 -0.0778
  409MPD2    H2 6110   3.456   0.463  16.378  0.6548 -0.2688 -0.0214
  409MPD2    H3 6111   3.471   0.601  16.183 -0.1069  0.5533 -0.8217
  409MPD2     N 6112   3.751   0.900  16.391  0.4157 -0.1986  0.8728
  409MPD2    H5 6113   3.739   0.967  16.315  0.8162 -1.9805 -0.7361
  409MPD2    N1 6114   3.585   0.524  16.622  0.7776 -0.4578 -0.1675
  409MPD2    H7 6115   3.635   0.577  16.693 -0.2032 -1.4650  1.2632
  410TMC3    C1 6116   3.902   1.050  16.496  0.1685 -0.1077  0.0289
  410TMC3    C2 6117   3.937   1.097  16.619  0.0885 -0.1410  0.1167
  410TMC3    C3 6118   4.001   1.217  16.616  0.3041  0.1053 -0.0187
  410TMC3    C4 6119   3.925   1.119  16.376 -0.1468 -0.6209  0.0611
  410TMC3    C5 6120   3.990   1.237  16.382  0.3820 -0.0817 -0.0798
  410TMC3    C6 6121   4.033   1.291  16.505 -0.2685  0.0220  0.4255
  410TMC3     C 6122   3.834   0.929  16.502  0.8165  0.2382 -0.1848
  410TMC3     O 6123   3.867   0.859  16.596 -0.3098 -0.0892  0.1709
  410TMC3     H 6124   3.906   1.054  16.714  0.7570 -0.8679  0.0104
  410TMC3    H1 6125   3.899   1.075  16.280 -1.7021  2.1086 -0.7751
  410TMC3    H2 6126   4.071   1.392  16.516 -0.5901  0.3181 -1.1824
  410TMC3    C7 6127   3.973   1.316  16.264 -0.6157 -0.1105  0.2483
  410TMC3    C8 6128   4.078   1.255  16.725 -0.4126  0.5626 -0.4025
  410TMC3    O1 6129   3.874   1.294  16.191  0.2974 -0.0221 -0.3541
  410TMC3    O2 6130   4.171   1.331  16.693 -0.1428  0.0152  0.6590
  411MPD2     C 6131   4.315   1.165  14.486 -0.2477 -0.3911 -0.4068
  411MPD2    C1 6132   4.193   1.188  14.426  0.6714 -1.1902  0.0177
  411MPD2    C2 6133   4.095   1.089  14.439  0.8212  0.2461  0.1069
  411MPD2    C3 6134   4.120   0.975  14.521 -0.7293  0.2786 -0.3985
  411MPD2    C4 6135   4.238   0.964  14.583 -0.5891  0.3753 -0.0757
  411MPD2    C5 6136   4.342   1.051  14.554  0.3434  0.0157 -0.0399
  411MPD2     H 6137   3.996   1.098  14.396  1.3282  1.7264 -0.7375
  411MPD2    H1 6138   4.265   0.867  14.625 -0.4117 -0.1105 -1.3034
  411MPD2    H2 6139   4.392   1.240  14.471 -1.0088  0.1712 -1.4923
  411MPD2    H3 6140   4.440   1.031  14.596 -0.0396 -0.8445  0.4394
  411MPD2     N 6141   4.040   0.860  14.524  0.3922 -0.3793 -0.1843
  411MPD2    H5 6142   4.079   0.773  14.559  1.6479 -0.5389 -2.0064
  411MPD2    N1 6143   4.175   1.313  14.357 -0.7046 -0.5265  0.0418
  411MPD2    H7 6144   4.238   1.390  14.379 -0.8935 -0.3424 -0.0724
  412TMC3    C1 6145   3.853   0.717  14.472 -0.3725  0.3106  0.5248
  412TMC3    C2 6146   3.716   0.726  14.442 -0.3649 -0.3185 -0.2931
  412TMC3    C3 6147   3.665   0.659  14.330  0.4200  0.5596  0.6128
  412TMC3    C4 6148   3.935   0.634  14.392 -0.0544  0.1097 -0.0488
  412TMC3    C5 6149   3.887   0.572  14.284  0.0344  0.3176 -0.1525
  412TMC3    C6 6150   3.747   0.574  14.261 -0.7126  0.0449 -0.2567
  412TMC3     C 6151   3.909   0.852  14.485  0.0596  0.3255 -0.7176
  412TMC3     O 6152   3.834   0.939  14.443  0.0279 -0.2426  0.0766
  412TMC3     H 6153   3.658   0.805  14.489 -0.2792 -2.3357  3.2336
  412TMC3    H1 6154   4.043   0.642  14.390  0.0292 -1.7116 -2.0661
  412TMC3    H2 6155   3.704   0.524  14.175 -0.5069 -0.6960  0.0659
  412TMC3    C7 6156   3.971   0.562  14.161  0.3186  0.1721 -0.0428
  412TMC3    C8 6157   3.589   0.745  14.247 -0.1914 -0.5219 -0.4719
  412TMC3    O1 6158   4.084   0.519  14.172 -0.6892  0.8947  0.5059
  412TMC3    O2 6159   3.639   0.743  14.135  0.1013 -0.3794 -0.0709
  413MPD2     C 6160   0.896   4.386  15.228  0.3876  0.7093  0.5786
  413MPD2    C1 6161   0.834   4.303  15.141  0.0050  0.2117  0.0905
  413MPD2    C2 6162   0.909   4.229  15.049  0.3281  0.1388  0.4704
  413MPD2    C3 6163   1.045   4.239  15.041 -0.3908 -0.4183  0.2125
  413MPD2    C4 6164   1.107   4.323  15.131 -0.2727  0.1466 -0.3053
  413MPD2    C5 6165   1.031   4.396  15.218  0.0998  0.0821 -0.4729
  413MPD2     H 6166   0.861   4.159  14.981  2.9893 -0.4277 -0.8155
  413MPD2    H1 6167   1.214   4.337  15.133 -0.3473  0.8389 -0.9301
  413MPD2    H2 6168   0.849   4.431  15.316 -1.1564  0.9148 -0.3426
  413MPD2    H3 6169   1.083   4.453  15.294 -1.1177  0.6762 -0.0910
  413MPD2     N 6170   1.109   4.140  14.962 -0.3299  0.0328 -0.0098
  413MPD2    H5 6171   1.044   4.082  14.910 -1.6060  1.6337 -0.1811
  413MPD2    N1 6172   0.693   4.291  15.154 -1.1210 -0.4864 -1.0141
  413MPD2    H7 6173   0.641   4.315  15.238  1.5370 -0.6869  0.6737
  414TMC3    C1 6174   1.274   3.984  14.882 -0.0220 -0.1322  0.3795
  414TMC3    C2 6175   1.369   3.890  14.920  0.0326  0.2361 -0.5354
  414TMC3    C3 6176   1.392   3.784  14.837  0.1507 -0.1994 -0.1323
  414TMC3    C4 6177   1.210   3.972  14.759 -0.3201 -0.7531 -0.6226
  414TMC3    C5 6178   1.234   3.862  14.682 -0.3012  0.2516  0.1705
  414TMC3    C6 6179   1.326   3.764  14.721 -0.7183 -0.5091 -0.1168
  414TMC3     C 6180   1.242   4.095  14.971  0.7509  0.3186  0.6144
  414TMC3     O 6181   1.327   4.142  15.043  0.5939  0.4367  0.3654
  414TMC3     H 6182   1.424   3.906  15.013 -1.3082  1.5473  0.0217
  414TMC3    H1 6183   1.135   4.044  14.728 -1.8214 -2.2456 -0.5035
  414TMC3    H2 6184   1.347   3.681  14.655 -1.1907  0.1593 -1.1197
  414TMC3    C7 6185   1.197   3.875  14.538  0.3994 -0.1885 -1.1537
  414TMC3    C8 6186   1.503   3.693  14.857  0.1841  0.0461 -0.7844
  414TMC3    O1 6187   1.078   3.894  14.523 -0.1414  0.2536  0.4004
  414TMC3    O2 6188   1.491   3.587  14.788  0.1612  0.4667  0.1038
  415TMC3    C1 6189   1.108   2.316   9.999  0.1930  0.2386  0.1523
  415TMC3    C2 6190   1.139   2.350   9.869 -0.1871  0.1665  0.0753
  415TMC3    C3 6191   1.102   2.265   9.770  0.5826 -0.3902 -0.7662
  415TMC3    C4 6192   1.049   2.188  10.023  0.4303 -1.0606  0.8931
  415TMC3    C5 6193   0.999   2.115   9.917 -0.0972  0.3489  0.2360
  415TMC3    C6 6194   1.027   2.152   9.787 -0.0212  0.0011 -0.0197
  415TMC3     C 6195   1.154   2.376  10.121  0.7372 -0.0363 -0.1996
  415TMC3     O 6196   1.193   2.303  10.208 -0.5195 -0.2490 -0.4283
  415TMC3     H 6197   1.204   2.435   9.855 -0.1057  0.6704  3.6057
  415TMC3    H1 6198   1.020   2.171  10.126 -2.5387 -0.1954  0.1850
  415TMC3    H2 6199   0.980   2.092   9.709 -2.2945  0.2221  1.1819
  415TMC3    C7 6200   0.983   1.970   9.941  0.4324  0.6770  0.5875
  415TMC3    C8 6201   1.160   2.279   9.642 -0.0872  0.1948  0.0296
  415TMC3    O1 6202   0.962   1.904   9.839 -0.1645  1.0069 -0.5395
  415TMC3    O2 6203   1.089   2.232   9.556 -0.5950 -0.4306  0.6450
  416MPD2     C 6204   3.813   0.946  11.086  0.3648 -0.6829  0.1759
  416MPD2    C1 6205   3.793   0.894  11.213 -0.7325 -0.1964 -0.3671
  416MPD2    C2 6206   3.774   0.758  11.229  0.3999 -0.0573 -0.2112
  416MPD2    C3 6207   3.779   0.673  11.118 -0.0857 -0.9036 -0.1727
  416MPD2    C4 6208   3.794   0.726  10.994 -0.4974 -0.2984  0.0595
  416MPD2    C5 6209   3.820   0.859  10.977 -0.2971 -0.2314 -0.1446
  416MPD2     H 6210   3.750   0.719  11.327 -2.5500  0.3650 -0.7516
  416MPD2    H1 6211   3.816   0.660  10.911  1.0496  0.2717  0.0125
  416MPD2    H2 6212   3.832   1.051  11.068 -1.3472  0.0790  2.8035
  416MPD2    H3 6213   3.838   0.900  10.878 -0.4118  2.9199  1.1407
  416MPD2     N 6214   3.777   0.530  11.140  0.2098 -0.0932 -0.0483
  416MPD2    H5 6215   3.787   0.497  11.236  0.2957 -1.0444 -0.3838
  416MPD2    N1 6216   3.789   0.992  11.316  0.0576  0.4218  0.1155
  416MPD2    H7 6217   3.820   1.083  11.281  3.5448 -0.5915  0.4965
  417TMC3    C1 6218   3.685   1.096  11.494 -0.0890  0.1755  0.1391
  417TMC3    C2 6219   3.641   1.086  11.617 -0.1048 -0.0514 -0.1787
  417TMC3    C3 6220   3.517   1.125  11.656 -0.4853  0.1782 -0.8408
  417TMC3    C4 6221   3.597   1.154  11.404 -0.1365  0.0801 -0.3321
  417TMC3    C5 6222   3.474   1.195  11.439 -0.3026 -0.0854  0.1961
  417TMC3    C6 6223   3.432   1.188  11.569 -0.4067 -0.2502 -0.6046
  417TMC3     C 6224   3.746   0.974  11.445 -0.7803 -0.6808 -0.0596
  417TMC3     O 6225   3.726   0.874  11.512 -0.5871 -0.3638 -0.8555
  417TMC3     H 6226   3.702   1.025  11.683  2.0289  3.1384  0.7577
  417TMC3    H1 6227   3.626   1.175  11.302 -1.5099  2.9027 -0.1384
  417TMC3    H2 6228   3.342   1.233  11.609 -1.3820 -1.1454 -1.7759
  417TMC3    C7 6229   3.376   1.190  11.331 -0.1575 -0.3162 -0.3108
  417TMC3    C8 6230   3.492   1.144  11.797  0.1795  0.1442  1.0704
  417TMC3    O1 6231   3.414   1.206  11.217 -0.4360 -0.0853  0.2957
  417TMC3    O2 6232   3.371   1.162  11.818  1.0358  0.0105 -0.3513
  418TMC3    C1 6233   1.848   2.570  17.269 -0.2518  0.4305  0.2250
  418TMC3    C2 6234   1.755   2.672  17.254 -0.3571 -0.2715 -0.6417
  418TMC3    C3 6235   1.716   2.746  17.358 -0.5946 -0.0329  0.4081
  418TMC3    C4 6236   1.910   2.562  17.395  0.3915 -0.1257  0.3469
  418TMC3    C5 6237   1.867   2.635  17.502 -0.5925 -0.0820  0.1190
  418TMC3    C6 6238   1.766   2.728  17.484 -0.1649  0.3023  0.2171
  418TMC3     C 6239   1.933   2.544  17.150  0.1555  0.1905  0.6891
  418TMC3     O 6240   1.934   2.637  17.075 -0.4392 -0.0964  0.3670
  418TMC3     H 6241   1.704   2.684  17.159  0.1580 -0.2376 -0.9175
  418TMC3    H1 6242   1.988   2.490  17.416  0.3952 -0.3505 -0.4576
  418TMC3    H2 6243   1.726   2.793  17.562  1.7270 -0.9844  2.2509
  418TMC3    C7 6244   1.831   2.547  17.608 -0.9251  0.5911 -0.1974
  418TMC3    C8 6245   1.577   2.759  17.371 -1.3711 -0.5761 -0.6163
  418TMC3    O1 6246   1.903   2.454  17.630 -1.0041 -0.4402  0.4811
  418TMC3    O2 6247   1.527   2.859  17.420 -0.3654  0.1347 -0.3505
  419MPD2     C 6248   0.623   0.663  11.942 -0.2504 -0.2041 -0.5584
  419MPD2    C1 6249   0.508   0.743  11.940 -0.6194  0.6830  0.3138
  419MPD2    C2 6250   0.450   0.787  12.056 -0.1584 -0.0509  0.0605
  419MPD2    C3 6251   0.516   0.769  12.179 -0.4922  0.1053 -0.3430
  419MPD2    C4 6252   0.643   0.712  12.175 -0.0337 -1.5381 -0.1451
  419MPD2    C5 6253   0.690   0.660  12.061  0.4591  0.4047 -0.5075
  419MPD2     H 6254   0.355   0.840  12.049  0.4164  1.1528  1.2821
  419MPD2    H1 6255   0.710   0.716  12.261 -0.0655  0.4318 -0.2150
  419MPD2    H2 6256   0.672   0.621  11.855  0.5796  1.5648 -0.9505
  419MPD2    H3 6257   0.788   0.615  12.071  1.7593  3.3520  0.0572
  419MPD2     N 6258   0.450   0.802  12.300 -0.0132 -0.0371  0.0038
  419MPD2    H5 6259   0.355   0.838  12.297 -0.3640 -0.9747 -0.1855
  419MPD2    N1 6260   0.432   0.769  11.823 -0.0169  0.2145  0.8123
  419MPD2    H7 6261   0.370   0.849  11.830  0.4061  0.4260  2.1960
  420TMC3    C1 6262   0.414   0.820  12.522  0.0985  0.0173  0.4179
  420TMC3    C2 6263   0.281   0.840  12.484  0.0716 -0.5248 -0.4880
  420TMC3    C3 6264   0.199   0.868  12.585  0.0381 -0.1795 -0.1431
  420TMC3    C4 6265   0.470   0.853  12.639 -0.0140 -0.0505  0.2309
  420TMC3    C5 6266   0.377   0.894  12.737  0.9399 -0.1952  1.1107
  420TMC3    C6 6267   0.244   0.895  12.714 -1.4857 -0.0806 -0.1407
  420TMC3     C 6268   0.508   0.793  12.422  0.8074  0.4686  0.0570
  420TMC3     O 6269   0.624   0.784  12.455  0.0096 -0.1906 -0.3530
  420TMC3     H 6270   0.231   0.799  12.397  0.3663  1.0328 -1.3992
  420TMC3    H1 6271   0.574   0.836  12.660  0.1471 -0.1750 -0.6594
  420TMC3    H2 6272   0.186   0.952  12.786 -1.1418  1.1061 -0.7959
  420TMC3    C7 6273   0.428   0.923  12.867 -0.5149  0.1893  0.4634
  420TMC3    C8 6274   0.081   0.937  12.541  0.0025 -0.1929  0.2453
  420TMC3    O1 6275   0.335   0.923  12.950  0.4514  0.1169 -0.6066
  420TMC3    O2 6276   0.103   0.996  12.434 -0.7426 -0.3134  0.4242
  421TMC3    C1 6277   2.200   2.922  13.459  0.8455 -0.8627 -0.1994
  421TMC3    C2 6278   2.255   3.036  13.503  0.3623  0.0792 -0.9967
  421TMC3    C3 6279   2.373   3.030  13.571  0.0667 -0.2733  0.8670
  421TMC3    C4 6280   2.255   2.803  13.497  0.6304  0.3857  0.3776
  421TMC3    C5 6281   2.361   2.801  13.581  0.2084 -0.5051 -0.1409
  421TMC3    C6 6282   2.430   2.910  13.611  0.2921 -0.6309  0.0094
  421TMC3     C 6283   2.113   2.924  13.343  0.3465 -0.5844 -0.0252
  421TMC3     O 6284   2.099   3.033  13.286  0.4232 -0.1964 -0.2257
  421TMC3     H 6285   2.208   3.127  13.468  2.4166  0.4117 -2.8918
  421TMC3    H1 6286   2.217   2.709  13.457  3.0692  0.3223 -1.7962
  421TMC3    H2 6287   2.528   2.903  13.658  1.4361 -0.0152 -2.3132
  421TMC3    C7 6288   2.432   2.681  13.620  0.0472  0.2283  0.1615
  421TMC3    C8 6289   2.424   3.136  13.647 -0.2679  0.5261  0.6903
  421TMC3    O1 6290   2.553   2.697  13.629  0.0165  0.0172  0.3175
  421TMC3    O2 6291   2.537   3.123  13.695 -0.2132  0.1041 -0.5459
  422TMC3    C1 6292   4.241   3.659  12.585 -0.7099  0.4248  0.3323
  422TMC3    C2 6293   4.218   3.787  12.634 -0.6504 -0.2505  0.0703
  422TMC3    C3 6294   4.106   3.803  12.712  0.4816  0.8653  0.5901
  422TMC3    C4 6295   4.158   3.553  12.607  0.2557 -0.3644  0.1389
  422TMC3    C5 6296   4.039   3.580  12.680 -0.5972 -0.6219 -0.2242
  422TMC3    C6 6297   4.010   3.703  12.736  0.3644 -0.2854  0.4534
  422TMC3     C 6298   4.345   3.659  12.489  0.1204  0.2917  0.3562
  422TMC3     O 6299   4.392   3.761  12.451 -0.7828 -0.3943 -0.4866
  422TMC3     H 6300   4.294   3.863  12.625  1.4227 -2.7401 -3.5668
  422TMC3    H1 6301   4.187   3.453  12.577  3.1608  0.5513 -0.0790
  422TMC3    H2 6302   3.929   3.719  12.806  0.3792  0.6884  0.2413
  422TMC3    C7 6303   3.952   3.466  12.710 -0.4142  1.1390  0.2169
  422TMC3    C8 6304   4.083   3.939  12.747 -0.5774 -0.0344  1.1645
  422TMC3    O1 6305   3.995   3.351  12.704 -0.6706 -0.2921 -0.8413
  422TMC3    O2 6306   4.180   4.012  12.754  0.2289 -0.4498 -0.2154
  423MPD2     C 6307   0.587   0.439   0.202 -0.1232 -0.8739 -0.6284
  423MPD2    C1 6308   0.536   0.313   0.245  0.3360  0.2893 -0.8563
  423MPD2    C2 6309   0.596   0.204   0.199  0.2279 -0.0857  0.1098
  423MPD2    C3 6310   0.705   0.214   0.111 -0.4454 -0.1328 -0.3037
  423MPD2    C4 6311   0.752   0.336   0.077  0.0025  0.7916 -0.6019
  423MPD2    C5 6312   0.696   0.451   0.126  0.2864  0.1295  0.3037
  423MPD2     H 6313   0.542   0.112   0.215 -0.3704  0.1790 -0.3950
  423MPD2    H1 6314   0.828   0.349   0.001 -2.8027 -0.7851 -3.6848
  423MPD2    H2 6315   0.533   0.530   0.225  1.2670 -0.1586 -0.1727
  423MPD2    H3 6316   0.718   0.553   0.096 -0.8219  0.2923  0.0434
  423MPD2     N 6317   0.755   0.107   0.034 -0.1794  0.3566 -0.5860
  423MPD2    H5 6318   0.811   0.124  17.649 -0.4883  3.4578 -0.1691
  423MPD2    N1 6319   0.433   0.286   0.333 -0.1825  0.6488  0.3255
  423MPD2    H7 6320   0.415   0.191   0.363 -0.3545  0.6132  0.1044
  424TMC3    C1 6321   0.222   0.335   0.433 -0.9599 -0.2011 -0.0137
  424TMC3    C2 6322   0.186   0.202   0.449 -0.2123 -0.8323  0.4473
  424TMC3    C3 6323   0.061   0.166   0.492 -0.9272 -0.1059  0.3452
  424TMC3    C4 6324   0.125   0.432   0.458 -0.2644  0.1109 -0.4923
  424TMC3    C5 6325   0.004   0.389   0.505 -0.2286  0.2648  0.1043
  424TMC3    C6 6326   4.690   0.257   0.515  0.0975  0.7903 -0.4035
  424TMC3     C 6327   0.340   0.383   0.373  0.6709 -0.2884 -0.4953
  424TMC3     O 6328   0.349   0.503   0.355 -0.5407 -0.4346 -0.6141
  424TMC3     H 6329   0.257   0.126   0.421 -1.5650 -1.4183 -1.3848
  424TMC3    H1 6330   0.141   0.539   0.451  1.1985  0.1017  2.5723
  424TMC3    H2 6331   4.584   0.237   0.526 -0.0006 -0.1704 -3.0171
  424TMC3    C7 6332   4.623   0.494   0.500 -0.1077 -0.5970  0.1987
  424TMC3    C8 6333   0.032   0.021   0.510 -0.3557 -0.8263 -0.2527
  424TMC3    O1 6334   4.627   0.575   0.410 -0.4358  0.5723 -0.3982
  424TMC3    O2 6335   0.130   4.678   0.473  0.1309  0.0211 -0.2248
  425MPD2     C 6336   4.607   3.730  17.376 -0.1772 -0.4096 -0.2374
  425MPD2    C1 6337   4.516   3.638  17.430 -0.2727 -0.2560 -0.1661
  425MPD2    C2 6338   4.388   3.668  17.460  0.2463  0.0869  0.6137
  425MPD2    C3 6339   4.340   3.791  17.432  0.3518 -0.0640 -0.5261
  425MPD2    C4 6340   4.423   3.882  17.372  0.3601  0.0222  0.4189
  425MPD2    C5 6341   4.554   3.851  17.346  0.4373 -0.3748 -0.6337
  425MPD2     H 6342   4.305   3.605  17.489 -1.0412  0.3421 -2.5087
  425MPD2    H1 6343   4.385   3.977  17.338  0.8924  0.0738 -0.0367
  425MPD2    H2 6344   4.707   3.706  17.340  0.8436  2.4648  0.7128
  425MPD2    H3 6345   4.608   3.932  17.297  2.0776 -2.9245 -3.0892
  425MPD2     N 6346   4.205   3.817  17.452 -0.4043 -0.0599  0.4798
  425MPD2    H5 6347   4.145   3.741  17.482  1.6175 -1.7055  0.3607
  425MPD2    N1 6348   4.567   3.512  17.466  0.3535 -0.2165  0.8173
  425MPD2    H7 6349   4.661   3.493  17.434  0.4511  1.5553  0.0153
  426TMC3    C1 6350   4.571   3.293  17.556  0.6457 -0.6828 -0.1542
  426TMC3    C2 6351   4.636   3.238  17.452 -0.3850  0.6181 -0.4015
  426TMC3    C3 6352   4.632   3.100  17.430 -0.1375  0.4494 -0.5020
  426TMC3    C4 6353   4.493   3.214  17.635  0.3245 -0.0794 -0.1848
  426TMC3    C5 6354   4.485   3.079  17.609 -0.2995  0.0803 -0.6334
  426TMC3    C6 6355   4.553   3.024  17.509 -0.2104 -0.3684 -0.2691
  426TMC3     C 6356   4.493   3.408  17.529  0.6878  0.1251 -0.7387
  426TMC3     O 6357   4.378   3.412  17.570  0.2251  0.2954  0.2888
  426TMC3     H 6358   4.703   3.292  17.385  0.9060 -0.6108 -0.1092
  426TMC3    H1 6359   4.446   3.269   0.018  0.6754 -0.3617  0.2120
  426TMC3    H2 6360   4.539   2.917  17.495 -0.6584 -0.5303  1.4005
  426TMC3    C7 6361   4.377   3.006  17.677  0.3685 -0.7570  0.0071
  426TMC3    C8 6362   4.619   3.086  17.285  0.0477  0.3340  0.8302
  426TMC3    O1 6363   4.383   2.886  17.688 -0.1581  0.1970 -0.1846
  426TMC3    O2 6364   4.723   3.114  17.226 -0.1280 -0.1674  0.1971
  427MPD2     C 6365   3.216   1.532  14.541 -0.2115  0.1020 -0.0274
  427MPD2    C1 6366   3.174   1.400  14.556  0.6055 -0.7149 -0.4434
  427MPD2    C2 6367   3.040   1.377  14.569 -0.0466  0.2932  0.0307
  427MPD2    C3 6368   2.953   1.483  14.555  0.6436  0.2966  0.0030
  427MPD2    C4 6369   3.004   1.611  14.539 -0.4848 -0.2950  0.4509
  427MPD2    C5 6370   3.134   1.635  14.525  0.3417 -0.0440 -0.1476
  427MPD2     H 6371   3.009   1.276  14.592  1.5263 -0.6768 -2.2001
  427MPD2    H1 6372   2.935   1.693  14.520 -2.2886 -2.1149 -0.8682
  427MPD2    H2 6373   3.323   1.543  14.527 -0.3532  0.7315 -0.6248
  427MPD2    H3 6374   3.167   1.733  14.493 -0.7443 -0.5332 -2.7619
  427MPD2     N 6375   2.809   1.467  14.554  0.8674 -0.2828  0.4675
  427MPD2    H5 6376   2.750   1.549  14.553 -0.6637 -1.4397 -1.7763
  427MPD2    N1 6377   3.262   1.288  14.582 -0.1711 -0.3749 -0.6890
  427MPD2    H7 6378   3.223   1.197  14.605  0.4916 -0.5945 -0.4129
  428TMC3    C1 6379   3.466   1.176  14.632  0.4246 -0.9847  0.5245
  428TMC3    C2 6380   3.401   1.066  14.669 -0.6499  0.7153  0.1663
  428TMC3    C3 6381   3.471   0.968  14.729 -0.0538  0.1292  0.2451
  428TMC3    C4 6382   3.600   1.195  14.656  0.4405 -0.7332 -0.0277
  428TMC3    C5 6383   3.670   1.097  14.720 -0.1272  0.2347 -0.7639
  428TMC3    C6 6384   3.611   0.977  14.744 -0.1453 -1.0866 -0.4789
  428TMC3     C 6385   3.400   1.286  14.559 -0.0570 -0.4028 -0.3080
  428TMC3     O 6386   3.476   1.360  14.500 -0.2737 -0.1287 -0.1884
  428TMC3     H 6387   3.294   1.057  14.652 -0.0864 -0.2757 -2.7404
  428TMC3    H1 6388   3.639   1.295  14.644  0.8483 -1.0478 -1.3041
  428TMC3    H2 6389   3.675   0.899  14.783 -0.4087 -1.2899 -0.4547
  428TMC3    C7 6390   3.797   1.124  14.789 -0.0775  0.1907  0.2641
  428TMC3    C8 6391   3.413   0.844  14.771  0.0200 -0.0356 -0.1742
  428TMC3    O1 6392   3.823   1.064  14.896  0.0129  0.5298  0.2106
  428TMC3    O2 6393   3.499   0.773  14.825  0.1437 -0.1379 -0.6497
  429MPD2     C 6394   4.156   1.481  17.360  0.2444  0.5622  0.0714
  429MPD2    C1 6395   4.041   1.478  17.283 -0.2273 -0.1722 -0.3098
  429MPD2    C2 6396   4.039   1.532  17.157 -0.1567  0.2611 -0.1170
  429MPD2    C3 6397   4.156   1.585  17.102  0.1022  0.6259  0.3647
  429MPD2    C4 6398   4.271   1.574  17.172 -0.7097  0.7691  0.5729
  429MPD2    C5 6399   4.272   1.524  17.302 -0.0743 -0.3183 -0.6716
  429MPD2     H 6400   3.942   1.533  17.107 -0.3389 -1.1821  0.2189
  429MPD2    H1 6401   4.368   1.594  17.128 -1.7961  0.2723 -2.0163
  429MPD2    H2 6402   4.167   1.457  17.466  2.8457 -0.9307 -0.5351
  429MPD2    H3 6403   4.368   1.530  17.352 -0.5489 -1.3641  0.3639
  429MPD2     N 6404   4.163   1.633  16.975 -0.0771 -0.0689 -0.0713
  429MPD2    H5 6405   4.258   1.659  16.949 -0.6817  0.8407 -1.3480
  429MPD2    N1 6406   3.919   1.435  17.342 -0.2086  0.0423  0.1474
  429MPD2    H7 6407   3.832   1.466  17.302  1.0990  0.5931 -2.2600
  430TMC3    C1 6408   4.104   1.689  16.756 -0.1371 -0.5208  0.0954
  430TMC3    C2 6409   4.006   1.751  16.679  0.3217  0.3492  0.3083
  430TMC3    C3 6410   4.032   1.780  16.549 -0.1746 -0.1822 -0.5949
  430TMC3    C4 6411   4.213   1.636  16.694  0.2059 -0.4911  0.8390
  430TMC3    C5 6412   4.222   1.648  16.556 -0.5387 -0.3676  0.2221
  430TMC3    C6 6413   4.147   1.731  16.479 -1.1424 -0.7100  0.6087
  430TMC3     C 6414   4.060   1.649  16.883  0.2101  0.4117  0.0921
  430TMC3     O 6415   3.941   1.627  16.893 -0.4652  0.7550  0.4408
  430TMC3     H 6416   3.915   1.784  16.728  0.1749 -0.7373  0.7679
  430TMC3    H1 6417   4.281   1.574  16.751  1.6214  1.2665  1.0233
  430TMC3    H2 6418   4.169   1.749  16.374 -2.5783 -2.1420  0.0459
  430TMC3    C7 6419   4.339   1.591  16.488  0.4175  0.0158 -0.5380
  430TMC3    C8 6420   3.928   1.820  16.453 -0.0281  0.9811 -0.4296
  430TMC3    O1 6421   4.398   1.652  16.397 -0.1969 -0.0855 -0.4727
  430TMC3    O2 6422   3.954   1.824  16.337 -0.2661 -0.1232  0.5994
  431MPD2     C 6423   0.752   1.256  12.252 -0.6460 -0.7528 -0.8191
  431MPD2    C1 6424   0.757   1.341  12.153 -0.5246 -0.5488  0.5567
  431MPD2    C2 6425   0.738   1.294  12.030 -0.7211  0.2410  0.6245
  431MPD2    C3 6426   0.727   1.157  11.999  0.0792  0.0987 -0.1393
  431MPD2    C4 6427   0.722   1.074  12.107 -0.6524  0.2652  0.5977
  431MPD2    C5 6428   0.743   1.118  12.229 -0.9709 -0.0634 -0.1657
  431MPD2     H 6429   0.743   1.371  11.954  1.1999 -0.3713  0.1251
  431MPD2    H1 6430   0.705   0.969  12.089 -0.3816  0.2551  0.4125
  431MPD2    H2 6431   0.763   1.277  12.357  0.6616  0.3616 -1.1790
  431MPD2    H3 6432   0.736   1.051  12.314 -1.0743 -0.2276 -0.3048
  431MPD2     N 6433   0.689   1.104  11.873  0.8705 -0.1792  0.3037
  431MPD2    H5 6434   0.674   1.004  11.857  0.3589  0.0676 -0.7559
  431MPD2    N1 6435   0.783   1.474  12.164  0.0072 -0.8157  0.2011
  431MPD2    H7 6436   0.812   1.520  12.078  1.4226 -2.0351  0.0309
  432TMC3    C1 6437   0.626   1.070  11.653  0.4453 -0.4944  0.0234
  432TMC3    C2 6438   0.710   1.047  11.551  0.7611  0.0269 -0.5813
  432TMC3    C3 6439   0.698   0.937  11.475 -0.0480  0.0201 -0.6078
  432TMC3    C4 6440   0.535   0.978  11.699  0.1112 -0.0917 -0.0795
  432TMC3    C5 6441   0.530   0.860  11.628  1.1278  0.4358 -0.4319
  432TMC3    C6 6442   0.608   0.846  11.514 -0.2659 -0.0312  0.3151
  432TMC3     C 6443   0.675   1.171  11.755  0.3393 -0.8590  0.0016
  432TMC3     O 6444   0.705   1.284  11.720  0.5242  0.4995  0.1499
  432TMC3     H 6445   0.789   1.117  11.527  0.2783  0.8439  0.2258
  432TMC3    H1 6446   0.464   1.013  11.773  0.6117 -0.3038  0.4966
  432TMC3    H2 6447   0.616   0.754  11.457 -0.6842  0.2762 -0.2382
  432TMC3    C7 6448   0.479   0.744  11.697  0.0139  0.3390  0.2901
  432TMC3    C8 6449   0.801   0.886  11.391  0.0573 -0.0442  0.5909
  432TMC3    O1 6450   0.524   0.634  11.656  0.1369 -0.2578  0.6442
  432TMC3    O2 6451   0.782   0.805  11.298  0.2044 -0.5880  0.5155
  433MPD2     C 6452   4.384   0.449  10.525 -0.0466 -0.0342  0.3293
  433MPD2    C1 6453   4.353   0.341  10.607  0.5367  0.3096 -0.8459
  433MPD2    C2 6454   4.379   0.356  10.743 -0.1337  0.4409  0.3043
  433MPD2    C3 6455   4.409   0.476  10.805  0.9333  0.1753  0.5904
  433MPD2    C4 6456   4.415   0.584  10.724 -0.4180 -0.3102 -0.1028
  433MPD2    C5 6457   4.406   0.569  10.584 -0.2264  0.0572  0.4739
  433MPD2     H 6458   4.382   0.272  10.812 -2.7797  0.1560  0.0580
  433MPD2    H1 6459   4.447   0.681  10.760 -2.2532  0.6301 -1.0220
  433MPD2    H2 6460   4.356   0.440  10.421  1.5638  0.9907 -0.1868
  433MPD2    H3 6461   4.409   0.657  10.521  0.0756  0.2436  0.7540
  433MPD2     N 6462   4.431   0.472  10.948  0.2904  0.8764 -0.5980
  433MPD2    H5 6463   4.415   0.384  10.996 -0.7184  0.9647 -0.7689
  433MPD2    N1 6464   4.305   0.217  10.544  0.3835  0.3329  0.2673
  433MPD2    H7 6465   4.300   0.197  10.444  0.6428  2.5169 -0.1878
  434TMC3    C1 6466   4.237   4.719  10.545 -0.4509 -0.6748  0.1313
  434TMC3    C2 6467   4.295   4.623  10.621  0.0114  0.6904  0.2619
  434TMC3    C3 6468   4.380   4.531  10.565  0.9124 -0.1699 -0.0433
  434TMC3    C4 6469   4.265   4.720  10.408  0.1072  0.1462 -0.3207
  434TMC3    C5 6470   4.352   4.628  10.357 -0.4039  0.3856 -0.6867
  434TMC3    C6 6471   4.408   4.525  10.432 -0.0482 -0.6603  0.3467
  434TMC3     C 6472   4.242   0.120  10.615  0.5575 -0.2900  0.2508
  434TMC3     O 6473   4.214   0.120  10.736  0.0283 -0.0966  0.9599
  434TMC3     H 6474   4.274   4.618  10.727  1.1908 -2.7217  0.3493
  434TMC3    H1 6475   4.209   0.061  10.342 -0.5846  0.3697  0.4837
  434TMC3    H2 6476   4.445   4.434  10.388 -1.5634 -2.3453  2.5935
  434TMC3    C7 6477   4.344   4.605  10.212 -0.0919 -0.2627  0.0270
  434TMC3    C8 6478   4.473   4.460  10.663 -0.7683  0.4696  0.5447
  434TMC3    O1 6479   4.294   4.695  10.147  0.3468  0.0607  0.2768
  434TMC3    O2 6480   4.435   4.451  10.778 -0.0414  0.0021 -0.0419
  435MPD2     C 6481   1.264   4.684  15.310  1.0693  0.5180 -0.3991
  435MPD2    C1 6482   1.245   4.717  15.442 -0.1100  0.1995 -0.0774
  435MPD2    C2 6483   1.347   4.696  15.528 -1.1797 -0.6002  0.4724
  435MPD2    C3 6484   1.476   4.649  15.489  0.0500  0.0481 -0.3711
  435MPD2    C4 6485   1.491   4.633  15.352  0.6541 -0.0221 -0.0138
  435MPD2    C5 6486   1.386   4.650  15.268  0.3057 -0.0299 -0.1881
  435MPD2     H 6487   1.324   4.706  15.633 -0.9916 -2.0077  0.6509
  435MPD2    H1 6488   1.582   4.600  15.303  1.2785  3.1074 -0.9760
  435MPD2    H2 6489   1.194   4.702  15.230  0.2954 -2.5906 -0.4037
  435MPD2    H3 6490   1.418   4.638  15.165  0.9493 -1.5152  0.1879
  435MPD2     N 6491   1.565   4.599  15.592 -0.2518 -1.1280  0.2243
  435MPD2    H5 6492   1.543   4.611  15.690  0.7083  0.5437  0.2483
  435MPD2    N1 6493   1.117   0.023  15.498  0.1520  0.3143  0.0501
  435MPD2    H7 6494   1.124   0.061  15.592  0.5461 -1.3929  0.7158
  436TMC3    C1 6495   0.826   0.190  15.682  0.1036  0.0013 -0.4884
  436TMC3    C2 6496   0.921   0.160  15.588  0.4119  0.3518  0.6681
  436TMC3    C3 6497   0.885   0.063  15.509 -0.0678 -0.0252  0.3950
  436TMC3    C4 6498   0.691   0.137  15.676 -0.1272  0.1292 -0.0121
  436TMC3    C5 6499   0.657   0.042  15.585 -0.4312 -0.3742  0.5758
  436TMC3    C6 6500   0.760   4.723  15.509 -0.0923  0.2289  0.4054
  436TMC3     C 6501   0.857   0.283  15.780 -0.2851 -0.4738 -0.2747
  436TMC3     O 6502   0.977   0.287  15.805  0.4443  0.4468  0.2460
  436TMC3     H 6503   1.008   0.224  15.578  1.8259 -1.5497  0.9959
  436TMC3    H1 6504   0.616   0.162  15.749 -0.5667  0.0160 -0.4280
  436TMC3    H2 6505   0.729   4.651  15.434  1.7725  1.6185 -1.7018
  436TMC3    C7 6506   0.543   4.673  15.612  0.0325  0.2932 -0.5897
  436TMC3    C8 6507   0.996   0.004  15.432 -0.9966 -0.5255 -0.1860
  436TMC3    O1 6508   0.551   4.566  15.554  0.2165 -0.0301  0.3516
  436TMC3    O2 6509   0.966   4.693  15.317 -0.4282  0.1904  0.3489
  437TMC3    C1 6510   0.286   1.935  12.138  0.4622  0.8696 -0.6845
  437TMC3    C2 6511   0.171   1.975  12.201 -0.1832  0.1459 -1.0539
  437TMC3    C3 6512   0.108   2.098  12.167 -1.3036  0.6641  0.1542
  437TMC3    C4 6513   0.356   2.024  12.063 -1.0691  0.3176 -0.2182
  437TMC3    C5 6514   0.301   2.145  12.033 -0.4577  0.5301 -0.0541
  437TMC3    C6 6515   0.176   2.185  12.080 -0.8410  0.0363 -0.2438
  437TMC3     C 6516   0.342   1.804  12.143  0.3185  0.5419  0.0680
  437TMC3     O 6517   0.457   1.798  12.097 -0.2554  0.8051  0.0397
  437TMC3     H 6518   0.114   1.898  12.252 -1.1137  1.6685  0.1936
  437TMC3    H1 6519   0.447   2.000  12.008  0.4031 -0.2662  2.4870
  437TMC3    H2 6520   0.136   2.284  12.059 -0.3051  0.7208  1.9923
  437TMC3    C7 6521   0.387   2.255  11.996 -0.0534  0.6380  0.4567
  437TMC3    C8 6522   4.696   2.123  12.205 -0.1708 -0.0084  0.2225
  437TMC3    O1 6523   0.336   2.347  11.938 -0.1961 -0.3978 -0.0035
  437TMC3    O2 6524   4.648   2.225  12.159 -0.3541  0.2333  0.1252
  438MPD2     C 6525   2.121   2.975  16.087 -0.1237  0.1527  0.1957
  438MPD2    C1 6526   2.170   2.905  16.197 -0.1939 -0.1707  0.6818
  438MPD2    C2 6527   2.117   2.935  16.324 -0.0689  0.7821 -0.1122
  438MPD2    C3 6528   2.028   3.040  16.341  0.0254 -0.4795 -0.1973
  438MPD2    C4 6529   1.981   3.108  16.232  0.3620  0.6065 -0.8212
  438MPD2    C5 6530   2.026   3.075  16.105  0.2117 -0.2983  0.3297
  438MPD2     H 6531   2.139   2.859  16.399  0.7358  0.8488 -0.2750
  438MPD2    H1 6532   1.907   3.186  16.243 -1.0398 -0.6913 -1.0198
  438MPD2    H2 6533   2.162   2.974  15.987 -1.0218 -0.7312 -0.1627
  438MPD2    H3 6534   1.988   3.135  16.023 -2.2490 -1.7485  0.4034
  438MPD2     N 6535   1.971   3.073  16.467 -0.5876 -0.3277 -0.5116
  438MPD2    H5 6536   1.901   3.145  16.458 -0.9377 -0.3124  2.2187
  438MPD2    N1 6537   2.261   2.796  16.177  0.3861 -0.2924 -0.3687
  438MPD2    H7 6538   2.299   2.754  16.261 -1.4730 -0.7642  0.2412
  439TMC3    C1 6539   2.373   2.625  16.065 -0.0212  0.4762 -0.2266
  439TMC3    C2 6540   2.367   2.531  15.966  0.4549 -0.0343 -0.6390
  439TMC3    C3 6541   2.403   2.400  15.986  0.2691 -0.3090  0.2855
  439TMC3    C4 6542   2.440   2.600  16.182 -0.3018  0.2909  0.0277
  439TMC3    C5 6543   2.480   2.471  16.202  0.3978  0.0246  0.6158
  439TMC3    C6 6544   2.464   2.373  16.109 -0.0677 -0.2543 -0.0823
  439TMC3     C 6545   2.295   2.742  16.055 -0.4710 -0.9766  0.6792
  439TMC3     O 6546   2.245   2.769  15.948 -0.1732  0.3914  0.7421
  439TMC3     H 6547   2.312   2.551  15.875 -2.3881 -0.4246  0.9804
  439TMC3    H1 6548   2.466   2.680  16.250  0.1570  1.1393 -1.1376
  439TMC3    H2 6549   2.496   2.275  16.141  0.3825 -0.1864 -0.3156
  439TMC3    C7 6550   2.617   2.468  16.258  0.3735  0.1689 -0.2324
  439TMC3    C8 6551   2.507   2.357  15.885  0.0333  0.3191  0.4685
  439TMC3    O1 6552   2.628   2.542  16.354 -0.4498  0.6975  0.4298
  439TMC3    O2 6553   2.593   2.279  15.919  0.0628  0.3826 -0.4152
  440MPD2     C 6554   1.419   3.384  14.388 -0.0725 -0.1018  0.0486
  440MPD2    C1 6555   1.380   3.355  14.516  0.3188  0.6899 -0.0527
  440MPD2    C2 6556   1.459   3.285  14.602 -0.8045 -0.3607  1.4972
  440MPD2    C3 6557   1.584   3.242  14.561  0.1957  0.0710  0.0587
  440MPD2    C4 6558   1.632   3.285  14.439 -0.5484 -0.1842 -0.5432
  440MPD2    C5 6559   1.550   3.354  14.352  0.4824  0.3819  0.1445
  440MPD2     H 6560   1.416   3.248  14.694 -0.1633  0.7818  2.2599
  440MPD2    H1 6561   1.734   3.269  14.406 -0.1714  0.2936  0.4042
  440MPD2    H2 6562   1.356   3.437  14.318 -0.5275 -1.6468 -0.6964
  440MPD2    H3 6563   1.590   3.389  14.257  2.4054  0.6509  1.0430
  440MPD2     N 6564   1.664   3.153  14.634  0.2177  0.2660 -0.1084
  440MPD2    H5 6565   1.759   3.127  14.610 -0.0062  0.6029 -1.3607
  440MPD2    N1 6566   1.246   3.384  14.569  0.3705  0.3701  0.2058
  440MPD2    H7 6567   1.232   3.359  14.666  0.7900 -1.3214 -0.1585
  441TMC3    C1 6568   1.743   3.034  14.809  0.0193 -0.0255  0.4219
  441TMC3    C2 6569   1.850   3.113  14.817 -0.4394  1.1323 -0.2007
  441TMC3    C3 6570   1.924   3.095  14.930  0.4196 -0.8861 -0.4202
  441TMC3    C4 6571   1.714   2.929  14.898 -0.0450 -0.4006 -0.6722
  441TMC3    C5 6572   1.801   2.909  14.998  0.3042  0.0101 -0.1401
  441TMC3    C6 6573   1.907   2.994  15.020  0.0537 -0.2722 -0.2965
  441TMC3     C 6574   1.630   3.087  14.745 -0.4041 -0.4308 -0.0223
  441TMC3     O 6575   1.520   3.067  14.793  0.0603 -0.1083  0.2085
  441TMC3     H 6576   1.872   3.201  14.758 -1.2517  3.1669  2.5230
  441TMC3    H1 6577   1.626   2.866  14.892 -1.2495  1.1208  0.9836
  441TMC3    H2 6578   1.949   2.998  15.119 -1.4515  0.2050  0.3211
  441TMC3    C7 6579   1.755   2.823  15.104 -0.2610  0.1079 -1.1773
  441TMC3    C8 6580   1.946   3.215  15.004 -0.3470 -0.1631  0.2476
  441TMC3    O1 6581   1.635   2.797  15.111  0.6890 -0.0670 -0.5472
  441TMC3    O2 6582   2.049   3.219  15.072  0.5544 -0.4106 -0.1320
  442MPD2     C 6583   4.327   3.688  16.691  0.0239 -0.8065 -0.4641
  442MPD2    C1 6584   4.200   3.654  16.640 -0.6879  0.2257 -0.9702
  442MPD2    C2 6585   4.197   3.519  16.589  0.4893  0.2368 -0.7705
  442MPD2    C3 6586   4.310   3.443  16.565 -0.5698 -0.5101  0.4435
  442MPD2    C4 6587   4.428   3.484  16.613  0.3238  0.5153  0.5715
  442MPD2    C5 6588   4.437   3.604  16.677  0.1728  0.6586 -0.2118
  442MPD2     H 6589   4.102   3.472  16.565 -0.0596  2.3947 -2.8616
  442MPD2    H1 6590   4.515   3.420  16.618  0.3557  0.5742  0.7865
  442MPD2    H2 6591   4.336   3.783  16.743 -1.0616 -0.6616 -0.5432
  442MPD2    H3 6592   4.529   3.640  16.721  1.0406 -0.3070 -1.2166
  442MPD2     N 6593   4.307   3.310  16.511 -0.0465  0.4083  0.1701
  442MPD2    H5 6594   4.399   3.269  16.497  0.2858  0.9843  0.6992
  442MPD2    N1 6595   4.091   3.741  16.630  0.3375 -0.7240 -0.8573
  442MPD2    H7 6596   4.005   3.701  16.592 -1.9667  2.1038  1.3578
  443TMC3    C1 6597   3.965   3.945  16.633 -0.0191  0.1072 -0.6531
  443TMC3    C2 6598   3.954   4.077  16.584  0.4869  0.0332  0.1621
  443TMC3    C3 6599   3.832   4.141  16.598 -0.3531 -0.0291  0.4022
  443TMC3    C4 6600   3.868   3.885  16.707 -0.5213  0.2729  0.2146
  443TMC3    C5 6601   3.750   3.964  16.722  0.2254  0.3087 -0.0015
  443TMC3    C6 6602   3.727   4.090  16.680 -0.3126  0.1991  0.4747
  443TMC3     C 6603   4.099   3.881  16.643  0.0357  0.0949  0.6652
  443TMC3     O 6604   4.200   3.953  16.656 -0.2198 -0.1200  0.6333
  443TMC3     H 6605   4.034   4.110  16.519  2.4423 -1.8571  1.5863
  443TMC3    H1 6606   3.862   3.779  16.728  0.2942  0.3697  0.9649
  443TMC3    H2 6607   3.626   4.130  16.680  0.9954  3.5161 -1.2173
  443TMC3    C7 6608   3.654   3.901  16.808 -0.1337 -0.1879  0.4962
  443TMC3    C8 6609   3.780   4.243  16.504 -0.1669 -0.2156 -1.0386
  443TMC3    O1 6610   3.650   3.782  16.787 -0.2778 -0.0099  0.3346
  443TMC3    O2 6611   3.695   4.319  16.546 -0.0210 -0.1737  0.5207
  444MPD2     C 6612   4.581   2.721  17.120  0.3524  0.0936  0.0527
  444MPD2    C1 6613   4.480   2.687  17.025  0.4028  0.9701  0.4172
  444MPD2    C2 6614   4.529   2.659  16.898 -1.1056  0.7552 -0.5079
  444MPD2    C3 6615   4.666   2.643  16.872  0.1038 -0.3991 -1.2442
  444MPD2    C4 6616   0.041   2.680  16.969 -0.2429  0.3557 -0.2152
  444MPD2    C5 6617   4.715   2.713  17.096  0.4884  0.0684 -0.6652
  444MPD2     H 6618   4.459   2.648  16.816 -1.7118  1.6112 -0.1001
  444MPD2    H1 6619   0.148   2.670  16.954 -0.4161 -1.8585  0.1428
  444MPD2    H2 6620   4.557   2.754  17.220  0.3250 -0.4472  0.2280
  444MPD2    H3 6621   0.055   2.734  17.182  0.3676  0.3462 -0.6426
  444MPD2     N 6622   4.690   2.587  16.746  0.1263 -0.0498  1.1119
  444MPD2    H5 6623   4.607   2.562  16.693 -0.8950 -1.6473  3.4419
  444MPD2    N1 6624   4.339   2.694  17.056 -0.1123 -0.2584  0.7877
  444MPD2    H7 6625   4.270   2.661  16.989  0.6503  1.8012 -1.0065
  445TMC3    C1 6626   0.088   2.451  16.597  1.0150  0.1788 -0.8082
  445TMC3    C2 6627   4.704   2.432  16.513 -0.2294 -1.0602  0.5486
  445TMC3    C3 6628   4.720   2.343  16.415 -0.4835 -0.3774  0.2263
  445TMC3    C4 6629   0.209   2.394  16.577 -0.0816  0.1799 -0.2722
  445TMC3    C5 6630   0.218   2.296  16.480  0.0761  0.4461 -0.9422
  445TMC3    C6 6631   0.106   2.265  16.402  0.6190 -0.4714 -0.1449
  445TMC3     C 6632   0.088   2.548  16.705  0.7065 -0.4128  0.0994
  445TMC3     O 6633   0.196   2.598  16.730  0.2005  0.2330 -0.0320
  445TMC3     H 6634   4.625   2.506  16.518 -0.1725 -0.9709  0.1409
  445TMC3    H1 6635   0.295   2.420  16.637  0.0738 -1.2203  0.1142
  445TMC3    H2 6636   0.126   2.202  16.316  2.4070  2.2470 -1.6986
  445TMC3    C7 6637   0.346   2.264  16.429 -0.3293 -0.7065 -0.4001
  445TMC3    C8 6638   4.612   2.332  16.324  0.2897 -0.4984  0.1231
  445TMC3    O1 6639   0.437   2.334  16.466 -0.2819 -0.6800  0.1997
  445TMC3    O2 6640   4.514   2.405  16.331 -0.0071 -0.0251 -0.2425
  446MPD2     C 6641   4.171   4.314  11.211  0.0035 -0.0496  0.5805
  446MPD2    C1 6642   4.161   4.340  11.076 -0.0145 -0.0998  0.0933
  446MPD2    C2 6643   4.228   4.445  11.021  0.2184  0.4181 -0.1849
  446MPD2    C3 6644   4.333   4.504  11.090 -0.4068  0.5420  0.0505
  446MPD2    C4 6645   4.343   4.472  11.225 -0.0402  0.4606  0.4749
  446MPD2    C5 6646   4.261   4.382  11.285  0.5946  0.0239  0.4827
  446MPD2     H 6647   4.204   4.468  10.918  1.6389 -1.1068 -0.8554
  446MPD2    H1 6648   4.407   4.540  11.281  0.4361 -1.5063  2.3036
  446MPD2    H2 6649   4.098   4.250  11.259 -0.2565  1.4131  2.1011
  446MPD2    H3 6650   4.267   4.376  11.393 -0.9139 -0.7272  0.5247
  446MPD2     N 6651   4.428   4.591  11.024  0.4215  0.2216 -0.5667
  446MPD2    H5 6652   4.399   4.616  10.930  0.6277 -4.0342 -1.7499
  446MPD2    N1 6653   4.081   4.262  10.994  0.5712 -0.3411 -0.4813
  446MPD2    H7 6654   4.072   4.286  10.896  2.1879 -0.7840 -0.7399
  447TMC3    C1 6655   4.646   4.676  10.973  0.5202  0.0331  0.6770
  447TMC3    C2 6656   4.608   0.005  10.853  0.5390  0.8757  0.5705
  447TMC3    C3 6657   4.704   0.075  10.781  0.8652  0.4711 -0.3512
  447TMC3    C4 6658   0.048   4.684  11.021  0.5004  0.7843  0.2426
  447TMC3    C5 6659   0.136   0.044  10.953  0.8476 -1.0284 -0.5730
  447TMC3    C6 6660   0.105   0.096  10.833  0.2061 -0.0811  0.4927
  447TMC3     C 6661   4.558   4.605  11.070  0.5282  0.4539  0.1661
  447TMC3     O 6662   4.608   4.564  11.176 -0.0751 -0.1613 -0.6076
  447TMC3     H 6663   4.504   4.718  10.824  0.9040  0.4561 -0.6257
  447TMC3    H1 6664   0.085   4.628  11.106 -2.6404 -1.2445  0.2763
  447TMC3    H2 6665   0.176   0.153  10.775 -0.0806 -0.4238 -0.1919
  447TMC3    C7 6666   0.273   4.721  10.959  0.1125  0.3868  0.1630
  447TMC3    C8 6667   4.709   0.039  10.641  0.1355  0.5962 -0.0346
  447TMC3    O1 6668   0.341   4.723  10.855 -0.6523 -0.0818  0.4935
  447TMC3    O2 6669   4.608   0.047  10.576  0.1234  0.3860 -0.1977
  448TMC3    C1 6670   2.832   4.061  16.619  0.6528 -0.0135  0.4928
  448TMC3    C2 6671   2.776   3.992  16.518 -0.0532  0.5123 -0.0668
  448TMC3    C3 6672   2.691   3.898  16.556  0.5562  0.3190  0.0989
  448TMC3    C4 6673   2.817   4.018  16.750 -0.2866 -0.1150  1.2312
  448TMC3    C5 6674   2.747   3.911  16.783 -0.0951  0.4101 -0.3612
  448TMC3    C6 6675   2.675   3.853  16.685 -0.1376  0.3029 -0.6732
  448TMC3     C 6676   2.903   4.184  16.599  0.2302 -0.6732  0.2183
  448TMC3     O 6677   2.872   4.258  16.506  0.6374  0.2701  0.3054
  448TMC3     H 6678   2.801   4.026  16.418  0.2111  0.3593 -0.0515
  448TMC3    H1 6679   2.864   4.067  16.834  0.5963 -0.5421  0.9894
  448TMC3    H2 6680   2.636   3.753  16.701  2.8956 -0.7811 -0.0271
  448TMC3    C7 6681   2.768   3.829  16.906 -0.0235  0.3372  0.3388
  448TMC3    C8 6682   2.611   3.827  16.466  0.2515  0.0243  0.7559
  448TMC3    O1 6683   2.875   3.844  16.961 -0.2126 -0.0780 -0.3051
  448TMC3    O2 6684   2.531   3.743  16.513 -0.0303  0.2457 -0.5635
  449MPD2     C 6685   4.176   2.281  13.086  0.6709 -0.4887  0.3297
  449MPD2    C1 6686   4.061   2.213  13.106  0.0177  0.6874 -0.0768
  449MPD2    C2 6687   4.005   2.202  13.231 -0.1200 -0.1128  0.3634
  449MPD2    C3 6688   4.070   2.266  13.335 -0.2634 -0.2375 -0.1298
  449MPD2    C4 6689   4.187   2.336  13.321 -0.5104  0.3873  0.4247
  449MPD2    C5 6690   4.236   2.342  13.193  0.3499  0.0066  0.1750
  449MPD2     H 6691   3.901   2.173  13.241  0.6808 -2.3482  2.1557
  449MPD2    H1 6692   4.247   2.383  13.397  0.4798 -0.1730  0.0042
  449MPD2    H2 6693   4.225   2.287  12.989 -1.0686  4.1360 -0.2407
  449MPD2    H3 6694   4.324   2.404  13.183 -0.0928  1.2218  3.8228
  449MPD2     N 6695   4.001   2.253  13.455  0.0445 -0.8470 -0.4677
  449MPD2    H5 6696   3.916   2.198  13.459 -2.2545  2.6082 -1.7426
  449MPD2    N1 6697   3.990   2.153  13.003  0.4879 -0.0755  0.5045
  449MPD2    H7 6698   3.906   2.102  13.029  1.6069 -2.2400 -0.1973
  450TMC3    C1 6699   3.929   2.066  12.796  0.2588  0.3193 -0.0429
  450TMC3    C2 6700   3.986   1.942  12.786  0.2586  0.5950  0.0662
  450TMC3    C3 6701   3.910   1.835  12.832 -0.0470  0.2714  0.0325
  450TMC3    C4 6702   3.799   2.084  12.828  0.6885  0.4199  0.0992
  450TMC3    C5 6703   3.730   1.977  12.872 -0.5197 -0.3534  0.3383
  450TMC3    C6 6704   3.777   1.848  12.867  0.5963 -0.4469 -0.5098
  450TMC3     C 6705   4.027   2.151  12.870  0.9117  0.3357  0.3551
  450TMC3     O 6706   4.136   2.166  12.816 -0.1088  0.1035 -0.1632
  450TMC3     H 6707   4.088   1.940  12.750  0.3103 -0.1435  0.2389
  450TMC3    H1 6708   3.765   2.187  12.835 -0.8174 -0.0064 -1.0490
  450TMC3    H2 6709   3.722   1.763  12.907  1.1703 -0.5479  0.0663
  450TMC3    C7 6710   3.679   2.007  13.000 -0.1759 -0.0315  0.2560
  450TMC3    C8 6711   3.960   1.697  12.819  0.9204  0.2021 -0.2026
  450TMC3    O1 6712   3.771   2.013  13.080  0.2349  0.1524  0.2526
  450TMC3    O2 6713   3.874   1.608  12.825 -0.0982 -0.8592  0.3227
  451MPD2     C 6714   4.399   0.836   1.463 -0.1683 -0.4724  0.0981
  451MPD2    C1 6715   4.478   0.908   1.375  0.2141  0.2279 -0.1815
  451MPD2    C2 6716   4.604   0.869   1.334 -0.0984  0.1941  0.3253
  451MPD2    C3 6717   4.658   0.747   1.377 -0.6789 -0.5957  0.7215
  451MPD2    C4 6718   4.584   0.675   1.469 -0.3271  0.0378 -0.7315
  451MPD2    C5 6719   4.460   0.723   1.507  0.2222  0.3345 -0.1441
  451MPD2     H 6720   4.660   0.932   1.265 -0.4963  3.5678  3.1247
  451MPD2    H1 6721   4.617   0.579   1.508 -2.9070 -0.3274  0.5649
  451MPD2    H2 6722   4.303   0.867   1.503  0.6261  1.0371  0.8251
  451MPD2    H3 6723   4.401   0.661   1.573  2.1030 -0.5302  0.7248
  451MPD2     N 6724   0.058   0.694   1.327 -0.5452  0.7510  0.3602
  451MPD2    H5 6725   0.070   0.602   1.368  0.4988  0.8632  0.2981
  451MPD2    N1 6726   4.419   1.031   1.330  0.4724  0.3440  0.5054
  451MPD2    H7 6727   4.325   1.052   1.363 -0.0067 -1.1912  0.0853
  452TMC3    C1 6728   0.232   0.643   1.199 -0.3302  0.7952 -0.6579
  452TMC3    C2 6729   0.180   0.512   1.202 -0.1042 -0.4366 -0.3855
  452TMC3    C3 6730   0.266   0.414   1.157  0.7664  0.4972  0.1372
  452TMC3    C4 6731   0.352   0.678   1.133 -0.1275 -0.4696 -0.0045
  452TMC3    C5 6732   0.430   0.572   1.095 -0.3011  0.5149  0.2495
  452TMC3    C6 6733   0.389   0.440   1.104 -0.5543 -0.0767  0.8944
  452TMC3     C 6734   0.139   0.750   1.231  0.7941  0.6788 -0.4644
  452TMC3     O 6735   0.125   0.846   1.156 -0.3504 -0.0652 -0.1664
  452TMC3     H 6736   0.081   0.487   1.238 -0.2592 -0.2614 -0.6969
  452TMC3    H1 6737   0.389   0.779   1.133 -0.3173 -0.4051 -0.9396
  452TMC3    H2 6738   0.453   0.360   1.067 -2.1303 -0.7879 -0.3134
  452TMC3    C7 6739   0.540   0.591   1.008  0.1164  0.5982  0.2761
  452TMC3    C8 6740   0.219   0.277   1.191 -0.1837 -0.1474  0.0379
  452TMC3    O1 6741   0.624   0.502   1.009 -0.0775  0.2568  0.0875
  452TMC3    O2 6742   0.107   0.269   1.236 -0.1695 -0.1333  0.0230
  453TMC3    C1 6743   1.886   3.786  11.937 -0.3635  0.0029  0.4374
  453TMC3    C2 6744   1.834   3.661  11.954  0.0982 -0.7042 -0.4180
  453TMC3    C3 6745   1.744   3.619  11.849 -0.2441 -0.0225 -0.1351
  453TMC3    C4 6746   1.844   3.869  11.838 -0.3355 -0.5683  0.3867
  453TMC3    C5 6747   1.766   3.814  11.731 -0.2498  0.5595  0.8235
  453TMC3    C6 6748   1.710   3.690  11.737 -0.6799  0.9607  0.5052
  453TMC3     C 6749   2.028   3.804  11.976  0.7900 -0.2901 -0.2371
  453TMC3     O 6750   2.060   3.916  12.027 -0.2662  0.2014 -0.0294
  453TMC3     H 6751   1.867   3.585  12.024 -0.4583 -2.8330 -2.4821
  453TMC3    H1 6752   1.898   3.962  11.827 -2.2458  0.2734 -1.7662
  453TMC3    H2 6753   1.667   3.637  11.653  0.0221 -0.5166  1.0827
  453TMC3    C7 6754   1.798   3.851  11.595 -0.0623 -0.5754 -0.7542
  453TMC3    C8 6755   1.738   3.474  11.832 -0.4368  0.0518 -0.6915
  453TMC3    O1 6756   1.726   3.795  11.518 -0.3061  0.1365 -0.0224
  453TMC3    O2 6757   1.824   3.408  11.887 -0.0880  0.0823  0.3596
  454MPD2     C 6758   0.628   2.643  16.335 -0.3378 -0.4465  0.3446
  454MPD2    C1 6759   0.592   2.761  16.269  0.6492  0.2325 -0.3708
  454MPD2    C2 6760   0.545   2.862  16.343  0.1629 -0.1309 -0.2778
  454MPD2    C3 6761   0.508   2.848  16.475  0.1474  0.3866 -0.5485
  454MPD2    C4 6762   0.549   2.736  16.544  0.5759  0.2543  0.0282
  454MPD2    C5 6763   0.608   2.632  16.472  0.8613  0.1022 -0.4534
  454MPD2     H 6764   0.517   2.944  16.277 -0.5176  0.7907  1.1541
  454MPD2    H1 6765   0.540   2.727  16.651 -1.1305 -0.7481 -0.1855
  454MPD2    H2 6766   0.675   2.560  16.284  0.4706 -0.6615  1.4418
  454MPD2    H3 6767   0.651   2.545  16.521 -1.0883  0.7493  2.3881
  454MPD2     N 6768   0.415   2.937  16.539  0.0341 -0.4116  0.4744
  454MPD2    H5 6769   0.379   2.919  16.632 -1.3758  0.8755  0.1849
  454MPD2    N1 6770   0.583   2.763  16.133  0.2314 -0.1218  0.2955
  454MPD2    H7 6771   0.547   2.848  16.090 -0.7582  0.5192  2.3859
  455TMC3    C1 6772   0.221   3.054  16.488  0.8225  0.4041 -0.0648
  455TMC3    C2 6773   0.191   3.023  16.618 -0.0460  0.3929 -0.6398
  455TMC3    C3 6774   0.067   2.978  16.639 -0.3271 -0.2192 -0.4405
  455TMC3    C4 6775   0.147   3.010  16.381 -1.3956 -0.4030  0.8411
  455TMC3    C5 6776   0.028   2.941  16.411  0.1464 -0.4533 -0.3408
  455TMC3    C6 6777   4.712   2.932  16.544 -0.7042 -0.1049 -0.0531
  455TMC3     C 6778   0.361   3.042  16.465  0.4648 -0.2221  0.2383
  455TMC3     O 6779   0.390   3.100  16.361 -0.2852  0.2705  0.2488
  455TMC3     H 6780   0.250   3.057  16.702 -1.0333  0.3646  0.0541
  455TMC3    H1 6781   0.193   3.021  16.284  0.0244  2.2875  1.8083
  455TMC3    H2 6782   4.616   2.884  16.557 -0.6106 -1.1217 -2.9411
  455TMC3    C7 6783   0.009   2.823  16.324 -0.6996 -0.2305 -0.2905
  455TMC3    C8 6784   0.018   2.982  16.771 -0.9681 -0.0441 -0.1592
  455TMC3    O1 6785   4.623   2.772  16.328 -0.0262  0.0266 -0.2961
  455TMC3    O2 6786   0.094   2.994  16.873 -0.3801  0.0633  0.7582
  456MPD2     C 6787   2.791   2.655  15.886  0.5049 -0.2614  0.4613
  456MPD2    C1 6788   2.839   2.692  16.007 -0.3897  0.2413 -0.0055
  456MPD2    C2 6789   2.781   2.797  16.070 -0.7920  0.9683 -0.3457
  456MPD2    C3 6790   2.677   2.867  16.016 -0.4328  0.7631  0.2728
  456MPD2    C4 6791   2.638   2.833  15.886  0.5331  0.1105 -0.0601
  456MPD2    C5 6792   2.698   2.729  15.820 -0.2071 -0.0399 -0.1892
  456MPD2     H 6793   2.819   2.828  16.167 -1.2490  1.4065 -0.3073
  456MPD2    H1 6794   2.561   2.886  15.830 -2.7516 -2.2340  2.2255
  456MPD2    H2 6795   2.829   2.568  15.835 -0.2694  0.1803 -0.8680
  456MPD2    H3 6796   2.666   2.704  15.720 -0.7156 -1.6191  0.3807
  456MPD2     N 6797   2.618   2.961  16.100  0.0929  0.2812  1.2492
  456MPD2    H5 6798   2.661   2.973  16.192 -0.5848  1.3823  1.4239
  456MPD2    N1 6799   2.958   2.628  16.038  0.0714 -0.5329 -0.1465
  456MPD2    H7 6800   2.996   2.557  15.976 -0.6883  0.5282 -1.8338
  457TMC3    C1 6801   2.460   3.121  16.179  0.1821  0.3636  1.1064
  457TMC3    C2 6802   2.377   3.227  16.148  0.1953 -0.5191 -0.2963
  457TMC3    C3 6803   2.300   3.293  16.244 -0.0016  0.5061 -0.7722
  457TMC3    C4 6804   2.454   3.072  16.306  1.6215 -0.3558  0.3538
  457TMC3    C5 6805   2.377   3.135  16.402 -0.1991  0.0484  0.1477
  457TMC3    C6 6806   2.308   3.252  16.374 -0.4893 -0.6876 -0.4631
  457TMC3     C 6807   2.506   3.034  16.073 -0.7506  0.1593 -0.2326
  457TMC3     O 6808   2.473   3.070  15.961 -0.6309 -0.3963  0.1066
  457TMC3     H 6809   2.366   3.263  16.047 -2.2086 -2.9178 -0.8866
  457TMC3    H1 6810   2.513   2.985  16.334  2.3136  0.5048  1.5395
  457TMC3    H2 6811   2.236   3.293  16.444 -1.4082 -0.8793 -1.3004
  457TMC3    C7 6812   2.435   3.135  16.530  0.5477  0.4502  0.1997
  457TMC3    C8 6813   2.349   3.431  16.263  0.4343 -0.8975  0.4828
  457TMC3    O1 6814   2.482   3.031  16.571 -0.4874 -1.0284  0.0954
  457TMC3    O2 6815   2.381   3.446  16.379  0.0797  0.9498  0.6024
  458MPD2     C 6816   0.839   2.493  11.982 -0.1504 -0.4107  0.2936
  458MPD2    C1 6817   0.848   2.380  12.069  0.0631 -0.3345 -0.1360
  458MPD2    C2 6818   0.744   2.296  12.086 -0.0287  0.5659  0.2630
  458MPD2    C3 6819   0.628   2.323  12.020 -0.3038  1.2562  1.0747
  458MPD2    C4 6820   0.614   2.437  11.936 -0.1960  0.5545  0.2250
  458MPD2    C5 6821   0.724   2.513  11.916  0.4597 -0.0968  0.8304
  458MPD2     H 6822   0.744   2.212  12.154  1.7798  0.4758  0.1453
  458MPD2    H1 6823   0.525   2.482  11.893 -0.9269 -0.3547  0.7843
  458MPD2    H2 6824   0.921   2.559  11.955 -0.4119 -0.5460 -0.8328
  458MPD2    H3 6825   0.712   2.610  11.867  0.2285 -0.9086 -0.7336
  458MPD2     N 6826   0.517   2.237  12.047 -0.7416 -0.0832 -0.0089
  458MPD2    H5 6827   0.533   2.150  12.098 -1.7504  0.2199  0.8098
  458MPD2    N1 6828   0.975   2.366  12.126  0.5096 -0.1003  0.4096
  458MPD2    H7 6829   1.047   2.432  12.098 -2.1249  1.6651 -2.1897
  459TMC3    C1 6830   1.118   2.307  12.308 -0.5110 -0.5788  0.2484
  459TMC3    C2 6831   1.229   2.366  12.257 -0.6633  0.1085 -0.5261
  459TMC3    C3 6832   1.333   2.395  12.343  0.0143 -0.4236 -0.4756
  459TMC3    C4 6833   1.111   2.274  12.441  0.7066 -0.3253 -0.6468
  459TMC3    C5 6834   1.204   2.326  12.531  0.4223  0.6078 -0.2424
  459TMC3    C6 6835   1.318   2.381  12.479  0.3232  0.2048 -0.8749
  459TMC3     C 6836   1.005   2.272  12.222 -0.4030  0.0715  0.5743
  459TMC3     O 6837   0.940   2.178  12.268  0.6049  0.0299 -0.4060
  459TMC3     H 6838   1.244   2.366  12.150 -0.1567 -3.1863 -0.4569
  459TMC3    H1 6839   1.030   2.214  12.480  0.3396  1.3024  1.0845
  459TMC3    H2 6840   1.399   2.386  12.550  1.1362 -0.3284 -1.7641
  459TMC3    C7 6841   1.190   2.306  12.670  0.4391 -0.7400 -0.3025
  459TMC3    C8 6842   1.455   2.475  12.316 -0.5467 -0.3069 -0.2766
  459TMC3    O1 6843   1.114   2.214  12.704 -0.1795  0.1494 -0.3014
  459TMC3    O2 6844   1.541   2.456  12.405 -0.3816 -0.3154 -0.0586
  460MPD2     C 6845   0.293   4.627  10.479  0.3208  0.0381 -0.2881
  460MPD2    C1 6846   0.157   4.675  10.492  0.0107  0.2712 -0.4330
  460MPD2    C2 6847   0.086   4.682  10.373  0.4225 -0.3761  0.2250
  460MPD2    C3 6848   0.135   4.637  10.258 -0.5050  0.0818 -0.0952
  460MPD2    C4 6849   0.265   4.580  10.253  0.3115 -0.8035 -0.2387
  460MPD2    C5 6850   0.342   4.579  10.362  1.0463  0.4947 -0.2104
  460MPD2     H 6851   4.714   0.007  10.384  0.2569 -0.4622 -0.8214
  460MPD2    H1 6852   0.311   4.541  10.163 -0.7043 -0.8124 -0.7586
  460MPD2    H2 6853   0.356   4.619  10.567  0.7119  0.6347 -0.5166
  460MPD2    H3 6854   0.442   4.539  10.375  0.4190 -1.3412 -1.0509
  460MPD2     N 6855   0.060   4.648  10.141 -0.0924  0.1449  0.6060
  460MPD2    H5 6856   0.005   0.009  10.131  0.9671  0.8095  0.3954
  460MPD2    N1 6857   0.112   0.002  10.613  0.2262  0.7131  0.3118
  460MPD2    H7 6858   0.176   4.718  10.691  1.5799  1.1981 -0.7672
  461TMC3    C1 6859   4.701   4.574   9.918 -0.0456  0.8254 -0.3332
  461TMC3    C2 6860   4.724   4.488   9.813  0.0521 -0.0937  0.3203
  461TMC3    C3 6861   4.637   4.498   9.709  0.5024 -0.2101  0.3535
  461TMC3    C4 6862   4.593   4.664   9.918 -0.0996 -0.0747  0.5436
  461TMC3    C5 6863   4.507   4.666   9.811 -0.1863 -0.1944 -0.6766
  461TMC3    C6 6864   4.523   4.575   9.706 -0.0987  0.1781  0.0403
  461TMC3     C 6865   0.065   4.551  10.035 -0.2412 -0.2906 -0.1986
  461TMC3     O 6866   0.134   4.447  10.033 -0.4010  0.2637  0.5081
  461TMC3     H 6867   0.085   4.421   9.809 -1.0645 -1.6199  2.5395
  461TMC3    H1 6868   4.585   4.722  10.010  0.0212 -0.3818  0.7491
  461TMC3    H2 6869   4.453   4.586   9.623 -1.8493  2.0740  1.7660
  461TMC3    C7 6870   4.407   0.046   9.802 -0.6965 -0.2237  0.2057
  461TMC3    C8 6871   4.646   4.397   9.600 -0.2087 -0.1149 -0.2421
  461TMC3    O1 6872   4.333   0.065   9.706 -0.8446  0.2268  0.0811
  461TMC3    O2 6873   0.034   4.357   9.580  0.1776  0.5146  0.5405
  462TMC3    C1 6874   0.101   0.105  17.168 -0.7910 -0.2486 -0.1973
  462TMC3    C2 6875   0.109   0.010  17.066  0.0638 -0.1486 -0.0551
  462TMC3    C3 6876   4.714   4.700  17.007 -0.1726  0.2401  0.1629
  462TMC3    C4 6877   4.710   0.155  17.213  0.2063  0.3741 -0.2821
  462TMC3    C5 6878   4.592   0.116  17.148 -0.2987 -0.3869  0.2092
  462TMC3    C6 6879   4.594   0.030  17.041  0.2755 -0.5939 -0.0475
  462TMC3     C 6880   0.228   0.144  17.236  0.5881 -0.7192  0.1251
  462TMC3     O 6881   0.322   0.065  17.222  0.0449  0.3714 -0.9357
  462TMC3     H 6882   0.198   4.675  17.051 -0.3883 -0.3346 -2.0898
  462TMC3    H1 6883   4.701   0.198  17.313 -1.6950 -1.8276  0.5064
  462TMC3    H2 6884   4.507   0.013  16.979  0.9626 -0.9541 -0.8989
  462TMC3    C7 6885   4.466   0.163  17.191  0.2926 -0.0675  0.2212
  462TMC3    C8 6886   4.715   4.579  16.931  0.3758 -0.4871 -0.7669
  462TMC3    O1 6887   4.370   0.115  17.137 -0.0932  0.1862  0.2535
  462TMC3    O2 6888   4.624   4.499  16.952 -0.2943  0.4885  0.0816
  463MPD2     C 6889   4.169   4.302   1.407  0.1472 -0.3711  0.2807
  463MPD2    C1 6890   4.164   4.401   1.315  0.0056  0.2551 -0.2120
  463MPD2    C2 6891   4.253   4.414   1.214  0.3170  0.4704 -0.2599
  463MPD2    C3 6892   4.364   4.327   1.217 -0.7925 -0.4019  0.1739
  463MPD2    C4 6893   4.385   4.236   1.321 -0.1398 -0.2356  0.0638
  463MPD2    C5 6894   4.283   4.218   1.407 -0.0979  0.6818  0.0330
  463MPD2     H 6895   4.248   4.488   1.136 -0.3336  1.2538  0.5218
  463MPD2    H1 6896   4.478   4.180   1.330 -0.2579 -0.1051  1.9771
  463MPD2    H2 6897   4.091   4.287   1.480 -0.6761  0.3329 -0.4467
  463MPD2    H3 6898   4.286   4.128   1.467 -0.0794  1.4371  1.1626
  463MPD2     N 6899   4.477   4.341   1.133  0.4345 -0.0499 -0.9340
  463MPD2    H5 6900   4.562   4.288   1.151  0.6751  1.3225  1.8841
  463MPD2    N1 6901   4.057   4.492   1.307 -0.3142  0.2841 -0.2844
  463MPD2    H7 6902   4.067   4.568   1.240  1.9428  1.0917  0.9554
  464TMC3    C1 6903   3.843   4.598   1.351 -0.4196 -0.0638  0.4455
  464TMC3    C2 6904   3.855   4.663   1.232 -0.5890 -0.3998 -0.0387
  464TMC3    C3 6905   3.744   4.719   1.174  0.0231  0.6024 -0.0078
  464TMC3    C4 6906   3.722   4.596   1.413  0.7085 -0.2765 -0.2716
  464TMC3    C5 6907   3.607   4.647   1.357  0.4360  0.4496  0.3003
  464TMC3    C6 6908   3.619   4.713   1.238 -0.6467  0.3303 -0.3757
  464TMC3     C 6909   3.951   4.501   1.395 -0.8219 -0.7462  0.7677
  464TMC3     O 6910   3.911   4.432   1.493  0.2001 -0.3469 -0.6619
  464TMC3     H 6911   3.956   4.671   1.194 -0.1421 -0.6671  1.0698
  464TMC3    H1 6912   3.710   4.527   1.496  1.0533  0.4268  0.3614
  464TMC3    H2 6913   3.530   0.034   1.195 -1.4257 -1.0857 -0.2331
  464TMC3    C7 6914   3.493   4.558   1.386 -0.2391 -0.2460  0.0203
  464TMC3    C8 6915   3.766   0.076   1.062 -0.5557  0.7897 -0.3809
  464TMC3    O1 6916   3.474   4.529   1.508  0.0826  0.2961  0.0466
  464TMC3    O2 6917   3.877   0.073   1.015 -0.4705 -0.2629  0.1336
  465MPD2     C 6918   2.071   3.681  16.108  0.3812  0.2213  0.3605
  465MPD2    C1 6919   2.010   3.613  16.210 -0.5737 -0.4783 -0.1231
  465MPD2    C2 6920   1.905   3.529  16.194  0.4573  0.1205 -0.4506
  465MPD2    C3 6921   1.859   3.504  16.068 -0.0694 -0.3850 -0.3070
  465MPD2    C4 6922   1.935   3.562  15.962  0.1270  0.0254  0.0590
  465MPD2    C5 6923   2.035   3.654  15.983  0.1069  0.4834  0.4903
  465MPD2     H 6924   1.858   3.483  16.279 -1.6072  1.0397 -1.0993
  465MPD2    H1 6925   1.907   3.536  15.861 -1.5289 -1.6154  0.9370
  465MPD2    H2 6926   2.152   3.753  16.119  1.6162 -1.1552  0.2170
  465MPD2    H3 6927   2.080   3.714  15.904  1.5373 -1.1733  0.0482
  465MPD2     N 6928   1.757   3.407  16.053 -1.1177  0.5669 -0.7084
  465MPD2    H5 6929   1.716   3.375  16.140 -1.4335  0.6171 -0.8380
  465MPD2    N1 6930   2.057   3.629  16.345  0.0438  0.0378  0.4091
  465MPD2    H7 6931   2.029   3.565  16.418  2.6174  0.1346  1.4918
  466TMC3    C1 6932   1.527   3.145  16.130 -0.0191 -0.0648  0.1015
  466TMC3    C2 6933   1.403   3.203  16.102 -0.3839  0.1539  0.0451
  466TMC3    C3 6934   1.388   3.268  15.987  0.0290 -0.6429  0.1679
  466TMC3    C4 6935   1.630   3.165  16.048  0.6104 -0.3311 -0.6745
  466TMC3    C5 6936   1.616   3.246  15.940 -0.3974 -0.1925 -0.2341
  466TMC3    C6 6937   1.494   3.289  15.902 -0.3668  0.8396  0.2236
  466TMC3     C 6938   1.549   3.109  16.268 -0.0353  0.0050  0.1144
  466TMC3     O 6939   1.662   3.146  16.301  0.2844 -0.6734 -0.7842
  466TMC3     H 6940   1.319   3.186  16.169 -0.0580  0.2029  0.4652
  466TMC3    H1 6941   1.729   3.125  16.071 -0.3054 -1.9925  0.3510
  466TMC3    H2 6942   1.496   3.359  15.819 -0.8191 -0.0655 -0.5580
  466TMC3    C7 6943   1.718   3.354  15.937 -1.1032 -0.3914  0.0237
  466TMC3    C8 6944   1.266   3.339  15.968 -0.1987 -0.5245 -0.6335
  466TMC3    O1 6945   1.729   3.401  15.822 -0.5831  0.4892  0.4332
  466TMC3    O2 6946   1.239   3.351  15.848 -0.7466  0.4450 -0.2460
  467TMC3    C1 6947   2.817   1.831  13.619 -0.1490 -0.4541 -0.2470
  467TMC3    C2 6948   2.772   1.905  13.510 -0.0296  0.1112  0.2183
  467TMC3    C3 6949   2.652   1.869  13.455 -0.1764  0.2540  0.4354
  467TMC3    C4 6950   2.752   1.734  13.678  0.6001  0.6392  0.0702
  467TMC3    C5 6951   2.632   1.705  13.616  0.5067  0.7379  0.3518
  467TMC3    C6 6952   2.587   1.766  13.502  0.3279  0.1551  0.3677
  467TMC3     C 6953   2.965   1.835  13.634 -0.4395  0.0735  0.0594
  467TMC3     O 6954   3.005   1.798  13.744  0.1774 -0.8407  0.5849
  467TMC3     H 6955   2.826   1.995  13.482  0.3751 -0.3116 -0.3472
  467TMC3    H1 6956   2.807   1.663  13.740 -1.1509 -1.2133 -0.5154
  467TMC3    H2 6957   2.489   1.745  13.460 -0.4736  2.7702  0.9378
  467TMC3    C7 6958   2.559   1.592  13.662  0.7376 -0.2126 -0.2275
  467TMC3    C8 6959   2.641   1.909  13.319 -0.1028 -0.5466 -0.4292
  467TMC3    O1 6960   2.635   1.507  13.702 -0.0954  0.3874 -0.3351
  467TMC3    O2 6961   2.613   2.029  13.295 -0.1362  0.0914 -0.6038
  468MPD2     C 6962   1.648   4.619   9.757 -0.3753  0.6037  0.1186
  468MPD2    C1 6963   1.728   4.638   9.865 -0.0374 -0.2753 -0.7666
  468MPD2    C2 6964   1.761   4.530   9.953  0.4139 -0.3204 -0.2269
  468MPD2    C3 6965   1.688   4.411   9.934 -0.9296  0.3774  0.2069
  468MPD2    C4 6966   1.607   4.397   9.825  0.6590  0.3523 -0.4135
  468MPD2    C5 6967   1.593   4.500   9.737  0.3877 -0.2168 -0.0259
  468MPD2     H 6968   1.819   4.546  10.043 -0.2304  2.1037 -0.2463
  468MPD2    H1 6969   1.551   4.306   9.807 -1.5843  1.7994 -0.8315
  468MPD2    H2 6970   1.619   4.692   9.682  0.8243  2.4437  1.4415
  468MPD2    H3 6971   1.530   4.480   9.651 -1.0846  0.0201  0.9913
  468MPD2     N 6972   1.693   4.302  10.029 -0.3087 -0.1098  0.3572
  468MPD2    H5 6973   1.635   4.219  10.017 -0.5597  0.0909  0.1790
  468MPD2    N1 6974   1.776   0.049   9.894  0.2276 -0.0273  0.6073
  468MPD2    H7 6975   1.720   0.113   9.838 -0.7228 -0.0370  1.5602
  469TMC3    C1 6976   1.850   0.238  10.012  0.6497 -0.8699  0.1230
  469TMC3    C2 6977   1.872   0.279  10.139  0.8314 -0.3489 -0.2765
  469TMC3    C3 6978   1.891   0.413  10.154 -0.7500 -0.4614 -0.2256
  469TMC3    C4 6979   1.837   0.320   9.905 -0.0889 -0.4946  0.8612
  469TMC3    C5 6980   1.865   0.453   9.931 -0.0817  0.5513  0.0825
  469TMC3    C6 6981   1.894   0.499  10.054  0.5665 -0.3607 -0.1523
  469TMC3     C 6982   1.858   0.095   9.991 -0.4288  0.2793  0.2401
  469TMC3     O 6983   1.944   0.038  10.062 -0.7940  0.0107  0.1497
  469TMC3     H 6984   1.877   0.204  10.217 -2.1757 -0.4813 -0.2207
  469TMC3    H1 6985   1.824   0.282   9.805 -1.2160  0.1241  0.7658
  469TMC3    H2 6986   1.919   0.601  10.081 -1.7304  0.4521 -1.0958
  469TMC3    C7 6987   1.838   0.553   9.827  0.6557 -0.1737 -0.6133
  469TMC3    C8 6988   1.884   0.472  10.285 -0.0138  0.2119  0.5554
  469TMC3    O1 6989   1.821   0.667   9.869  0.1190 -0.3325 -0.1191
  469TMC3    O2 6990   1.958   0.567  10.308  0.3982 -0.4589 -0.1062
  470TMC3    C1 6991   4.185   1.665   0.304 -0.1165 -0.3164 -1.1334
  470TMC3    C2 6992   4.053   1.683   0.319 -0.2780  0.3697 -0.1593
  470TMC3    C3 6993   3.986   1.579   0.386 -0.4628  0.1786  0.0478
  470TMC3    C4 6994   4.256   1.563   0.355  0.0135 -0.8470 -0.0176
  470TMC3    C5 6995   4.187   1.472   0.429  0.3687 -0.0727  0.2143
  470TMC3    C6 6996   4.052   1.472   0.444  0.0182 -0.2834  0.6721
  470TMC3     C 6997   4.258   1.729   0.203 -0.3644 -0.0426 -0.2342
  470TMC3     O 6998   4.311   1.654   0.124 -0.4872 -0.8107  0.1725
  470TMC3     H 6999   4.007   1.762   0.262 -0.8126 -1.0200 -1.6804
  470TMC3    H1 7000   4.361   1.561   0.329  0.0889  0.5353  0.1838
  470TMC3    H2 7001   4.000   1.406   0.512 -1.1290  0.3977  0.4597
  470TMC3    C7 7002   4.263   1.372   0.500 -0.0813  0.6148 -0.1297
  470TMC3    C8 7003   3.861   1.613   0.448  0.4142 -0.6078  0.3900
  470TMC3    O1 7004   4.207   1.267   0.531  0.6343  0.1315 -0.0279
  470TMC3    O2 7005   3.807   1.527   0.512  0.3599 -0.0833 -0.2678
  471MPD2     C 7006   3.436   1.825  16.302  0.3383 -0.0715  0.1503
  471MPD2    C1 7007   3.557   1.825  16.229  0.7265  0.3092 -0.3108
  471MPD2    C2 7008   3.673   1.829  16.295  0.2691  0.1993  0.3162
  471MPD2    C3 7009   3.682   1.836  16.430 -0.3318 -0.1804  0.1500
  471MPD2    C4 7010   3.565   1.839  16.502  0.6859 -0.0954  0.5331
  471MPD2    C5 7011   3.443   1.835  16.438 -0.4851  0.0148  0.3520
  471MPD2     H 7012   3.762   1.800  16.240  1.6531  0.8574  2.2051
  471MPD2    H1 7013   3.565   1.823  16.609  0.7957  0.8032  0.6637
  471MPD2    H2 7014   3.338   1.816  16.257  0.9588 -1.0982 -1.0043
  471MPD2    H3 7015   3.350   1.839  16.494  0.7366  0.4821  2.3504
  471MPD2     N 7016   3.802   1.832  16.510  0.2104  0.9568 -0.3488
  471MPD2    H5 7017   3.790   1.835  16.611  0.0873  2.0702 -0.4016
  471MPD2    N1 7018   3.559   1.823  16.090  0.0338 -0.1778 -0.1496
  471MPD2    H7 7019   3.649   1.843  16.047  0.6057 -2.5341 -0.0274
  472TMC3    C1 7020   3.485   1.787  15.873  0.1328  0.6853 -0.0666
  472TMC3    C2 7021   3.389   1.702  15.822  0.2782 -0.7754  0.3552
  472TMC3    C3 7022   3.431   1.597  15.758  0.0872  0.2103 -0.1496
  472TMC3    C4 7023   3.619   1.768  15.855 -0.2060  0.3354  0.9291
  472TMC3    C5 7024   3.656   1.652  15.794 -0.7233 -0.1817  0.7019
  472TMC3    C6 7025   3.560   1.560  15.756  0.0272  0.0295 -0.8505
  472TMC3     C 7026   3.446   1.821  16.012  0.0449 -0.1360  0.4459
  472TMC3     O 7027   3.327   1.802  16.043 -0.2275 -0.3311  0.4540
  472TMC3     H 7028   3.283   1.713  15.837  0.2695 -0.1287 -0.1689
  472TMC3    H1 7029   3.695   1.845  15.857 -0.6269  0.7595  0.4367
  472TMC3    H2 7030   3.593   1.462  15.724  0.6100  0.7850 -2.6088
  472TMC3    C7 7031   3.776   1.578  15.854  0.1937 -1.1044 -0.1116
  472TMC3    C8 7032   3.334   1.497  15.732 -0.0718  0.0901  0.2041
  472TMC3    O1 7033   3.769   1.457  15.866 -0.5077  0.6773  0.9458
  472TMC3    O2 7034   3.269   1.487  15.632 -0.0208 -0.2224  0.1586
  473MPD2     C 7035   4.080   4.012  13.954 -0.0463  0.4325  0.4042
  473MPD2    C1 7036   4.167   4.093  13.886 -0.2192  0.4378  0.2008
  473MPD2    C2 7037   4.235   4.193  13.959 -0.3864  0.2694 -0.2128
  473MPD2    C3 7038   4.208   4.204  14.097 -0.3232 -0.5480  0.1507
  473MPD2    C4 7039   4.107   4.132  14.154  0.2437 -0.8095 -0.0413
  473MPD2    C5 7040   4.043   4.037  14.086  0.1271  0.3056  0.1814
  473MPD2     H 7041   4.308   4.256  13.909  0.1675 -0.7562 -0.7161
  473MPD2    H1 7042   4.073   4.167  14.251  0.8643 -2.7946  0.8908
  473MPD2    H2 7043   4.016   3.941  13.904  0.8710 -1.0577  1.3580
  473MPD2    H3 7044   3.956   3.991  14.130  0.4836 -0.9995 -0.4586
  473MPD2     N 7045   4.281   4.294  14.183 -0.5186  0.4144  0.2253
  473MPD2    H5 7046   4.256   4.287  14.281  0.2727  0.6681  0.4401
  473MPD2    N1 7047   4.190   4.086  13.750 -0.3715 -0.4406 -0.0291
  473MPD2    H7 7048   4.250   4.153  13.703 -2.2362 -0.3052 -2.2233
  474TMC3    C1 7049   4.453   4.409  14.287 -0.3481  0.3076  0.2157
  474TMC3    C2 7050   4.359   4.451  14.371 -0.2880 -0.2974 -0.1409
  474TMC3    C3 7051   4.401   4.509  14.485 -0.2061  0.4279 -0.5675
  474TMC3    C4 7052   4.584   4.411  14.315 -0.3178  0.1752  0.2659
  474TMC3    C5 7053   4.622   4.468  14.434  0.2730 -0.6508 -0.9800
  474TMC3    C6 7054   4.530   4.519  14.528 -0.6081  0.5194 -0.5659
  474TMC3     C 7055   4.410   4.353  14.163 -0.6940  0.3665 -0.0124
  474TMC3     O 7056   4.489   4.340  14.065 -0.0746 -0.1385 -0.1616
  474TMC3     H 7057   4.260   4.470  14.332  0.4360  0.1550 -1.7507
  474TMC3    H1 7058   4.660   4.377  14.246 -2.0435 -0.6772 -1.2345
  474TMC3    H2 7059   4.564   4.572  14.616 -0.0848  0.7495 -0.8992
  474TMC3    C7 7060   0.037   4.468  14.473  0.6785  0.5815 -0.1186
  474TMC3    C8 7061   4.305   4.595  14.544 -0.7029  0.5498 -0.2264
  474TMC3    O1 7062   0.128   4.454  14.391  0.0034 -0.3045 -0.7399
  474TMC3    O2 7063   4.187   4.560  14.557  0.7187 -0.3360  0.5979
  475MPD2     C 7064   2.480   1.995  10.498  0.3474 -0.2625 -0.0033
  475MPD2    C1 7065   2.501   2.086  10.395 -0.2359 -0.1147  0.2333
  475MPD2    C2 7066   2.425   2.204  10.401 -0.8161  0.1203 -0.0048
  475MPD2    C3 7067   2.371   2.236  10.524  0.4026 -0.2202  0.0076
  475MPD2    C4 7068   2.342   2.142  10.616  0.3449  0.3103 -0.9789
  475MPD2    C5 7069   2.397   2.019  10.601 -0.3081 -0.3108 -0.2568
  475MPD2     H 7070   2.435   2.276  10.320  0.1100 -0.4186 -0.3729
  475MPD2    H1 7071   2.292   2.152  10.712  3.0484 -0.0488  0.4663
  475MPD2    H2 7072   2.544   1.907  10.496  0.9829  0.2335 -1.5338
  475MPD2    H3 7073   2.377   1.951  10.684 -1.4991 -1.8228 -1.7823
  475MPD2     N 7074   2.327   2.370  10.538 -0.5934  0.0750 -0.4050
  475MPD2    H5 7075   2.327   2.430  10.456 -0.7536 -0.9801 -1.1732
  475MPD2    N1 7076   2.585   2.047  10.289  0.2498 -0.5107 -0.2627
  475MPD2    H7 7077   2.615   1.950  10.280 -4.4720 -1.8949 -1.6363
  476TMC3    C1 7078   2.639   2.265  10.192  0.6019  0.0564 -0.9557
  476TMC3    C2 7079   2.583   2.347  10.097  0.0344 -0.9707 -0.2017
  476TMC3    C3 7080   2.580   2.485  10.122  0.1263 -0.2699  0.3695
  476TMC3    C4 7081   2.681   2.316  10.311 -0.0929 -0.0603  0.5418
  476TMC3    C5 7082   2.688   2.452  10.329 -0.3157  0.2577 -0.0765
  476TMC3    C6 7083   2.630   2.539  10.239 -0.0601 -0.1013 -0.4163
  476TMC3     C 7084   2.619   2.119  10.175 -0.4908  0.1125 -0.7765
  476TMC3     O 7085   2.660   2.077  10.070 -0.0949 -0.1245  0.3886
  476TMC3     H 7086   2.533   2.297  10.015  1.5522 -2.0447 -0.4749
  476TMC3    H1 7087   2.728   2.255  10.387 -1.4121 -1.2781  0.3813
  476TMC3    H2 7088   2.616   2.645  10.256  0.1225  0.0359 -1.1086
  476TMC3    C7 7089   2.689   2.485  10.467  0.9159 -0.2683 -0.1138
  476TMC3    C8 7090   2.477   2.560  10.052 -0.6346 -0.2080  0.1967
  476TMC3    O1 7091   2.668   2.401  10.548 -0.3901 -0.9875  0.0103
  476TMC3    O2 7092   2.410   2.629  10.122  0.7546 -0.4837  0.1068
  477MPD2     C 7093   0.405   4.105  11.872 -0.0241 -0.5760 -0.5917
  477MPD2    C1 7094   0.389   4.024  11.760 -0.0145 -0.2407 -0.4443
  477MPD2    C2 7095   0.400   3.888  11.769  0.0133  0.0208  0.0085
  477MPD2    C3 7096   0.415   3.825  11.890  0.4094 -0.2472 -0.9782
  477MPD2    C4 7097   0.407   3.900  12.007  0.5371  0.5945  0.2327
  477MPD2    C5 7098   0.409   4.037  11.993 -0.3779 -0.4045 -0.6797
  477MPD2     H 7099   0.394   3.826  11.679  1.5348  1.6335 -1.1987
  477MPD2    H1 7100   0.428   3.857  12.105  1.5367 -0.1718 -0.3164
  477MPD2    H2 7101   0.405   4.214  11.871  2.2655 -0.5700  0.6085
  477MPD2    H3 7102   0.419   4.099  12.082 -4.1911  2.4485 -2.2396
  477MPD2     N 7103   0.428   3.688  11.905 -0.3589  0.1073 -0.4068
  477MPD2    H5 7104   0.461   3.627  11.831  1.3382  0.1533  0.3141
  477MPD2    N1 7105   0.360   4.093  11.641  0.0261  0.6569 -0.4553
  477MPD2    H7 7106   0.368   4.194  11.646 -0.1929  0.6135  0.7042
  478TMC3    C1 7107   0.254   4.126  11.442 -0.2381 -0.2645 -0.5063
  478TMC3    C2 7108   0.180   4.216  11.504 -0.9185 -0.3084 -0.0685
  478TMC3    C3 7109   0.077   4.281  11.437  0.1596  0.5888  0.5058
  478TMC3    C4 7110   0.243   4.109  11.305  0.4835 -0.0565 -0.2845
  478TMC3    C5 7111   0.145   4.183  11.240 -0.0666  0.3522  0.2107
  478TMC3    C6 7112   0.060   4.268  11.305 -0.3905 -0.7219  0.1515
  478TMC3     C 7113   0.315   4.029  11.524  0.8112  0.4042  0.2715
  478TMC3     O 7114   0.316   3.919  11.476  0.6694 -0.0161 -0.2154
  478TMC3     H 7115   0.179   4.215  11.612  0.3731 -2.1980 -0.0842
  478TMC3    H1 7116   0.291   4.029  11.249  0.3281  0.1018 -0.6491
  478TMC3    H2 7117   4.711   4.332  11.255  0.8269  1.0289  0.6113
  478TMC3    C7 7118   0.167   4.195  11.094 -0.5843 -0.6804 -0.5210
  478TMC3    C8 7119   4.709   4.360  11.511 -0.2529  0.2669 -0.7398
  478TMC3    O1 7120   0.277   4.149  11.055  0.4535  0.1500  0.0330
  478TMC3    O2 7121   4.684   4.321  11.621  0.0503  0.5228 -0.6839
  479MPD2     C 7122   4.051   1.372  14.671 -0.7058 -0.5516  0.4363
  479MPD2    C1 7123   3.990   1.277  14.764  0.0022 -0.4691  0.2940
  479MPD2    C2 7124   4.042   1.267  14.893 -0.7580  0.5943 -0.6747
  479MPD2    C3 7125   4.151   1.360  14.926  0.3102  0.4712  0.3161
  479MPD2    C4 7126   4.218   1.433  14.827 -0.3741  0.2728 -0.0244
  479MPD2    C5 7127   4.174   1.433  14.697 -0.3727  0.1750 -0.0785
  479MPD2     H 7128   3.991   1.201  14.962  0.4824  0.7273  0.3742
  479MPD2    H1 7129   4.300   1.499  14.855  1.5865 -2.6844  1.1143
  479MPD2    H2 7130   3.995   1.389  14.580  0.4651 -0.5487 -0.2837
  479MPD2    H3 7131   4.227   1.497  14.627  0.8122 -1.8822 -1.0412
  479MPD2     N 7132   4.182   1.378  15.067  0.5804  0.1801  0.9126
  479MPD2    H5 7133   4.274   1.418  15.082  0.2508  1.3117 -0.1272
  479MPD2    N1 7134   3.877   1.207  14.714  0.2814 -0.2488 -0.7100
  479MPD2    H7 7135   3.844   1.230  14.621  1.3270 -0.9324 -1.2504
  480TMC3    C1 7136   3.759   1.295  15.281  0.4531 -0.5012  0.0827
  480TMC3    C2 7137   3.696   1.382  15.203  0.0641 -0.2923 -0.8064
  480TMC3    C3 7138   3.764   1.443  15.109  0.0491  0.0260 -0.6894
  480TMC3    C4 7139   3.890   1.274  15.271 -0.2410 -0.0179 -0.0676
  480TMC3    C5 7140   3.962   1.345  15.181  0.2079 -0.5963  0.1670
  480TMC3    C6 7141   3.897   1.430  15.095  0.2279  0.3200  0.1858
  480TMC3     C 7142   3.687   1.258  15.395  0.2127  0.8668  0.3014
  480TMC3     O 7143   3.590   1.323  15.425  0.1561  0.3266 -0.5362
  480TMC3     H 7144   3.589   1.396  15.209 -0.2637 -0.6717 -5.8836
  480TMC3    H1 7145   3.935   1.205  15.341 -1.5940 -0.4339  0.3872
  480TMC3    H2 7146   3.960   1.493  15.035  0.6169 -1.4378 -1.2549
  480TMC3    C7 7147   4.109   1.329  15.174 -0.4948 -0.5553  0.0943
  480TMC3    C8 7148   3.691   1.515  15.007  0.3478  0.3101 -0.1656
  480TMC3    O1 7149   4.160   1.300  15.284 -0.1468 -0.4630  0.5857
  480TMC3    O2 7150   3.572   1.541  15.024 -0.2139 -0.3962 -0.2162
  481MPD2     C 7151   0.930   0.573  13.953  0.1858 -0.7116  0.4090
  481MPD2    C1 7152   0.881   0.701  13.971  1.0907  0.0400  0.2228
  481MPD2    C2 7153   0.891   0.753  14.104  0.2499 -0.1176 -0.3337
  481MPD2    C3 7154   0.924   0.672  14.204  0.5322  1.8253  0.1003
  481MPD2    C4 7155   0.969   0.545  14.183 -0.3881  0.7090 -1.0658
  481MPD2    C5 7156   0.971   0.496  14.054 -0.1534 -0.0432  0.7349
  481MPD2     H 7157   0.865   0.855  14.129  1.0219 -0.4855  1.9366
  481MPD2    H1 7158   1.022   0.490  14.260  0.8754  0.3651 -2.2057
  481MPD2    H2 7159   0.934   0.522  13.857  0.5159 -0.1167  0.1093
  481MPD2    H3 7160   1.004   0.395  14.031  0.5211  0.3167  0.1429
  481MPD2     N 7161   0.911   0.719  14.337  1.1160 -0.0963 -0.3958
  481MPD2    H5 7162   0.891   0.815  14.360  2.2446 -0.3175  1.5060
  481MPD2    N1 7163   0.817   0.763  13.868  0.1854 -0.0289  0.1410
  481MPD2    H7 7164   0.809   0.708  13.782  2.3526 -0.2883  0.1054
  482TMC3    C1 7165   0.670   0.915  13.780 -0.3399  0.2232 -0.5849
  482TMC3    C2 7166   0.594   0.802  13.761  0.7594  0.4639 -1.0234
  482TMC3    C3 7167   0.502   0.809  13.657 -0.1325 -0.6736 -0.0933
  482TMC3    C4 7168   0.672   1.018  13.690 -0.3496  0.0054  1.1537
  482TMC3    C5 7169   0.588   1.011  13.586 -0.3087  0.2270 -0.2799
  482TMC3    C6 7170   0.507   0.902  13.565  0.1765 -0.3169  0.1989
  482TMC3     C 7171   0.781   0.893  13.864 -0.4903 -0.2011 -0.0536
  482TMC3     O 7172   0.805   0.985  13.936  0.2532  0.1145 -0.3170
  482TMC3     H 7173   0.591   0.718  13.830  1.1993  1.0770 -0.2406
  482TMC3    H1 7174   0.742   1.099  13.706 -0.5770  0.3599  0.3411
  482TMC3    H2 7175   0.445   0.910  13.477 -1.6395  1.2873  1.5966
  482TMC3    C7 7176   0.649   1.084  13.469 -0.6003 -0.1442  1.0180
  482TMC3    C8 7177   0.419   0.704  13.635 -0.0780  0.2316  0.2221
  482TMC3    O1 7178   0.737   1.169  13.488  0.2185 -0.7369  0.2130
  482TMC3    O2 7179   0.443   0.595  13.686 -0.0053  0.9053 -0.7421
  483TMC3    C1 7180   2.482   0.225  17.146  0.0655  0.6721  0.2896
  483TMC3    C2 7181   2.593   0.300  17.154 -0.4262 -0.0900  0.3696
  483TMC3    C3 7182   2.710   0.254  17.085 -0.1409 -0.0989  0.3834
  483TMC3    C4 7183   2.476   0.106  17.087  0.2017  0.0799 -0.2332
  483TMC3    C5 7184   2.585   0.058  17.021  0.1497 -0.6177 -0.3203
  483TMC3    C6 7185   2.707   0.128  17.020 -0.3444  0.2259 -0.1816
  483TMC3     C 7186   2.388   0.240  17.260 -0.5284  0.3988 -0.4542
  483TMC3     O 7187   2.374   0.352  17.306 -0.4663 -0.3546 -0.2749
  483TMC3     H 7188   2.586   0.398  17.201  0.5992 -0.2961  0.9417
  483TMC3    H1 7189   2.387   0.045  17.077  0.1107  0.2132 -0.2247
  483TMC3    H2 7190   2.793   0.081  16.976  0.0273  1.7437 -1.0987
  483TMC3    C7 7191   2.601   4.644  17.066  0.3505 -0.3412 -0.3440
  483TMC3    C8 7192   2.845   0.277  17.142  0.0108  0.0142 -0.1842
  483TMC3    O1 7193   2.523   4.602  17.150 -0.4059 -0.1722 -0.0192
  483TMC3    O2 7194   2.949   0.230  17.084  0.0152  0.2770  0.2194
  484MPD2     C 7195   1.509   2.744  12.086  0.2204  0.4359 -0.1029
  484MPD2    C1 7196   1.540   2.645  12.177  0.0396 -0.0930  0.2820
  484MPD2    C2 7197   1.672   2.626  12.201  1.1756  0.5164 -0.0808
  484MPD2    C3 7198   1.769   2.716  12.152 -0.3614 -0.2184  0.1448
  484MPD2    C4 7199   1.737   2.833  12.084 -0.3115 -0.3153 -0.1655
  484MPD2    C5 7200   1.599   2.840  12.045  0.5178  0.0911 -0.3407
  484MPD2     H 7201   1.701   2.540  12.260 -0.7597 -0.3253 -0.3718
  484MPD2    H1 7202   1.802   2.913  12.049 -0.9226  0.0750 -0.4212
  484MPD2    H2 7203   1.405   2.755  12.059 -0.0777 -0.3308  0.7420
  484MPD2    H3 7204   1.555   2.925  11.993  1.1614  0.1795 -0.7458
  484MPD2     N 7205   1.906   2.697  12.175 -0.2840  0.2356  0.7549
  484MPD2    H5 7206   1.965   2.775  12.150  0.2911 -0.0673  1.1729
  484MPD2    N1 7207   1.439   2.560  12.210  0.4758  0.3657  0.1263
  484MPD2    H7 7208   1.342   2.565  12.181  1.2705 -1.5876 -2.8290
  485TMC3    C1 7209   2.107   2.574  12.208  0.3200  0.4307 -0.0881
  485TMC3    C2 7210   2.167   2.478  12.282 -0.8848 -0.2452 -1.0267
  485TMC3    C3 7211   2.300   2.444  12.265 -0.5656 -0.3280 -0.1629
  485TMC3    C4 7212   2.166   2.626  12.103  0.8015 -0.2371 -0.2816
  485TMC3    C5 7213   2.290   2.581  12.071 -0.3350 -0.0344  0.5948
  485TMC3    C6 7214   2.360   2.499  12.158 -0.0433 -0.4858  1.0562
  485TMC3     C 7215   1.964   2.576  12.214  0.1399 -0.5284 -0.3141
  485TMC3     O 7216   1.915   2.474  12.258  0.1981 -0.0675  0.3221
  485TMC3     H 7217   2.106   2.431  12.358  2.9628 -3.2333  0.1816
  485TMC3    H1 7218   2.111   2.681  12.028  1.4708 -0.8744 -1.2545
  485TMC3    H2 7219   2.461   2.468  12.131  1.4244  2.9540  2.5999
  485TMC3    C7 7220   2.303   2.543  11.928  0.2653 -0.5196 -0.3535
  485TMC3    C8 7221   2.316   2.303  12.249  0.7419  0.6498 -0.0829
  485TMC3    O1 7222   2.296   2.630  11.838  0.1943  0.1854  0.0204
  485TMC3    O2 7223   2.371   2.272  12.143 -0.3245 -0.2834  0.2626
  486MPD2     C 7224   3.522   1.523  12.924  0.7903  0.3134  0.8019
  486MPD2    C1 7225   3.518   1.488  12.787 -1.0561 -0.3630  0.5438
  486MPD2    C2 7226   3.478   1.585  12.696 -0.3416  0.9733  0.3470
  486MPD2    C3 7227   3.452   1.708  12.740 -1.0307 -0.4675 -0.0822
  486MPD2    C4 7228   3.438   1.742  12.872 -0.1944  0.1742 -0.2766
  486MPD2    C5 7229   3.475   1.646  12.961  0.1758 -0.3269 -0.5195
  486MPD2     H 7230   3.454   1.557  12.594  0.6247  3.4906 -0.5569
  486MPD2    H1 7231   3.408   1.840  12.906  0.2066 -0.2572  1.3145
  486MPD2    H2 7232   3.547   1.455  13.005 -0.5260 -0.8425  0.2452
  486MPD2    H3 7233   3.465   1.669  13.066  1.0571  1.5584 -0.8449
  486MPD2     N 7234   3.399   1.789  12.642 -0.5353  0.7111  0.3468
  486MPD2    H5 7235   3.398   1.751  12.548 -1.9176 -0.9337  1.0136
  486MPD2    N1 7236   3.546   1.355  12.763 -0.1061 -0.0225  0.1556
  486MPD2    H7 7237   3.577   1.303  12.845  0.8010  0.7415  0.2902
  487TMC3    C1 7238   3.590   1.159  12.632 -0.0590  0.3368  0.2736
  487TMC3    C2 7239   3.535   1.073  12.539  0.5700  0.5569 -0.3362
  487TMC3    C3 7240   3.540   0.939  12.547  0.1680  0.3405 -0.3849
  487TMC3    C4 7241   3.661   1.095  12.734 -0.1562  0.4873 -0.1421
  487TMC3    C5 7242   3.684   0.959  12.733 -0.1677  0.1879  0.7175
  487TMC3    C6 7243   3.626   0.880  12.634  0.0339  0.2499 -0.1822
  487TMC3     C 7244   3.539   1.292  12.639  0.2610  0.5379 -0.2876
  487TMC3     O 7245   3.478   1.333  12.540 -0.3036  0.3222 -0.2635
  487TMC3     H 7246   3.461   1.119  12.475 -0.6737 -0.9902 -0.0163
  487TMC3    H1 7247   3.698   1.154  12.816 -0.1257 -0.4182  0.4948
  487TMC3    H2 7248   3.627   0.771  12.642 -0.3772  0.4392  2.5884
  487TMC3    C7 7249   3.694   0.896  12.863 -0.6255 -0.4582  0.1461
  487TMC3    C8 7250   3.408   0.877  12.550 -0.4893  0.1482  0.0385
  487TMC3    O1 7251   3.749   0.954  12.955  0.4610  0.2842 -0.1196
  487TMC3    O2 7252   3.311   0.944  12.579 -0.1605 -0.5307  0.2841
  488MPD2     C 7253   3.751   3.031  16.564 -0.1134 -0.0124 -0.1374
  488MPD2    C1 7254   3.726   3.169  16.577 -0.1371 -0.3916 -0.5955
  488MPD2    C2 7255   3.678   3.214  16.695  0.9220  0.3349 -0.1339
  488MPD2    C3 7256   3.644   3.125  16.794 -0.3555  0.1372 -0.3323
  488MPD2    C4 7257   3.647   2.990  16.777 -0.2945 -0.3455 -0.1637
  488MPD2    C5 7258   3.703   2.944  16.658 -0.6265 -0.1060  0.0795
  488MPD2     H 7259   3.673   3.320  16.715 -0.6727  0.4871 -1.3934
  488MPD2    H1 7260   3.631   2.919  16.857  1.7763 -1.3521 -0.6217
  488MPD2    H2 7261   3.795   2.992  16.473  2.4061  0.7701  0.7290
  488MPD2    H3 7262   3.710   2.839  16.634  0.7623 -0.0850  0.3673
  488MPD2     N 7263   3.606   3.178  16.924  0.2174 -0.0037  0.1959
  488MPD2    H5 7264   3.592   3.278  16.939  1.0206 -0.0042  0.8882
  488MPD2    N1 7265   3.760   3.274  16.485 -0.4036  0.2123  0.5858
  488MPD2    H7 7266   3.752   3.370  16.516  1.5736  1.0271 -1.4878
  489TMC3    C1 7267   3.567   3.180  17.150 -0.3163  0.4092 -0.3255
  489TMC3    C2 7268   3.583   3.313  17.138  1.1103 -0.5042  0.8152
  489TMC3    C3 7269   3.504   3.404  17.193 -0.6672  0.4404  0.0887
  489TMC3    C4 7270   3.477   3.139  17.240  0.2732 -0.3167  0.4264
  489TMC3    C5 7271   3.397   3.226  17.308  0.3587 -0.6571  0.1823
  489TMC3    C6 7272   3.406   3.359  17.284 -0.7514 -0.4948 -0.5559
  489TMC3     C 7273   3.573   3.103  17.030 -0.0825 -0.5700 -0.4959
  489TMC3     O 7274   3.530   2.986  17.037  0.2751  0.4622  0.1597
  489TMC3     H 7275   3.652   3.348  17.062  1.4696  0.9773  1.8390
  489TMC3    H1 7276   3.448   3.035  17.241  2.5553 -0.9559  1.5436
  489TMC3    H2 7277   3.355   3.436  17.342 -1.9787  0.6072 -3.1024
  489TMC3    C7 7278   3.300   3.186  17.409 -0.4699  0.1842 -0.1447
  489TMC3    C8 7279   3.481   3.529  17.117  0.4404  0.0870  0.0705
  489TMC3    O1 7280   3.217   3.272  17.434  0.6543 -0.3775 -0.0113
  489TMC3    O2 7281   3.487   3.519  16.998 -0.0232 -0.2018  0.5669
  490MPD2     C 7282   4.590   2.477  17.368  0.2480  0.5300 -0.1983
  490MPD2    C1 7283   4.501   2.388  17.436 -0.0608  0.2533 -0.1185
  490MPD2    C2 7284   4.436   2.426  17.558 -0.0389 -0.2892 -0.0415
  490MPD2    C3 7285   4.473   2.543  17.626 -0.2130 -0.0007 -0.4430
  490MPD2    C4 7286   4.568   2.626  17.563  0.9446 -0.2150 -0.2954
  490MPD2    C5 7287   4.620   2.594  17.437 -0.1651 -0.1966  0.6747
  490MPD2     H 7288   4.367   2.360  17.609  1.2784 -0.8641  1.0042
  490MPD2    H1 7289   4.585   2.723  17.609  1.0782 -0.2935 -0.1817
  490MPD2    H2 7290   4.630   2.478  17.267  1.9072  1.4606  0.4745
  490MPD2    H3 7291   4.696   2.656  17.391  0.7815 -0.5421  1.7892
  490MPD2     N 7292   4.424   2.592   0.051 -0.0102 -0.1498  0.1761
  490MPD2    H5 7293   4.471   2.669   0.098 -1.8736  1.0788  0.0510
  490MPD2    N1 7294   4.470   2.258  17.386  0.4333 -0.6905 -0.9821
  490MPD2    H7 7295   4.394   2.205  17.427 -1.2426  1.8178 -0.8196
  491TMC3    C1 7296   4.468   2.081  17.234 -0.1886 -0.1500  0.1451
  491TMC3    C2 7297   4.347   2.042  17.290  0.3394  0.7022 -0.5282
  491TMC3    C3 7298   4.262   1.978  17.208  0.1028  0.4294  0.6363
  491TMC3    C4 7299   4.485   2.067  17.101 -0.5876 -0.0807  0.6050
  491TMC3    C5 7300   4.388   2.010  17.015  0.2615  0.0861 -0.4340
  491TMC3    C6 7301   4.274   1.969  17.069 -0.2977 -0.6901 -0.5711
  491TMC3     C 7302   4.542   2.191  17.292  0.2903 -0.4625  0.5059
  491TMC3     O 7303   4.648   2.232  17.248 -0.4298  0.2028  0.0256
  491TMC3     H 7304   4.332   2.047  17.397 -2.1885  1.6336 -0.9281
  491TMC3    H1 7305   4.579   2.095  17.055  0.4959  0.1139  2.9309
  491TMC3    H2 7306   4.194   1.925  17.011  0.9023  0.0481 -2.7718
  491TMC3    C7 7307   4.404   2.026  16.875 -0.0861  0.0348  0.2742
  491TMC3    C8 7308   4.134   1.938  17.268 -0.2852 -0.3225  0.1188
  491TMC3    O1 7309   4.505   2.079  16.841 -0.0629  0.4690  0.2492
  491TMC3    O2 7310   4.031   1.986  17.222 -0.3265 -0.2369  0.2872
  492MPD2     C 7311   0.024   2.051  10.760  0.1593 -0.4908  0.3577
  492MPD2    C1 7312   4.630   2.042  10.692  0.4859  0.2996 -0.0569
  492MPD2    C2 7313   4.510   2.026  10.756 -0.0150  0.3463 -0.4271
  492MPD2    C3 7314   4.508   2.019  10.896 -0.3678  0.3654  0.0654
  492MPD2    C4 7315   4.626   2.025  10.963  0.3093  0.0819 -0.0056
  492MPD2    C5 7316   0.023   2.049  10.896  0.8928 -0.3191 -0.1911
  492MPD2     H 7317   4.418   2.031  10.699 -0.0995  0.3142 -0.2937
  492MPD2    H1 7318   4.630   2.020  11.071 -0.4708  2.8672  0.1531
  492MPD2    H2 7319   0.115   2.071  10.706 -0.4477  0.6299 -0.2513
  492MPD2    H3 7320   0.107   2.062  10.962 -0.3452 -0.5320  1.4260
  492MPD2     N 7321   4.384   2.019  10.968 -0.8505 -0.2715  0.2812
  492MPD2    H5 7322   4.400   2.026  11.068  0.1031 -0.6733  0.1574
  492MPD2    N1 7323   4.637   2.062  10.554  0.1298  0.6029  0.4062
  492MPD2    H7 7324   0.006   2.069  10.513 -0.6768  0.0158 -1.4942
  493TMC3    C1 7325   4.585   2.160  10.348 -0.0571 -0.3958 -0.0505
  493TMC3    C2 7326   4.633   2.280  10.384  0.1251  0.4240  0.0463
  493TMC3    C3 7327   4.634   2.383  10.297  0.5272 -0.5349  0.5345
  493TMC3    C4 7328   4.514   2.145  10.227  0.2250  0.2809 -0.5939
  493TMC3    C5 7329   4.513   2.248  10.142 -0.0277  0.9561  0.4692
  493TMC3    C6 7330   4.576   2.373  10.175 -0.3418  0.0339 -0.7762
  493TMC3     C 7331   4.542   2.080  10.464  0.8855  0.5340 -0.0924
  493TMC3     O 7332   4.425   2.064  10.479  0.3144  0.6507  0.0773
  493TMC3     H 7333   4.681   2.285  10.481 -2.7125 -1.1439  1.5347
  493TMC3    H1 7334   4.454   2.057  10.209 -3.2191  2.0404  2.2362
  493TMC3    H2 7335   4.559   2.464  10.119 -1.8932  0.6481  0.6902
  493TMC3    C7 7336   4.438   2.240  10.022 -0.6749 -0.7759 -0.4530
  493TMC3    C8 7337   4.641   2.514  10.362  0.6331  0.1455 -0.1913
  493TMC3    O1 7338   4.335   2.168  10.023  0.3132 -0.1961 -0.8486
  493TMC3    O2 7339   4.620   2.519  10.478 -0.3023  0.1748 -0.2581
  494TMC3    C1 7340   4.606   4.308   0.224 -0.0486 -0.0241 -0.3762
  494TMC3    C2 7341   4.586   4.189   0.285  0.0161 -0.5315  0.0981
  494TMC3    C3 7342   4.681   4.090   0.275 -0.3054  0.0141 -0.1785
  494TMC3    C4 7343   4.721   4.329   0.162  0.2378 -0.3522 -0.5648
  494TMC3    C5 7344   0.089   4.234   0.138 -0.6586  0.3661  0.5026
  494TMC3    C6 7345   0.076   4.108   0.194 -0.3505 -0.2336 -0.0599
  494TMC3     C 7346   4.518   4.423   0.251 -0.9438  0.6843  0.1810
  494TMC3     O 7347   4.560   4.537   0.261 -0.0994  0.5640 -0.0580
  494TMC3     H 7348   4.490   4.162   0.329  0.2501 -1.8653 -0.2088
  494TMC3    H1 7349   0.004   4.432   0.127 -0.5450  0.5152  1.8137
  494TMC3    H2 7350   0.155   4.036   0.175 -0.0735 -0.0921  0.5752
  494TMC3    C7 7351   0.198   4.263   0.046  0.3028  0.1598 -0.4668
  494TMC3    C8 7352   4.639   3.967   0.350 -0.9073 -0.2152  0.1154
  494TMC3    O1 7353   0.234   4.171  17.668 -0.0850 -0.7537 -0.4126
  494TMC3    O2 7354   4.551   3.981   0.434  0.0263 -0.4777  0.0218
  495TMC3    C1 7355   4.072   1.467  14.223  0.2932 -0.5579  0.7788
  495TMC3    C2 7356   3.987   1.501  14.124  0.1983  0.2716  0.7238
  495TMC3    C3 7357   3.931   1.626  14.121  0.4734  0.4931  0.1652
  495TMC3    C4 7358   4.096   1.553  14.323 -0.4332 -0.1046 -0.3226
  495TMC3    C5 7359   4.023   1.668  14.321 -0.1243 -0.0931 -0.3400
  495TMC3    C6 7360   3.945   1.709  14.224 -0.0253 -0.4021 -0.2848
  495TMC3     C 7361   4.084   1.328  14.256  0.6890 -0.7836 -0.1221
  495TMC3     O 7362   4.021   1.251  14.188  0.1470  0.8404 -0.2295
  495TMC3     H 7363   3.962   1.430  14.047 -0.2973  0.1921  0.9519
  495TMC3    H1 7364   4.157   1.532  14.410 -0.1956 -0.5297 -0.5948
  495TMC3    H2 7365   3.903   1.809  14.219 -0.1473 -0.4045  0.6752
  495TMC3    C7 7366   3.979   1.702  14.458 -0.3882 -0.2383 -0.0873
  495TMC3    C8 7367   3.801   1.638  14.065 -0.0205 -0.0504  1.1648
  495TMC3    O1 7368   4.060   1.685  14.548 -0.4999 -0.2671 -0.0531
  495TMC3    O2 7369   3.723   1.701  14.134 -0.4116 -0.5319 -0.6019
  496MPD2     C 7370   1.303   1.707  15.290  0.7809 -0.0824 -0.0691
  496MPD2    C1 7371   1.331   1.576  15.252  0.1330  0.3933  0.0964
  496MPD2    C2 7372   1.224   1.494  15.220 -0.1303 -0.4603 -0.2789
  496MPD2    C3 7373   1.091   1.542  15.229 -0.4821 -0.0878  0.3376
  496MPD2    C4 7374   1.065   1.673  15.259 -0.2318  0.1002 -0.7022
  496MPD2    C5 7375   1.173   1.750  15.293 -0.3153 -0.7443  0.0565
  496MPD2     H 7376   1.242   1.389  15.203  0.1084  0.0279 -2.9762
  496MPD2    H1 7377   0.965   1.714  15.271 -0.0102  0.5457 -0.3974
  496MPD2    H2 7378   1.393   1.762  15.317  0.2658  0.6937  0.0807
  496MPD2    H3 7379   1.148   1.849  15.329  0.1531 -0.4701 -0.3672
  496MPD2     N 7380   0.976   1.460  15.215  0.2652 -0.2588 -0.0779
  496MPD2    H5 7381   0.883   1.500  15.209 -0.1611 -1.2116  0.0693
  496MPD2    N1 7382   1.465   1.535  15.265 -0.1325 -0.4306  0.5896
  496MPD2    H7 7383   1.533   1.610  15.264 -1.7798  1.0760  0.5058
  497TMC3    C1 7384   0.838   1.263  15.219  0.7125 -0.2535  0.1962
  497TMC3    C2 7385   0.741   1.358  15.176  0.3328  0.0741  0.1641
  497TMC3    C3 7386   0.626   1.364  15.243 -0.5471 -0.7499 -0.7888
  497TMC3    C4 7387   0.810   1.184  15.328 -0.7251 -0.8028 -0.2387
  497TMC3    C5 7388   0.691   1.194  15.391 -0.1850  0.2013  0.0503
  497TMC3    C6 7389   0.595   1.283  15.347  0.1309 -0.5600  0.5193
  497TMC3     C 7390   0.971   1.323  15.231  0.4296 -0.4777  0.1248
  497TMC3     O 7391   1.062   1.248  15.243 -0.3970 -0.2220  0.0460
  497TMC3     H 7392   0.748   1.415  15.085  0.4434  1.8311  1.2706
  497TMC3    H1 7393   0.882   1.107  15.355 -1.7561 -1.6843 -0.0250
  497TMC3    H2 7394   0.504   1.302  15.402 -0.4465 -2.1458  0.1065
  497TMC3    C7 7395   0.689   1.174  15.537  0.1701  0.4958 -0.1613
  497TMC3    C8 7396   0.540   1.482  15.231  0.6814  0.1403 -0.2609
  497TMC3    O1 7397   0.589   1.214  15.601  0.1343  0.0496 -0.1018
  497TMC3    O2 7398   0.513   1.523  15.120  0.2663 -0.2833  0.2498
  498MPD2     C 7399   1.526   2.441   9.339 -0.2657  0.5028 -0.2193
  498MPD2    C1 7400   1.573   2.459   9.465  0.0496 -0.6411 -0.0124
  498MPD2    C2 7401   1.487   2.418   9.569 -0.2074 -0.8117 -0.9614
  498MPD2    C3 7402   1.375   2.350   9.540 -0.0292 -0.1819  0.1017
  498MPD2    C4 7403   1.327   2.335   9.413  0.4692  0.4381  0.0913
  498MPD2    C5 7404   1.407   2.377   9.309 -0.4210 -0.0684  0.3353
  498MPD2     H 7405   1.506   2.433   9.674 -0.4549  2.0110 -1.3263
  498MPD2    H1 7406   1.234   2.283   9.394  0.2733  0.9539 -0.3507
  498MPD2    H2 7407   1.583   2.472   9.252  0.2775  1.2593  0.4093
  498MPD2    H3 7408   1.400   2.361   9.202 -0.0605  0.6025  0.2123
  498MPD2     N 7409   1.290   2.319   9.653 -0.2338 -0.8420 -0.1466
  498MPD2    H5 7410   1.330   2.342   9.743 -1.6508 -1.1429  0.5480
  498MPD2    N1 7411   1.694   2.521   9.496  0.0439  0.1908  0.2251
  498MPD2    H7 7412   1.729   2.544   9.588 -2.5020 -1.6281  1.6254
  499TMC3    C1 7413   1.883   2.673   9.450 -0.0292  0.1200  0.1856
  499TMC3    C2 7414   1.846   2.740   9.567  0.0125  1.2012  0.3944
  499TMC3    C3 7415   1.926   2.849   9.594 -0.3137 -0.4017  0.8978
  499TMC3    C4 7416   1.993   2.703   9.375 -0.0347 -0.1217 -0.1265
  499TMC3    C5 7417   2.081   2.794   9.426 -0.2324  0.8954 -0.3795
  499TMC3    C6 7418   2.049   2.868   9.536  0.9118 -0.0663  0.1110
  499TMC3     C 7419   1.781   2.575   9.401  0.2081  0.1492  0.0458
  499TMC3     O 7420   1.783   2.555   9.279 -0.1824 -0.1670 -1.0089
  499TMC3     H 7421   1.745   2.732   9.606  0.1077  2.4881  0.8858
  499TMC3    H1 7422   2.018   2.651   9.283  0.8147 -1.6630  0.9867
  499TMC3    H2 7423   2.118   2.946   9.566  1.8865  0.1411 -2.7210
  499TMC3    C7 7424   2.218   2.782   9.387 -0.2560 -0.3393  0.0274
  499TMC3    C8 7425   1.905   2.917   9.723  0.2711  0.8174  0.1220
  499TMC3    O1 7426   2.246   2.751   9.272  0.2946 -0.0213 -0.6063
  499TMC3    O2 7427   1.978   3.015   9.735 -0.5345 -0.1784  0.1894
  500MPD2     C 7428   4.513   3.328   9.809  0.8553 -0.4479  0.1892
  500MPD2    C1 7429   4.425   3.381   9.895 -0.2971 -0.2258 -0.1001
  500MPD2    C2 7430   4.297   3.327   9.911 -0.1772 -0.0564  0.0358
  500MPD2    C3 7431   4.257   3.233   9.821 -0.4404 -0.3731  0.1190
  500MPD2    C4 7432   4.349   3.180   9.733  0.0087 -0.0778  0.3931
  500MPD2    C5 7433   4.475   3.223   9.730  0.4103  0.0863 -0.8003
  500MPD2     H 7434   4.230   3.371   9.983 -1.0414 -2.1029  0.4783
  500MPD2    H1 7435   4.326   3.093   9.674 -0.5963 -0.5921  1.3869
  500MPD2    H2 7436   4.617   3.358   9.816  0.1897  2.2135 -1.4380
  500MPD2    H3 7437   4.553   3.176   9.670  2.1632  3.7717 -1.4613
  500MPD2     N 7438   4.127   3.169   9.824  0.3683 -0.0395 -0.1214
  500MPD2    H5 7439   4.113   3.104   9.747 -0.6703  0.2871 -0.2041
  500MPD2    N1 7440   4.448   3.493   9.974 -0.4375  0.7588  0.4576
  500MPD2    H7 7441   4.383   3.519  10.047 -1.9004  0.0892 -0.6090
  501TMC3    C1 7442   4.529   3.711  10.017 -0.9483 -0.3573 -0.3039
  501TMC3    C2 7443   4.562   3.831   9.967  0.6001 -0.3911  0.0335
  501TMC3    C3 7444   4.624   3.931  10.043 -0.8582  0.6868  0.0109
  501TMC3    C4 7445   4.532   3.688  10.152 -0.1908  0.1094  0.4457
  501TMC3    C5 7446   4.590   3.788  10.233 -0.3052  0.3330  0.2070
  501TMC3    C6 7447   4.641   3.906  10.178  0.2832 -0.5099  0.8944
  501TMC3     C 7448   4.527   3.595   9.928  0.1778  0.6266  0.4347
  501TMC3     O 7449   4.601   3.609   9.828 -0.4562 -0.3374 -0.1188
  501TMC3     H 7450   4.561   3.844   9.859  0.4882  0.3033  0.1154
  501TMC3    H1 7451   4.504   3.594  10.198  0.3083 -0.2721 -0.0220
  501TMC3    H2 7452   4.689   3.985  10.234  0.5945 -1.9539  2.6687
  501TMC3    C7 7453   4.606   3.765  10.372 -0.3266  0.3265 -0.1074
  501TMC3    C8 7454   4.651   4.066   9.996 -0.6279 -0.2199 -0.2656
  501TMC3    O1 7455   4.609   3.644  10.403 -0.2930 -0.0763  0.2147
  501TMC3    O2 7456   4.719   4.142  10.063 -0.0066 -0.2259 -0.1597
  502TMC3    C1 7457   3.211   2.102  14.523  0.3216  0.0896  0.6764
  502TMC3    C2 7458   3.212   2.238  14.491 -0.1440  0.4856 -0.0448
  502TMC3    C3 7459   3.095   2.308  14.495 -0.1799 -0.1646 -0.3727
  502TMC3    C4 7460   3.101   2.034  14.563  0.0973  0.2075  0.0674
  502TMC3    C5 7461   2.983   2.113  14.574  0.8315  0.6335 -0.2680
  502TMC3    C6 7462   2.979   2.250  14.546 -0.6041 -0.4664  0.4075
  502TMC3     C 7463   3.336   2.058  14.593  0.4016  0.2010  0.5837
  502TMC3     O 7464   3.442   2.102  14.555 -0.0193 -0.6027 -0.3706
  502TMC3     H 7465   3.303   2.294  14.476  0.1032  0.5870  1.7559
  502TMC3    H1 7466   3.107   1.929  14.588  0.2971 -0.3409 -2.2481
  502TMC3    H2 7467   2.883   2.296  14.528 -0.2275 -0.2887 -1.1000
  502TMC3    C7 7468   2.855   2.047  14.610  0.0384 -0.1496 -0.0154
  502TMC3    C8 7469   3.118   2.439  14.544  0.0506 -0.3411 -0.5482
  502TMC3    O1 7470   2.854   1.926  14.603  0.0186 -0.0784 -0.0167
  502TMC3    O2 7471   3.201   2.509  14.490 -0.1455  0.2198 -0.2224
  503MPD2     C 7472   0.510   3.148  16.839 -0.1672  0.3921 -0.1752
  503MPD2    C1 7473   0.480   3.156  16.974  0.5745  0.0147 -0.2716
  503MPD2    C2 7474   0.544   3.067  17.062 -0.2701 -0.0038 -0.1819
  503MPD2    C3 7475   0.629   2.968  17.017  0.0733  0.0006  0.3452
  503MPD2    C4 7476   0.654   2.964  16.880 -0.5060  0.2896 -0.8581
  503MPD2    C5 7477   0.593   3.047  16.792 -0.3015 -0.9373  0.0911
  503MPD2     H 7478   0.533   3.075  17.170 -2.2609  1.0654 -0.4698
  503MPD2    H1 7479   0.717   2.891  16.831 -2.6147 -0.4844 -2.4323
  503MPD2    H2 7480   0.464   3.219  16.772  0.4544 -0.7998 -1.8854
  503MPD2    H3 7481   0.621   3.035  16.688 -1.2129  0.1713 -0.2798
  503MPD2     N 7482   0.692   2.878  17.102  0.8806 -0.4144 -0.3180
  503MPD2    H5 7483   0.666   2.866  17.200  1.8762  0.3419  0.0332
  503MPD2    N1 7484   0.403   3.263  17.023  0.0925  0.1537  0.2948
  503MPD2    H7 7485   0.389   3.267  17.123  2.1156 -0.0802  0.5906
  504TMC3    C1 7486   0.851   2.723  17.176  0.3165  0.2045 -0.4235
  504TMC3    C2 7487   0.773   2.693  17.282 -0.1893 -0.3941 -0.3743
  504TMC3    C3 7488   0.798   2.575  17.344  0.4636  0.0811  0.1673
  504TMC3    C4 7489   0.953   2.637  17.141 -0.8621 -0.1699  0.4832
  504TMC3    C5 7490   0.975   2.523  17.205  0.6039  0.4825  0.0184
  504TMC3    C6 7491   0.904   2.491  17.317 -0.2893  0.1164 -0.2161
  504TMC3     C 7492   0.805   2.807  17.068 -0.7680  0.1014 -0.0800
  504TMC3     O 7493   0.870   2.813  16.966 -0.0092 -0.0169 -0.1633
  504TMC3     H 7494   0.681   2.749  17.298  0.1874 -0.1898  1.0532
  504TMC3    H1 7495   1.021   2.687  17.073 -0.8070 -0.9974 -0.0676
  504TMC3    H2 7496   0.914   2.400  17.376 -1.0973 -1.0055 -1.8059
  504TMC3    C7 7497   1.083   2.440  17.152 -0.0403  0.1252 -0.3771
  504TMC3    C8 7498   0.701   2.540  17.443  0.1525  0.6854  0.2605
  504TMC3    O1 7499   1.134   2.483  17.046  0.1544 -0.4704  0.0241
  504TMC3    O2 7500   0.595   2.600  17.438 -0.4464  0.2188 -0.0646
  505MPD2     C 7501   1.086   1.836  11.251 -0.2653 -0.1557  0.3491
  505MPD2    C1 7502   1.068   1.861  11.120 -0.0742 -0.0503  0.5026
  505MPD2    C2 7503   1.040   1.989  11.079  0.2658 -0.5002  0.1242
  505MPD2    C3 7504   1.016   2.088  11.176 -0.0079 -0.4010  0.2867
  505MPD2    C4 7505   1.043   2.063  11.312  0.2501  0.1725  0.0470
  505MPD2    C5 7506   1.071   1.932  11.349  0.1512  0.9120 -0.5143
  505MPD2     H 7507   1.033   2.008  10.972 -1.9949 -0.4228  0.3019
  505MPD2    H1 7508   1.044   2.142  11.386  0.4909 -0.5940  0.8711
  505MPD2    H2 7509   1.119   1.740  11.287 -0.8548 -0.8540 -0.9775
  505MPD2    H3 7510   1.104   1.918  11.452  0.0055 -0.4297 -0.6590
  505MPD2     N 7511   1.014   2.227  11.147  0.0140 -0.0345  0.7077
  505MPD2    H5 7512   1.053   2.281  11.223  0.1663 -0.5163  0.9716
  505MPD2    N1 7513   1.092   1.749  11.041 -0.4295 -0.2073 -0.4559
  505MPD2    H7 7514   1.117   1.661  11.085  0.3118 -0.1781 -0.8290
  506TMC3    C1 7515   1.129   1.644  10.840  0.9381  0.2232  0.4384
  506TMC3    C2 7516   1.078   1.617  10.715 -0.0373  0.0123 -0.0337
  506TMC3    C3 7517   1.169   1.565  10.629 -1.0457 -0.1881 -0.6242
  506TMC3    C4 7518   1.258   1.619  10.881  0.2742  0.1038 -0.5866
  506TMC3    C5 7519   1.341   1.557  10.791  0.0472  0.1773 -0.7457
  506TMC3    C6 7520   1.296   1.525  10.663  0.2551  0.0505 -0.4066
  506TMC3     C 7521   1.061   1.748  10.908 -0.1384  0.6245 -0.3294
  506TMC3     O 7522   1.008   1.828  10.833  0.6890  0.2166  0.4436
  506TMC3     H 7523   0.978   1.643  10.685 -0.6749 -1.9288  0.4155
  506TMC3    H1 7524   1.286   1.645  10.982  0.3772  1.3387 -0.9367
  506TMC3    H2 7525   1.353   1.486  10.580  2.1820 -0.4652  1.1520
  506TMC3    C7 7526   1.470   1.624  10.783  0.0545  0.1431  0.3303
  506TMC3    C8 7527   1.131   1.537  10.499  0.1672  0.3296  0.0185
  506TMC3    O1 7528   1.548   1.602  10.691  0.0283 -0.7903 -0.3813
  506TMC3    O2 7529   1.175   1.427  10.455 -0.1420 -0.2864  0.2664
  507TMC3    C1 7530   1.820   2.772  14.419 -0.2979  0.5337 -0.3578
  507TMC3    C2 7531   1.805   2.668  14.323 -0.0380  0.1944  0.2491
  507TMC3    C3 7532   1.883   2.672  14.211  0.0848  0.3295 -0.2802
  507TMC3    C4 7533   1.904   2.875  14.401  0.8321  0.4838 -0.1234
  507TMC3    C5 7534   1.989   2.873  14.292 -0.7672  0.4068 -0.9513
  507TMC3    C6 7535   1.980   2.770  14.197  1.0147 -0.1234  0.4966
  507TMC3     C 7536   1.748   2.755  14.544 -0.5242 -0.3458 -0.3957
  507TMC3     O 7537   1.808   2.770  14.652  0.0111  0.3420  0.0181
  507TMC3     H 7538   1.717   2.606  14.335  0.8952 -0.8691  1.7301
  507TMC3    H1 7539   1.898   2.960  14.468  0.9689  0.2000  0.2481
  507TMC3    H2 7540   2.059   2.746  14.126  1.9510  3.3485  0.3286
  507TMC3    C7 7541   1.995   2.998  14.222 -0.2205  0.3779  0.1579
  507TMC3    C8 7542   1.815   2.630  14.093  0.1029  0.4309 -0.6293
  507TMC3    O1 7543   1.972   2.989  14.104 -0.0523 -0.5770 -0.0874
  507TMC3    O2 7544   1.734   2.537  14.112  0.0134  0.5728  0.2515
  508MPD2     C 7545   2.421   0.129  15.879  0.3168  0.4262  0.5253
  508MPD2    C1 7546   2.494   0.242  15.910 -0.3461  0.0838 -0.2434
  508MPD2    C2 7547   2.529   0.324  15.803  0.3463  0.6259 -0.6149
  508MPD2    C3 7548   2.502   0.298  15.671 -0.7378 -0.0024  0.5269
  508MPD2    C4 7549   2.438   0.184  15.643  0.6873  0.4247 -0.2728
  508MPD2    C5 7550   2.399   0.099  15.747  0.2830 -0.0737 -0.7704
  508MPD2     H 7551   2.588   0.410  15.832 -0.4803  1.8903 -2.7955
  508MPD2    H1 7552   2.411   0.154  15.542 -1.0283  0.1629  0.2524
  508MPD2    H2 7553   2.379   0.060  15.952 -0.5857 -0.7900 -1.1588
  508MPD2    H3 7554   2.346   0.006  15.728  0.4301 -0.4653  0.6831
  508MPD2     N 7555   2.532   0.395  15.583 -0.0482 -0.2711 -0.1051
  508MPD2    H5 7556   2.605   0.464  15.601  1.2371 -1.3780 -1.0855
  508MPD2    N1 7557   2.534   0.255  16.041  0.4707  0.4208 -0.4886
  508MPD2    H7 7558   2.504   0.190  16.112 -0.8021 -0.1563 -1.5615
  509TMC3    C1 7559   2.454   0.688  15.239 -0.1295 -1.0644  0.5250
  509TMC3    C2 7560   2.589   0.724  15.224 -0.5306  0.5806  0.4300
  509TMC3    C3 7561   2.687   0.651  15.287 -0.2575 -0.2699 -0.2350
  509TMC3    C4 7562   2.418   0.584  15.318 -0.3586  0.7741 -0.4349
  509TMC3    C5 7563   2.517   0.532  15.395  0.3893  0.3765 -0.4237
  509TMC3    C6 7564   2.650   0.544  15.370  0.3042 -0.4187  0.0337
  509TMC3     C 7565   2.345   0.765  15.177  0.7434 -0.5895 -0.3891
  509TMC3     O 7566   2.233   0.734  15.203  0.3244 -0.0122 -0.1737
  509TMC3     H 7567   2.613   0.811  15.163 -3.3698  0.1984 -1.2754
  509TMC3    H1 7568   2.312   0.567  15.334  0.1669 -1.2386  0.9184
  509TMC3    H2 7569   2.720   0.473  15.413  2.4321 -0.4345 -3.4665
  509TMC3    C7 7570   2.472   0.413  15.455 -0.4126  0.1436  0.5669
  509TMC3    C8 7571   2.832   0.652  15.246 -0.2113 -0.3861 -0.3345
  509TMC3    O1 7572   2.376   0.357  15.411 -0.0259  0.1211  0.4571
  509TMC3    O2 7573   2.895   0.552  15.274  0.1697 -0.1957 -0.3226
  510MPD2     C 7574   0.506   2.217  14.374 -0.0556 -1.0700  0.1478
  510MPD2    C1 7575   0.587   2.130  14.446 -0.1237  0.2916  0.1577
  510MPD2    C2 7576   0.717   2.128  14.412  0.2851  0.1571  0.2982
  510MPD2    C3 7577   0.774   2.201  14.307  0.3285 -0.3273  0.7359
  510MPD2    C4 7578   0.689   2.282  14.229 -0.2731  0.1079 -0.3905
  510MPD2    C5 7579   0.559   2.286  14.265  0.0163 -0.0250  0.1386
  510MPD2     H 7580   0.775   2.069  14.483  1.9770 -0.2380 -1.4012
  510MPD2    H1 7581   0.724   2.351  14.152  1.1569 -1.1425 -0.8589
  510MPD2    H2 7582   0.404   2.235  14.408  0.7709 -1.5015  2.8877
  510MPD2    H3 7583   0.508   2.370  14.218  1.4463  0.5576 -0.3818
  510MPD2     N 7584   0.910   2.201  14.289 -0.2245  0.0291 -0.5217
  510MPD2    H5 7585   0.966   2.158  14.361 -0.3287 -1.8126 -1.5486
  510MPD2    N1 7586   0.540   2.049  14.554 -1.1401 -0.2985  0.3660
  510MPD2    H7 7587   0.598   1.970  14.582  0.7864  0.7964 -0.5278
  511TMC3    C1 7588   0.392   1.980  14.713 -0.1634  0.3658  0.5169
  511TMC3    C2 7589   0.287   1.999  14.799  0.2198  0.0171 -0.2995
  511TMC3    C3 7590   0.241   1.896  14.873 -0.7100  0.0077 -0.3685
  511TMC3    C4 7591   0.432   1.845  14.680  0.1750  0.3008 -0.0819
  511TMC3    C5 7592   0.384   1.746  14.764  0.2394 -0.2859  0.9248
  511TMC3    C6 7593   0.294   1.773  14.863 -0.9371  0.0956  0.2803
  511TMC3     C 7594   0.432   2.081  14.622 -1.1293  0.3691  0.1915
  511TMC3     O 7595   0.377   2.191  14.620  0.2173  0.5681  0.0157
  511TMC3     H 7596   0.238   2.094  14.813 -0.1270 -0.1045 -0.7178
  511TMC3    H1 7597   0.481   1.818  14.587  1.0486 -4.4735  1.7734
  511TMC3    H2 7598   0.246   1.693  14.918 -1.4540 -1.1838 -2.0203
  511TMC3    C7 7599   0.396   1.601  14.713  0.3900 -0.8498  0.8315
  511TMC3    C8 7600   0.162   1.941  14.989 -0.1681  1.0636 -0.3801
  511TMC3    O1 7601   0.418   1.582  14.592  0.5548  0.4494 -0.5426
  511TMC3    O2 7602   0.190   2.054  15.032  0.2127  0.0668  0.3904
  512TMC3    C1 7603   4.575   1.104  13.018 -0.0710 -0.9630 -0.2387
  512TMC3    C2 7604   4.624   1.073  13.142 -0.3777  0.1212 -0.3822
  512TMC3    C3 7605   4.550   0.988  13.218  0.1693  0.2366 -0.0450
  512TMC3    C4 7606   4.458   1.042  12.966 -0.7796  0.3243 -0.7763
  512TMC3    C5 7607   4.404   0.939  13.041 -0.3619  0.3558  0.2450
  512TMC3    C6 7608   4.449   0.914  13.171  0.4375  0.6462 -0.4808
  512TMC3     C 7609   4.664   1.159  12.912 -0.0652 -0.4418  0.0250
  512TMC3     O 7610   4.601   1.189  12.812 -0.2190  0.3690  0.3179
  512TMC3     H 7611   4.721   1.111  13.174 -0.5830  1.9141 -1.8306
  512TMC3    H1 7612   4.421   1.064  12.867 -1.0995  0.2736 -0.6685
  512TMC3    H2 7613   4.403   0.846  13.243  0.1743 -0.2370 -1.4895
  512TMC3    C7 7614   4.271   0.908  13.002  1.0110  0.5667 -0.1561
  512TMC3    C8 7615   4.554   1.004  13.359  0.1971 -0.3276 -0.4667
  512TMC3    O1 7616   4.190   0.994  12.965  0.3657  0.3655  0.1982
  512TMC3    O2 7617   4.503   0.919  13.433 -0.4849  0.3572  0.1438
  513MPD2     C 7618   1.120   1.834  12.958  0.4887  0.4220 -0.0320
  513MPD2    C1 7619   1.244   1.782  12.934 -0.3981  0.6867 -0.6460
  513MPD2    C2 7620   1.322   1.750  13.045  0.1810 -0.0084  0.0179
  513MPD2    C3 7621   1.276   1.770  13.174  0.4712 -0.1724 -0.6985
  513MPD2    C4 7622   1.153   1.826  13.193 -0.0049 -0.2880 -0.3100
  513MPD2    C5 7623   1.077   1.850  13.086  0.0677 -0.1588 -0.1044
  513MPD2     H 7624   1.419   1.704  13.028 -0.2074 -0.5071 -0.8641
  513MPD2    H1 7625   1.117   1.832  13.294 -1.9044 -3.3004 -0.8149
  513MPD2    H2 7626   1.050   1.865  12.881  1.2271  2.8442  0.2647
  513MPD2    H3 7627   0.976   1.881  13.111  0.2879  0.8928 -0.5513
  513MPD2     N 7628   1.362   1.725  13.278  0.0791 -0.5816 -0.9092
  513MPD2    H5 7629   1.456   1.691  13.257  0.0623 -0.9862 -0.3170
  513MPD2    N1 7630   1.296   1.770  12.801  0.1612 -0.7284  0.5535
  513MPD2    H7 7631   1.225   1.765  12.729  1.6179  1.9421 -1.0836
  514TMC3    C1 7632   1.456   1.711  12.638 -0.3232 -0.2466 -0.1880
  514TMC3    C2 7633   1.352   1.651  12.563 -0.5584 -0.5306  0.0957
  514TMC3    C3 7634   1.386   1.564  12.463 -0.6902  0.5266  0.4928
  514TMC3    C4 7635   1.586   1.679  12.616  0.3249  0.0328 -0.7344
  514TMC3    C5 7636   1.615   1.571  12.536  0.5406 -0.2859 -0.2144
  514TMC3    C6 7637   1.517   1.525  12.452 -0.5438 -0.2237 -0.2358
  514TMC3     C 7638   1.428   1.755  12.767  0.2352  0.4259 -0.1760
  514TMC3     O 7639   1.525   1.764  12.844  0.6138  0.1177 -0.4007
  514TMC3     H 7640   1.249   1.674  12.586 -0.8779 -0.4013 -1.4468
  514TMC3    H1 7641   1.668   1.733  12.662 -1.8654  3.1117 -0.4046
  514TMC3    H2 7642   1.533   1.451  12.375 -0.3455 -1.3153  0.8604
  514TMC3    C7 7643   1.661   1.450  12.611  0.0441  0.0260  0.1702
  514TMC3    C8 7644   1.273   1.518  12.370 -0.0227 -0.8978 -0.1636
  514TMC3    O1 7645   1.670   1.344  12.547 -0.4489 -0.1302  0.2709
  514TMC3    O2 7646   1.155   1.526  12.403  0.2225  0.0720 -0.2157
  515MPD2     C 7647   4.496   3.171  14.505  0.0622 -0.3423  0.0480
  515MPD2    C1 7648   4.517   3.048  14.563  0.1055 -0.4694  0.1877
  515MPD2    C2 7649   4.555   3.046  14.695  0.2777 -0.4717 -0.0896
  515MPD2    C3 7650   4.560   3.159  14.773 -0.0979  0.3495 -0.3116
  515MPD2    C4 7651   4.541   3.281  14.711  1.0502 -0.8094  0.5706
  515MPD2    C5 7652   4.511   3.283  14.574  0.0860 -0.3912  0.2428
  515MPD2     H 7653   4.580   2.950  14.737 -0.4039  0.1843  1.8087
  515MPD2    H1 7654   4.531   3.378  14.759  0.2106 -1.0128  0.8154
  515MPD2    H2 7655   4.483   3.184  14.398 -0.9612 -0.4901  0.1639
  515MPD2    H3 7656   4.496   3.378  14.525  0.8269 -0.1508  0.4905
  515MPD2     N 7657   4.574   3.165  14.918 -0.4477 -0.3693  0.0973
  515MPD2    H5 7658   4.568   3.255  14.966 -1.0600 -0.3780  0.0350
  515MPD2    N1 7659   4.505   2.921  14.496 -0.7650 -0.4210 -0.6780
  515MPD2    H7 7660   4.526   2.846  14.561  1.1444  1.6353  1.1036
  516TMC3    C1 7661   4.455   2.769  14.309  0.0305 -0.5287  0.5306
  516TMC3    C2 7662   4.437   2.769  14.173 -0.0087 -0.2920  0.3878
  516TMC3    C3 7663   4.341   2.684  14.122 -0.0076  0.5028  0.0289
  516TMC3    C4 7664   4.405   2.678  14.393  0.4033 -0.0151  0.1538
  516TMC3    C5 7665   4.328   2.587  14.334 -0.0743 -0.0865 -0.9867
  516TMC3    C6 7666   4.292   2.587  14.200  0.3342 -0.5240  0.1382
  516TMC3     C 7667   4.478   2.902  14.360  0.3262 -0.0704 -0.3344
  516TMC3     O 7668   4.475   2.988  14.275  0.1492 -0.6204  0.2105
  516TMC3     H 7669   4.484   2.839  14.105 -3.0755 -0.8883 -2.3384
  516TMC3    H1 7670   4.427   2.689  14.498  0.9422 -1.8508  0.2430
  516TMC3    H2 7671   4.222   2.520  14.153  0.5537  0.4765 -1.6378
  516TMC3    C7 7672   4.267   2.493  14.424  0.7887  0.2973  0.3786
  516TMC3    C8 7673   4.309   2.679  13.988  0.7106 -0.4220 -0.0955
  516TMC3    O1 7674   4.309   2.496  14.538 -0.3919  0.2418  0.2265
  516TMC3    O2 7675   4.217   2.604  13.957 -0.0915 -0.4352 -0.6834
  517MPD2     C 7676   3.509   4.199  17.593 -0.5533 -0.3313 -0.6894
  517MPD2    C1 7677   3.602   4.226  17.496 -0.2829 -0.2418 -0.3380
  517MPD2    C2 7678   3.629   4.358  17.471  0.0942 -0.6552 -0.3623
  517MPD2    C3 7679   3.576   4.460  17.540 -0.6424  0.2509  0.3502
  517MPD2    C4 7680   3.492   4.434  17.644  0.5742 -1.0487 -0.2913
  517MPD2    C5 7681   3.463   4.300  17.668  0.4297 -0.1413 -0.3740
  517MPD2     H 7682   3.698   4.374  17.389 -1.0199 -0.1820 -1.2016
  517MPD2    H1 7683   3.464   4.509   0.019 -1.2158 -1.7308 -0.2567
  517MPD2    H2 7684   3.473   4.098  17.613  1.1503 -0.9281 -0.6387
  517MPD2    H3 7685   3.397   4.270   0.051 -0.1800 -0.1509 -0.8826
  517MPD2     N 7686   3.599   4.594  17.501  0.3010  0.4662 -0.2248
  517MPD2    H5 7687   3.540   4.659  17.551  1.8608  1.4414  0.3649
  517MPD2    N1 7688   3.674   4.126  17.428 -0.4352  0.0256 -0.2540
  517MPD2    H7 7689   3.745   4.169  17.369  1.4284 -2.2882  0.2789
  518TMC3    C1 7690   3.774   3.919  17.385  0.1513  0.3677 -0.0668
  518TMC3    C2 7691   3.757   3.794  17.351 -0.4247  0.3854 -0.1546
  518TMC3    C3 7692   3.863   3.711  17.314 -0.0351  0.1445 -0.1773
  518TMC3    C4 7693   3.897   3.972  17.383  0.5302  0.3022 -1.0958
  518TMC3    C5 7694   4.004   3.887  17.363 -0.9666  0.2116 -0.1643
  518TMC3    C6 7695   3.992   3.758  17.320  1.1282 -0.9280  0.6362
  518TMC3     C 7696   3.663   3.996  17.439  0.4483 -0.9115 -0.0774
  518TMC3     O 7697   3.583   3.917  17.494 -0.1199 -0.0019 -0.3867
  518TMC3     H 7698   3.658   3.751  17.364 -0.3648  0.2475 -0.1507
  518TMC3    H1 7699   3.915   4.070  17.424 -0.0587  0.0284 -0.1754
  518TMC3    H2 7700   4.073   3.692  17.290  1.5086 -0.7740  1.3099
  518TMC3    C7 7701   4.136   3.933  17.413  0.3676  0.7414 -0.0308
  518TMC3    C8 7702   3.856   3.579  17.254 -0.6507 -0.2010 -0.3102
  518TMC3    O1 7703   4.162   4.051  17.394 -0.4936 -0.2162 -1.1378
  518TMC3    O2 7704   3.817   3.490  17.331  0.1368  0.0274 -0.5535
  519MPD2     C 7705   0.723   2.794  14.287 -0.2795  0.5123 -0.1580
  519MPD2    C1 7706   0.688   2.834  14.162 -0.5229  0.0142  0.0183
  519MPD2    C2 7707   0.735   2.756  14.055  0.3396  0.7266  0.4221
  519MPD2    C3 7708   0.797   2.635  14.080 -0.4342 -0.6795 -1.2841
  519MPD2    C4 7709   0.848   2.612  14.208 -0.6774  0.0535  0.2462
  519MPD2    C5 7710   0.802   2.685  14.308 -0.2074 -0.8376 -0.2879
  519MPD2     H 7711   0.724   2.781  13.950  0.3767  1.0544  0.4956
  519MPD2    H1 7712   0.907   2.522  14.221 -1.7353 -0.3905  2.0219
  519MPD2    H2 7713   0.691   2.851  14.373 -2.7338 -0.9593 -0.1078
  519MPD2    H3 7714   0.829   2.659  14.410  4.1599  1.7023 -0.7833
  519MPD2     N 7715   0.826   2.547  13.979 -0.3707 -1.2729  0.1245
  519MPD2    H5 7716   0.896   2.474  13.992  1.2449  0.1783 -0.5298
  519MPD2    N1 7717   0.605   2.950  14.148 -0.1549 -0.4210 -0.3087
  519MPD2    H7 7718   0.545   2.977  14.226 -0.3579  0.4850 -0.7866
  520TMC3    C1 7719   0.814   2.453  13.774 -0.1201 -0.3502  0.3528
  520TMC3    C2 7720   0.756   2.449  13.650  0.5485 -0.7470 -0.1090
  520TMC3    C3 7721   0.830   2.455  13.537 -0.5665  0.0021 -0.0502
  520TMC3    C4 7722   0.950   2.450  13.780 -0.7978  0.3709 -0.5949
  520TMC3    C5 7723   1.024   2.452  13.660 -0.1193  0.4089  0.6357
  520TMC3    C6 7724   0.971   2.452  13.536  0.5186  0.0127  0.1183
  520TMC3     C 7725   0.745   2.536  13.864  0.5445  0.0173  0.4995
  520TMC3     O 7726   0.633   2.580  13.848  0.0935  0.5385  0.1128
  520TMC3     H 7727   0.652   2.469  13.628  0.5450  0.0032  0.5876
  520TMC3    H1 7728   1.004   2.456  13.874  0.3019 -1.4197 -1.1257
  520TMC3    H2 7729   1.037   2.453  13.450  0.0789  1.4739 -0.1945
  520TMC3    C7 7730   1.165   2.420  13.676  0.5192 -0.5417 -0.0972
  520TMC3    C8 7731   0.774   2.463  13.407  0.5855 -0.8219  0.0930
  520TMC3    O1 7732   1.198   2.368  13.782 -0.2721  0.2943  0.1202
  520TMC3    O2 7733   0.854   2.431  13.319  0.3894 -0.0632 -0.1774
  521MPD2     C 7734   1.427   1.139  17.265 -0.6209  0.2492 -0.1867
  521MPD2    C1 7735   1.376   1.025  17.216 -0.1891 -0.4633 -0.5985
  521MPD2    C2 7736   1.470   0.941  17.149 -0.1069 -1.0386  0.7804
  521MPD2    C3 7737   1.604   0.968  17.144 -0.3997  0.3859 -0.3652
  521MPD2    C4 7738   1.655   1.084  17.203 -0.2016 -0.0106 -0.0132
  521MPD2    C5 7739   1.563   1.174  17.256  0.3111  0.0008 -0.6096
  521MPD2     H 7740   1.435   0.850  17.102  0.1052 -0.7927  0.1508
  521MPD2    H1 7741   1.757   1.118  17.192 -0.0620 -0.1472  0.8143
  521MPD2    H2 7742   1.356   1.217  17.293  1.7637  3.3413 -2.6942
  521MPD2    H3 7743   1.597   1.272  17.287 -0.0848  0.1268 -0.5816
  521MPD2     N 7744   1.682   0.868  17.082 -0.5364 -0.0277 -0.5859
  521MPD2    H5 7745   1.636   0.790  17.036 -0.9653 -1.4381  2.2409
  521MPD2    N1 7746   1.239   0.997  17.241 -0.4442  0.2102 -0.2592
  521MPD2    H7 7747   1.177   1.065  17.283 -0.1473 -0.6085  1.4876
  522TMC3    C1 7748   1.876   0.755  16.999  0.5104  0.0423 -0.4350
  522TMC3    C2 7749   2.009   0.725  17.029  0.0889  0.1267  0.5278
  522TMC3    C3 7750   2.054   0.602  16.993  0.8661 -0.2251 -0.5174
  522TMC3    C4 7751   1.800   0.669  16.919  0.1118  0.1948  0.5409
  522TMC3    C5 7752   1.849   0.549  16.883  0.1339  0.4409  0.1971
  522TMC3    C6 7753   1.975   0.511  16.921  0.2156  0.6057  0.0484
  522TMC3     C 7754   1.817   0.864  17.079  0.1702 -0.5613  0.3424
  522TMC3     O 7755   1.891   0.941  17.135 -0.0150 -0.3347 -0.1685
  522TMC3     H 7756   2.062   0.790  17.098  0.6686  1.2617 -0.9840
  522TMC3    H1 7757   1.700   0.700  16.891  0.2119  1.5353  1.6744
  522TMC3    H2 7758   2.013   0.414  16.893 -0.7655 -0.2719  1.7504
  522TMC3    C7 7759   1.756   0.446  16.832  0.3125 -0.2811  0.1538
  522TMC3    C8 7760   2.197   0.594  16.985 -0.9867  0.1915  0.4228
  522TMC3    O1 7761   1.751   0.342  16.896 -0.3383  0.1418 -0.1368
  522TMC3    O2 7762   2.254   0.699  17.020  0.5121 -0.2490 -0.8534
  523MPD2     C 7763   4.399   0.334  10.035  0.3333 -0.5161  0.4277
  523MPD2    C1 7764   4.363   0.261   9.926  0.6771 -0.0542  0.1344
  523MPD2    C2 7765   4.287   0.326   9.829  0.2851  0.5444 -0.1571
  523MPD2    C3 7766   4.234   0.454   9.851  0.1011  0.3849 -0.4828
  523MPD2    C4 7767   4.258   0.513   9.972  0.9703 -0.3172  0.5469
  523MPD2    C5 7768   4.347   0.460  10.059 -0.1523  0.3381  0.5444
  523MPD2     H 7769   4.277   0.274   9.734 -1.3167 -0.1617  0.4039
  523MPD2    H1 7770   4.213   0.609   9.995  0.2870 -0.4385 -0.2602
  523MPD2    H2 7771   4.463   0.293  10.113 -1.5732 -2.4036  1.0004
  523MPD2    H3 7772   4.378   0.517  10.145 -0.3499  3.1430 -1.2433
  523MPD2     N 7773   4.144   0.516   9.760  0.3040 -0.3108  0.5408
  523MPD2    H5 7774   4.104   0.605   9.787  0.1723  0.0769 -0.9080
  523MPD2    N1 7775   4.411   0.126   9.915  0.0945  0.7543 -0.3364
  523MPD2    H7 7776   4.465   0.092   9.993 -0.0641  0.4685 -0.3501
  524TMC3    C1 7777   4.008   0.547   9.569 -0.3854  0.7155 -0.3370
  524TMC3    C2 7778   3.992   0.531   9.438 -0.1629  0.0418  0.2573
  524TMC3    C3 7779   3.912   0.613   9.366  0.2526  0.5646  0.0739
  524TMC3    C4 7780   3.933   0.646   9.627  0.2711 -0.2626  0.5789
  524TMC3    C5 7781   3.857   0.739   9.560  0.6419 -0.0662  0.1291
  524TMC3    C6 7782   3.850   0.720   9.424 -0.0356 -0.1409 -0.4325
  524TMC3     C 7783   4.121   0.473   9.628 -0.2714 -0.0247  0.4463
  524TMC3     O 7784   4.178   0.386   9.562 -0.1578 -0.2386  0.1510
  524TMC3     H 7785   4.037   0.443   9.395 -0.2826  1.4049 -2.6795
  524TMC3    H1 7786   3.935   0.647   9.736 -0.1301  0.4611  0.5795
  524TMC3    H2 7787   3.785   0.787   9.368  1.1573 -0.1087 -1.7794
  524TMC3    C7 7788   3.738   0.804   9.616  0.2459  1.3075 -0.4447
  524TMC3    C8 7789   3.862   0.554   9.244 -0.2596  0.2749  0.0257
  524TMC3    O1 7790   3.679   0.748   9.708  0.0655  0.6231 -0.7998
  524TMC3    O2 7791   3.866   0.432   9.232  0.1418  0.3615 -0.4123
  525MPD2     C 7792   2.091   2.600  13.880  0.1156 -0.4981 -0.0341
  525MPD2    C1 7793   2.206   2.589  13.957  0.6355  0.2832  0.3832
  525MPD2    C2 7794   2.284   2.702  13.969 -0.2331 -0.7929 -0.3419
  525MPD2    C3 7795   2.262   2.828  13.908 -0.6921  0.4442  0.2348
  525MPD2    C4 7796   2.144   2.832  13.838 -0.2300 -0.6020  0.2483
  525MPD2    C5 7797   2.061   2.725  13.824  0.0187  0.2768 -0.6292
  525MPD2     H 7798   2.365   2.685  14.040  0.6691 -0.3303 -1.2570
  525MPD2    H1 7799   2.110   2.918  13.781  1.0571 -0.4308 -0.2531
  525MPD2    H2 7800   2.039   2.507  13.861  2.4241 -2.3599  2.7651
  525MPD2    H3 7801   1.969   2.739  13.768 -0.1452 -0.8943 -0.6720
  525MPD2     N 7802   2.343   2.945  13.934 -0.0205  0.1588  0.5739
  525MPD2    H5 7803   2.300   3.036  13.926  0.7002  0.5653  1.3587
  525MPD2    N1 7804   2.242   2.474  14.039  0.1936  0.4412  0.5620
  525MPD2    H7 7805   2.332   2.473  14.085 -0.2084  1.2762  1.3641
  526TMC3    C1 7806   2.224   2.266  14.139  0.2416  0.0934  0.0051
  526TMC3    C2 7807   2.157   2.216  14.250  0.5264  0.1679  0.7909
  526TMC3    C3 7808   2.232   2.142  14.336  0.2913  0.6617  0.3392
  526TMC3    C4 7809   2.358   2.248  14.113 -0.8995  0.3116  1.0371
  526TMC3    C5 7810   2.423   2.168  14.199 -0.2421  0.9302 -0.5787
  526TMC3    C6 7811   2.366   2.123  14.321 -0.6048  0.2025 -0.3819
  526TMC3     C 7812   2.149   2.380  14.078 -0.0928 -0.1674  0.4238
  526TMC3     O 7813   2.028   2.378  14.072 -0.4738  0.0477 -0.0582
  526TMC3     H 7814   2.056   2.246  14.277 -1.0025 -3.4718 -0.7904
  526TMC3    H1 7815   2.414   2.292  14.032 -2.2554  1.2246  0.6131
  526TMC3    H2 7816   2.423   2.072  14.398 -1.4922  0.5809  0.5253
  526TMC3    C7 7817   2.568   2.166  14.192  0.0363  0.2031  0.4867
  526TMC3    C8 7818   2.185   2.102  14.467  0.0408  0.2957 -1.3112
  526TMC3    O1 7819   2.625   2.264  14.143  0.9546 -0.0341  0.2994
  526TMC3    O2 7820   2.267   2.101  14.559 -0.1102  0.0430  0.0390
  527MPD2     C 7821   4.240   0.742   0.719  0.0989 -0.8521  0.1710
  527MPD2    C1 7822   4.230   0.610   0.765 -0.3666 -0.1610  0.4779
  527MPD2    C2 7823   4.334   0.526   0.732 -0.5940 -0.0746  0.3432
  527MPD2    C3 7824   4.439   0.568   0.649 -0.1721 -0.0921 -0.4013
  527MPD2    C4 7825   4.445   0.699   0.619  0.5521 -0.6203 -0.3466
  527MPD2    C5 7826   4.352   0.785   0.647 -0.3351 -0.3665 -0.0898
  527MPD2     H 7827   4.328   0.424   0.769 -0.2056 -0.0860  0.3821
  527MPD2    H1 7828   4.510   0.739   0.541  1.4612  0.6079  1.0557
  527MPD2    H2 7829   4.160   0.810   0.747  0.2569 -0.8790  0.6908
  527MPD2    H3 7830   4.369   0.883   0.604  1.7276 -0.9319 -0.5934
  527MPD2     N 7831   4.541   0.475   0.610  0.0404  0.1821  0.1678
  527MPD2    H5 7832   4.537   0.390   0.664  2.3536  0.8217  1.3186
  527MPD2    N1 7833   4.127   0.571   0.854  0.3098  0.1541 -0.1932
  527MPD2    H7 7834   4.149   0.483   0.900  0.1477  1.5260  2.4787
  528TMC3    C1 7835   3.931   0.557   0.972  0.2637 -0.0787  0.0355
  528TMC3    C2 7836   3.983   0.456   1.051 -0.3809 -0.9290 -0.5029
  528TMC3    C3 7837   3.897   0.406   1.139 -0.0779 -0.4949 -0.2713
  528TMC3    C4 7838   3.800   0.581   0.959 -0.8929  0.0485 -0.0031
  528TMC3    C5 7839   3.725   0.528   1.063  0.0532  0.1255  0.7348
  528TMC3    C6 7840   3.762   0.439   1.149 -0.9351 -0.5451  0.6940
  528TMC3     C 7841   4.013   0.635   0.890  0.4218 -0.3228  0.7871
  528TMC3     O 7842   3.971   0.733   0.830 -0.5140  0.2474  0.1272
  528TMC3     H 7843   4.088   0.435   1.066 -0.5078 -2.1670 -1.3296
  528TMC3    H1 7844   3.779   0.679   0.917 -0.3056  1.0377  1.9983
  528TMC3    H2 7845   3.693   0.379   1.206 -1.1911  0.0531  1.0171
  528TMC3    C7 7846   3.603   0.589   1.088  0.5206  0.0413  0.6639
  528TMC3    C8 7847   3.955   0.311   1.236  0.5448 -1.0314 -0.8122
  528TMC3    O1 7848   3.568   0.658   0.997  0.0441 -0.0538 -0.6075
  528TMC3    O2 7849   4.066   0.267   1.205  0.2395 -0.3050  0.7240
  529MPD2     C 7850   1.893   2.907   0.137 -0.1185  0.0381 -0.0256
  529MPD2    C1 7851   2.008   2.945   0.201 -0.8340 -0.6593 -0.4203
  529MPD2    C2 7852   2.075   3.069   0.173  0.5031 -0.3621  0.0563
  529MPD2    C3 7853   2.019   3.164   0.094  0.1515 -0.4601  0.5016
  529MPD2    C4 7854   1.908   3.117   0.019  0.2378 -0.5924 -0.1975
  529MPD2    C5 7855   1.844   2.995   0.045 -0.0754 -0.5047  0.3668
  529MPD2     H 7856   2.170   3.091   0.220  1.5683  0.3603 -2.4394
  529MPD2    H1 7857   1.858   3.172  17.638 -2.0601 -3.9396 -1.1043
  529MPD2    H2 7858   1.831   2.822   0.165  2.8772 -2.1727 -0.0770
  529MPD2    H3 7859   1.751   2.968  17.694  1.9758 -3.0465 -2.2078
  529MPD2     N 7860   2.081   3.280   0.052  0.0568 -0.3607 -0.3572
  529MPD2    H5 7861   2.175   3.294   0.086 -0.9964 -0.8337  2.7309
  529MPD2    N1 7862   2.070   2.857   0.299  0.5699  0.2204  0.0452
  529MPD2    H7 7863   2.151   2.885   0.353  1.4568  0.0418 -1.1732
  530TMC3    C1 7864   2.112   2.663   0.420  0.0820  0.0923 -0.7721
  530TMC3    C2 7865   2.229   2.723   0.463 -0.0667 -0.4369 -0.1225
  530TMC3    C3 7866   2.323   2.650   0.517 -0.4402 -0.4662  0.7800
  530TMC3    C4 7867   2.103   2.530   0.416 -0.1313  0.4319 -0.0169
  530TMC3    C5 7868   2.197   2.460   0.476  0.1099  0.5663 -0.0150
  530TMC3    C6 7869   2.318   2.514   0.518  0.6193  0.1212 -0.2080
  530TMC3     C 7870   2.025   2.727   0.317  0.9490  0.2812  0.2953
  530TMC3     O 7871   1.951   2.652   0.254  0.4847  0.6835  0.4893
  530TMC3     H 7872   2.240   2.830   0.474 -0.4369 -0.2876 -1.1788
  530TMC3    H1 7873   2.012   2.478   0.387  1.4432 -2.2354 -0.1852
  530TMC3    H2 7874   2.399   2.458   0.562 -0.2789  0.5520  2.0143
  530TMC3    C7 7875   2.165   2.336   0.530 -0.0453 -0.7004  0.1076
  530TMC3    C8 7876   2.447   2.723   0.551 -0.3155  0.0786 -0.0019
  530TMC3    O1 7877   2.254   2.266   0.575 -0.4641 -0.2369 -0.2478
  530TMC3    O2 7878   2.472   2.822   0.488  0.4907  0.4596  0.0437
  531MPD2     C 7879   1.753   1.235  13.058 -0.7522 -0.0672  0.1607
  531MPD2    C1 7880   1.726   1.368  13.081  0.4917  0.0019  0.8985
  531MPD2    C2 7881   1.682   1.440  12.973 -0.2147 -0.6142  0.4727
  531MPD2    C3 7882   1.689   1.393  12.842  0.0568  0.0553 -0.4763
  531MPD2    C4 7883   1.722   1.262  12.821 -0.0618 -0.2476  0.4243
  531MPD2    C5 7884   1.744   1.183  12.929  0.3065  0.2644 -0.5676
  531MPD2     H 7885   1.666   1.546  12.989  0.6475 -0.5273  0.7857
  531MPD2    H1 7886   1.725   1.220  12.721  1.5490  0.6686  0.0897
  531MPD2    H2 7887   1.779   1.168  13.139  1.4061  0.0117 -0.4685
  531MPD2    H3 7888   1.775   1.080  12.915  1.5712  0.7407 -1.3287
  531MPD2     N 7889   1.672   1.483  12.739 -0.1167  0.0855 -0.3626
  531MPD2    H5 7890   1.669   1.582  12.760  0.1709  0.2591 -1.1347
  531MPD2    N1 7891   1.729   1.414  13.213 -0.4021 -0.0460  0.0010
  531MPD2    H7 7892   1.778   1.354  13.278 -1.2136 -0.3912  0.2921
  532TMC3    C1 7893   1.647   1.553  13.399  0.5017 -0.2949  0.2437
  532TMC3    C2 7894   1.579   1.666  13.408 -0.0494  0.6601  0.7762
  532TMC3    C3 7895   1.461   1.676  13.477 -0.6447 -0.4651  0.2496
  532TMC3    C4 7896   1.619   1.448  13.483  0.1560  0.1369  0.3540
  532TMC3    C5 7897   1.515   1.469  13.573 -0.4259 -0.3015  0.0305
  532TMC3    C6 7898   1.430   1.574  13.562 -0.3749  0.1815  0.0612
  532TMC3     C 7899   1.671   1.530  13.255 -0.1204 -0.9537  0.4569
  532TMC3     O 7900   1.617   1.619  13.189  0.5453 -0.3488  0.8232
  532TMC3     H 7901   1.610   1.759  13.360  1.0200 -0.9864 -1.6953
  532TMC3    H1 7902   1.660   1.348  13.475  1.3813  0.6590  0.1018
  532TMC3    H2 7903   1.341   1.575  13.624  0.9805  0.5819  1.9930
  532TMC3    C7 7904   1.529   1.427  13.710 -0.0104  0.2210 -0.1017
  532TMC3    C8 7905   1.345   1.748  13.410 -0.0532  0.3289 -0.8308
  532TMC3    O1 7906   1.486   1.507  13.790  0.1373 -0.2046 -0.0645
  532TMC3    O2 7907   1.252   1.790  13.474 -0.1646  0.0418  0.1617
  533TMC3    C1 7908   2.505   3.043  14.070 -0.1966 -0.1133  0.6568
  533TMC3    C2 7909   2.636   3.041  14.102 -0.3911  0.2469  0.5656
  533TMC3    C3 7910   2.676   3.090  14.225  0.5042 -0.5962 -0.1921
  533TMC3    C4 7911   2.407   3.083  14.158 -1.2670  0.0122 -0.5312
  533TMC3    C5 7912   2.453   3.107  14.292 -0.5097 -0.2014 -0.5536
  533TMC3    C6 7913   2.584   3.127  14.326  0.1959 -0.6187  0.2783
  533TMC3     C 7914   2.465   2.929  13.994 -1.0627  0.3444  1.1708
  533TMC3     O 7915   2.536   2.830  14.006  0.0242  0.9412 -0.4312
  533TMC3     H 7916   2.703   2.994  14.030 -2.4238 -0.8747 -0.6149
  533TMC3    H1 7917   2.300   3.070  14.148 -1.1102 -1.4138 -0.3456
  533TMC3    H2 7918   2.621   3.157  14.423 -0.0077 -0.4725  0.3106
  533TMC3    C7 7919   2.358   3.053  14.391 -0.0380  0.4482  0.0807
  533TMC3    C8 7920   2.813   3.083  14.278 -0.4987  0.1020 -0.4098
  533TMC3    O1 7921   2.267   2.984  14.350 -0.5208  0.0218  0.7608
  533TMC3    O2 7922   2.833   3.086  14.401 -0.1044  0.1469 -0.0047
  534MPD2     C 7923   3.293   4.330   1.395 -2.1651  0.1058  0.2691
  534MPD2    C1 7924   3.355   4.385   1.282 -0.1444 -0.1934  0.3523
  534MPD2    C2 7925   3.347   4.310   1.165 -0.1612  0.5211 -0.3942
  534MPD2    C3 7926   3.281   4.190   1.151 -0.6457  0.7246 -0.4521
  534MPD2    C4 7927   3.207   4.143   1.258 -0.9684  0.1099  0.4372
  534MPD2    C5 7928   3.215   4.212   1.384 -0.1108  0.1030 -0.0740
  534MPD2     H 7929   3.405   4.348   1.082  3.6100 -2.5392  0.8638
  534MPD2    H1 7930   3.156   4.048   1.251 -1.5086  0.4820 -0.5742
  534MPD2    H2 7931   3.312   4.359   1.498  0.0743  2.4589 -0.8113
  534MPD2    H3 7932   3.163   4.169   1.468  1.3350 -1.8906 -0.1888
  534MPD2     N 7933   3.289   4.105   1.039 -0.3496 -0.0150 -0.1976
  534MPD2    H5 7934   3.218   4.033   1.026  0.3711 -0.7732  0.0330
  534MPD2    N1 7935   3.435   4.498   1.280 -0.2599  0.1905 -0.0281
  534MPD2    H7 7936   3.465   4.527   1.188 -0.0289 -1.9377 -0.6089
  535TMC3    C1 7937   3.375   4.015   0.842 -0.4030 -0.6983 -0.1771
  535TMC3    C2 7938   3.316   3.895   0.878  0.6250  1.2401  0.2963
  535TMC3    C3 7939   3.354   3.789   0.797 -0.4097 -0.4257 -0.5439
  535TMC3    C4 7940   3.478   4.029   0.756 -0.4854  0.1043 -0.2599
  535TMC3    C5 7941   3.520   3.917   0.693 -0.4701  0.0210  0.5311
  535TMC3    C6 7942   3.449   3.799   0.696  0.0292 -0.2258 -0.4951
  535TMC3     C 7943   3.385   4.113   0.943  0.0680  0.6324 -0.0289
  535TMC3     O 7944   3.490   4.177   0.951 -0.1175 -0.2664  0.0060
  535TMC3     H 7945   3.223   3.895   0.934  0.0122  0.8312 -0.7192
  535TMC3    H1 7946   3.494   4.133   0.730 -0.2955  0.0629 -0.3074
  535TMC3    H2 7947   3.482   3.713   0.640  0.7981  0.1578 -0.6398
  535TMC3    C7 7948   3.639   3.932   0.615  0.1364 -0.6755  0.1993
  535TMC3    C8 7949   3.278   3.664   0.824 -0.3272 -0.3633  0.1102
  535TMC3    O1 7950   3.641   3.852   0.523 -0.3628 -0.2040 -0.8280
  535TMC3    O2 7951   3.255   3.583   0.737  0.5583  0.0543  0.4843
  536MPD2     C 7952   3.802   2.222  15.907 -0.6228  0.0300 -0.4655
  536MPD2    C1 7953   3.680   2.190  15.968  0.1742 -0.1977 -0.5218
  536MPD2    C2 7954   3.576   2.166  15.887  0.5509 -0.4859 -0.3153
  536MPD2    C3 7955   3.588   2.173  15.748 -0.5312  0.6702  0.1415
  536MPD2    C4 7956   3.703   2.217  15.697 -0.1530 -0.5700 -0.4063
  536MPD2    C5 7957   3.817   2.238  15.774  0.3492 -0.2199 -0.6765
  536MPD2     H 7958   3.481   2.133  15.927  0.0205  2.5020  0.8547
  536MPD2    H1 7959   3.719   2.229  15.590 -1.4918  1.0658 -0.4243
  536MPD2    H2 7960   3.883   2.245  15.977  0.4341  2.0617 -2.3587
  536MPD2    H3 7961   3.911   2.261  15.725  1.8112 -3.2059  0.6776
  536MPD2     N 7962   3.478   2.143  15.662  0.2767 -0.7597  0.0181
  536MPD2    H5 7963   3.480   2.171  15.565 -2.9798  0.8587  0.3862
  536MPD2    N1 7964   3.676   2.187  16.110 -0.3526 -0.1963  0.6595
  536MPD2    H7 7965   3.768   2.178  16.152  0.6604 -0.4178 -1.5751
  537TMC3    C1 7966   3.570   2.162  16.326  0.2783  0.0114  0.1634
  537TMC3    C2 7967   3.701   2.158  16.368  0.7068 -0.2521  0.0253
  537TMC3    C3 7968   3.720   2.166  16.503  0.9110  0.7086 -0.4155
  537TMC3    C4 7969   3.463   2.174  16.406  0.3240  0.3304  0.1501
  537TMC3    C5 7970   3.491   2.186  16.538  0.5067 -0.0031 -0.1497
  537TMC3    C6 7971   3.613   2.179  16.588  0.0857  0.6871  0.1486
  537TMC3     C 7972   3.557   2.174  16.179 -0.5080 -0.2955  0.2332
  537TMC3     O 7973   3.444   2.182  16.141  0.1531 -0.4500  0.6518
  537TMC3     H 7974   3.787   2.150  16.302  1.1172  2.7074  0.1876
  537TMC3    H1 7975   3.364   2.187  16.364  0.4221 -0.3484 -0.2892
  537TMC3    H2 7976   3.623   2.201  16.694 -0.0798 -1.1686  0.5428
  537TMC3    C7 7977   3.383   2.153  16.628 -0.4252  0.8211 -0.6492
  537TMC3    C8 7978   3.843   2.183  16.568  0.7022  0.0258 -0.5795
  537TMC3    O1 7979   3.271   2.191  16.601 -0.1000  0.1231  0.0125
  537TMC3    O2 7980   3.844   2.164  16.686 -0.3655  0.2728 -0.0171
  538TMC3    C1 7981   0.105   0.529  10.706  0.5227 -0.2126 -0.2425
  538TMC3    C2 7982   0.115   0.423  10.613 -0.3635  0.6012 -0.1192
  538TMC3    C3 7983   0.078   0.450  10.485 -0.5336 -0.5264 -0.1584
  538TMC3    C4 7984   0.071   0.657  10.665 -0.3364  0.1720  0.5261
  538TMC3    C5 7985   0.049   0.680  10.529 -0.0590 -0.0938  0.0021
  538TMC3    C6 7986   0.041   0.576  10.445 -0.1894 -0.4942  0.0449
  538TMC3     C 7987   0.136   0.516  10.844  0.7345  0.4237 -0.3109
  538TMC3     O 7988   0.068   0.581  10.921  0.2804  0.6471 -0.0653
  538TMC3     H 7989   0.142   0.321  10.639  1.7857  1.1561 -0.1883
  538TMC3    H1 7990   0.064   0.732  10.743  2.2194 -0.5113  1.4325
  538TMC3    H2 7991   0.018   0.592  10.340 -0.0229 -0.1658  0.0593
  538TMC3    C7 7992   4.687   0.793  10.486  0.1407 -0.2328 -0.6561
  538TMC3    C8 7993   0.132   0.374  10.372  0.2944  0.3195 -0.2853
  538TMC3    O1 7994   4.590   0.774  10.412 -0.4499  0.1736  0.4305
  538TMC3    O2 7995   0.064   0.345  10.279  0.2695 -0.4644  0.7139
  539MPD2     C 7996   4.489   4.545  11.606  0.0888 -0.6194 -0.8099
  539MPD2    C1 7997   4.578   4.576  11.503 -0.0640  1.0374 -0.5473
  539MPD2    C2 7998   4.562   4.702  11.446  0.1957 -0.2677  0.1897
  539MPD2    C3 7999   4.481   0.077  11.495  0.1441 -0.7373 -0.1523
  539MPD2    C4 8000   4.395   0.042  11.596 -0.6902  0.0610  0.4623
  539MPD2    C5 8001   4.402   4.642  11.655  0.1690  1.4611 -0.3461
  539MPD2     H 8002   4.630   0.001  11.365  0.3695  1.0199  0.6975
  539MPD2    H1 8003   4.328   0.110  11.648 -1.3227 -0.2432  0.0470
  539MPD2    H2 8004   4.487   4.441  11.637 -0.8930 -0.8021 -1.4908
  539MPD2    H3 8005   4.330   4.615  11.731 -1.0394 -0.6876 -2.2644
  539MPD2     N 8006   4.477   0.204  11.448  0.2798 -0.0566  0.6221
  539MPD2    H5 8007   4.414   0.267  11.496 -1.3920 -0.4822 -1.0414
  539MPD2    N1 8008   4.667   4.476  11.448  0.1224 -0.5635  0.0194
  539MPD2    H7 8009   4.694   4.498  11.353 -1.5954  1.2260 -0.0693
  540TMC3    C1 8010   4.525   0.393  11.326  0.3257 -0.3576  0.4722
  540TMC3    C2 8011   4.513   0.429  11.196 -0.3960 -0.0010  0.4547
  540TMC3    C3 8012   4.460   0.548  11.164  0.7288 -0.0795 -0.1204
  540TMC3    C4 8013   4.484   0.481  11.427 -0.2612 -0.7478 -1.0348
  540TMC3    C5 8014   4.424   0.601  11.391  0.7883  0.3061 -0.5290
  540TMC3    C6 8015   4.407   0.632  11.260 -0.5950  0.5273 -0.0753
  540TMC3     C 8016   4.546   0.258  11.346 -0.4089  0.0145 -0.3054
  540TMC3     O 8017   4.613   0.205  11.255  0.5292 -0.1153 -0.2960
  540TMC3     H 8018   4.566   0.378  11.117 -1.7224 -1.3961  0.4716
  540TMC3    H1 8019   4.499   0.457  11.531 -2.1945 -0.1506 -0.6184
  540TMC3    H2 8020   4.360   0.720  11.217  0.3350  0.1370 -1.8978
  540TMC3    C7 8021   4.353   0.672  11.495  0.5792 -0.1422  0.0983
  540TMC3    C8 8022   4.448   0.583  11.028 -0.0769  0.0618  0.5229
  540TMC3    O1 8023   4.346   0.611  11.603 -0.6977  0.0410 -0.5617
  540TMC3    O2 8024   4.443   0.700  11.003 -0.1122 -0.7659 -0.6555
  541MPD2     C 8025   3.152   1.330  13.159 -0.0845  0.3324  0.5848
  541MPD2    C1 8026   3.122   1.224  13.080 -0.2293 -0.6727 -0.0966
  541MPD2    C2 8027   3.134   1.246  12.943 -0.5941  0.5233  0.1742
  541MPD2    C3 8028   3.157   1.372  12.887  0.6427  0.1081 -0.0903
  541MPD2    C4 8029   3.170   1.482  12.973 -0.2591 -0.5786 -0.2065
  541MPD2    C5 8030   3.173   1.454  13.109 -0.1669  0.1120 -0.3190
  541MPD2     H 8031   3.107   1.165  12.876 -0.4779 -0.1892  0.9881
  541MPD2    H1 8032   3.209   1.575  12.934  0.3066 -0.7296 -0.0027
  541MPD2    H2 8033   3.173   1.322  13.265 -0.1465  1.7387  0.6964
  541MPD2    H3 8034   3.203   1.531  13.179  0.6937 -0.3234 -0.2009
  541MPD2     N 8035   3.151   1.384  12.747 -0.3602  0.1765  0.3443
  541MPD2    H5 8036   3.158   1.296  12.698 -0.0148 -0.2407  1.1482
  541MPD2    N1 8037   3.079   1.104  13.148  0.2022 -0.9446  0.1802
  541MPD2    H7 8038   3.071   1.120  13.248 -2.0586 -0.0354 -0.1540
  542TMC3    C1 8039   3.102   1.471  12.533  0.4848 -0.0719 -0.2728
  542TMC3    C2 8040   3.176   1.394  12.453 -0.2275  0.6009  0.5741
  542TMC3    C3 8041   3.137   1.412  12.320  0.0684 -0.4563  0.0808
  542TMC3    C4 8042   2.998   1.548  12.498  0.1281 -0.2642  0.8874
  542TMC3    C5 8043   2.969   1.555  12.364 -0.0462 -0.2884  0.8941
  542TMC3    C6 8044   3.036   1.484  12.271 -0.0516 -0.1495  0.2449
  542TMC3     C 8045   3.129   1.496  12.674 -0.2529 -0.1488  0.0646
  542TMC3     O 8046   3.096   1.609  12.712 -0.3016 -0.1816 -0.5630
  542TMC3     H 8047   3.243   1.319  12.493 -0.8329  0.9449  2.2365
  542TMC3    H1 8048   2.928   1.580  12.574 -0.8280 -0.3126  0.0265
  542TMC3    H2 8049   3.016   1.499  12.165  2.3578  2.3395  0.1398
  542TMC3    C7 8050   2.886   1.669  12.315 -0.2303  0.2535  0.0523
  542TMC3    C8 8051   3.228   1.365  12.215 -0.0953  0.7495 -0.7784
  542TMC3    O1 8052   2.843   1.669  12.200  0.2573  0.5423 -0.3999
  542TMC3    O2 8053   3.185   1.360  12.103 -0.0612  0.0702 -0.3315
  543TMC3    C1 8054   1.923   3.051  16.694 -0.4379 -0.7547 -0.1195
  543TMC3    C2 8055   1.803   2.990  16.667 -0.2155  0.0987 -0.2028
  543TMC3    C3 8056   1.717   2.952  16.763 -0.0403 -0.0507 -0.2157
  543TMC3    C4 8057   1.965   3.081  16.817  0.3403 -0.1725 -1.1013
  543TMC3    C5 8058   1.867   3.062  16.915  0.0014 -0.3924 -0.0244
  543TMC3    C6 8059   1.746   2.998  16.887 -0.8866 -0.2207  0.1286
  543TMC3     C 8060   2.016   3.029  16.586  0.0506  0.1766  0.2180
  543TMC3     O 8061   2.129   2.984  16.608 -0.0442 -0.4361 -0.0083
  543TMC3     H 8062   1.772   2.966  16.566 -0.4886 -2.6832  0.5330
  543TMC3    H1 8063   2.056   3.134  16.844  0.3788 -0.7125 -0.1433
  543TMC3    H2 8064   1.684   2.974  16.973 -2.4261 -2.7500 -1.6972
  543TMC3    C7 8065   1.899   3.050  17.055 -0.4168 -0.3156  0.1992
  543TMC3    C8 8066   1.701   2.809  16.763 -0.0996 -0.1047 -0.5164
  543TMC3    O1 8067   1.824   3.090  17.135 -0.2723 -0.7085 -0.0608
  543TMC3    O2 8068   1.751   2.738  16.680 -0.1973  0.3074  0.1539
  544MPD2     C 8069   1.531   2.393  17.004  0.2924  0.3579  1.3411
  544MPD2    C1 8070   1.639   2.407  16.920 -0.2252  0.2319 -0.0036
  544MPD2    C2 8071   1.664   2.527  16.848  0.0601  0.8399  0.7758
  544MPD2    C3 8072   1.583   2.637  16.884  0.2884  0.1021  0.3999
  544MPD2    C4 8073   1.475   2.617  16.970 -0.3553  0.0452  0.9106
  544MPD2    C5 8074   1.444   2.498  17.017  0.1135  0.6321 -0.1003
  544MPD2     H 8075   1.759   2.547  16.799  0.9828  1.2115  2.7102
  544MPD2    H1 8076   1.408   2.699  16.993  0.2876  0.3795  1.5735
  544MPD2    H2 8077   1.507   2.299  17.052 -1.0930 -0.3407 -0.7254
  544MPD2    H3 8078   1.352   2.479  17.071  0.1603 -0.9039 -0.5769
  544MPD2     N 8079   1.617   2.772  16.862 -0.6144 -0.1297 -0.1413
  544MPD2    H5 8080   1.554   2.843  16.897  0.9484  2.1702 -2.0312
  544MPD2    N1 8081   1.729   2.305  16.933 -0.3249  0.2238  0.7465
  544MPD2    H7 8082   1.706   2.235  17.003  1.1035 -3.0063 -1.9697
  545TMC3    C1 8083   1.928   2.187  16.919 -0.8933 -0.2583  0.2055
  545TMC3    C2 8084   2.043   2.158  16.848  0.8684  0.4601  0.3082
  545TMC3    C3 8085   2.118   2.054  16.889  0.0657 -0.2829  0.4665
  545TMC3    C4 8086   1.889   2.108  17.022  0.9309  0.3598  0.7382
  545TMC3    C5 8087   1.972   1.995  17.050  0.0427 -0.2160 -0.0848
  545TMC3    C6 8088   2.088   1.961  16.984  0.2967 -0.2856 -0.0470
  545TMC3     C 8089   1.852   2.305  16.870 -0.6648  0.7940  0.5600
  545TMC3     O 8090   1.898   2.371  16.781 -0.5206  0.6161 -0.0185
  545TMC3     H 8091   2.061   2.227  16.766  2.2640 -0.4384 -0.1308
  545TMC3    H1 8092   1.808   2.133  17.089 -0.4249 -0.5545 -0.5582
  545TMC3    H2 8093   2.154   1.878  17.005 -1.3865 -1.1923  1.5677
  545TMC3    C7 8094   1.922   1.907  17.158 -0.3637 -0.3857  0.1887
  545TMC3    C8 8095   2.244   2.021  16.809 -0.3874 -0.5346 -0.2328
  545TMC3    O1 8096   1.801   1.893  17.173  0.2775 -0.2040  0.1605
  545TMC3    O2 8097   2.287   1.907  16.826 -0.1464  0.1166 -0.1874
  546MPD2     C 8098   3.613   2.169  17.054  0.1246 -0.0563 -0.1423
  546MPD2    C1 8099   3.581   2.282  16.979 -0.0672 -0.2975 -0.5308
  546MPD2    C2 8100   3.678   2.383  16.968 -0.9106  0.0507 -0.1724
  546MPD2    C3 8101   3.798   2.378  17.036  0.3590  0.2023 -0.4827
  546MPD2    C4 8102   3.833   2.256  17.100 -0.0084  0.0603 -0.2444
  546MPD2    C5 8103   3.740   2.151  17.101  0.4235  0.0976 -0.0774
  546MPD2     H 8104   3.652   2.469  16.907 -0.7367  0.2270 -0.0006
  546MPD2    H1 8105   3.916   2.239  17.167  0.1517  0.5327 -0.3229
  546MPD2    H2 8106   3.546   2.084  17.059 -1.2478  1.0167 -0.1291
  546MPD2    H3 8107   3.772   2.058  17.146  1.6510  2.0343  3.1201
  546MPD2     N 8108   3.886   2.488  17.055 -0.0882 -0.0449  0.2330
  546MPD2    H5 8109   3.970   2.472  17.111  1.1678 -0.9779 -1.9138
  546MPD2    N1 8110   3.448   2.287  16.930 -0.2955 -0.2517 -0.1711
  546MPD2    H7 8111   3.379   2.217  16.956 -2.6560  1.8004 -0.9179
  547TMC3    C1 8112   3.242   2.384  16.882 -0.5087 -0.1699  0.1923
  547TMC3    C2 8113   3.163   2.434  16.788 -0.0501  0.3362  0.8439
  547TMC3    C3 8114   3.025   2.423  16.784  0.1765  0.4264 -0.8821
  547TMC3    C4 8115   3.182   2.328  16.992 -0.7047  0.0659 -0.2182
  547TMC3    C5 8116   3.040   2.324  16.994 -0.0028 -0.7056 -0.1477
  547TMC3    C6 8117   2.960   2.361  16.890 -0.2291 -0.4148  0.4370
  547TMC3     C 8118   3.388   2.388  16.868 -0.6012 -0.4202 -0.2275
  547TMC3     O 8119   3.440   2.474  16.799  0.4687 -0.2318 -0.8788
  547TMC3     H 8120   3.207   2.503  16.716  0.1366 -1.5660 -0.8770
  547TMC3    H1 8121   3.232   2.300  17.083  0.8015  0.8898 -0.7992
  547TMC3    H2 8122   2.856   2.330  16.893 -0.1526 -0.6143  0.9608
  547TMC3    C7 8123   2.979   2.298  17.122 -0.2211  0.6456 -0.1672
  547TMC3    C8 8124   2.952   2.413  16.662 -0.5145  0.0361  0.0295
  547TMC3    O1 8125   3.056   2.253  17.207 -0.5230 -0.8087  0.1386
  547TMC3    O2 8126   2.837   2.448  16.652  0.1502  0.7680 -0.4209
  548MPD2     C 8127   3.661   3.232  12.309  0.6297  0.4197  0.2431
  548MPD2    C1 8128   3.611   3.121  12.378  0.3497 -0.2572  0.2463
  548MPD2    C2 8129   3.665   2.994  12.352  0.0497 -0.1812 -0.8082
  548MPD2    C3 8130   3.769   2.979  12.270 -0.3747 -0.3765  0.3642
  548MPD2    C4 8131   3.832   3.091  12.213 -0.1751 -0.4061 -0.1266
  548MPD2    C5 8132   3.779   3.215  12.233  0.7584 -0.0041  0.4201
  548MPD2     H 8133   3.609   2.905  12.379  2.2346 -0.6461  2.0791
  548MPD2    H1 8134   3.914   3.073  12.144  1.6222  0.1028  1.8680
  548MPD2    H2 8135   3.608   3.327  12.320 -0.8804 -0.2712 -1.0833
  548MPD2    H3 8136   3.803   3.301  12.171  0.1093  1.4823  2.2079
  548MPD2     N 8137   3.795   2.841  12.237  0.4770  0.3738 -0.5847
  548MPD2    H5 8138   3.757   2.775  12.305 -1.1587  2.3288  0.4011
  548MPD2    N1 8139   3.485   3.140  12.444 -0.4338  0.1812 -0.3539
  548MPD2    H7 8140   3.433   3.225  12.423 -1.7287 -1.4694 -3.7713
  549TMC3    C1 8141   3.287   3.071  12.550  0.3402 -0.2249  0.4410
  549TMC3    C2 8142   3.253   3.200  12.584 -0.4413 -0.1421  0.5194
  549TMC3    C3 8143   3.117   3.234  12.582 -0.3342  0.2723 -0.2487
  549TMC3    C4 8144   3.200   2.980  12.504 -0.9271 -0.1871  0.5332
  549TMC3    C5 8145   3.075   3.021  12.491 -0.3214 -0.6355 -0.4206
  549TMC3    C6 8146   3.024   3.142  12.534  0.0391 -0.6980  0.2723
  549TMC3     C 8147   3.426   3.044  12.524  0.2010 -0.1832  0.5048
  549TMC3     O 8148   3.472   2.937  12.575  0.2233  0.0763 -0.1680
  549TMC3     H 8149   3.328   3.264  12.630 -0.0746 -0.3559  0.2119
  549TMC3    H1 8150   3.247   2.886  12.475 -2.0273 -0.9867  1.3179
  549TMC3    H2 8151   2.919   3.164  12.526  0.2399  0.5444  1.1459
  549TMC3    C7 8152   2.968   2.925  12.447  0.6047 -0.1552  0.0526
  549TMC3    C8 8153   3.074   3.375  12.564 -1.0643  0.2046  0.8155
  549TMC3    O1 8154   2.856   2.964  12.421 -0.4089 -0.2834  0.0985
  549TMC3    O2 8155   2.954   3.394  12.555 -0.2592  0.1640 -0.0400
  550TMC3    C1 8156   2.012   0.817  12.583  0.7303  0.8673 -0.1772
  550TMC3    C2 8157   2.036   0.938  12.642 -0.4365 -0.4807  0.0094
  550TMC3    C3 8158   2.115   1.025  12.574  0.5931 -0.0590 -0.5511
  550TMC3    C4 8159   2.085   0.774  12.471  0.6455  0.0831  0.3549
  550TMC3    C5 8160   2.152   0.866  12.406 -0.4166 -0.0192  0.2963
  550TMC3    C6 8161   2.176   0.989  12.459 -0.2163  0.6710 -1.1178
  550TMC3     C 8162   1.883   0.761  12.597  0.5888  0.2545  0.6002
  550TMC3     O 8163   1.835   0.756  12.707  0.0047  0.1620 -0.6102
  550TMC3     H 8164   1.983   0.970  12.730 -0.8821 -2.0490  0.3107
  550TMC3    H1 8165   2.070   0.676  12.427  2.2183  0.0553 -0.1064
  550TMC3    H2 8166   2.223   1.071  12.405 -0.7002  2.4280  1.1281
  550TMC3    C7 8167   2.125   0.856  12.264 -0.0153  0.6781 -0.0309
  550TMC3    C8 8168   2.117   1.170  12.605  1.1690 -1.0017 -0.0610
  550TMC3    O1 8169   2.018   0.800  12.233 -0.0129 -0.0937 -0.4742
  550TMC3    O2 8170   2.169   1.241  12.520 -0.1510  0.4452  0.0230
  551TMC3    C1 8171   4.353   3.677  13.117  0.5377  0.5594  0.6633
  551TMC3    C2 8172   4.376   3.742  13.002 -0.4288  0.0097 -0.5800
  551TMC3    C3 8173   4.442   3.861  13.015 -0.7854  0.1303 -0.2406
  551TMC3    C4 8174   4.383   3.728  13.244 -0.3839  0.3274  0.3185
  551TMC3    C5 8175   4.458   3.842  13.245 -0.3155 -0.1976  0.6052
  551TMC3    C6 8176   4.477   3.920  13.137 -0.0622  0.4949  0.1752
  551TMC3     C 8177   4.291   3.553  13.102 -0.3836 -0.0667  0.6302
  551TMC3     O 8178   4.289   3.506  12.983  0.2024  0.0316  0.0532
  551TMC3     H 8179   4.347   3.702  12.906  0.2564  0.6750 -1.0667
  551TMC3    H1 8180   4.361   3.676  13.336 -1.8651 -0.5931 -0.5651
  551TMC3    H2 8181   4.533   4.012  13.148  0.2315  0.1894  1.2286
  551TMC3    C7 8182   4.505   3.891  13.378 -0.4189 -0.3858  0.3555
  551TMC3    C8 8183   4.510   3.907  12.894  0.3810  0.1366  0.0345
  551TMC3    O1 8184   4.523   3.805  13.463 -0.3668 -0.1844  0.3770
  551TMC3    O2 8185   4.498   3.833  12.800  0.1100  0.1182 -0.1562
  552MPD2     C 8186   1.544   0.465  14.385  0.2985 -0.4089  0.4293
  552MPD2    C1 8187   1.638   0.436  14.291  0.4135 -0.3070  0.3648
  552MPD2    C2 8188   1.754   0.511  14.302 -0.3069 -0.1709  1.0569
  552MPD2    C3 8189   1.778   0.606  14.400 -0.9883 -0.6328  0.1744
  552MPD2    C4 8190   1.689   0.624  14.499 -0.6234 -0.3385  0.3905
  552MPD2    C5 8191   1.575   0.554  14.490 -0.4327  0.5453 -0.6431
  552MPD2     H 8192   1.826   0.476  14.229 -0.1195  0.3424  0.9938
  552MPD2    H1 8193   1.712   0.695  14.578  0.2997  0.3850 -0.5282
  552MPD2    H2 8194   1.442   0.431  14.368 -0.1456  1.4745 -0.5883
  552MPD2    H3 8195   1.489   0.583  14.550  0.5667  0.2129  0.9335
  552MPD2     N 8196   1.893   0.681  14.405  0.7042  0.2140 -0.2718
  552MPD2    H5 8197   1.900   0.739  14.488  1.3463  0.0385 -0.2046
  552MPD2    N1 8198   1.623   0.343  14.192 -0.2767  0.1754  0.2035
  552MPD2    H7 8199   1.691   0.349  14.117 -1.8406 -0.3564 -1.2738
  553TMC3    C1 8200   1.526   0.184  14.043 -0.1538 -0.3133 -0.3029
  553TMC3    C2 8201   1.415   0.195  13.961  0.2871  0.0735  0.0925
  553TMC3    C3 8202   1.432   0.192  13.827 -0.0829  0.3709  0.6587
  553TMC3    C4 8203   1.645   0.167  13.992 -0.4586  0.2358  0.6274
  553TMC3    C5 8204   1.659   0.150  13.857  0.5956 -0.5348  0.6044
  553TMC3    C6 8205   1.551   0.149  13.774  0.8256 -0.3653  0.0774
  553TMC3     C 8206   1.516   0.259  14.172 -0.5854 -0.1557  0.5452
  553TMC3     O 8207   1.413   0.233  14.236  0.2705  0.9365  0.5992
  553TMC3     H 8208   1.320   0.234  13.998  0.3260 -0.4073  0.6946
  553TMC3    H1 8209   1.730   0.162  14.059 -0.9018  2.6998  1.3448
  553TMC3    H2 8210   1.559   0.139  13.667  0.6357  2.3115 -0.1973
  553TMC3    C7 8211   1.791   0.130  13.786  0.0291  0.2712 -0.5602
  553TMC3    C8 8212   1.324   0.211  13.737  0.0172 -0.1710  0.7335
  553TMC3    O1 8213   1.782   0.083  13.672 -0.3059 -0.4822  0.3977
  553TMC3    O2 8214   1.288   0.109  13.674  0.0850 -0.0006 -0.6353
  554TMC3    C1 8215   3.955   4.558  11.518  0.3999  0.0262 -0.1859
  554TMC3    C2 8216   3.888   4.504  11.409 -0.0629  0.7294 -0.7671
  554TMC3    C3 8217   3.927   4.528  11.282  0.2245  0.2369 -0.7667
  554TMC3    C4 8218   4.054   4.651  11.491  0.2323 -0.0842 -0.5106
  554TMC3    C5 8219   4.086   4.670  11.358  0.5210  0.1750 -0.2072
  554TMC3    C6 8220   4.025   4.615  11.255 -0.1074 -0.2776  0.1801
  554TMC3     C 8221   3.957   4.492  11.655 -0.1371  0.0132 -0.1732
  554TMC3     O 8222   4.066   4.490  11.714  0.2420  0.4999  0.0241
  554TMC3     H 8223   3.807   4.436  11.429  0.3940  0.4405  0.1240
  554TMC3    H1 8224   4.122   4.687  11.567  0.9622 -0.6612 -0.8933
  554TMC3    H2 8225   4.038   4.654  11.155 -0.7153 -2.0857 -0.5956
  554TMC3    C7 8226   4.137   0.077  11.316  0.5330  0.2846  0.5321
  554TMC3    C8 8227   3.854   4.476  11.169  0.5070 -0.0469  0.1681
  554TMC3    O1 8228   4.195   0.079  11.206  0.4252  0.0457  0.9078
  554TMC3    O2 8229   3.864   4.551  11.074  0.9235  0.6386  0.1835
  555TMC3    C1 8230   2.722   3.977  14.843 -0.5059 -0.6514 -0.1948
  555TMC3    C2 8231   2.780   4.070  14.930  0.5727  0.5188 -0.4110
  555TMC3    C3 8232   2.814   4.025  15.057 -0.0249  0.3474 -0.1395
  555TMC3    C4 8233   2.720   3.841  14.874 -1.2509  0.1640  0.5174
  555TMC3    C5 8234   2.763   3.806  15.004 -1.0110 -0.2836 -0.2624
  555TMC3    C6 8235   2.812   3.893  15.092 -1.1226 -0.3260  0.1708
  555TMC3     C 8236   2.737   4.002  14.698  0.4909  0.5307 -0.5783
  555TMC3     O 8237   2.785   3.904  14.644  0.3611 -0.4201 -0.2130
  555TMC3     H 8238   2.777   4.173  14.898 -0.1322  0.1399 -1.5557
  555TMC3    H1 8239   2.692   3.774  14.794 -1.1902  2.7488 -1.6931
  555TMC3    H2 8240   2.866   3.859  15.180 -0.9784  0.5102  0.4078
  555TMC3    C7 8241   2.729   3.678  15.053 -0.4417 -0.3487 -0.1155
  555TMC3    C8 8242   2.861   4.133  15.152  0.0961 -0.3105  0.5642
  555TMC3    O1 8243   2.634   3.615  15.001 -0.0886  0.0097  0.7872
  555TMC3    O2 8244   2.882   4.247  15.112 -0.1521 -0.0234  1.1172
  556MPD2     C 8245   1.210   1.096  10.470  0.0862  0.1716 -0.1005
  556MPD2    C1 8246   1.161   1.016  10.567 -0.7314 -0.1296  1.0020
  556MPD2    C2 8247   1.132   0.882  10.533 -0.3326 -0.1921 -0.3034
  556MPD2    C3 8248   1.163   0.837  10.411 -0.6317 -0.2537 -0.0169
  556MPD2    C4 8249   1.209   0.920  10.307 -0.6907  0.4059  0.3173
  556MPD2    C5 8250   1.222   1.055  10.339  0.3753  0.0114 -0.2733
  556MPD2     H 8251   1.093   0.812  10.606 -0.0605  0.8916  0.8803
  556MPD2    H1 8252   1.235   0.889  10.207 -2.0471  1.2845 -0.2945
  556MPD2    H2 8253   1.232   1.200  10.488 -2.0012  0.5914  0.0511
  556MPD2    H3 8254   1.248   1.121  10.257  1.9334 -0.1069  0.1355
  556MPD2     N 8255   1.141   0.699  10.389 -0.4403  0.3860 -0.5999
  556MPD2    H5 8256   1.074   0.643  10.440  1.6609 -1.8115 -0.2683
  556MPD2    N1 8257   1.126   1.057  10.702  0.0036 -0.1657 -0.0492
  556MPD2    H7 8258   1.069   0.993  10.756 -0.0888  0.3818  0.4995
  557TMC3    C1 8259   1.120   0.508  10.278 -0.3082 -0.5793  0.2499
  557TMC3    C2 8260   1.208   0.405  10.277 -0.0947  0.4783  0.0288
  557TMC3    C3 8261   1.145   0.283  10.274  0.2921  0.2481  0.0066
  557TMC3    C4 8262   0.986   0.500  10.287 -0.9548 -0.2508  0.1852
  557TMC3    C5 8263   0.926   0.373  10.296 -0.2161  0.0977  0.0587
  557TMC3    C6 8264   1.008   0.263  10.288  0.3116 -0.0291 -0.1185
  557TMC3     C 8265   1.187   0.632  10.285 -0.2677  0.0745  0.8137
  557TMC3     O 8266   1.284   0.664  10.217  0.1403 -0.1382 -0.3939
  557TMC3     H 8267   1.315   0.414  10.259  0.6294 -1.6935  3.3063
  557TMC3    H1 8268   0.926   0.590  10.281 -0.0252  0.2816 -1.1106
  557TMC3    H2 8269   0.957   0.169  10.275 -1.8610  0.8050  2.4302
  557TMC3    C7 8270   0.786   0.370  10.333 -0.2159  0.2445  0.1323
  557TMC3    C8 8271   1.226   0.180  10.217 -0.6629 -0.2320  0.6565
  557TMC3    O1 8272   0.732   0.481  10.358  0.1781  0.4368  0.2896
  557TMC3    O2 8273   1.344   0.169  10.246 -0.4536  0.3889 -0.3664
  558TMC3    C1 8274   3.898   3.149   9.852 -0.1415 -0.0670 -0.0132
  558TMC3    C2 8275   3.793   3.212   9.908 -0.5952  0.0385 -1.0544
  558TMC3    C3 8276   3.673   3.185   9.853  0.0735 -0.3485  0.3129
  558TMC3    C4 8277   3.882   3.049   9.752  0.3018  0.1553 -0.0362
  558TMC3    C5 8278   3.763   3.046   9.695 -0.1795  0.3603  0.0011
  558TMC3    C6 8279   3.655   3.109   9.738 -0.2283 -0.4514 -0.3568
  558TMC3     C 8280   4.025   3.198   9.901 -0.2665 -0.3688 -0.6272
  558TMC3     O 8281   4.016   3.270   9.997 -1.1018 -0.2404  0.2412
  558TMC3     H 8282   3.804   3.299   9.972 -0.2167 -0.4304 -0.4866
  558TMC3    H1 8283   3.970   2.994   9.721  2.1712  3.1926 -0.1885
  558TMC3    H2 8284   3.552   3.097   9.708 -0.2508  0.6516 -0.7202
  558TMC3    C7 8285   3.759   2.962   9.579 -0.2823  0.5411  0.6285
  558TMC3    C8 8286   3.557   3.273   9.885 -0.1023 -0.0458  0.4131
  558TMC3    O1 8287   3.871   2.931   9.534 -0.8454  0.1988  0.0693
  558TMC3    O2 8288   3.486   3.321   9.800 -0.2333  0.0998  0.3188
  559MPD2     C 8289   3.468   4.295  10.239  0.5582  0.1990 -0.4751
  559MPD2    C1 8290   3.397   4.209  10.321  0.1238  0.1875 -0.7147
  559MPD2    C2 8291   3.464   4.141  10.429  0.1929  0.2036  0.2324
  559MPD2    C3 8292   3.592   4.177  10.460  0.4872 -0.5100 -0.1550
  559MPD2    C4 8293   3.661   4.262  10.378 -0.2260  0.4673 -0.4320
  559MPD2    C5 8294   3.600   4.306  10.262  0.6783 -0.1878 -0.8220
  559MPD2     H 8295   3.413   4.081  10.503  1.7388  0.6579  1.6758
  559MPD2    H1 8296   3.765   4.289  10.387 -0.1674  0.4662 -1.1178
  559MPD2    H2 8297   3.421   4.360  10.166 -0.6199 -1.2154 -0.9941
  559MPD2    H3 8298   3.666   4.369  10.203 -0.1805 -0.3405 -1.9431
  559MPD2     N 8299   3.646   4.137  10.583  0.4956  0.0224  0.2418
  559MPD2    H5 8300   3.598   4.063  10.633 -0.0808  0.3606  0.1854
  559MPD2    N1 8301   3.258   4.215  10.312 -0.5806 -0.2056  0.2147
  559MPD2    H7 8302   3.221   4.283  10.247 -0.6358  0.6479  1.1558
  560TMC3    C1 8303   3.807   4.100  10.745  0.1482  0.1367  0.2405
  560TMC3    C2 8304   3.772   3.966  10.747  0.2735  0.2406  0.0136
  560TMC3    C3 8305   3.814   3.894  10.857  0.0965 -0.6163 -0.2141
  560TMC3    C4 8306   3.902   4.156  10.823 -0.2090 -0.4630 -0.1216
  560TMC3    C5 8307   3.944   4.073  10.929  0.3098  0.4420  0.1668
  560TMC3    C6 8308   3.897   3.947  10.951 -0.2744  0.2241  0.4680
  560TMC3     C 8309   3.764   4.188  10.635  1.1859  0.5991 -0.1581
  560TMC3     O 8310   3.834   4.279  10.599  0.1698  0.4312 -0.2179
  560TMC3     H 8311   3.706   3.916  10.677  0.2106 -2.1325  1.7917
  560TMC3    H1 8312   3.902   4.264  10.834 -0.9770 -0.6529  1.7433
  560TMC3    H2 8313   3.926   3.893  11.040  1.6730  3.4375  1.8075
  560TMC3    C7 8314   4.026   4.139  11.029 -0.3275  0.2438 -0.3399
  560TMC3    C8 8315   3.764   3.756  10.853 -0.0530  0.5181  0.3888
  560TMC3    O1 8316   4.047   4.075  11.132 -0.6180 -0.7979 -0.0597
  560TMC3    O2 8317   3.687   3.734  10.758 -0.3321 -0.8672 -0.4190
  561TMC3    C1 8318   1.227   3.746  11.240 -0.5831  0.0425 -0.0527
  561TMC3    C2 8319   1.183   3.771  11.369 -0.4169  0.0688  0.1816
  561TMC3    C3 8320   1.173   3.899  11.410 -0.6272  0.9275  0.1006
  561TMC3    C4 8321   1.267   3.845  11.152 -0.7227  0.5957  0.1797
  561TMC3    C5 8322   1.244   3.975  11.195 -0.3214  0.3098 -0.1213
  561TMC3    C6 8323   1.197   3.999  11.324 -0.3929  0.2981  0.3112
  561TMC3     C 8324   1.270   3.615  11.207  0.0075 -0.3060  0.0741
  561TMC3     O 8325   1.201   3.520  11.248 -0.4765 -0.7055  0.3394
  561TMC3     H 8326   1.155   3.686  11.430 -0.6070  0.7335  1.0281
  561TMC3    H1 8327   1.308   3.830  11.053 -1.9928  0.7846 -0.3860
  561TMC3    H2 8328   1.185   4.104  11.351  1.4950  0.2922  1.1695
  561TMC3    C7 8329   1.270   4.092  11.109  0.7474 -0.1782  0.2924
  561TMC3    C8 8330   1.171   3.932  11.549 -0.3221  0.0102  0.3996
  561TMC3    O1 8331   1.209   4.194  11.136  0.0608 -0.2797  0.2923
  561TMC3    O2 8332   1.217   4.040  11.580  0.5299  0.1303 -0.4444
  562TMC3    C1 8333   2.640   4.371  15.574  0.1448  0.3032 -0.3763
  562TMC3    C2 8334   2.562   4.386  15.691 -0.7223  0.4251  0.3636
  562TMC3    C3 8335   2.487   4.279  15.737 -0.1350 -0.0132  0.4747
  562TMC3    C4 8336   2.645   4.246  15.510  0.2929 -0.0746  0.2353
  562TMC3    C5 8337   2.550   4.159  15.546  0.1627  0.3396 -0.8051
  562TMC3    C6 8338   2.480   4.168  15.657  0.8126 -0.2662 -0.1078
  562TMC3     C 8339   2.676   4.485  15.505  0.6958  0.3839  1.0595
  562TMC3     O 8340   2.716   4.479  15.387 -0.3965 -0.1656  0.0921
  562TMC3     H 8341   2.549   4.478  15.748 -1.6391 -0.3259  1.3793
  562TMC3    H1 8342   2.696   4.224  15.417 -1.2063 -2.1784 -0.0723
  562TMC3    H2 8343   2.390   4.110  15.672 -0.5082  2.5094  2.7469
  562TMC3    C7 8344   2.563   4.031  15.490  0.8217 -0.0369  0.0843
  562TMC3    C8 8345   2.365   4.311  15.798  0.0563 -0.1338  0.4525
  562TMC3    O1 8346   2.572   4.018  15.366  0.1928  0.3068 -0.4906
  562TMC3    O2 8347   2.359   4.295  15.918  0.3461 -0.0778  0.0725
  563MPD2     C 8348   4.233   0.837  15.649 -0.1923  0.5626  0.3677
  563MPD2    C1 8349   4.257   0.882  15.778  0.2047 -0.2661 -0.2713
  563MPD2    C2 8350   4.385   0.888  15.819  0.4786 -0.0331 -0.3022
  563MPD2    C3 8351   4.491   0.844  15.745 -0.4546  0.0608  0.2254
  563MPD2    C4 8352   4.463   0.787  15.621  0.1253  0.1261 -0.7291
  563MPD2    C5 8353   4.340   0.794  15.568  0.4085 -0.1066 -0.2857
  563MPD2     H 8354   4.392   0.945  15.911  3.2417 -1.6120  0.4851
  563MPD2    H1 8355   4.543   0.776  15.547  0.5984  0.7566 -0.3129
  563MPD2    H2 8356   4.137   0.844  15.598 -0.1198 -0.0729  0.1378
  563MPD2    H3 8357   4.323   0.770  15.464 -2.4721  1.9428 -0.2859
  563MPD2     N 8358   4.625   0.867  15.785  0.4437 -0.2740  0.0096
  563MPD2    H5 8359   4.640   0.935  15.858 -0.3753 -1.6572  1.4742
  563MPD2    N1 8360   4.143   0.932  15.855 -0.6083 -0.0388  0.1561
  563MPD2    H7 8361   4.158   0.972  15.947 -1.2731 -0.5727  0.5009
  564TMC3    C1 8362   3.931   0.927  15.951  0.3568  0.6428  0.2521
  564TMC3    C2 8363   3.836   0.828  15.941  0.9434  0.0592  0.7256
  564TMC3    C3 8364   3.821   0.736  16.040  0.5930 -0.2978 -0.8179
  564TMC3    C4 8365   4.007   0.939  16.070  0.7801 -0.0619  0.0275
  564TMC3    C5 8366   3.992   0.842  16.161 -0.0584  0.1846  0.1015
  564TMC3    C6 8367   3.898   0.741  16.155 -0.2616 -0.3182 -0.4161
  564TMC3     C 8368   4.011   0.919  15.826  0.1365  0.8451  0.3070
  564TMC3     O 8369   3.958   0.848  15.742  0.1994  0.1095  0.2005
  564TMC3     H 8370   3.765   0.829  15.859  0.1620 -0.4355  1.3956
  564TMC3    H1 8371   4.079   1.018  16.088  1.2167 -0.3863 -0.2804
  564TMC3    H2 8372   3.883   0.658  16.223  0.0200  0.2528  0.3434
  564TMC3    C7 8373   4.115   0.790  16.215  0.1462  0.1185  0.3964
  564TMC3    C8 8374   3.846   0.603  15.988  0.4042 -0.4214 -0.0250
  564TMC3    O1 8375   4.210   0.869  16.233  0.3448 -0.3510  0.4048
  564TMC3    O2 8376   3.868   0.510  16.065  0.0064 -0.0346 -0.2487
  565TMC3    C1 8377   0.631   1.938  10.099 -0.5642  0.0885  0.0459
  565TMC3    C2 8378   0.662   1.913  10.230 -0.2894  0.1836  0.0119
  565TMC3    C3 8379   0.650   1.782  10.270  0.1188  0.1526 -0.4094
  565TMC3    C4 8380   0.588   1.851  10.008 -1.0111  0.4745  0.1766
  565TMC3    C5 8381   0.590   1.719  10.052 -0.5999 -0.5527  0.4660
  565TMC3    C6 8382   0.615   1.683  10.180  0.2031 -0.0012 -0.5005
  565TMC3     C 8383   0.634   2.074  10.053  0.5282  0.4435  0.3021
  565TMC3     O 8384   0.635   2.087   9.931  0.1199  0.0188  0.2915
  565TMC3     H 8385   0.696   1.991  10.297 -1.1240 -0.5095  1.2279
  565TMC3    H1 8386   0.571   1.870   9.902  1.4358  2.0652  0.0516
  565TMC3    H2 8387   0.587   1.584  10.213  1.0472 -0.1250 -0.1538
  565TMC3    C7 8388   0.512   1.630   9.970 -0.2745 -0.3382 -0.7764
  565TMC3    C8 8389   0.687   1.753  10.409 -0.2868 -0.4085 -0.3604
  565TMC3    O1 8390   0.421   1.571  10.031 -0.1839 -1.0988 -0.0957
  565TMC3    O2 8391   0.713   1.847  10.479  0.1897  0.3300  0.4984
  566MPD2     C 8392   1.935   3.830  14.064  0.0359 -0.0220 -0.6861
  566MPD2    C1 8393   2.002   3.791  13.954  0.6142  0.2726 -0.4933
  566MPD2    C2 8394   1.926   3.782  13.836 -0.1609  0.3913  0.2100
  566MPD2    C3 8395   1.785   3.819  13.836 -0.3329 -0.1624  0.0329
  566MPD2    C4 8396   1.728   3.859  13.955  0.0392 -0.4448  0.3558
  566MPD2    C5 8397   1.807   3.874  14.065 -0.2789  0.2818 -0.7124
  566MPD2     H 8398   1.979   3.753  13.745  0.4302 -1.3253  1.0858
  566MPD2    H1 8399   1.627   3.892  13.975 -0.0025 -0.2197 -0.2175
  566MPD2    H2 8400   1.984   3.844  14.160 -0.5071  1.5233 -0.6412
  566MPD2    H3 8401   1.767   3.902  14.162  0.2439  0.6646 -0.6058
  566MPD2     N 8402   1.707   3.834  13.719 -0.3531 -0.2187 -0.3335
  566MPD2    H5 8403   1.626   3.894  13.720 -0.8353 -0.8733  0.0103
  566MPD2    N1 8404   2.139   3.770  13.977 -0.6499 -0.0638  0.8236
  566MPD2    H7 8405   2.173   3.775  14.073  1.1409  2.3520  0.0687
  567TMC3    C1 8406   2.361   3.767  13.909 -0.0095  0.5749  0.1075
  567TMC3    C2 8407   2.460   3.792  13.810  0.3053  0.3896  0.0742
  567TMC3    C3 8408   2.591   3.826  13.837  0.3014  0.0542  0.1697
  567TMC3    C4 8409   2.402   3.770  14.042 -0.4718 -0.1057 -0.4293
  567TMC3    C5 8410   2.531   3.798  14.072  0.2997  0.0406  0.6609
  567TMC3    C6 8411   2.623   3.835  13.972 -0.0534 -0.3602 -0.4046
  567TMC3     C 8412   2.227   3.769  13.870 -0.7651  0.0099 -0.1068
  567TMC3     O 8413   2.207   3.776  13.749  0.2861 -0.0828 -0.5779
  567TMC3     H 8414   2.441   3.769  13.705 -2.0310 -0.0530  0.6070
  567TMC3    H1 8415   2.335   3.747  14.124  1.9405 -0.5871  1.4332
  567TMC3    H2 8416   2.727   3.849  14.000  0.2284 -0.6795 -1.2889
  567TMC3    C7 8417   2.578   3.772  14.205  0.6759 -0.1338 -0.0931
  567TMC3    C8 8418   2.636   3.940  13.749 -0.1274  0.5475  0.5703
  567TMC3    O1 8419   2.695   3.746  14.230 -0.7034  0.0796  0.0982
  567TMC3    O2 8420   2.573   3.944  13.642  0.3578 -0.1218 -1.0381
  568MPD2     C 8421   4.451   4.185  16.529 -0.0523  0.1349  0.6305
  568MPD2    C1 8422   4.336   4.252  16.568  0.1941  0.7048  0.1608
  568MPD2    C2 8423   4.274   4.337  16.480  1.0721  0.9437  0.8674
  568MPD2    C3 8424   4.323   4.354  16.350  0.4815  0.6354 -0.0780
  568MPD2    C4 8425   4.427   4.283  16.306 -0.5877 -0.1197  0.3542
  568MPD2    C5 8426   4.491   4.197  16.396  0.2837  0.1660  0.4720
  568MPD2     H 8427   4.185   4.395  16.503  1.0563  1.3354 -0.1609
  568MPD2    H1 8428   4.459   4.291  16.203  1.8811  0.5532  1.1650
  568MPD2    H2 8429   4.487   4.110  16.598  0.0554 -0.9512 -0.5896
  568MPD2    H3 8430   4.559   4.125  16.352 -0.5720 -1.1669  1.3148
  568MPD2     N 8431   4.236   4.435  16.265  0.3859 -0.2300  0.8581
  568MPD2    H5 8432   4.166   4.490  16.313 -2.0241 -1.4890 -1.1674
  568MPD2    N1 8433   4.297   4.233  16.702 -0.0647  0.5736 -0.3616
  568MPD2    H7 8434   4.366   4.190  16.763 -2.2287 -0.7956  1.1184
  569TMC3    C1 8435   4.147   4.543  16.082  0.3282 -0.2110 -0.6438
  569TMC3    C2 8436   4.082   4.622  16.173  0.5142  0.2498  0.0292
  569TMC3    C3 8437   3.981   4.696  16.129 -0.1285 -0.3933 -0.2723
  569TMC3    C4 8438   4.117   4.547  15.947  0.4600 -0.7104 -0.2273
  569TMC3    C5 8439   4.013   4.633  15.905  0.0495  0.6068  0.6788
  569TMC3    C6 8440   3.935   4.693  16.004 -0.9686 -0.8050  0.5987
  569TMC3     C 8441   4.254   4.456  16.128  1.0194  0.0603  0.9127
  569TMC3     O 8442   4.327   4.404  16.046  0.1763  0.3516 -0.5006
  569TMC3     H 8443   4.118   4.643  16.273  0.4387 -1.9107  0.5004
  569TMC3    H1 8444   4.190   4.503  15.880 -0.1256 -0.1297 -1.2502
  569TMC3    H2 8445   3.839   0.014  15.979 -0.4694 -1.1861 -2.0546
  569TMC3    C7 8446   4.049   0.003  15.804 -0.3387 -1.1286 -0.1844
  569TMC3    C8 8447   3.948   0.093  16.205  0.8259 -0.3850  1.4357
  569TMC3    O1 8448   4.106   4.699  15.699  0.2248  0.3937 -0.9448
  569TMC3    O2 8449   3.845   0.149  16.163 -0.1838  0.3436 -0.1482
  570TMC3    C1 8450   3.868   3.356  16.287 -0.2127 -0.4637 -0.4015
  570TMC3    C2 8451   3.977   3.322  16.204  0.1083  0.3188  0.6324
  570TMC3    C3 8452   4.074   3.414  16.181  0.5440  0.7373  0.0750
  570TMC3    C4 8453   3.857   3.487  16.329 -0.3432 -0.0473 -0.4797
  570TMC3    C5 8454   3.946   3.580  16.295  0.1320  0.3507  0.7502
  570TMC3    C6 8455   4.059   3.549  16.224 -0.1021 -0.1441 -0.1034
  570TMC3     C 8456   3.813   3.242  16.356 -0.1723  0.5372 -0.4268
  570TMC3     O 8457   3.821   3.128  16.307 -0.0656 -0.1062 -0.6288
  570TMC3     H 8458   3.999   3.217  16.191  1.1216  0.5215  0.7705
  570TMC3    H1 8459   3.771   3.509  16.390 -0.3199  1.6219 -1.0414
  570TMC3    H2 8460   4.130   3.628  16.203  0.2481 -0.4272  0.0292
  570TMC3    C7 8461   3.921   3.715  16.337 -0.2999  1.3300  0.0662
  570TMC3    C8 8462   4.198   3.386  16.116 -0.0606 -0.3783 -0.2380
  570TMC3    O1 8463   3.881   3.744  16.449 -0.1869  0.5023 -0.0547
  570TMC3    O2 8464   4.297   3.443  16.163 -0.4982  0.7779  0.2428
  571MPD2     C 8465   1.235   0.255  17.123  0.2618  0.2715  0.3593
  571MPD2    C1 8466   1.216   0.203  17.246  0.0179  0.5817  0.2565
  571MPD2    C2 8467   1.248   0.271  17.359 -0.9746  0.4770  0.4994
  571MPD2    C3 8468   1.263   0.408  17.344 -0.0902  0.5557 -0.1719
  571MPD2    C4 8469   1.267   0.461  17.219 -0.7028 -0.5609 -0.0814
  571MPD2    C5 8470   1.278   0.380  17.114 -0.0953  0.0082  0.2706
  571MPD2     H 8471   1.261   0.224  17.456  2.1013  0.3452  0.0191
  571MPD2    H1 8472   1.282   0.566  17.197  0.2246 -0.1430  2.5740
  571MPD2    H2 8473   1.218   0.191  17.038 -0.3613  0.0414  0.6550
  571MPD2    H3 8474   1.306   0.417  17.016  0.2903 -0.1900  0.3036
  571MPD2     N 8475   1.275   0.496  17.449  0.6957 -0.2725 -0.5460
  571MPD2    H5 8476   1.300   0.591  17.423  1.9350 -0.4272  0.0840
  571MPD2    N1 8477   1.194   0.064  17.242  0.2015  0.0360 -0.1788
  571MPD2    H7 8478   1.206   0.023  17.150  0.7392  1.5537 -0.7830
  572TMC3    C1 8479   1.307   0.595  17.660  0.3363  0.1004 -0.5309
  572TMC3    C2 8480   1.354   0.572   0.091 -0.0948 -0.0343 -0.2042
  572TMC3    C3 8481   1.421   0.676   0.148  0.8586 -0.3698  0.4725
  572TMC3    C4 8482   1.327   0.718  17.589  0.2362 -0.0527  0.3429
  572TMC3    C5 8483   1.388   0.825  17.652  0.0867  0.5758  0.1021
  572TMC3    C6 8484   1.440   0.802   0.081  0.4581 -0.3912 -0.5274
  572TMC3     C 8485   1.262   0.477  17.584 -0.8662 -0.4321 -0.4339
  572TMC3     O 8486   1.252   0.373  17.645 -0.2199 -0.5161 -0.2576
  572TMC3     H 8487   1.320   0.487   0.149  0.4676  0.8513  1.4172
  572TMC3    H1 8488   1.299   0.740  17.487  1.8805 -1.2369 -0.3597
  572TMC3    H2 8489   1.496   0.877   0.135 -2.4263  0.8682  0.7382
  572TMC3    C7 8490   1.355   0.959  17.605 -0.7753  0.4230  0.7144
  572TMC3    C8 8491   1.481   0.672   0.286 -0.2502 -0.0105 -0.2776
  572TMC3    O1 8492   1.248   0.974  17.551 -0.3217 -0.1355 -0.0390
  572TMC3    O2 8493   1.591   0.726   0.312 -0.3972 -0.2102 -0.6573
  573MPD2     C 8494   2.778   0.893   0.549  0.1593 -0.1806  0.4105
  573MPD2    C1 8495   2.758   1.028   0.575 -0.5155  0.3864  0.8177
  573MPD2    C2 8496   2.701   1.114   0.481  0.0893 -0.0604 -0.2051
  573MPD2    C3 8497   2.673   1.058   0.356  0.0867 -1.0296  0.0753
  573MPD2    C4 8498   2.686   0.930   0.337  0.1369  0.5363 -0.4595
  573MPD2    C5 8499   2.733   0.842   0.429  0.2237 -0.4714  0.0963
  573MPD2     H 8500   2.688   1.220   0.498 -0.1033 -0.1790  0.3623
  573MPD2    H1 8501   2.668   0.880   0.243  3.8758 -1.8161  0.0667
  573MPD2    H2 8502   2.823   0.825   0.621  0.3605  1.1977  1.6016
  573MPD2    H3 8503   2.764   0.741   0.403 -0.9167 -1.5170  2.8739
  573MPD2     N 8504   2.624   1.138   0.253  0.3196 -0.2104  0.3176
  573MPD2    H5 8505   2.618   1.093   0.162  2.8673  0.2368 -0.0768
  573MPD2    N1 8506   2.801   1.078   0.698  0.4631  0.7274 -0.6978
  573MPD2    H7 8507   2.871   1.021   0.744  0.3108 -0.1061 -1.5095
  574TMC3    C1 8508   2.510   1.304   0.131  0.6162  0.6666 -1.3058
  574TMC3    C2 8509   2.385   1.358   0.118 -0.4528  0.3772  0.6365
  574TMC3    C3 8510   2.338   1.391  17.694 -0.0321  0.1640  0.1544
  574TMC3    C4 8511   2.599   1.310   0.030 -0.6997 -0.0795  0.2681
  574TMC3    C5 8512   2.549   1.344  17.603 -0.3895  0.4420  0.4254
  574TMC3    C6 8513   2.422   1.379  17.583  0.0238 -0.0692 -0.0238
  574TMC3     C 8514   2.544   1.253   0.266  0.2679 -0.7105 -0.7913
  574TMC3     O 8515   2.487   1.302   0.364 -0.4995 -0.1447  0.2655
  574TMC3     H 8516   2.329   1.376   0.209 -1.9768 -0.0434 -0.2119
  574TMC3    H1 8517   2.700   1.272   0.028 -1.0262 -0.8776 -1.0185
  574TMC3    H2 8518   2.395   1.389  17.478  3.2507 -1.1435 -0.9830
  574TMC3    C7 8519   2.634   1.314  17.492 -0.1983 -0.4097  0.1017
  574TMC3    C8 8520   2.213   1.471  17.678 -0.4069  0.3537 -0.6892
  574TMC3    O1 8521   2.692   1.206  17.495  0.3811  0.2252 -0.4051
  574TMC3    O2 8522   2.131   1.464   0.070  0.3199 -0.2779  0.7644
  575TMC3    C1 8523   0.649   1.898  11.281  0.1265 -0.0009 -0.4766
  575TMC3    C2 8524   0.695   1.798  11.362  0.7710  0.3628  0.2427
  575TMC3    C3 8525   0.757   1.684  11.306  0.6375  0.6570 -0.5813
  575TMC3    C4 8526   0.655   1.880  11.145 -0.0148  0.4789  0.5607
  575TMC3    C5 8527   0.703   1.760  11.101 -0.1442 -0.1208 -0.2598
  575TMC3    C6 8528   0.765   1.660  11.173  0.3964 -0.2958  0.2551
  575TMC3     C 8529   0.645   2.035  11.335 -0.2869 -0.2312 -0.1990
  575TMC3     O 8530   0.676   2.030  11.452  0.3359 -0.1660  0.2346
  575TMC3     H 8531   0.665   1.800  11.466  1.4012 -2.2081  0.4689
  575TMC3    H1 8532   0.610   1.954  11.079 -0.2725  1.0419  1.3752
  575TMC3    H2 8533   0.833   1.586  11.132  0.4996 -0.5065  0.8148
  575TMC3    C7 8534   0.715   1.752  10.956 -0.4430 -1.0295  0.3917
  575TMC3    C8 8535   0.845   1.605  11.384 -0.4929 -0.0878  0.3102
  575TMC3    O1 8536   0.705   1.843  10.878 -0.3160 -0.6459 -0.2767
  575TMC3    O2 8537   0.866   1.493  11.338 -0.6091  0.5493 -0.0503
  576MPD2     C 8538   0.436   3.411  12.674 -0.2986  0.1521 -1.3584
  576MPD2    C1 8539   0.396   3.492  12.575  0.0698 -0.0863 -0.4990
  576MPD2    C2 8540   0.343   3.614  12.610 -0.8018 -1.4413 -0.2010
  576MPD2    C3 8541   0.328   3.650  12.748 -0.0708 -0.0695  0.5778
  576MPD2    C4 8542   0.367   3.555  12.845 -0.1538  0.8289  0.4407
  576MPD2    C5 8543   0.423   3.441  12.811  0.5613 -0.2899 -0.6404
  576MPD2     H 8544   0.318   3.686  12.533 -0.4195 -0.9586  0.1244
  576MPD2    H1 8545   0.334   3.569  12.948 -1.7952  0.2534 -0.0018
  576MPD2    H2 8546   0.483   3.316  12.651  2.3029  1.0270  0.3958
  576MPD2    H3 8547   0.456   3.369  12.884  0.1819 -0.6645 -0.8406
  576MPD2     N 8548   0.276   3.774  12.773  0.3275 -0.0638  0.3418
  576MPD2    H5 8549   0.269   3.827  12.687  0.9364  0.7740  0.7990
  576MPD2    N1 8550   0.414   3.476  12.429 -0.7051 -0.3278  0.4206
  576MPD2    H7 8551   0.377   3.543  12.363  1.4999  0.7768  0.3113
  577TMC3    C1 8552   0.537   3.403  12.235  0.0585  1.2299  0.8072
  577TMC3    C2 8553   0.674   3.421  12.210 -0.6453  0.2484 -0.5021
  577TMC3    C3 8554   0.703   3.476  12.087 -0.3556 -0.2038  0.1349
  577TMC3    C4 8555   0.436   3.438  12.146 -0.2372  0.1601  0.0661
  577TMC3    C5 8556   0.471   3.494  12.027 -0.0224  0.6904 -0.1033
  577TMC3    C6 8557   0.603   3.500  11.994  0.5893  0.4981  0.0851
  577TMC3     C 8558   0.502   3.380  12.372 -0.1250 -0.0010  0.5644
  577TMC3     O 8559   0.574   3.292  12.425 -0.1614  0.1738  0.6011
  577TMC3     H 8560   0.753   3.403  12.282  0.4449 -0.4435 -1.8705
  577TMC3    H1 8561   0.332   3.434  12.176 -0.7704 -1.7087 -2.0667
  577TMC3    H2 8562   0.633   3.541  11.898 -1.6274 -0.4389 -1.0192
  577TMC3    C7 8563   0.391   3.613  12.019 -0.5937 -0.1906 -0.3436
  577TMC3    C8 8564   0.799   3.593  12.087 -0.2571  0.6382 -0.0042
  577TMC3    O1 8565   0.331   3.645  12.121  0.1673 -0.0071 -0.0976
  577TMC3    O2 8566   0.807   3.648  12.193 -0.3937 -0.5378 -1.1896
  578MPD2     C 8567   2.112   4.031   0.573 -0.2731 -0.1668  0.2123
  578MPD2    C1 8568   2.170   3.972   0.468 -0.5151  0.4260 -0.5074
  578MPD2    C2 8569   2.244   3.857   0.488 -0.2188 -0.7238 -0.2387
  578MPD2    C3 8570   2.249   3.796   0.613  0.6506  0.7192 -0.1667
  578MPD2    C4 8571   2.184   3.856   0.725 -0.2778 -0.1542  0.0924
  578MPD2    C5 8572   2.108   3.966   0.695  0.0341 -1.0237  0.0657
  578MPD2     H 8573   2.299   3.823   0.401  0.2922  2.3985 -1.1315
  578MPD2    H1 8574   2.180   3.809   0.822 -0.4942 -0.6768 -0.1681
  578MPD2    H2 8575   2.053   4.122   0.567  0.0757  0.0021 -0.7004
  578MPD2    H3 8576   2.061   4.020   0.777 -1.2479 -0.6505 -0.9235
  578MPD2     N 8577   2.342   3.691   0.613  0.2912 -0.3706  0.8822
  578MPD2    H5 8578   2.396   3.664   0.532  1.0627 -2.6609  2.1448
  578MPD2    N1 8579   2.166   4.038   0.341  0.8416  0.1235  0.3161
  578MPD2    H7 8580   2.140   4.136   0.344 -1.1571 -0.3638 -1.7256
  579TMC3    C1 8581   2.445   3.497   0.711  0.6391 -0.6285 -0.4119
  579TMC3    C2 8582   2.508   3.447   0.818  0.1473 -0.6582  0.6854
  579TMC3    C3 8583   2.610   3.353   0.796  0.0752 -0.0273 -0.0955
  579TMC3    C4 8584   2.466   3.447   0.583 -0.1838 -0.1331  0.3564
  579TMC3    C5 8585   2.568   3.361   0.571  0.0009 -0.6958  0.0917
  579TMC3    C6 8586   2.644   3.313   0.675  0.1366 -0.1472  0.1443
  579TMC3     C 8587   2.344   3.598   0.721 -0.2442 -0.2101 -0.4666
  579TMC3     O 8588   2.271   3.590   0.817 -0.0052 -0.4252  0.4603
  579TMC3     H 8589   2.485   3.477   0.920  0.6809  1.2167  0.2479
  579TMC3    H1 8590   2.413   3.480   0.494 -0.0889 -0.1140  0.3070
  579TMC3    H2 8591   2.729   3.245   0.672  0.6628  0.5071  0.2382
  579TMC3    C7 8592   2.582   3.291   0.444  0.2213  0.1823  0.2775
  579TMC3    C8 8593   2.704   3.346   0.903 -0.2392 -0.7432 -0.0678
  579TMC3    O1 8594   2.476   3.275   0.382 -0.1716  0.2745  0.4867
  579TMC3    O2 8595   2.662   3.322   1.016  0.4234 -0.4412  0.3037
  580TMC3    C1 8596   2.633   2.263  11.484 -0.2402 -0.0852 -0.3247
  580TMC3    C2 8597   2.623   2.184  11.372 -0.2310 -0.5029  0.2621
  580TMC3    C3 8598   2.661   2.057  11.366 -0.1218  0.0706  0.4198
  580TMC3    C4 8599   2.682   2.207  11.599  0.1942  1.0246  0.3511
  580TMC3    C5 8600   2.716   2.074  11.590  0.4910 -0.3157 -0.4443
  580TMC3    C6 8601   2.707   1.997  11.480 -0.6902 -0.0969  0.0850
  580TMC3     C 8602   2.652   2.410  11.458 -0.6399 -0.2077  0.0930
  580TMC3     O 8603   2.694   2.431  11.346 -0.4581  0.2357  0.1331
  580TMC3     H 8604   2.591   2.232  11.281  1.5703 -1.1608 -0.7185
  580TMC3    H1 8605   2.692   2.256  11.695  0.9860  0.4193  0.5736
  580TMC3    H2 8606   2.726   1.890  11.476  0.0199 -0.0074  1.1019
  580TMC3    C7 8607   2.764   2.020  11.718  0.3812 -0.3809 -0.4634
  580TMC3    C8 8608   2.728   2.027  11.245  0.1276 -0.0764 -0.0510
  580TMC3    O1 8609   2.758   2.083  11.822  0.1111  0.2118  0.8165
  580TMC3    O2 8610   2.745   1.911  11.209  0.0714  0.0108 -0.2693
  581MPD2     C 8611   0.978   2.673  14.875  0.5341  0.0119 -0.2624
  581MPD2    C1 8612   0.936   2.564  14.802  0.2406  0.3525  0.0350
  581MPD2    C2 8613   0.831   2.579  14.716  0.0756 -0.5724  0.1796
  581MPD2    C3 8614   0.759   2.694  14.712 -0.1258  0.9301  0.0138
  581MPD2    C4 8615   0.803   2.804  14.784 -0.0451  0.8008  0.1971
  581MPD2    C5 8616   0.912   2.795  14.858 -0.1115  0.0200  0.6323
  581MPD2     H 8617   0.803   2.500  14.646  1.0805  0.3510 -1.2520
  581MPD2    H1 8618   0.756   2.901  14.786 -3.0354 -0.6914  2.3026
  581MPD2    H2 8619   1.060   2.663  14.945  0.9100 -1.0539 -0.8469
  581MPD2    H3 8620   0.950   2.880  14.913 -0.1503 -0.2315  1.0487
  581MPD2     N 8621   0.635   2.689  14.643  0.9739  0.5529  0.2430
  581MPD2    H5 8622   0.608   2.598  14.605 -0.6909  1.4248 -0.6458
  581MPD2    N1 8623   1.000   2.435  14.825  0.1516 -0.2492  0.4243
  581MPD2    H7 8624   1.042   2.419  14.916  3.3131 -0.6785 -1.1108
  582TMC3    C1 8625   1.028   2.205  14.809  0.5308  0.7405  0.4740
  582TMC3    C2 8626   1.100   2.211  14.929  0.6252 -0.1849 -0.7606
  582TMC3    C3 8627   1.042   2.149  15.034  0.0460 -0.2431 -0.3139
  582TMC3    C4 8628   0.917   2.131  14.802  0.2998 -0.0118  0.4773
  582TMC3    C5 8629   0.861   2.067  14.907 -1.0368 -0.0525 -0.9179
  582TMC3    C6 8630   0.920   2.084  15.029 -0.2877 -0.6823 -0.5388
  582TMC3     C 8631   1.001   2.327  14.738  0.1997  0.3643  0.3652
  582TMC3     O 8632   0.967   2.319  14.622 -0.1004  0.2022 -0.5476
  582TMC3     H 8633   1.199   2.253  14.928  1.2755 -1.6808  1.7335
  582TMC3    H1 8634   0.857   2.131  14.712  1.0424  1.0869 -0.0141
  582TMC3    H2 8635   0.869   2.043  15.116  0.7428 -2.7314 -0.8998
  582TMC3    C7 8636   0.718   2.106  14.912  0.1754  0.1177 -0.0898
  582TMC3    C8 8637   1.065   2.198  15.166 -0.1434  0.9459 -0.2963
  582TMC3    O1 8638   0.630   2.035  14.872 -0.3309 -0.0019  0.3953
  582TMC3    O2 8639   0.965   2.221  15.234 -0.4225  0.2234  0.3081
  583MPD2     C 8640   0.396   3.974  16.368  0.1009  0.2224  0.1329
  583MPD2    C1 8641   0.492   4.073  16.357  1.0736 -0.7839 -0.3253
  583MPD2    C2 8642   0.509   4.154  16.472  0.3601 -0.5922  0.1503
  583MPD2    C3 8643   0.432   4.137  16.588  1.1141 -0.2257 -0.8285
  583MPD2    C4 8644   0.337   4.038  16.593  0.8061  0.3746 -0.2815
  583MPD2    C5 8645   0.321   3.958  16.482  0.0565  0.1914  0.0580
  583MPD2     H 8646   0.579   4.236  16.475  1.8460 -1.8279 -1.0876
  583MPD2    H1 8647   0.286   4.007  16.684 -2.0738  2.4938 -1.1583
  583MPD2    H2 8648   0.385   3.905  16.286 -4.0642 -1.8544  2.4619
  583MPD2    H3 8649   0.247   3.879  16.485  0.3749 -0.0472  1.7657
  583MPD2     N 8650   0.470   4.225  16.695  0.4234 -0.3907  0.0384
  583MPD2    H5 8651   0.551   4.280  16.667 -0.9015  1.3433 -0.3737
  583MPD2    N1 8652   0.588   4.072  16.259  0.3936 -0.4088 -0.3143
  583MPD2    H7 8653   0.665   4.139  16.262 -1.1860  1.3238  1.1621
  584TMC3    C1 8654   0.458   4.339  16.907 -0.5573  0.5736 -0.0692
  584TMC3    C2 8655   0.470   4.471  16.857 -0.9375  0.0298  0.3543
  584TMC3    C3 8656   0.490   4.570  16.944 -0.4293 -0.2361 -0.7658
  584TMC3    C4 8657   0.454   4.320  17.042  0.5900  0.6410 -0.5183
  584TMC3    C5 8658   0.468   4.426  17.131  0.0831  0.1669  0.0894
  584TMC3    C6 8659   0.491   4.556  17.079 -0.1016  0.1234  0.0033
  584TMC3     C 8660   0.411   4.229  16.819 -0.1672 -0.4347 -0.3145
  584TMC3     O 8661   0.353   4.136  16.876  0.1437  0.3384 -0.4576
  584TMC3     H 8662   0.451   4.486  16.751  0.8302 -0.5705 -0.0458
  584TMC3    H1 8663   0.437   4.218  17.074  0.1179  1.0136  0.4187
  584TMC3    H2 8664   0.490   4.645  17.142  0.4285  1.4421 -1.8351
  584TMC3    C7 8665   0.433   4.406  17.271 -0.2211  0.6021  0.1112
  584TMC3    C8 8666   0.490   4.701  16.883  0.1745 -1.5065 -0.2963
  584TMC3    O1 8667   0.478   4.304  17.320 -0.2062 -0.1442 -0.2814
  584TMC3    O2 8668   0.438   4.715  16.776 -0.1771  0.2090 -0.0860
  585MPD2     C 8669   4.031   3.363   0.444  0.6502  0.4796 -0.4634
  585MPD2    C1 8670   4.152   3.369   0.378  0.2290  0.7471 -0.0263
  585MPD2    C2 8671   4.226   3.257   0.376 -0.5906  0.2028  0.0468
  585MPD2    C3 8672   4.188   3.138   0.436  1.1523 -0.9776 -0.2339
  585MPD2    C4 8673   4.063   3.135   0.496  0.1427 -0.2434 -0.0691
  585MPD2    C5 8674   3.993   3.246   0.502 -0.4880 -0.3426  0.3702
  585MPD2     H 8675   4.315   3.247   0.314 -1.2979  0.0157 -0.9288
  585MPD2    H1 8676   4.021   3.043   0.537 -1.4781  0.5086 -0.0579
  585MPD2    H2 8677   3.963   3.448   0.451  0.5806  0.4002 -0.1719
  585MPD2    H3 8678   3.892   3.242   0.542 -1.1520  0.9565 -1.2115
  585MPD2     N 8679   4.268   3.020   0.419 -0.3262  0.0062 -0.1694
  585MPD2    H5 8680   4.356   3.027   0.369 -0.9248  0.1172 -1.2033
  585MPD2    N1 8681   4.182   3.491   0.321  0.0631 -1.1300  0.4081
  585MPD2    H7 8682   4.111   3.561   0.339 -1.1536 -1.9755 -1.0701
  586TMC3    C1 8683   4.310   2.807   0.363 -0.1970 -0.0394 -0.1295
  586TMC3    C2 8684   4.447   2.795   0.393  0.3936  0.0879 -0.4032
  586TMC3    C3 8685   4.511   2.682   0.367 -0.0341 -0.4727  0.2393
  586TMC3    C4 8686   4.249   2.709   0.288  0.3348  0.3080  0.6377
  586TMC3    C5 8687   4.319   2.596   0.258 -0.1499  0.1935  0.2454
  586TMC3    C6 8688   4.446   2.581   0.309 -0.6468  0.3948  0.2323
  586TMC3     C 8689   4.220   2.891   0.437 -0.3315  0.2787 -0.7254
  586TMC3     O 8690   4.117   2.848   0.476 -0.1912  0.0331 -0.0985
  586TMC3     H 8691   4.487   2.862   0.468 -1.1481 -1.2340  1.6232
  586TMC3    H1 8692   4.151   2.725   0.244  0.9531  2.2736 -0.0263
  586TMC3    H2 8693   4.500   2.500   0.262  0.3499  1.8893 -1.2140
  586TMC3    C7 8694   4.318   2.540   0.124  0.4073  0.5634 -0.3128
  586TMC3    C8 8695   4.640   2.691   0.305 -0.6205  0.5392  0.1427
  586TMC3    O1 8696   4.216   2.480   0.086  0.3848  1.0132  0.0085
  586TMC3    O2 8697   4.698   2.584   0.294  0.0755  0.5565  0.6295
  587TMC3    C1 8698   2.457   1.258  16.498  0.1988  0.3058 -0.2423
  587TMC3    C2 8699   2.408   1.376  16.529  0.0976 -0.0017 -1.0254
  587TMC3    C3 8700   2.482   1.473  16.592 -0.0923  1.1671 -0.0536
  587TMC3    C4 8701   2.587   1.228  16.528  0.0908  0.1715 -0.0401
  587TMC3    C5 8702   2.665   1.326  16.585 -0.1056  0.7111  0.0605
  587TMC3    C6 8703   2.612   1.448  16.626  0.1080  0.6620 -0.2632
  587TMC3     C 8704   2.375   1.149  16.456 -0.0962 -0.9586 -0.0436
  587TMC3     O 8705   2.431   1.036  16.457 -0.1396 -0.6661 -0.4676
  587TMC3     H 8706   2.303   1.402  16.527 -0.3562 -1.6340  1.1699
  587TMC3    H1 8707   2.640   1.144  16.484  1.0420  1.4205 -1.2932
  587TMC3    H2 8708   2.664   1.527  16.680 -0.2169  1.0971 -0.5880
  587TMC3    C7 8709   2.786   1.278  16.649  0.5630 -0.1616  0.1349
  587TMC3    C8 8710   2.452   1.611  16.562 -0.0135 -0.0724 -0.4647
  587TMC3    O1 8711   2.793   1.160  16.679  0.3714  0.9544  0.2424
  587TMC3    O2 8712   2.546   1.690  16.567 -0.4768 -0.5575 -0.0426
  588TMC3    C1 8713   0.367   4.171   9.372 -0.2110 -0.7798  0.6174
  588TMC3    C2 8714   0.322   4.044   9.368 -0.3624  0.0330  0.3740
  588TMC3    C3 8715   0.371   3.956   9.461  0.3436  0.3837  1.1399
  588TMC3    C4 8716   0.467   4.204   9.457 -0.2411 -0.3886 -0.2058
  588TMC3    C5 8717   0.503   4.118   9.562 -0.3552  0.1669 -0.1496
  588TMC3    C6 8718   0.467   3.983   9.558 -1.3716  0.7038  0.3135
  588TMC3     C 8719   0.297   4.263   9.290  0.7034  0.5082 -0.2895
  588TMC3     O 8720   0.198   4.218   9.237 -0.0254 -0.0097 -0.7878
  588TMC3     H 8721   0.227   4.020   9.321 -0.4451 -1.2176  1.1834
  588TMC3    H1 8722   0.503   4.306   9.467  2.5559 -1.4360  0.5688
  588TMC3    H2 8723   0.502   3.914   9.633 -0.4075  1.0443  0.1776
  588TMC3    C7 8724   0.575   4.181   9.672 -0.2917  0.3249 -0.6906
  588TMC3    C8 8725   0.315   3.821   9.447 -0.1668  0.1001  1.1143
  588TMC3    O1 8726   0.649   4.106   9.731 -0.0548  0.1447 -0.3907
  588TMC3    O2 8727   0.227   3.795   9.363  0.5804 -0.6718  0.2675
  589TMC3    C1 8728   3.261   1.854   1.111  0.8833 -0.0890 -0.4188
  589TMC3    C2 8729   3.318   1.818   1.233  0.2658 -0.1183 -0.2563
  589TMC3    C3 8730   3.432   1.745   1.226 -0.3961 -0.3364 -0.0390
  589TMC3    C4 8731   3.307   1.821   0.991  0.9503 -0.3518  0.1639
  589TMC3    C5 8732   3.423   1.745   0.991  0.6303  0.2251  0.2685
  589TMC3    C6 8733   3.491   1.703   1.109  0.1136  0.9367 -0.5827
  589TMC3     C 8734   3.141   1.936   1.106 -0.8037 -0.1148  1.0266
  589TMC3     O 8735   3.113   1.985   0.995  0.0173 -0.2117  0.0200
  589TMC3     H 8736   3.265   1.842   1.324 -0.2549 -1.9902 -0.0598
  589TMC3    H1 8737   3.257   1.828   0.895  0.4130 -2.7237  0.2583
  589TMC3    H2 8738   3.586   1.653   1.095  0.2892  1.5033 -1.4226
  589TMC3    C7 8739   3.500   1.733   0.866  0.2823 -0.0257  0.3755
  589TMC3    C8 8740   3.493   1.707   1.345  0.0929  0.0982  0.1213
  589TMC3    O1 8741   3.580   1.647   0.849  0.4222  0.0558 -0.9809
  589TMC3    O2 8742   3.418   1.704   1.442 -0.2622  0.0178  0.1171
  590MPD2     C 8743   3.177   4.704  16.233 -0.1435  0.3139 -0.0768
  590MPD2    C1 8744   3.149   0.108  16.201 -0.8881  0.4157  0.7424
  590MPD2    C2 8745   3.229   0.180  16.109  0.9173  0.7274 -0.2221
  590MPD2    C3 8746   3.330   0.119  16.042  0.0863  0.3659 -1.2639
  590MPD2    C4 8747   3.362   4.711  16.073 -0.0325 -0.7593  0.4266
  590MPD2    C5 8748   3.284   4.646  16.168 -0.3559  0.0502 -0.2973
  590MPD2     H 8749   3.220   0.287  16.092  0.5100  1.1520  2.6174
  590MPD2    H1 8750   3.453   4.659  16.045  0.3689  1.0716 -1.6615
  590MPD2    H2 8751   3.133   4.654  16.318 -1.3043  0.8819 -0.3419
  590MPD2    H3 8752   3.317   4.554  16.213  0.1513  1.2755  1.8323
  590MPD2     N 8753   3.400   0.196  15.941  0.1476 -0.2730  0.1872
  590MPD2    H5 8754   3.367   0.289  15.918  0.7825  0.2381  1.3487
  590MPD2    N1 8755   3.040   0.179  16.253  0.4509  0.0191 -0.4915
  590MPD2    H7 8756   3.041   0.280  16.239 -1.7871 -0.0662 -1.3325
  591TMC3    C1 8757   3.576   0.269  15.804  0.9795  0.3254 -0.2834
  591TMC3    C2 8758   3.649   0.224  15.703  0.2617 -0.3207 -0.3184
  591TMC3    C3 8759   3.683   0.310  15.597  0.1027 -0.4861 -0.1011
  591TMC3    C4 8760   3.532   0.397  15.813 -0.2708  0.2799  0.0436
  591TMC3    C5 8761   3.581   0.483  15.719 -0.8287  0.3049  0.9038
  591TMC3    C6 8762   3.653   0.446  15.603  0.0566  0.5828  0.2781
  591TMC3     C 8763   3.516   0.160  15.881 -0.0957  0.5025 -0.2492
  591TMC3     O 8764   3.584   0.057  15.902 -0.1541 -0.0477 -0.1158
  591TMC3     H 8765   3.659   0.118  15.684  1.1835 -0.1729 -0.6358
  591TMC3    H1 8766   3.488   0.443  15.901 -2.3370  0.2900 -0.9835
  591TMC3    H2 8767   3.659   0.515  15.519  2.2936  0.7305  0.5550
  591TMC3    C7 8768   3.553   0.623  15.732  0.0041  0.8316  0.6516
  591TMC3    C8 8769   3.750   0.253  15.475  0.2609  0.4245 -0.8101
  591TMC3    O1 8770   3.477   0.656  15.824 -0.0842 -0.3556  0.5700
  591TMC3    O2 8771   3.742   0.135  15.453 -0.0524  0.3185  0.4890
  592MPD2     C 8772   3.796   2.329  11.054 -0.4415 -0.5439 -0.3715
  592MPD2    C1 8773   3.825   2.328  11.188  0.2661 -0.1316 -0.3224
  592MPD2    C2 8774   3.757   2.237  11.268  0.4120 -0.1169 -0.7107
  592MPD2    C3 8775   3.670   2.151  11.216  0.1352 -0.0575  0.7593
  592MPD2    C4 8776   3.640   2.153  11.083 -0.6204  0.0523  0.5343
  592MPD2    C5 8777   3.703   2.242  11.002 -0.3035 -0.5786  0.1977
  592MPD2     H 8778   3.781   2.220  11.373 -1.9194  1.9906  0.1897
  592MPD2    H1 8779   3.575   2.081  11.036 -0.2714 -0.3449  0.6599
  592MPD2    H2 8780   3.849   2.396  10.986 -3.3573  2.1334 -0.0113
  592MPD2    H3 8781   3.682   2.240  10.896  2.1342 -0.8386 -0.2937
  592MPD2     N 8782   3.617   2.054  11.304  0.3593 -0.0476  1.2150
  592MPD2    H5 8783   3.658   2.051  11.397 -0.2822 -0.9858  1.4743
  592MPD2    N1 8784   3.917   2.417  11.239  0.4842  0.0286  0.2192
  592MPD2    H7 8785   3.969   2.475  11.174 -0.9569  0.4500 -0.5584
  593TMC3    C1 8786   4.033   2.538  11.405  0.3791 -1.3981 -0.4914
  593TMC3    C2 8787   4.055   2.550  11.541  0.5636  0.0560 -0.5218
  593TMC3    C3 8788   4.160   2.627  11.581 -0.8120 -0.6786  0.1068
  593TMC3    C4 8789   4.120   2.595  11.316 -0.5129  0.1362  0.4412
  593TMC3    C5 8790   4.232   2.664  11.363  0.7496 -0.1881 -0.0006
  593TMC3    C6 8791   4.249   2.691  11.497  0.8806  0.3477 -0.5229
  593TMC3     C 8792   3.929   2.445  11.372 -0.0953  0.1731 -1.0039
  593TMC3     O 8793   3.852   2.416  11.463 -0.5848  0.2590  0.2079
  593TMC3     H 8794   3.988   2.506  11.615  0.8909  0.2873 -0.0892
  593TMC3    H1 8795   4.103   2.590  11.210  0.3840 -1.0800  0.3467
  593TMC3    H2 8796   4.333   2.743  11.540 -0.1537  0.9333  0.7674
  593TMC3    C7 8797   4.298   2.766  11.289 -0.1786  1.1856  0.2695
  593TMC3    C8 8798   4.150   2.668  11.719 -0.0114  0.7125  0.0298
  593TMC3    O1 8799   4.349   2.865  11.345 -0.0925 -0.2328  0.4248
  593TMC3    O2 8800   4.046   2.662  11.779 -0.0296 -0.5318  0.3530
  594MPD2     C 8801   2.561   0.861  13.979 -0.1204  0.2346  0.6609
  594MPD2    C1 8802   2.575   0.899  14.108  0.0472 -0.1159 -0.1320
  594MPD2    C2 8803   2.668   1.001  14.128 -0.0550 -0.1896 -0.3023
  594MPD2    C3 8804   2.730   1.062  14.020  0.4019 -0.4013  0.6924
  594MPD2    C4 8805   2.703   1.017  13.892  0.2769 -0.0820 -0.2088
  594MPD2    C5 8806   2.610   0.926  13.870 -0.0118 -0.3118 -0.6061
  594MPD2     H 8807   2.681   1.040  14.229 -0.4081 -1.1989  0.1410
  594MPD2    H1 8808   2.744   1.064  13.803  0.1101 -1.7812 -1.1857
  594MPD2    H2 8809   2.481   0.790  13.962  0.2376 -0.1415  0.5411
  594MPD2    H3 8810   2.580   0.892  13.771 -2.1775 -0.9571  0.2679
  594MPD2     N 8811   2.827   1.160  14.050  0.7668 -0.1245 -0.4061
  594MPD2    H5 8812   2.834   1.185  14.148 -1.5071 -1.2184  0.0183
  594MPD2    N1 8813   2.476   0.839  14.200  0.5292 -0.4807 -0.0255
  594MPD2    H7 8814   2.402   0.784  14.158  1.2753 -1.2641 -0.3146
  595TMC3    C1 8815   3.140   1.463  14.073  1.0945  0.0418 -0.1854
  595TMC3    C2 8816   3.063   1.395  13.987  0.0639  0.7295 -0.4006
  595TMC3    C3 8817   2.936   1.362  14.023  0.2712 -0.0497  0.1717
  595TMC3    C4 8818   3.093   1.511  14.190  0.5823  0.2481 -0.1233
  595TMC3    C5 8819   2.963   1.489  14.216 -0.0183 -0.1014 -0.0436
  595TMC3    C6 8820   2.888   1.405  14.142  0.0133 -0.7384 -0.1755
  595TMC3     C 8821   3.276   1.513  14.052  0.6711  0.0363 -0.4186
  595TMC3     O 8822   3.344   1.551  14.144  0.2395  0.4505  0.5527
  595TMC3     H 8823   3.110   1.346  13.903 -0.2115  2.4853 -1.5851
  595TMC3    H1 8824   3.160   1.552  14.264 -0.2237 -0.3136  0.9196
  595TMC3    H2 8825   2.787   1.381  14.175 -1.1274  2.3510 -1.3907
  595TMC3    C7 8826   2.887   1.611  14.233  0.2180  0.6410 -0.1536
  595TMC3    C8 8827   2.887   1.243  13.955 -0.5520 -0.2082 -0.0747
  595TMC3    O1 8828   2.769   1.602  14.203  0.1179  0.1918 -0.4812
  595TMC3    O2 8829   2.903   1.227  13.833  0.0346  0.7223  0.1057
  596MPD2     C 8830   1.193   3.904  16.277 -0.3811  0.0540 -0.0261
  596MPD2    C1 8831   1.319   3.947  16.293  0.7708  0.2968 -0.5023
  596MPD2    C2 8832   1.412   3.902  16.197 -0.0169  0.7282  0.4496
  596MPD2    C3 8833   1.384   3.820  16.091 -0.6653 -0.2762 -0.0167
  596MPD2    C4 8834   1.255   3.770  16.086 -0.3960  0.0832 -0.4516
  596MPD2    C5 8835   1.171   3.809  16.180  0.3928  0.3673 -0.4485
  596MPD2     H 8836   1.507   3.942  16.229 -1.0702  2.2830  1.6350
  596MPD2    H1 8837   1.224   3.688  16.023  2.0065 -0.5619 -0.8051
  596MPD2    H2 8838   1.115   3.930  16.348  0.0656  1.6721 -0.1226
  596MPD2    H3 8839   1.071   3.768  16.177  1.0271 -1.0624 -2.2152
  596MPD2     N 8840   1.466   3.784  15.980  0.5806  0.4515  0.3811
  596MPD2    H5 8841   1.425   3.729  15.905 -1.9435 -0.4018  2.3628
  596MPD2    N1 8842   1.362   4.034  16.391  0.5875 -0.3842  0.5264
  596MPD2    H7 8843   1.448   4.085  16.376 -0.2595  1.2871  1.3294
  597TMC3    C1 8844   1.338   4.178  16.578  1.0550 -0.4951 -0.5812
  597TMC3    C2 8845   1.430   4.263  16.526 -0.2906  0.2585  0.0785
  597TMC3    C3 8846   1.450   4.389  16.574 -0.0193 -0.9067  0.3754
  597TMC3    C4 8847   1.242   4.236  16.660  0.2587  0.0337  0.1872
  597TMC3    C5 8848   1.251   4.363  16.704  1.1783 -0.1016 -0.8355
  597TMC3    C6 8849   1.355   4.442  16.658  0.5078  0.9139  0.1721
  597TMC3     C 8850   1.290   4.060  16.503 -0.0858  0.3450 -0.4454
  597TMC3     O 8851   1.191   4.000  16.548 -0.4052 -0.1857 -0.6816
  597TMC3     H 8852   1.504   4.213  16.465  0.3791 -1.2299  2.1131
  597TMC3    H1 8853   1.160   4.173  16.692  1.2605  0.9384  4.5416
  597TMC3    H2 8854   1.370   4.545  16.689 -2.0570  1.7181 -1.2236
  597TMC3    C7 8855   1.171   4.402  16.809 -0.2060  0.1004  0.0816
  597TMC3    C8 8856   1.557   4.473  16.524 -0.1609 -0.1667  0.3852
  597TMC3    O1 8857   1.122   4.311  16.876 -0.8212  0.4609  0.2096
  597TMC3    O2 8858   1.542   4.590  16.551 -0.1255  0.2886 -0.0297
  598TMC3    C1 8859   0.123   0.927  15.338  1.0134  0.2503 -0.4740
  598TMC3    C2 8860   0.061   0.803  15.329 -0.7172  0.5706 -0.1187
  598TMC3    C3 8861   4.693   0.774  15.231  0.0015  0.2582 -0.3053
  598TMC3    C4 8862   0.087   1.016  15.239  0.0438 -0.3744  0.0489
  598TMC3    C5 8863   0.011   0.983  15.135  0.5804 -0.2795  0.5191
  598TMC3    C6 8864   4.670   0.865  15.125 -0.9406  0.0026 -0.8964
  598TMC3     C 8865   0.265   0.917  15.329  0.5784  0.0516  0.7657
  598TMC3     O 8866   0.309   0.815  15.383  0.2503 -0.9292 -0.0224
  598TMC3     H 8867   0.088   0.728  15.402  2.4574  0.0674 -1.8014
  598TMC3    H1 8868   0.120   1.118  15.249  1.4117 -0.6211 -1.9340
  598TMC3    H2 8869   4.596   0.855  15.046  1.4966 -0.8620 -3.0629
  598TMC3    C7 8870   0.030   1.048  15.005 -0.3055  0.5061 -0.3995
  598TMC3    C8 8871   4.590   0.667  15.245  0.2878 -0.3957 -0.1043
  598TMC3    O1 8872   4.701   0.987  14.909 -0.0621 -0.5076  0.4848
  598TMC3    O2 8873   4.506   0.648  15.154  0.4730  0.5765 -0.7861
  599MPD2     C 8874   0.150   3.206  15.958  0.3278 -0.0025  0.0284
  599MPD2    C1 8875   0.107   3.076  15.969 -0.0672 -0.0413 -0.0380
  599MPD2    C2 8876   4.708   3.041  16.026 -0.1978 -0.1988 -0.6275
  599MPD2    C3 8877   4.625   3.146  16.055 -0.3065 -0.1200 -0.3018
  599MPD2    C4 8878   4.660   3.279  16.035  0.2962 -0.3069  0.3358
  599MPD2    C5 8879   0.061   3.309  15.995  0.5210 -0.3016  0.2360
  599MPD2     H 8880   4.681   2.940  16.054 -1.1140  0.5896  1.3211
  599MPD2    H1 8881   4.601   3.363  16.070  1.1319  1.4355 -2.3846
  599MPD2    H2 8882   0.248   3.237  15.925  1.2134 -0.7498  2.0100
  599MPD2    H3 8883   0.095   3.412  15.988 -2.1277  0.6570  1.6613
  599MPD2     N 8884   4.495   3.129  16.110  0.5762 -0.2851  0.0365
  599MPD2    H5 8885   4.445   3.213  16.138 -0.8534 -0.9315 -0.5632
  599MPD2    N1 8886   0.196   2.981  15.924  0.1671 -0.9727 -0.4673
  599MPD2    H7 8887   0.287   3.014  15.894 -0.2280  0.4476 -0.1116
  600TMC3    C1 8888   4.318   3.019  16.211  0.2336  0.0731  0.3353
  600TMC3    C2 8889   4.228   2.920  16.216 -0.1999  0.2171 -0.8229
  600TMC3    C3 8890   4.132   2.922  16.318 -0.9553 -0.0997  0.8714
  600TMC3    C4 8891   4.315   3.127  16.304  0.2818  0.1769  0.3214
  600TMC3    C5 8892   4.216   3.124  16.404 -0.1435 -0.2355  0.0815
  600TMC3    C6 8893   4.122   3.026  16.406  0.0869  0.2055 -0.7673
  600TMC3     C 8894   4.429   3.007  16.122  0.9884  0.4847 -0.2533
  600TMC3     O 8895   4.453   2.897  16.068  0.2286  0.0532 -0.6545
  600TMC3     H 8896   4.240   2.832  16.154 -0.0942  1.0160 -1.9307
  600TMC3    H1 8897   4.399   3.194  16.314 -0.8714  1.3639  2.1733
  600TMC3    H2 8898   4.040   3.038  16.476  0.9447 -2.0093  0.6524
  600TMC3    C7 8899   4.189   3.237  16.487  0.5082  0.9085  0.1941
  600TMC3    C8 8900   4.018   2.831  16.314 -0.0225  0.5734 -0.0859
  600TMC3    O1 8901   4.073   3.260  16.532  0.7397  0.0426  0.6275
  600TMC3    O2 8902   3.949   2.836  16.212  0.6756 -0.6679 -0.4319
  601MPD2     C 8903   1.442   1.468  17.581 -0.5247 -0.1427  0.1840
  601MPD2    C1 8904   1.335   1.398  17.541 -0.0989 -0.1658  0.4796
  601MPD2    C2 8905   1.332   1.259  17.556 -0.0594 -0.0897 -0.3013
  601MPD2    C3 8906   1.430   1.199  17.634 -0.0894  1.3634  0.1540
  601MPD2    C4 8907   1.524   1.280  17.686  0.4493  0.4559  0.1101
  601MPD2    C5 8908   1.539   1.408  17.656  0.0289 -0.7944  0.3943
  601MPD2     H 8909   1.248   1.205  17.513  0.5731 -0.5891 -0.9116
  601MPD2    H1 8910   1.608   1.238   0.042  1.1203  0.1896 -1.1516
  601MPD2    H2 8911   1.475   1.571  17.568  1.2028 -0.7149  0.0978
  601MPD2    H3 8912   1.627   1.458  17.695  1.7969 -1.1515 -3.1221
  601MPD2     N 8913   1.439   1.057  17.654  0.3462  0.5386 -0.5365
  601MPD2    H5 8914   1.519   1.019   0.007 -0.8391 -0.5634  0.5089
  601MPD2    N1 8915   1.227   1.450  17.467  0.1142 -0.0552 -0.3390
  601MPD2    H7 8916   1.163   1.377  17.437 -0.3024 -0.7840  2.3649
  602TMC3    C1 8917   1.077   1.613  17.370 -0.2960 -0.9067  0.4151
  602TMC3    C2 8918   1.012   1.730  17.392  0.3182  0.1080 -0.0381
  602TMC3    C3 8919   0.940   1.783  17.288 -0.2969 -0.0706  0.3585
  602TMC3    C4 8920   1.049   1.532  17.260 -0.0827  0.5032  0.0719
  602TMC3    C5 8921   0.963   1.593  17.157 -0.1743 -0.0968 -0.1067
  602TMC3    C6 8922   0.916   1.717  17.174  0.2873  0.2883  0.1754
  602TMC3     C 8923   1.201   1.582  17.443  0.0839  0.4502 -0.3614
  602TMC3     O 8924   1.268   1.679  17.475  0.5983 -0.0180  0.0756
  602TMC3     H 8925   1.021   1.791  17.481 -0.7666 -1.1827  0.9669
  602TMC3    H1 8926   1.110   1.443  17.250 -2.5258 -1.0308 -1.4302
  602TMC3    H2 8927   0.840   1.759  17.109  0.7486  0.5840 -0.1687
  602TMC3    C7 8928   0.956   1.533  17.028  0.4729  0.3137 -0.3189
  602TMC3    C8 8929   0.869   1.910  17.307  0.3068 -0.2939 -0.4154
  602TMC3    O1 8930   0.995   1.416  17.015 -0.2455  0.3590 -0.1922
  602TMC3    O2 8931   0.847   1.944  17.420 -0.2187  0.3859 -0.1769
  603TMC3    C1 8932   0.340   1.603  10.588  1.1825 -0.0214 -0.9869
  603TMC3    C2 8933   0.370   1.613  10.721  0.4999  0.3146 -0.3506
  603TMC3    C3 8934   0.358   1.739  10.776  0.1058  0.1557 -0.2732
  603TMC3    C4 8935   0.307   1.710  10.514  0.5947  0.1378 -0.2193
  603TMC3    C5 8936   0.294   1.834  10.574  0.0228  0.0894 -0.5179
  603TMC3    C6 8937   0.320   1.850  10.705 -0.1033 -0.0508 -0.1774
  603TMC3     C 8938   0.386   1.482  10.514 -0.0914 -0.1729 -0.4323
  603TMC3     O 8939   0.417   1.497  10.395  0.8752  0.0955  0.6322
  603TMC3     H 8940   0.402   1.528  10.780  1.5948 -0.2048 -1.7149
  603TMC3    H1 8941   0.308   1.705  10.406 -2.2002 -1.7593 -0.1713
  603TMC3    H2 8942   0.284   1.943  10.747 -0.2990  0.4460 -1.4377
  603TMC3    C7 8943   0.283   1.952  10.490  0.9338 -0.2974 -0.7119
  603TMC3    C8 8944   0.352   1.752  10.921 -0.1798  0.2969  0.3742
  603TMC3    O1 8945   0.368   2.037  10.503  0.0171 -0.1110 -0.8568
  603TMC3    O2 8946   0.343   1.644  10.979 -0.3663 -0.1878 -0.2331
  604MPD2     C 8947   0.694   0.632  16.117  0.1204 -0.2568  0.5369
  604MPD2    C1 8948   0.590   0.593  16.031 -0.1685  0.0960  0.0043
  604MPD2    C2 8949   0.615   0.516  15.923 -0.2034 -0.6113  0.9731
  604MPD2    C3 8950   0.738   0.451  15.922  0.3292 -0.7716  0.0361
  604MPD2    C4 8951   0.830   0.464  16.019 -0.2167  0.6164  0.5846
  604MPD2    C5 8952   0.817   0.566  16.113  0.0347  0.3417  0.2174
  604MPD2     H 8953   0.539   0.506  15.846  0.4309  0.6794  0.1816
  604MPD2    H1 8954   0.906   0.388  16.023 -1.3388 -0.4289  1.9782
  604MPD2    H2 8955   0.691   0.709  16.193 -1.4530 -1.0492  1.2899
  604MPD2    H3 8956   0.898   0.592  16.181 -0.1822  0.4849  0.4175
  604MPD2     N 8957   0.748   0.362  15.811  0.1367  0.7667 -0.0521
  604MPD2    H5 8958   0.666   0.354  15.751 -0.2488 -1.1863  0.7414
  604MPD2    N1 8959   0.469   0.667  16.042  0.1659 -0.1214 -0.1965
  604MPD2    H7 8960   0.461   0.739  16.113  0.1587 -0.0586 -0.2619
  605TMC3    C1 8961   0.241   0.725  16.020  0.3963  0.2924 -0.6411
  605TMC3    C2 8962   0.295   0.840  16.078 -0.5535 -0.3375 -0.0661
  605TMC3    C3 8963   0.236   0.899  16.184  0.4976 -0.5725 -0.1311
  605TMC3    C4 8964   0.132   0.670  16.091  0.0071 -0.4499 -0.2604
  605TMC3    C5 8965   0.073   0.727  16.203  0.2412  0.9302 -0.1144
  605TMC3    C6 8966   0.128   0.842  16.248  0.1894  0.1964  0.3562
  605TMC3     C 8967   0.347   0.628  15.987  0.9314 -0.2698  0.7869
  605TMC3     O 8968   0.314   0.523  15.943  0.2557  0.7331 -0.1386
  605TMC3     H 8969   0.378   0.888  16.027  0.3041 -1.5642  0.1771
  605TMC3    H1 8970   0.091   0.577  16.055 -1.9127  0.2003  0.2383
  605TMC3    H2 8971   0.085   0.891  16.335 -2.0792 -0.1572 -0.5785
  605TMC3    C7 8972   4.653   0.704  16.215 -0.4295  0.3083  0.0996
  605TMC3    C8 8973   0.330   0.977  16.262 -0.3255 -0.0296  0.2004
  605TMC3    O1 8974   4.591   0.794  16.273  0.0639  0.3507 -0.5843
  605TMC3    O2 8975   0.423   1.027  16.204  0.2215 -0.3813  0.2134
  606TMC3    C1 8976   2.014   0.038  17.193  0.6825 -0.7275  0.7777
  606TMC3    C2 8977   1.971   4.683  17.301  0.5014  0.5395 -0.6394
  606TMC3    C3 8978   1.966   4.545  17.294 -0.2036 -0.5084  0.0359
  606TMC3    C4 8979   2.055   4.698  17.075  0.0642 -0.4253 -0.1866
  606TMC3    C5 8980   2.042   4.562  17.073 -0.2748  0.1421  0.2322
  606TMC3    C6 8981   1.999   4.487  17.176 -0.8354  0.5993  0.4805
  606TMC3     C 8982   1.979   0.178  17.189  0.8186 -0.1907  0.2916
  606TMC3     O 8983   2.049   0.243  17.107  0.3015  0.1237 -0.1297
  606TMC3     H 8984   1.960   0.005  17.399 -0.1119 -0.9635 -0.0080
  606TMC3    H1 8985   2.064   0.037  16.987 -0.0335 -1.1977 -0.7485
  606TMC3    H2 8986   1.980   4.381  17.173  0.7419  0.3277 -0.0174
  606TMC3    C7 8987   2.075   4.497  16.944  0.0559  0.9511 -0.5875
  606TMC3    C8 8988   1.907   4.467  17.400  0.0544  0.1386  0.3153
  606TMC3    O1 8989   2.082   4.568  16.839 -0.5438  0.2591  0.3681
  606TMC3    O2 8990   1.839   4.530  17.480  0.2408  0.2505 -0.1002
  607MPD2     C 8991   3.720   1.602  11.261 -0.6216 -0.1758 -0.1344
  607MPD2    C1 8992   3.777   1.708  11.329 -0.0561 -0.3712 -0.2901
  607MPD2    C2 8993   3.781   1.691  11.464  0.1529  0.6876  0.0840
  607MPD2    C3 8994   3.747   1.586  11.538 -0.3238  0.3399  0.2258
  607MPD2    C4 8995   3.690   1.477  11.473 -1.0449 -0.4744 -0.4670
  607MPD2    C5 8996   3.677   1.494  11.340  0.7896 -0.5834 -0.1494
  607MPD2     H 8997   3.830   1.769  11.523 -1.1953  0.6346  1.2543
  607MPD2    H1 8998   3.664   1.386  11.526 -1.2445  0.4633  1.0207
  607MPD2    H2 8999   3.701   1.595  11.154 -1.2575 -0.1510 -0.0274
  607MPD2    H3 9000   3.623   1.417  11.286  1.3372 -0.1122 -1.3745
  607MPD2     N 9001   3.793   1.595  11.673  0.2581  0.7690  0.0121
  607MPD2    H5 9002   3.811   1.690  11.701  0.4179  0.3932  1.1622
  607MPD2    N1 9003   3.837   1.821  11.272  0.4595 -0.0536 -0.2896
  607MPD2    H7 9004   3.889   1.878  11.338  1.6958 -2.8718  1.1659
  608TMC3    C1 9005   3.990   1.937  11.141 -0.6185  0.3513 -0.3439
  608TMC3    C2 9006   4.020   2.012  11.252 -0.2517 -0.6354 -0.0209
  608TMC3    C3 9007   4.114   2.114  11.236 -0.1644  1.0218  0.1306
  608TMC3    C4 9008   4.067   1.938  11.029 -0.3968 -0.1953 -0.2841
  608TMC3    C5 9009   4.176   2.021  11.028  0.1518 -0.0485  0.7628
  608TMC3    C6 9010   4.200   2.115  11.124  0.3940  1.0696 -0.3161
  608TMC3     C 9011   3.884   1.829  11.139 -0.4826 -0.4511  0.0139
  608TMC3     O 9012   3.879   1.751  11.044  0.0604  0.3025 -0.5262
  608TMC3     H 9013   3.942   2.031  11.326  0.4963  2.6031 -0.0669
  608TMC3    H1 9014   4.048   1.861  10.955 -1.0010  0.3769 -0.7289
  608TMC3    H2 9015   4.265   2.201  11.108 -0.3675  1.3288 -1.9707
  608TMC3    C7 9016   4.263   2.003  10.916 -0.8329  0.4324 -0.1939
  608TMC3    C8 9017   4.159   2.178  11.357  0.6256  0.3144 -0.0101
  608TMC3    O1 9018   4.222   1.967  10.807 -0.0677  0.7112  0.5464
  608TMC3    O2 9019   4.242   2.267  11.349 -0.2448  0.3364 -0.2744
  609TMC3    C1 9020   2.525   0.207   8.633  0.7624 -0.2781  0.7217
  609TMC3    C2 9021   2.466   0.086   8.643  0.5330 -0.0979  0.2028
  609TMC3    C3 9022   2.533   4.710   8.710 -0.0726  0.2897  0.1321
  609TMC3    C4 9023   2.643   0.241   8.687  0.7659  0.2986  0.8605
  609TMC3    C5 9024   2.715   0.138   8.744  0.3223 -0.3465 -0.0545
  609TMC3    C6 9025   2.662   0.009   8.765  0.4430 -0.3771  0.1020
  609TMC3     C 9026   2.430   0.310   8.625  0.1436  0.3530  0.1452
  609TMC3     O 9027   2.362   0.318   8.526 -0.5489 -0.1027 -0.1917
  609TMC3     H 9028   2.369   0.068   8.600  1.1673 -0.8269 -0.9083
  609TMC3    H1 9029   2.682   0.341   8.668 -0.3238  0.1833 -1.9646
  609TMC3    H2 9030   2.715   4.681   8.844  0.4606 -1.0261 -0.3444
  609TMC3    C7 9031   2.848   0.185   8.783 -0.5848 -0.2530  0.0059
  609TMC3    C8 9032   2.477   4.578   8.705  0.0598  0.0777  0.2060
  609TMC3    O1 9033   2.871   0.305   8.793  0.5722 -0.1073 -0.4713
  609TMC3    O2 9034   2.360   4.571   8.670  0.4714  0.0551  0.1622
  610TMC3    C1 9035   4.275   1.618  12.342 -0.1911 -0.5486  0.2115
  610TMC3    C2 9036   4.355   1.711  12.284  0.2555  0.1035 -0.4784
  610TMC3    C3 9037   4.482   1.670  12.252 -0.2170  0.7874  0.2054
  610TMC3    C4 9038   4.318   1.495  12.372 -0.1445  0.3984  0.1606
  610TMC3    C5 9039   4.448   1.461  12.342  0.2620  0.6371  0.0566
  610TMC3    C6 9040   4.532   1.546  12.283  0.2567  0.1737 -0.5467
  610TMC3     C 9041   4.136   1.645  12.386 -0.1883  0.6205  0.6044
  610TMC3     O 9042   4.076   1.555  12.448  0.2647 -0.7235  0.6448
  610TMC3     H 9043   4.321   1.812  12.263  0.4289  0.0942 -0.8037
  610TMC3    H1 9044   4.256   1.437  12.439  0.7709  0.9204  1.4681
  610TMC3    H2 9045   4.634   1.514  12.265  0.5662  0.5686  0.5621
  610TMC3    C7 9046   4.503   1.334  12.396 -0.2676 -0.0807  0.1014
  610TMC3    C8 9047   4.561   1.753  12.166  0.3950  0.1974  0.1343
  610TMC3    O1 9048   4.624   1.316  12.393 -0.0509  0.4333 -0.1665
  610TMC3    O2 9049   4.684   1.743  12.176 -0.3935 -0.4148 -0.4217
  611MPD2     C 9050   3.726   1.769   9.896  0.4633  0.4203  0.2898
  611MPD2    C1 9051   3.835   1.683   9.906  0.5328 -0.5942  0.4062
  611MPD2    C2 9052   3.963   1.741   9.893 -0.1197 -1.2709  0.0717
  611MPD2    C3 9053   3.978   1.873   9.852  0.1653  0.6503  0.3214
  611MPD2    C4 9054   3.867   1.952   9.845  0.4884  0.2362 -0.2667
  611MPD2    C5 9055   3.744   1.898   9.873 -0.6329 -0.5524 -0.3962
  611MPD2     H 9056   4.054   1.681   9.893  0.3802 -0.5187  0.2449
  611MPD2    H1 9057   3.879   2.053   9.808 -0.6422  1.1231  1.7295
  611MPD2    H2 9058   3.626   1.727   9.899  0.7866 -0.2974  1.0912
  611MPD2    H3 9059   3.658   1.964   9.871 -1.1973 -1.2661  0.2307
  611MPD2     N 9060   4.103   1.932   9.825  0.0695  0.1102 -0.2558
  611MPD2    H5 9061   4.105   2.020   9.775 -0.0295  0.5447  0.5179
  611MPD2    N1 9062   3.814   1.540   9.930 -0.4696  0.0666 -0.3616
  611MPD2    H7 9063   3.716   1.517   9.942 -0.2721  0.2860  1.8301
  612TMC3    C1 9064   4.335   1.947   9.796  0.3593 -0.1615 -0.5754
  612TMC3    C2 9065   4.458   1.934   9.847  0.6779  0.0804  0.1546
  612TMC3    C3 9066   4.563   1.957   9.762 -0.4156  0.0966  0.0280
  612TMC3    C4 9067   4.310   1.997   9.671  0.6761 -0.2493  0.4957
  612TMC3    C5 9068   4.419   2.025   9.591 -0.3046 -0.1245  0.2795
  612TMC3    C6 9069   4.547   2.011   9.637  0.1308 -0.2485  0.8840
  612TMC3     C 9070   4.228   1.892   9.877  0.0702  0.0471 -0.1938
  612TMC3     O 9071   4.252   1.793   9.945  0.4418  0.5054  0.1974
  612TMC3     H 9072   4.474   1.906   9.951 -0.9290  2.4514  1.0392
  612TMC3    H1 9073   4.209   2.012   9.635  0.5773 -0.7307  0.5782
  612TMC3    H2 9074   4.633   2.037   9.577  0.7956  0.2116  2.0412
  612TMC3    C7 9075   4.393   2.078   9.459  0.4758 -0.0782  0.2284
  612TMC3    C8 9076   4.689   2.005   9.824  0.2259 -0.5198 -0.2181
  612TMC3    O1 9077   4.296   2.046   9.397 -0.0274  0.3561  0.1043
  612TMC3    O2 9078   0.019   2.095   9.762 -0.0211  0.4579  0.2254
  613MPD2     C 9079   3.030   3.723  16.540 -0.2886 -0.1497  0.8292
  613MPD2    C1 9080   3.000   3.767  16.417  0.9637  0.3356  0.0270
  613MPD2    C2 9081   2.924   3.683  16.331  0.1172  0.2695 -0.1382
  613MPD2    C3 9082   2.881   3.556  16.376 -0.3640  0.3571  0.4234
  613MPD2    C4 9083   2.918   3.514  16.500  0.0690  0.0516 -0.0686
  613MPD2    C5 9084   2.987   3.594  16.580  0.2533  0.2225 -0.4418
  613MPD2     H 9085   2.896   3.726  16.236 -0.5073  0.7627  0.2756
  613MPD2    H1 9086   2.889   3.414  16.531 -1.8731  0.1976 -1.3945
  613MPD2    H2 9087   3.089   3.784  16.608 -1.6092  3.8745 -1.5979
  613MPD2    H3 9088   3.001   3.555  16.680 -1.7769  3.7826  1.2152
  613MPD2     N 9089   2.808   3.467  16.293  0.3639 -0.2729  0.4059
  613MPD2    H5 9090   2.785   3.375  16.329  1.0311 -0.6827 -0.1975
  613MPD2    N1 9091   3.057   3.892  16.378  0.4257  0.7841 -0.2312
  613MPD2    H7 9092   3.142   3.920  16.425 -0.1170 -1.5690  2.1097
  614TMC3    C1 9093   3.133   3.976  16.174 -0.5865  0.2740  0.6944
  614TMC3    C2 9094   3.195   3.858  16.137 -0.1526  0.1195  0.1700
  614TMC3    C3 9095   3.214   3.836  16.006  0.4580  0.1149 -0.0362
  614TMC3    C4 9096   3.100   4.064  16.077 -0.2851 -0.4450 -0.5626
  614TMC3    C5 9097   3.113   4.042  15.943  1.2577 -0.1798  0.3388
  614TMC3    C6 9098   3.175   3.924  15.906 -0.4098  0.2964 -1.3902
  614TMC3     C 9099   3.021   3.958  16.259  0.0593  0.4191 -0.0989
  614TMC3     O 9100   2.910   3.966  16.206  0.4801 -0.4742  0.0608
  614TMC3     H 9101   3.208   3.776  16.207 -1.8238 -1.7567 -1.7046
  614TMC3    H1 9102   3.038   4.150  16.101 -0.7934 -1.5050  1.9444
  614TMC3    H2 9103   3.186   3.902  15.801 -2.5000  1.6421 -1.8918
  614TMC3    C7 9104   3.082   4.145  15.854 -0.0791  0.2544  0.6512
  614TMC3    C8 9105   3.233   3.696  15.972 -0.5604 -0.2728  0.2433
  614TMC3    O1 9106   3.067   4.263  15.887  0.3369 -0.0906  0.6290
  614TMC3    O2 9107   3.242   3.613  16.061  0.7513 -0.2136  0.2550
  615MPD2     C 9108   2.143   0.392  16.297  0.3940 -0.7084  0.2265
  615MPD2    C1 9109   2.230   0.494  16.324  0.3619  0.6492  0.6290
  615MPD2    C2 9110   2.297   0.554  16.218  0.3311 -0.0963  0.5630
  615MPD2    C3 9111   2.295   0.505  16.093 -0.4560  0.3929 -0.2661
  615MPD2    C4 9112   2.207   0.399  16.066 -0.1466  0.1546  0.2742
  615MPD2    C5 9113   2.135   0.340  16.172  0.1341 -0.2719  0.2613
  615MPD2     H 9114   2.362   0.637  16.242  1.7266 -1.1951  0.6185
  615MPD2    H1 9115   2.200   0.342  15.974  1.4346  0.8038 -0.2507
  615MPD2    H2 9116   2.097   0.332  16.375  1.1379 -1.4623  0.0795
  615MPD2    H3 9117   2.076   0.254  16.143  0.9923 -0.8984  0.3709
  615MPD2     N 9118   2.374   0.554  15.987  0.1597  0.0762  0.0255
  615MPD2    H5 9119   2.340   0.529  15.895  0.3650  3.4257 -0.9393
  615MPD2    N1 9120   2.231   0.540  16.456  1.0117 -0.5204  0.2840
  615MPD2    H7 9121   2.155   0.500  16.511 -0.4366  2.2394  0.2583
  616TMC3    C1 9122   2.273   0.700  16.628  0.2393  0.3424 -0.1613
  616TMC3    C2 9123   2.386   0.756  16.677  0.5988 -0.5453  0.7723
  616TMC3    C3 9124   2.372   0.864  16.766 -0.5108 -0.3619  0.2635
  616TMC3    C4 9125   2.146   0.743  16.652 -0.3715  0.4093 -0.4918
  616TMC3    C5 9126   2.140   0.855  16.735 -0.5237  0.0153 -0.2596
  616TMC3    C6 9127   2.252   0.907  16.799 -0.5896 -0.1353 -0.0332
  616TMC3     C 9128   2.311   0.644  16.497  0.1896 -0.6477  0.1424
  616TMC3     O 9129   2.400   0.708  16.441 -0.0777 -0.2620 -0.0644
  616TMC3     H 9130   2.476   0.695  16.677 -0.3392 -1.9498  0.0029
  616TMC3    H1 9131   2.055   0.700  16.612  1.0434 -1.4036 -1.7575
  616TMC3    H2 9132   2.245   0.991  16.869  2.1813 -1.2137  1.5389
  616TMC3    C7 9133   2.015   0.924  16.736  0.4770 -0.2364  0.9259
  616TMC3    C8 9134   2.484   0.900  16.851  0.0715  0.2123  0.4158
  616TMC3    O1 9135   1.930   0.878  16.658  0.4211  0.2666  0.4090
  616TMC3    O2 9136   2.460   0.951  16.960  0.0675  0.0215 -0.3107
  617MPD2     C 9137   0.364   3.941  13.426  0.2543  0.0105 -0.2285
  617MPD2    C1 9138   0.406   3.858  13.526 -0.4733  0.1259  0.1692
  617MPD2    C2 9139   0.310   3.807  13.609 -0.4416  0.3760  0.3790
  617MPD2    C3 9140   0.179   3.834  13.583 -0.1806 -0.3761 -0.3594
  617MPD2    C4 9141   0.141   3.909  13.466  0.3430  0.2951 -0.1060
  617MPD2    C5 9142   0.239   3.965  13.399 -0.0861  0.5845  0.2588
  617MPD2     H 9143   0.334   3.728  13.679  3.2655  0.7068 -0.5052
  617MPD2    H1 9144   0.037   3.923  13.440  0.7924  0.1510 -2.0521
  617MPD2    H2 9145   0.437   3.976  13.354 -0.6516  3.3110  0.4443
  617MPD2    H3 9146   0.216   4.025  13.312 -0.1013  0.9166  0.4909
  617MPD2     N 9147   0.067   3.772  13.651  0.0260  0.1819  0.6981
  617MPD2    H5 9148   4.700   3.779  13.606  2.7135  2.9158 -4.2987
  617MPD2    N1 9149   0.547   3.832  13.544  1.0763 -0.9973  0.8964
  617MPD2    H7 9150   0.613   3.877  13.480 -0.5816  0.1356 -0.0043
  618TMC3    C1 9151   0.747   3.726  13.601  0.2737 -0.1038  0.5644
  618TMC3    C2 9152   0.787   3.605  13.573 -0.4337 -0.2160  0.4025
  618TMC3    C3 9153   0.917   3.590  13.549 -0.0853  0.5190  0.0362
  618TMC3    C4 9154   0.822   3.836  13.578  0.1929 -0.0038  0.0833
  618TMC3    C5 9155   0.952   3.823  13.540  0.2642  0.2377  0.1940
  618TMC3    C6 9156   1.005   3.697  13.533 -0.5938 -0.6729  0.4963
  618TMC3     C 9157   0.603   3.742  13.633 -0.4336 -0.3772 -0.0383
  618TMC3     O 9158   0.559   3.664  13.710 -0.0331 -0.7995 -0.5382
  618TMC3     H 9159   0.717   3.525  13.593  1.2945 -2.1766 -1.4154
  618TMC3    H1 9160   0.780   3.934  13.597 -3.4774 -1.4410 -0.4407
  618TMC3    H2 9161   1.112   3.687  13.546 -0.0028  1.3010 -2.9775
  618TMC3    C7 9162   1.037   3.939  13.581 -0.4122 -0.3324  0.0836
  618TMC3    C8 9163   0.934   3.476  13.471 -0.2999  0.0998  0.8306
  618TMC3    O1 9164   0.992   4.010  13.668  0.3758  0.2747 -1.0876
  618TMC3    O2 9165   0.838   3.415  13.428 -0.0114 -0.1083  0.3809
  619MPD2     C 9166   2.079   0.368  13.516 -0.1877  0.3645  0.3733
  619MPD2    C1 9167   1.971   0.389  13.601 -0.0178  0.2300  1.2406
  619MPD2    C2 9168   1.843   0.350  13.570 -0.3610 -0.5215  0.5332
  619MPD2    C3 9169   1.814   0.292  13.441  0.9378 -0.6369 -0.2734
  619MPD2    C4 9170   1.922   0.251  13.370 -0.2233 -0.0823 -0.3948
  619MPD2    C5 9171   2.050   0.286  13.412  0.9635  0.0767 -0.2289
  619MPD2     H 9172   1.764   0.383  13.636 -0.2511  0.7165  0.0598
  619MPD2    H1 9173   1.914   0.197  13.277  3.5487 -0.0903 -0.6894
  619MPD2    H2 9174   2.184   0.383  13.538  0.6575 -2.1828 -2.0104
  619MPD2    H3 9175   2.131   0.252  13.350  1.0387 -2.1706  1.1151
  619MPD2     N 9176   1.682   0.284  13.398 -0.1536  0.2916 -0.3596
  619MPD2    H5 9177   1.672   0.235  13.309  0.0357  0.2989 -0.3843
  619MPD2    N1 9178   1.974   0.492  13.699 -0.3147  0.4751  0.3044
  619MPD2    H7 9179   1.901   0.489  13.770  1.7673 -1.8942  2.3747
  620TMC3    C1 9180   2.062   0.611  13.873 -0.6632 -0.1874 -0.9810
  620TMC3    C2 9181   1.956   0.542  13.940 -0.0763 -0.0779  0.1762
  620TMC3    C3 9182   1.842   0.615  13.976  0.2634  0.4330 -0.5802
  620TMC3    C4 9183   2.060   0.742  13.859 -0.9211  0.1347  0.0818
  620TMC3    C5 9184   1.963   0.809  13.921  0.5376 -0.4273  0.0085
  620TMC3    C6 9185   1.850   0.749  13.970  0.0021  0.6533  0.9412
  620TMC3     C 9186   2.087   0.558  13.738 -0.3709  0.2579 -0.4237
  620TMC3     O 9187   2.178   0.605  13.669  0.3001  0.0594 -0.0849
  620TMC3     H 9188   1.960   0.434  13.940 -0.3566 -0.0908 -1.0085
  620TMC3    H1 9189   2.128   0.802  13.800 -0.2851 -0.3811  0.2952
  620TMC3    H2 9190   1.768   0.811  14.002 -0.9517 -0.3006  0.3731
  620TMC3    C7 9191   1.927   0.940  13.876 -0.0644  0.5596 -0.3858
  620TMC3    C8 9192   1.718   0.555  13.933  0.5848  0.0513 -0.0725
  620TMC3    O1 9193   1.952   0.975  13.761  0.0457  0.1993 -0.8353
  620TMC3    O2 9194   1.727   0.441  13.886  0.1415 -0.1176  0.1806
  621MPD2     C 9195   2.937   3.986  10.007 -0.0366 -1.1818  0.5824
  621MPD2    C1 9196   2.808   3.988   9.957 -0.0332  0.0767  1.5231
  621MPD2    C2 9197   2.745   4.108   9.914 -0.6028  0.0052  0.4804
  621MPD2    C3 9198   2.820   4.228   9.926  0.2721  0.2004  0.3179
  621MPD2    C4 9199   2.951   4.220   9.971  0.2870  0.0625  0.0238
  621MPD2    C5 9200   3.013   4.105  10.010  0.5371 -0.1070 -0.8652
  621MPD2     H 9201   2.646   4.115   9.871 -0.5434 -0.9084  0.2174
  621MPD2    H1 9202   3.015   4.306   9.986 -0.3772  0.2214  1.9083
  621MPD2    H2 9203   2.993   3.896  10.033 -0.1133 -2.0098 -2.0900
  621MPD2    H3 9204   3.117   4.106  10.041  0.8112  0.8827 -1.8258
  621MPD2     N 9205   2.757   4.346   9.889 -0.8095  0.3497  0.4650
  621MPD2    H5 9206   2.668   4.331   9.843  1.8326 -0.9538 -4.2274
  621MPD2    N1 9207   2.724   3.871   9.956  0.3516 -0.4340  0.3155
  621MPD2    H7 9208   2.627   3.878   9.926  0.9477  0.4499 -1.4355
  622TMC3    C1 9209   2.676   3.642   9.978  0.0660  0.2709 -0.1272
  622TMC3    C2 9210   2.550   3.672   9.964 -0.1172 -0.0566 -0.0897
  622TMC3    C3 9211   2.459   3.576   9.928  0.4907  0.1835  0.1431
  622TMC3    C4 9212   2.726   3.513   9.952 -0.4492  0.1891  0.3608
  622TMC3    C5 9213   2.634   3.421   9.921  0.0911 -0.2700  0.3235
  622TMC3    C6 9214   2.500   3.452   9.902  0.7613  0.2680  0.0928
  622TMC3     C 9215   2.772   3.743   9.976 -0.0466  0.0232  1.0173
  622TMC3     O 9216   2.889   3.703   9.985 -0.5666  0.0480  0.2899
  622TMC3     H 9217   2.518   3.765  10.011  1.4410  1.0861 -1.2922
  622TMC3    H1 9218   2.832   3.493   9.962  0.0339  2.3389 -0.3285
  622TMC3    H2 9219   2.428   3.372   9.891  2.0047 -0.6417 -1.4193
  622TMC3    C7 9220   2.679   3.303   9.857  0.3432  0.2311  0.0184
  622TMC3    C8 9221   2.316   3.600   9.950  0.4062  0.0115  0.2009
  622TMC3    O1 9222   2.789   3.271   9.887  0.9034  0.6415 -0.2156
  622TMC3    O2 9223   2.249   3.504   9.923  0.2395  0.1272  0.0430
  623MPD2     C 9224   0.763   0.725  15.683 -0.5494 -0.0676  0.1660
  623MPD2    C1 9225   0.721   0.815  15.773 -0.1419 -0.1867  0.4169
  623MPD2    C2 9226   0.809   0.866  15.866  0.4632  0.1950 -0.2931
  623MPD2    C3 9227   0.935   0.808  15.882 -0.1714 -0.6071  0.6155
  623MPD2    C4 9228   0.976   0.715  15.791  0.4654  0.6503  0.2593
  623MPD2    C5 9229   0.893   0.680  15.691 -0.5462 -0.6840  0.0216
  623MPD2     H 9230   0.787   0.942  15.941 -3.4942 -1.5760  0.3420
  623MPD2    H1 9231   1.074   0.670  15.786 -0.0084 -0.4998  1.3018
  623MPD2    H2 9232   0.709   0.696  15.594  0.2178  1.6429 -0.8653
  623MPD2    H3 9233   0.940   0.615  15.618  0.4580 -0.1238  0.1770
  623MPD2     N 9234   1.018   0.851  15.982  0.3890  0.5099 -0.4492
  623MPD2    H5 9235   0.976   0.912  16.051 -1.1051  2.3805 -3.0071
  623MPD2    N1 9236   0.587   0.865  15.772  0.0739  0.0486  0.0238
  623MPD2    H7 9237   0.555   0.921  15.850 -0.5853 -1.9888  1.2166
  624TMC3    C1 9238   1.187   0.716  16.331  0.5043 -0.3703 -0.1509
  624TMC3    C2 9239   1.060   0.739  16.382 -0.1246  0.1164  0.3813
  624TMC3    C3 9240   0.996   0.851  16.329 -0.2578 -0.3309  0.4871
  624TMC3    C4 9241   1.242   0.775  16.221  0.1666  0.3979 -1.1449
  624TMC3    C5 9242   1.162   0.868  16.157 -0.0918  0.0113  0.0869
  624TMC3    C6 9243   1.041   0.908  16.220  0.1149  0.7417  0.0096
  624TMC3     C 9244   1.288   0.660  16.415  0.1051  0.8376 -0.2222
  624TMC3     O 9245   1.388   0.725  16.417 -0.1426  0.7639  0.1856
  624TMC3     H 9246   1.021   0.698  16.474 -0.9538  0.5600  0.2369
  624TMC3    H1 9247   1.325   0.727  16.170  0.0065 -0.0280 -1.0101
  624TMC3    H2 9248   0.993   0.992  16.172  0.2800  0.4672 -0.6361
  624TMC3    C7 9249   1.140   0.818  16.022 -0.4229  0.3944  0.0680
  624TMC3    C8 9250   0.855   0.872  16.346  0.7729  0.0337  1.0031
  624TMC3    O1 9251   1.221   0.744  15.966 -0.4903 -0.1940 -0.1075
  624TMC3    O2 9252   0.796   0.912  16.246 -0.4214 -0.4339 -0.0088
  625MPD2     C 9253   1.166   1.673   0.689  1.0868 -0.1565 -0.3616
  625MPD2    C1 9254   1.166   1.782   0.606 -0.3361  0.4218  0.6531
  625MPD2    C2 9255   1.285   1.836   0.563  0.7730 -0.5586  0.2807
  625MPD2    C3 9256   1.408   1.782   0.598  0.3955  0.2079  0.3908
  625MPD2    C4 9257   1.409   1.685   0.687 -0.2808 -0.5825 -0.4335
  625MPD2    C5 9258   1.291   1.624   0.723  0.0882 -0.4123 -0.0597
  625MPD2     H 9259   1.291   1.914   0.488  0.4158 -2.6524 -1.9115
  625MPD2    H1 9260   1.500   1.639   0.723 -2.0024 -2.2517  1.7878
  625MPD2    H2 9261   1.077   1.623   0.726  0.8601  0.8017  0.3989
  625MPD2    H3 9262   1.294   1.540   0.791  0.8869 -0.8082 -0.5847
  625MPD2     N 9263   1.525   1.841   0.550  0.2505  0.1520  0.0165
  625MPD2    H5 9264   1.509   1.931   0.505  0.9774 -0.3399 -1.2265
  625MPD2    N1 9265   1.042   1.834   0.546 -0.2132 -0.3034  0.0829
  625MPD2    H7 9266   1.057   1.923   0.500 -1.5387  0.5227  1.2207
  626TMC3    C1 9267   0.813   1.848   0.487  0.4703 -0.1899 -0.5633
  626TMC3    C2 9268   0.837   1.954   0.399  0.1100  0.0626  0.6025
  626TMC3    C3 9269   0.729   2.029   0.367  0.7861  0.4363 -0.2062
  626TMC3    C4 9270   0.689   1.814   0.533  0.0154 -0.1362 -0.4370
  626TMC3    C5 9271   0.580   1.894   0.502 -0.3622  0.4355  0.4378
  626TMC3    C6 9272   0.599   2.000   0.413  0.0800 -0.9183  0.0130
  626TMC3     C 9273   0.923   1.769   0.550 -0.2502  0.4709 -0.1302
  626TMC3     O 9274   0.901   1.654   0.595 -0.0292  0.3273 -0.1780
  626TMC3     H 9275   0.935   1.984   0.362  0.1899 -0.3741  0.4636
  626TMC3    H1 9276   0.680   1.736   0.607 -4.0761  0.5791 -0.1740
  626TMC3    H2 9277   0.512   2.049   0.370 -0.1873 -1.4804 -0.0831
  626TMC3    C7 9278   0.453   1.869   0.567 -0.7520 -0.6035 -0.2197
  626TMC3    C8 9279   0.740   2.136   0.273 -0.3712 -0.1823  0.5639
  626TMC3    O1 9280   0.441   1.764   0.631 -0.4092  0.2262 -0.0852
  626TMC3    O2 9281   0.838   2.130   0.201 -0.1629  0.4294  0.0856
  627MPD2     C 9282   0.212   2.368  14.104  0.8557  0.2114 -0.3768
  627MPD2    C1 9283   0.131   2.413  14.211  0.3220  0.0970  0.2107
  627MPD2    C2 9284   0.017   2.341  14.235  0.1234 -0.7959  0.3819
  627MPD2    C3 9285   4.715   2.218  14.170  0.4162  0.8106  0.1072
  627MPD2    C4 9286   0.071   2.188  14.056  0.4600  0.5509 -0.4099
  627MPD2    C5 9287   0.187   2.260  14.029  0.6523  0.8743  0.5399
  627MPD2     H 9288   4.677   2.375  14.316 -0.4969 -1.0370 -0.0016
  627MPD2    H1 9289   0.047   2.102  13.995  0.1904  0.5527 -0.3062
  627MPD2    H2 9290   0.308   2.412  14.079  1.8307 -1.7756 -0.1570
  627MPD2    H3 9291   0.251   2.231  13.947  0.9201 -0.0247  1.0655
  627MPD2     N 9292   4.616   2.130  14.220 -0.4276  0.5995 -0.5702
  627MPD2    H5 9293   4.569   2.156  14.306  0.2303  1.6493 -0.5284
  627MPD2    N1 9294   0.161   2.522  14.300  1.2269  0.0119  0.0012
  627MPD2    H7 9295   0.106   2.539  14.384  1.0667  0.6237 -0.2300
  628TMC3    C1 9296   0.290   2.692  14.398 -0.7645 -0.2425 -0.2854
  628TMC3    C2 9297   0.408   2.675  14.470 -0.5605  0.3270  0.7507
  628TMC3    C3 9298   0.417   2.737  14.591  1.0633  0.2163 -0.4997
  628TMC3    C4 9299   0.186   2.774  14.440 -0.1912  0.8829  0.3932
  628TMC3    C5 9300   0.212   2.854  14.552  0.1140  1.2018 -0.0963
  628TMC3    C6 9301   0.313   2.815  14.635 -0.7588  0.0005 -0.1285
  628TMC3     C 9302   0.279   2.596  14.288 -0.6784 -0.1721 -0.3754
  628TMC3     O 9303   0.379   2.583  14.222  0.6256 -0.5521 -0.0447
  628TMC3     H 9304   0.494   2.624  14.431 -0.6725  0.2545  0.5988
  628TMC3    H1 9305   0.100   2.792  14.377 -0.9973 -1.5540  0.7995
  628TMC3    H2 9306   0.332   2.886  14.715 -1.3878  1.1376 -0.9831
  628TMC3    C7 9307   0.180   2.998  14.564 -0.7547  0.7534  0.1671
  628TMC3    C8 9308   0.546   2.784  14.640 -0.0041  0.5075  0.4674
  628TMC3    O1 9309   0.212   3.058  14.664 -0.3898  0.8692  0.5451
  628TMC3    O2 9310   0.551   2.903  14.661 -0.4606  0.2000  0.7775
  629MPD2     C 9311   2.999   0.949  16.921 -0.0368 -0.0972 -0.1278
  629MPD2    C1 9312   2.971   0.883  16.800 -0.1309  0.2131 -0.5639
  629MPD2    C2 9313   2.842   0.862  16.758 -1.2113 -0.0007  0.1429
  629MPD2    C3 9314   2.733   0.892  16.843 -0.5502 -0.1594 -0.2450
  629MPD2    C4 9315   2.758   0.945  16.968 -0.3238 -0.2755  0.7742
  629MPD2    C5 9316   2.889   0.970  17.003 -0.7614  0.3489 -0.9832
  629MPD2     H 9317   2.812   0.813  16.666 -0.9008  0.2324 -0.0801
  629MPD2    H1 9318   2.679   0.974  17.037 -0.4589  2.5548 -0.5913
  629MPD2    H2 9319   3.096   0.988  16.949  0.3076 -0.6873 -0.4867
  629MPD2    H3 9320   2.899   1.021  17.098 -0.8301  1.0974 -1.3739
  629MPD2     N 9321   2.604   0.872  16.786  0.0354 -0.0435  0.3240
  629MPD2    H5 9322   2.597   0.851  16.687  0.7563 -2.6455  0.8264
  629MPD2    N1 9323   3.083   0.852  16.715  0.5560  0.4095  0.1823
  629MPD2    H7 9324   3.176   0.881  16.745  0.3291  0.8851  0.4261
  630TMC3    C1 9325   3.196   0.797  16.508  0.3928 -0.4364  0.2959
  630TMC3    C2 9326   3.167   0.805  16.374  0.2147  0.1906 -0.9069
  630TMC3    C3 9327   3.232   0.895  16.296  0.2343  0.5705 -0.0984
  630TMC3    C4 9328   3.303   0.867  16.561  0.3421 -0.0313 -0.5781
  630TMC3    C5 9329   3.384   0.945  16.479  0.2323  0.0657 -0.2469
  630TMC3    C6 9330   3.338   0.970  16.345 -0.0129  0.2743 -0.1095
  630TMC3     C 9331   3.077   0.788  16.592  0.2980  0.3656 -0.5475
  630TMC3     O 9332   2.978   0.754  16.526 -0.1194 -0.0889 -0.2942
  630TMC3     H 9333   3.083   0.751  16.330  0.2042 -1.6208  1.3082
  630TMC3    H1 9334   3.329   0.848  16.664  1.4949  0.4710 -0.7774
  630TMC3    H2 9335   3.401   1.032  16.283 -1.1659  0.8389 -0.7069
  630TMC3    C7 9336   3.480   1.039  16.553  0.2184  0.0561  0.6605
  630TMC3    C8 9337   3.180   0.931  16.169 -0.3018 -0.1629 -0.1514
  630TMC3    O1 9338   3.504   1.004  16.669  0.2564  0.1896 -0.1767
  630TMC3    O2 9339   3.081   0.869  16.126 -0.2089 -0.0330  0.0020
  631MPD2     C 9340   1.813   0.840  15.431  0.6965 -0.3140 -0.9494
  631MPD2    C1 9341   1.895   0.938  15.381  0.4185 -0.3112 -0.1825
  631MPD2    C2 9342   2.034   0.915  15.405 -0.5036 -0.2701 -0.6993
  631MPD2    C3 9343   2.081   0.804  15.472 -0.3722  0.0857  0.1535
  631MPD2    C4 9344   1.989   0.710  15.508  0.1153 -0.0012  0.4412
  631MPD2    C5 9345   1.855   0.729  15.494  1.2095  0.9729  0.5561
  631MPD2     H 9346   2.102   0.997  15.383  0.3546 -0.9741 -0.6688
  631MPD2    H1 9347   2.013   0.619  15.562 -0.9394 -0.7122 -0.2882
  631MPD2    H2 9348   1.707   0.853  15.419  0.2414 -1.1493  2.1386
  631MPD2    H3 9349   1.795   0.648  15.534 -2.0201  2.9911 -0.2248
  631MPD2     N 9350   2.219   0.804  15.518 -0.3895  0.0802 -0.2350
  631MPD2    H5 9351   2.274   0.885  15.491  2.5886 -1.7131  0.5054
  631MPD2    N1 9352   1.842   1.053  15.320 -0.1050 -0.0520 -0.5733
  631MPD2    H7 9353   1.741   1.059  15.324 -0.0236  1.6069 -1.2608
  632TMC3    C1 9354   1.841   1.268  15.217 -0.5203  0.0135 -0.6488
  632TMC3    C2 9355   1.719   1.291  15.272 -0.0686  0.6012 -0.3113
  632TMC3    C3 9356   1.656   1.401  15.220  0.3375 -0.5534  0.9280
  632TMC3    C4 9357   1.892   1.342  15.110  0.6692  0.0989  0.6020
  632TMC3    C5 9358   1.821   1.447  15.061 -0.1049  0.4215 -0.2663
  632TMC3    C6 9359   1.705   1.479  15.115  0.3916 -0.0904 -1.3712
  632TMC3     C 9360   1.917   1.146  15.251 -0.7575  0.5545  0.6036
  632TMC3     O 9361   2.036   1.152  15.226 -0.1580  0.2320  0.2141
  632TMC3     H 9362   1.678   1.239  15.358 -0.3760  0.0711 -0.7759
  632TMC3    H1 9363   1.985   1.307  15.067  1.0686 -2.3968  3.4494
  632TMC3    H2 9364   1.637   1.547  15.067 -1.1402 -0.1880  0.6577
  632TMC3    C7 9365   1.841   1.490  14.926  0.1287 -0.0854 -0.2429
  632TMC3    C8 9366   1.514   1.409  15.248 -0.2393  0.2553  0.5754
  632TMC3    O1 9367   1.733   1.492  14.865 -0.7528 -0.3272  0.3369
  632TMC3    O2 9368   1.453   1.306  15.253 -0.2815 -0.2748  0.1483
  633MPD2     C 9369   1.171   3.756  17.140  0.7128  0.1446 -0.1124
  633MPD2    C1 9370   1.191   3.700  17.020 -0.4478  0.3807 -0.2163
  633MPD2    C2 9371   1.315   3.641  17.000  0.2222  0.1604 -0.5025
  633MPD2    C3 9372   1.420   3.652  17.086  0.1156 -0.1605  0.9615
  633MPD2    C4 9373   1.406   3.727  17.199 -0.0543 -0.5095  0.2524
  633MPD2    C5 9374   1.280   3.765  17.231 -0.6983 -0.2129 -0.0511
  633MPD2     H 9375   1.338   3.590  16.907 -0.7359  2.2168 -1.8567
  633MPD2    H1 9376   1.485   3.751  17.269 -0.9137 -1.2115  1.4643
  633MPD2    H2 9377   1.076   3.796  17.176  1.7439  3.1545 -0.6899
  633MPD2    H3 9378   1.261   3.806  17.330  0.5878  0.3321 -0.0303
  633MPD2     N 9379   1.548   3.614  17.048 -0.1384 -0.1014 -0.3197
  633MPD2    H5 9380   1.549   3.577  16.953 -1.5454  1.5023 -0.9441
  633MPD2    N1 9381   1.100   3.696  16.911 -0.5022 -0.4917  0.3137
  633MPD2    H7 9382   1.119   3.640  16.828 -0.8100  1.3311 -0.9914
  634TMC3    C1 9383   0.928   3.782  16.777 -0.4450  0.4125 -0.4638
  634TMC3    C2 9384   0.926   3.674  16.689 -0.6948 -0.7348 -0.7727
  634TMC3    C3 9385   0.893   3.701  16.556  0.2735 -0.0885 -0.3807
  634TMC3    C4 9386   0.897   3.909  16.734 -0.4116 -0.7794  0.0761
  634TMC3    C5 9387   0.864   3.929  16.598  0.4123 -0.6277 -0.1504
  634TMC3    C6 9388   0.860   3.827  16.509  1.0861  0.2428  0.3192
  634TMC3     C 9389   0.994   3.782  16.908  0.5172 -0.0632  0.1227
  634TMC3     O 9390   0.974   3.867  16.996  0.1314 -0.1460 -0.1548
  634TMC3     H 9391   0.961   3.575  16.717  2.3682  0.6942  0.4591
  634TMC3    H1 9392   0.904   3.990  16.806  3.6076 -2.2130  1.2724
  634TMC3    H2 9393   0.831   3.841  16.405 -0.4772  0.5412  0.7871
  634TMC3    C7 9394   0.842   4.061  16.541 -0.5749 -0.1390 -0.1210
  634TMC3    C8 9395   0.940   3.609  16.452 -0.1434 -0.1529  0.1525
  634TMC3    O1 9396   0.870   4.067  16.422 -0.0676  0.1740 -0.8266
  634TMC3    O2 9397   1.038   3.547  16.488  0.2505  0.5483 -0.3904
  635TMC3    C1 9398   1.201   4.567  17.331  0.7389 -0.5311  0.1045
  635TMC3    C2 9399   1.265   4.535  17.217  0.4607  0.5816  0.4915
  635TMC3    C3 9400   1.277   4.401  17.184  0.2085 -0.1470  0.4119
  635TMC3    C4 9401   1.149   4.478  17.419  1.2799 -0.3933 -0.3151
  635TMC3    C5 9402   1.161   4.345  17.381  0.0130 -0.6625  0.6020
  635TMC3    C6 9403   1.228   4.302  17.270  0.0924 -0.0263 -0.1805
  635TMC3     C 9404   1.172   4.707  17.351 -0.0627  0.3730  0.1909
  635TMC3     O 9405   1.139   0.008  17.467  0.0803 -0.0859 -0.3875
  635TMC3     H 9406   1.307   4.610  17.150 -3.6207  0.5834 -2.0688
  635TMC3    H1 9407   1.100   4.508  17.511 -0.2924  0.4701 -1.4378
  635TMC3    H2 9408   1.237   4.196  17.252  0.5625  0.0581 -0.4406
  635TMC3    C7 9409   1.131   4.245  17.477 -0.4066 -0.3593  0.4430
  635TMC3    C8 9410   1.356   4.367  17.073 -0.1699 -0.0089  0.4599
  635TMC3    O1 9411   1.036   4.278  17.555 -0.0916  0.3664 -0.6819
  635TMC3    O2 9412   1.432   4.454  17.031 -0.2236  0.4402 -0.1451
  636MPD2     C 9413   2.524   3.742  15.435  0.5665 -0.0679 -0.2888
  636MPD2    C1 9414   2.573   3.798  15.553 -0.0789 -0.5167 -0.1621
  636MPD2    C2 9415   2.602   3.710  15.651  0.1525  0.4012 -0.3819
  636MPD2    C3 9416   2.596   3.572  15.639  0.1904 -0.0979  0.2676
  636MPD2    C4 9417   2.560   3.517  15.522  0.4902  0.0873  0.5708
  636MPD2    C5 9418   2.517   3.604  15.428 -0.0803 -0.0433 -0.0393
  636MPD2     H 9419   2.640   3.746  15.745  1.6878  0.1457 -0.9054
  636MPD2    H1 9420   2.572   3.413  15.496 -1.6184  0.1903 -0.8016
  636MPD2    H2 9421   2.473   3.807  15.364  0.2063  1.0916  1.0342
  636MPD2    H3 9422   2.462   3.568  15.341  2.4503 -1.4929 -1.0212
  636MPD2     N 9423   2.629   3.494  15.748  0.6417  0.5626 -0.0215
  636MPD2    H5 9424   2.649   3.546  15.833  1.5844 -0.5274  0.4219
  636MPD2    N1 9425   2.576   3.936  15.583  0.2619 -0.7070 -0.0945
  636MPD2    H7 9426   2.594   3.969  15.676  2.3926 -0.1489 -0.7129
  637TMC3    C1 9427   2.674   3.313  15.884 -0.0247  0.0265 -0.2913
  637TMC3    C2 9428   2.656   3.398  15.986  0.3759  0.0278 -0.0773
  637TMC3    C3 9429   2.723   3.368  16.099  0.6937  0.5245  0.4949
  637TMC3    C4 9430   2.766   3.211  15.884 -0.0334 -0.5911 -0.2536
  637TMC3    C5 9431   2.851   3.201  15.991  0.1880 -0.6576  0.9604
  637TMC3    C6 9432   2.820   3.268  16.105  0.1055  0.0369 -0.2464
  637TMC3     C 9433   2.651   3.359  15.748 -0.6422  0.3128  0.8598
  637TMC3     O 9434   2.675   3.275  15.659  0.0190 -0.2859  0.6110
  637TMC3     H 9435   2.582   3.477  15.981 -0.4490 -0.6762  0.8024
  637TMC3    H1 9436   2.776   3.153  15.793 -2.2151  1.2466 -1.6575
  637TMC3    H2 9437   2.896   3.266  16.182  0.1882  0.2050 -0.3235
  637TMC3    C7 9438   2.988   3.234  15.959  1.0223  0.8839 -0.3431
  637TMC3    C8 9439   2.773   3.491  16.159 -0.0647 -0.5819 -0.0022
  637TMC3    O1 9440   3.058   3.283  16.049 -0.0903  0.0847  0.1902
  637TMC3    O2 9441   2.790   3.582  16.079  0.5777  0.4031 -0.3043
  638MPD2     C 9442   2.343   3.137  14.753 -0.0557  0.2196  0.8069
  638MPD2    C1 9443   2.324   3.059  14.639 -0.5582  0.6082  0.4161
  638MPD2    C2 9444   2.270   2.929  14.654 -0.4410  0.6375 -0.4811
  638MPD2    C3 9445   2.218   2.889  14.773 -0.4787  0.6939 -0.5676
  638MPD2    C4 9446   2.233   2.972  14.885 -0.0522 -0.1683 -0.3654
  638MPD2    C5 9447   2.285   3.096  14.863  0.4321 -0.4036  0.4025
  638MPD2     H 9448   2.264   2.859  14.571  1.0917  1.0523 -0.9227
  638MPD2    H1 9449   2.203   2.952  14.987  1.0588  1.4091  0.2750
  638MPD2    H2 9450   2.388   3.235  14.747 -0.6066  0.3773 -0.7939
  638MPD2    H3 9451   2.293   3.159  14.951 -2.3959  0.8956 -0.2636
  638MPD2     N 9452   2.157   2.758  14.792  0.4288  0.1170 -0.1561
  638MPD2    H5 9453   2.155   2.700  14.709  1.4529 -0.6329  0.3516
  638MPD2    N1 9454   2.374   3.112  14.518 -0.5319  0.7298 -0.2442
  638MPD2    H7 9455   2.411   3.206  14.521  4.6041 -1.2229 -2.9210
  639TMC3    C1 9456   2.094   2.566  14.903 -0.5058  0.3758 -0.7475
  639TMC3    C2 9457   1.985   2.535  14.813 -0.2831 -0.2003 -0.2843
  639TMC3    C3 9458   1.966   2.402  14.783 -1.0046  0.3404  0.0834
  639TMC3    C4 9459   2.175   2.471  14.953 -0.3662  0.2351  0.2132
  639TMC3    C5 9460   2.151   2.348  14.915 -0.6981 -0.3595  0.0803
  639TMC3    C6 9461   2.052   2.309  14.835 -0.4778  0.4401  0.4533
  639TMC3     C 9462   2.137   2.702  14.911  0.3787 -0.0639  0.3609
  639TMC3     O 9463   2.154   2.748  15.024  0.7373  0.1556 -0.9436
  639TMC3     H 9464   1.918   2.612  14.778 -0.2339 -0.2462 -0.4790
  639TMC3    H1 9465   2.258   2.496  15.019 -1.4921  0.4944  1.5238
  639TMC3    H2 9466   2.023   2.207  14.814 -0.4233  0.2696  1.1932
  639TMC3    C7 9467   2.253   2.245  14.939 -0.1753  0.1847 -0.4440
  639TMC3    C8 9468   1.907   2.386  14.652  0.5723 -0.3402  0.0025
  639TMC3    O1 9469   2.211   2.141  14.983  0.0405 -0.0146 -0.1887
  639TMC3    O2 9470   1.978   2.411  14.553  0.2224  0.1894  0.2138
  640MPD2     C 9471   2.751   1.743   9.373  0.2168 -0.6074  0.0991
  640MPD2    C1 9472   2.640   1.688   9.306  0.2238  0.2059 -0.2325
  640MPD2    C2 9473   2.534   1.770   9.272 -0.4192  0.4494  1.0245
  640MPD2    C3 9474   2.531   1.895   9.336  0.5641 -0.3424  0.4475
  640MPD2    C4 9475   2.635   1.945   9.416  0.1746  0.1720 -0.6192
  640MPD2    C5 9476   2.746   1.869   9.427 -0.8766 -0.0987 -0.3391
  640MPD2     H 9477   2.452   1.746   9.206  0.1690  1.7456 -0.1857
  640MPD2    H1 9478   2.637   2.042   9.464 -1.6783 -0.4186  0.6782
  640MPD2    H2 9479   2.844   1.690   9.386  0.0287 -1.1842 -0.8541
  640MPD2    H3 9480   2.829   1.900   9.490  0.3671 -1.9495 -1.0571
  640MPD2     N 9481   2.420   1.982   9.335  0.0440  0.3543 -0.2322
  640MPD2    H5 9482   2.426   2.071   9.384  2.5937 -0.9317  1.8155
  640MPD2    N1 9483   2.652   1.560   9.259  0.0093 -0.3909 -0.6795
  640MPD2    H7 9484   2.730   1.501   9.285 -0.5718 -2.0704 -2.8264
  641TMC3    C1 9485   2.589   1.362   9.140  0.4434 -0.3205  0.5672
  641TMC3    C2 9486   2.696   1.298   9.190  0.2934  0.3248  0.6462
  641TMC3    C3 9487   2.737   1.185   9.124 -0.5019  0.3966 -0.8308
  641TMC3    C4 9488   2.508   1.309   9.043  0.6675  0.2406  0.7201
  641TMC3    C5 9489   2.555   1.196   8.969 -0.1124 -0.1561  0.6996
  641TMC3    C6 9490   2.673   1.138   9.014 -0.5163 -0.4692 -0.2209
  641TMC3     C 9491   2.550   1.493   9.194  0.0943 -0.0096 -0.2865
  641TMC3     O 9492   2.435   1.525   9.173 -0.2011 -0.5260 -0.3606
  641TMC3     H 9493   2.744   1.334   9.280  0.5664  0.0464  0.6110
  641TMC3    H1 9494   2.431   1.374   9.001  0.2748 -0.8173 -0.2077
  641TMC3    H2 9495   2.721   1.061   8.956 -1.2919 -1.5028  0.4878
  641TMC3    C7 9496   2.465   1.138   8.869 -0.2189  0.5547 -0.4369
  641TMC3    C8 9497   2.864   1.122   9.152  0.4340  0.0008  1.0019
  641TMC3    O1 9498   2.515   1.082   8.770 -0.0272 -0.0078  0.3281
  641TMC3    O2 9499   2.875   1.004   9.113  0.4050  0.0745  0.3929
  642TMC3    C1 9500   3.909   2.668  12.135 -0.0434 -1.5028  0.1929
  642TMC3    C2 9501   3.942   2.645  12.267  0.6166 -0.4378 -0.2933
  642TMC3    C3 9502   3.959   2.514  12.301  0.1193  0.8460 -0.3890
  642TMC3    C4 9503   3.889   2.567  12.047  0.2489 -0.8813  0.0294
  642TMC3    C5 9504   3.900   2.436  12.090 -0.3843  0.1343  0.4570
  642TMC3    C6 9505   3.942   2.407  12.220 -0.2256  0.1665 -0.2388
  642TMC3     C 9506   3.841   2.795  12.117  0.1092 -0.3685 -0.3781
  642TMC3     O 9507   3.854   2.850  12.009 -0.1316 -0.4232  0.3238
  642TMC3     H 9508   3.962   2.722  12.340 -0.7780  0.5534 -0.9562
  642TMC3    H1 9509   3.855   2.583  11.945 -0.2225  0.8768  0.4633
  642TMC3    H2 9510   3.981   2.309  12.245 -0.7258  0.3220  1.1409
  642TMC3    C7 9511   3.824   2.335  12.021 -0.2031  0.3301 -0.7314
  642TMC3    C8 9512   4.024   2.481  12.423  0.4030 -0.2819 -0.1847
  642TMC3    O1 9513   3.791   2.355  11.905  0.1352  0.1990  0.4683
  642TMC3    O2 9514   4.018   2.368  12.467 -0.9586 -0.2958 -0.6295
  643TMC3    C1 9515   2.961   2.377   0.288 -0.7777 -0.1047 -0.0528
  643TMC3    C2 9516   2.832   2.408   0.334  0.4218 -0.7273 -0.5509
  643TMC3    C3 9517   2.724   2.344   0.283 -0.5759 -0.0434  0.3293
  643TMC3    C4 9518   2.969   2.278   0.189 -0.5677 -0.2370  0.1482
  643TMC3    C5 9519   2.853   2.227   0.126  0.5284  0.4700  0.6510
  643TMC3    C6 9520   2.732   2.252   0.184  0.0086  0.5049 -0.4505
  643TMC3     C 9521   3.051   2.487   0.283  0.4185  0.1572  0.0373
  643TMC3     O 9522   3.011   2.602   0.296 -0.2160 -1.0011  0.7060
  643TMC3     H 9523   2.815   2.474   0.419  0.7708 -0.8270 -0.4034
  643TMC3    H1 9524   3.067   2.251   0.150 -1.2575 -0.4227 -1.4426
  643TMC3    H2 9525   2.642   2.209   0.141 -0.8226 -1.0698  2.8405
  643TMC3    C7 9526   2.861   2.222  17.680 -0.0254 -0.1953 -0.0320
  643TMC3    C8 9527   2.626   2.450   0.248  0.4633  0.5090 -0.3011
  643TMC3    O1 9528   2.967   2.235  17.626 -0.3466  0.4372 -0.5025
  643TMC3    O2 9529   2.506   2.422   0.248  0.5338 -0.3579  0.1610
  644MPD2     C 9530   3.362   2.258   9.434  0.0861 -0.1800  0.6156
  644MPD2    C1 9531   3.340   2.127   9.391  0.4322  0.0884 -0.0218
  644MPD2    C2 9532   3.215   2.106   9.327 -0.6714  0.1138 -0.3736
  644MPD2    C3 9533   3.121   2.202   9.310 -0.2848 -0.0512  0.4746
  644MPD2    C4 9534   3.150   2.338   9.334  0.5359  0.1060  0.2794
  644MPD2    C5 9535   3.271   2.359   9.395  0.6904  0.0804 -0.1379
  644MPD2     H 9536   3.186   2.004   9.303  1.5588 -0.6839  0.3338
  644MPD2    H1 9537   3.089   2.418   9.294  1.0720 -0.0556 -0.8736
  644MPD2    H2 9538   3.453   2.292   9.481 -0.1178  0.7126  0.3756
  644MPD2    H3 9539   3.309   2.460   9.406 -1.1252  0.7921 -0.4064
  644MPD2     N 9540   3.001   2.159   9.236  0.9938  0.2108 -0.8142
  644MPD2    H5 9541   3.012   2.064   9.201 -3.2744 -0.9698  1.1462
  644MPD2    N1 9542   3.424   2.023   9.436 -0.1091  0.1740 -0.4848
  644MPD2    H7 9543   3.494   2.048   9.506 -1.8562  0.0308  1.3156
  645TMC3    C1 9544   2.783   2.182   9.138  0.0079 -0.2995  0.7491
  645TMC3    C2 9545   2.790   2.066   9.073 -0.6440 -0.2961  0.5443
  645TMC3    C3 9546   2.680   2.028   9.002 -0.0068 -0.2210  0.3305
  645TMC3    C4 9547   2.664   2.244   9.162  0.5723 -0.3969  0.0846
  645TMC3    C5 9548   2.550   2.190   9.102  0.2779  0.0261  0.2106
  645TMC3    C6 9549   2.557   2.080   9.022  0.3456  0.2748 -0.5051
  645TMC3     C 9550   2.892   2.243   9.212 -0.1665 -0.6276 -0.3463
  645TMC3     O 9551   2.869   2.348   9.271 -0.0296  0.0651 -0.6168
  645TMC3     H 9552   2.886   2.023   9.048 -1.5306 -2.3095  0.6308
  645TMC3    H1 9553   2.654   2.340   9.212 -1.7901  0.0275 -1.1917
  645TMC3    H2 9554   2.470   2.045   8.968 -0.3655 -1.2367  1.5877
  645TMC3    C7 9555   2.432   2.285   9.112 -0.1353  0.3857 -0.3556
  645TMC3    C8 9556   2.696   1.897   8.939  0.2513 -0.6363 -0.3857
  645TMC3    O1 9557   2.450   2.384   9.181  0.3824  0.1724 -0.3951
  645TMC3    O2 9558   2.807   1.863   8.899  0.3727 -0.0848 -0.7464
  646MPD2     C 9559   2.536   1.734  14.030  0.5987  0.1697  1.6244
  646MPD2    C1 9560   2.436   1.708  14.121 -0.2588 -1.0576  0.6887
  646MPD2    C2 9561   2.311   1.768  14.114 -0.3416  1.6856 -0.4088
  646MPD2    C3 9562   2.280   1.837  13.992 -0.1808  0.6013  0.0657
  646MPD2    C4 9563   2.385   1.867  13.905 -0.3265 -0.4303 -0.1415
  646MPD2    C5 9564   2.506   1.816  13.920 -0.0080 -0.0832 -0.1938
  646MPD2     H 9565   2.234   1.744  14.187  0.4637 -0.4320 -0.2514
  646MPD2    H1 9566   2.374   1.933  13.820  1.1764  0.5951  0.4741
  646MPD2    H2 9567   2.636   1.697  14.048 -0.0069 -2.0402  0.4786
  646MPD2    H3 9568   2.586   1.844  13.852  0.0031  1.1994  0.3431
  646MPD2     N 9569   2.149   1.892  13.983 -0.2381  0.2044  0.2121
  646MPD2    H5 9570   2.088   1.883  14.063 -2.7053 -0.1999 -1.7230
  646MPD2    N1 9571   2.469   1.624  14.229 -0.2294  0.6044 -0.2269
  646MPD2    H7 9572   2.563   1.586  14.228 -1.1401 -1.6606 -0.6916
  647TMC3    C1 9573   2.430   1.464  14.408 -0.2423  0.2574  0.5879
  647TMC3    C2 9574   2.341   1.365  14.446 -0.2699  0.3200 -0.0026
  647TMC3    C3 9575   2.398   1.249  14.503 -0.4033 -0.1618 -0.4008
  647TMC3    C4 9576   2.566   1.463  14.437 -0.3274 -0.2341 -0.4637
  647TMC3    C5 9577   2.612   1.355  14.505 -0.5213 -0.0366 -0.0818
  647TMC3    C6 9578   2.530   1.250  14.545 -0.2702  0.5164  0.3889
  647TMC3     C 9579   2.378   1.556  14.305  0.3734  0.7208  0.2418
  647TMC3     O 9580   2.257   1.551  14.293 -0.5490 -0.0359 -0.2899
  647TMC3     H 9581   2.233   1.374  14.445 -0.2642  0.3231 -0.4790
  647TMC3    H1 9582   2.637   1.535  14.399 -3.0559  2.6179 -0.1268
  647TMC3    H2 9583   2.577   1.167  14.596 -0.5895 -1.8070 -3.0813
  647TMC3    C7 9584   2.748   1.350  14.546  0.3267  0.1767  0.2715
  647TMC3    C8 9585   2.307   1.155  14.569 -0.6731  0.3517  0.0395
  647TMC3    O1 9586   2.798   1.239  14.551 -0.5051 -0.5297 -0.2279
  647TMC3    O2 9587   2.189   1.167  14.544 -0.1123 -0.2018 -0.1166
  648TMC3    C1 9588   1.641   3.827  15.830  0.2022 -0.3990  0.2837
  648TMC3    C2 9589   1.642   3.703  15.773 -0.3565  0.1427 -0.0189
  648TMC3    C3 9590   1.657   3.694  15.642 -0.1293 -0.0367  0.5052
  648TMC3    C4 9591   1.654   3.940  15.754  0.5214  0.9028 -0.0303
  648TMC3    C5 9592   1.649   3.929  15.615  0.1074  0.3629 -0.4360
  648TMC3    C6 9593   1.655   3.805  15.564 -0.1590 -0.5034  0.5930
  648TMC3     C 9594   1.586   3.842  15.962 -0.5918 -0.6636 -0.0088
  648TMC3     O 9595   1.660   3.901  16.039  0.0927 -0.0267  0.4842
  648TMC3     H 9596   1.624   3.612  15.829 -1.2064  0.6826  0.5748
  648TMC3    H1 9597   1.667   4.036  15.802  1.3580  2.0957 -2.6304
  648TMC3    H2 9598   1.643   3.786  15.457 -1.9344  1.6734  0.3940
  648TMC3    C7 9599   1.543   4.018  15.564  0.1241  0.0906 -0.8551
  648TMC3    C8 9600   1.623   3.564  15.596  0.0013 -0.4716  0.0988
  648TMC3    O1 9601   1.517   4.020  15.445 -0.3051  0.0636  0.4365
  648TMC3    O2 9602   1.516   3.518  15.632  0.3538  0.0462  0.4492
  649TMC3    C1 9603   0.828   0.291  12.655 -0.0359 -0.0739 -0.1803
  649TMC3    C2 9604   0.948   0.350  12.690  0.4739  0.0564  0.6715
  649TMC3    C3 9605   0.990   0.328  12.816 -0.2522 -0.0961  0.0163
  649TMC3    C4 9606   0.752   0.218  12.740 -0.4413  0.4083 -0.7134
  649TMC3    C5 9607   0.804   0.192  12.865 -0.0190 -0.1755 -0.1788
  649TMC3    C6 9608   0.924   0.249  12.903 -0.0318  0.0218  0.1595
  649TMC3     C 9609   0.781   0.306  12.515 -0.4184  0.9832 -0.2322
  649TMC3     O 9610   0.662   0.328  12.501 -1.1683  0.4761  0.4469
  649TMC3     H 9611   1.013   0.397  12.617  1.2079 -0.4108  1.0329
  649TMC3    H1 9612   0.659   0.170  12.711  0.9421 -2.1931 -0.8346
  649TMC3    H2 9613   0.955   0.248  13.006 -1.0197  0.3606  0.4601
  649TMC3    C7 9614   0.719   0.143  12.970  0.2295 -0.0965 -0.0528
  649TMC3    C8 9615   1.123   0.353  12.857  0.3759  0.2495  0.1250
  649TMC3    O1 9616   0.604   0.183  12.972 -0.0394 -0.7962  0.0100
  649TMC3    O2 9617   1.161   0.283  12.950  0.3202 -0.4238  0.4253
  650TMC3    C1 9618   3.273   1.957  12.539 -0.2337 -0.3558  0.3168
  650TMC3    C2 9619   3.250   2.091  12.528  0.2682 -0.5464 -0.3213
  650TMC3    C3 9620   3.201   2.144  12.414  0.0857 -0.0694  0.5189
  650TMC3    C4 9621   3.233   1.866  12.441 -0.4356  0.1016  0.0423
  650TMC3    C5 9622   3.172   1.917  12.327 -0.0897 -0.6457  0.0634
  650TMC3    C6 9623   3.158   2.054  12.313  0.7132 -0.1861 -0.0655
  650TMC3     C 9624   3.357   1.918  12.652 -0.1683  0.0263  0.2569
  650TMC3     O 9625   3.393   2.005  12.727  0.5305  0.3050 -0.5713
  650TMC3     H 9626   3.285   2.153  12.610  0.7496 -1.1919 -0.0409
  650TMC3    H1 9627   3.231   1.758  12.457 -0.0313 -0.0748 -1.1177
  650TMC3    H2 9628   3.125   2.098  12.220  0.2182 -1.9049 -0.6913
  650TMC3    C7 9629   3.169   1.830  12.213  0.1968  0.4495 -0.0120
  650TMC3    C8 9630   3.172   2.282  12.420  1.0038  0.1727 -0.2985
  650TMC3    O1 9631   3.237   1.728  12.210  0.0518 -0.5414 -0.0060
  650TMC3    O2 9632   3.241   2.353  12.494  0.1566  0.2895 -0.0054
  651MPD2     C 9633   2.259   3.770  10.301 -0.5421  0.2397  0.9013
  651MPD2    C1 9634   2.240   3.903  10.288  0.0315 -0.3373 -0.5707
  651MPD2    C2 9635   2.354   3.982  10.275 -0.5812  0.1096 -0.2021
  651MPD2    C3 9636   2.485   3.935  10.283  0.4664 -0.3426 -0.3726
  651MPD2    C4 9637   2.495   3.793  10.299  0.5553 -0.4764 -1.0757
  651MPD2    C5 9638   2.386   3.713  10.298  0.3655 -0.4786 -0.3302
  651MPD2     H 9639   2.347   4.090  10.267  0.8280  0.1349 -1.0115
  651MPD2    H1 9640   2.594   3.750  10.312  0.1775 -0.8478  0.4507
  651MPD2    H2 9641   2.179   3.697  10.306 -1.4944  1.2070 -0.5597
  651MPD2    H3 9642   2.397   3.605  10.297  1.0801 -0.3996 -2.0788
  651MPD2     N 9643   2.597   4.029  10.296  0.6037  0.1969 -0.1129
  651MPD2    H5 9644   2.571   4.126  10.309  1.2710  0.6576 -2.3948
  651MPD2    N1 9645   2.109   3.956  10.283 -0.0077  0.8394 -0.1043
  651MPD2    H7 9646   2.107   4.047  10.239  1.4998  0.0146 -1.8754
  652TMC3    C1 9647   3.038   4.171  10.348 -0.1732 -0.0592 -0.8046
  652TMC3    C2 9648   2.951   4.068  10.353 -0.1653  0.4020 -0.1780
  652TMC3    C3 9649   2.823   4.096  10.324 -0.5997  0.6937 -0.5125
  652TMC3    C4 9650   3.009   4.306  10.333 -0.0291 -0.3032  0.5484
  652TMC3    C5 9651   2.880   4.327  10.305  0.3817 -0.3768  0.1216
  652TMC3    C6 9652   2.785   4.225  10.298  0.1092  0.0336 -0.4036
  652TMC3     C 9653   3.170   4.147  10.393  0.3396  0.5765  0.4369
  652TMC3     O 9654   3.177   4.049  10.468 -0.0414  0.5766 -0.4606
  652TMC3     H 9655   2.980   3.964  10.365  0.5975  0.3420 -2.5458
  652TMC3    H1 9656   3.072   4.392  10.350  0.8358 -0.7896 -0.1775
  652TMC3    H2 9657   2.683   4.258  10.284  0.2847  0.1358 -1.4592
  652TMC3    C7 9658   2.829   4.458  10.350 -0.3109 -0.0809 -0.7788
  652TMC3    C8 9659   2.728   3.987  10.306  0.7606  0.3973 -0.7992
  652TMC3    O1 9660   2.724   4.475  10.410 -0.4877 -0.0801  1.3504
  652TMC3    O2 9661   2.774   3.873  10.305  0.2860 -0.4194  0.2254
  653MPD2     C 9662   0.741   3.964  17.576  0.0187 -0.4199  0.5559
  653MPD2    C1 9663   0.653   4.042  17.494 -0.0165  0.2134  0.0669
  653MPD2    C2 9664   0.569   3.990  17.398  0.5906  0.1185 -1.2875
  653MPD2    C3 9665   0.552   3.858  17.403  0.4984 -0.2195  0.9389
  653MPD2    C4 9666   0.627   3.781  17.482 -0.2445 -0.3301 -1.0561
  653MPD2    C5 9667   0.720   3.829  17.572 -0.5151 -0.1649 -0.3499
  653MPD2     H 9668   0.504   4.055  17.341 -0.1492  2.0672  1.7305
  653MPD2    H1 9669   0.624   3.673  17.475  1.6709 -0.5372  1.3093
  653MPD2    H2 9670   0.811   4.001  17.650  0.0139 -0.6732  0.6858
  653MPD2    H3 9671   0.763   3.769  17.652  2.9531  1.5696 -0.9377
  653MPD2     N 9672   0.462   3.791  17.312 -0.2613  0.5215  0.6581
  653MPD2    H5 9673   0.425   3.851  17.239  0.5833  0.3578  0.0929
  653MPD2    N1 9674   0.657   4.181  17.500 -0.1108  0.1473  0.1245
  653MPD2    H7 9675   0.616   4.240  17.428 -1.1113 -2.5427 -1.4978
  654TMC3    C1 9676   0.358   3.630  17.182 -0.2543  0.1298 -0.2145
  654TMC3    C2 9677   0.242   3.696  17.160 -0.3684 -0.1853 -0.1997
  654TMC3    C3 9678   0.151   3.651  17.065 -0.5081  0.2353  0.3758
  654TMC3    C4 9679   0.377   3.510  17.121 -0.0793  0.2319 -0.2426
  654TMC3    C5 9680   0.282   3.466  17.033  0.3252 -0.2655 -0.8901
  654TMC3    C6 9681   0.168   3.530  17.001 -0.1447  0.4016  0.0081
  654TMC3     C 9682   0.436   3.656  17.299 -0.9078  0.4275 -0.5363
  654TMC3     O 9683   0.488   3.555  17.347  0.1819  0.7600 -0.1992
  654TMC3     H 9684   0.209   3.791  17.200  1.5990  1.0949 -1.6009
  654TMC3    H1 9685   0.471   3.458  17.136  1.7048  3.6680  0.5451
  654TMC3    H2 9686   0.113   3.501  16.912 -0.6074 -0.3700  0.5453
  654TMC3    C7 9687   0.327   3.353  16.946 -0.0106  0.5445  0.8857
  654TMC3    C8 9688   0.018   3.705  17.041  0.2066  0.3757  0.4405
  654TMC3    O1 9689   0.300   3.364  16.828 -0.3797 -0.3501  0.0979
  654TMC3    O2 9690   0.000   3.827  17.054 -0.8662 -0.6239  0.5015
  655MPD2     C 9691   2.125   3.976  15.602 -0.4202 -0.1023  0.9663
  655MPD2    C1 9692   2.032   4.052  15.542 -1.0848  0.0866 -0.3061
  655MPD2    C2 9693   2.022   4.040  15.406 -0.4347  0.2933  0.6474
  655MPD2    C3 9694   2.098   3.952  15.330 -0.0386 -0.1008  0.0375
  655MPD2    C4 9695   2.200   3.889  15.391  0.4540 -0.5415 -0.2015
  655MPD2    C5 9696   2.213   3.903  15.530 -0.6026  0.2948  0.1555
  655MPD2     H 9697   1.948   4.103  15.358 -1.3467 -1.3485 -0.1225
  655MPD2    H1 9698   2.272   3.825  15.342  1.5990  1.5527 -1.2708
  655MPD2    H2 9699   2.130   3.979  15.711 -1.8345  2.5168  0.9625
  655MPD2    H3 9700   2.284   3.851  15.593  2.2190  0.5202 -2.8242
  655MPD2     N 9701   2.070   3.937  15.189 -0.2400  0.0352 -0.2501
  655MPD2    H5 9702   2.143   3.890  15.137 -0.8520 -3.3226  1.9287
  655MPD2    N1 9703   1.957   4.155  15.606 -0.3656 -0.5177  0.8849
  655MPD2    H7 9704   1.909   4.212  15.538  0.9011  0.6062  0.9276
  656TMC3    C1 9705   1.851   4.270  15.767  0.0283 -0.1363 -0.7234
  656TMC3    C2 9706   1.778   4.268  15.881  0.1174 -0.4056 -0.0556
  656TMC3    C3 9707   1.681   4.360  15.894 -0.1586 -0.0250  0.9301
  656TMC3    C4 9708   1.819   4.355  15.664  0.4405  0.0117  0.4668
  656TMC3    C5 9709   1.717   4.448  15.680  0.1776 -0.5028 -0.0450
  656TMC3    C6 9710   1.641   4.450  15.795  0.0361  0.1209 -0.1808
  656TMC3     C 9711   1.956   4.178  15.744  0.3630 -0.3970  0.8445
  656TMC3     O 9712   2.016   4.127  15.837  0.9743  0.3561 -0.1699
  656TMC3     H 9713   1.792   4.181  15.943 -0.8406 -0.3549  0.2186
  656TMC3    H1 9714   1.873   4.370  15.571 -3.0651 -1.2135 -1.7894
  656TMC3    H2 9715   1.554   4.513  15.809 -0.4125 -0.9399  1.8018
  656TMC3    C7 9716   1.681   4.527  15.570 -0.6488 -0.1937 -0.1408
  656TMC3    C8 9717   1.566   4.306  15.962  0.4786  0.6960  0.4579
  656TMC3    O1 9718   1.738   4.509  15.462  0.1870 -0.3257 -0.0250
  656TMC3    O2 9719   1.548   4.187  15.942 -0.1954 -0.1341  0.1690
  657TMC3    C1 9720   1.049   3.505  14.594  0.5578  0.5004  0.6219
  657TMC3    C2 9721   1.075   3.512  14.727 -0.8601 -0.0675  0.2641
  657TMC3    C3 9722   0.984   3.570  14.807 -0.0889  0.2600 -0.0686
  657TMC3    C4 9723   0.949   3.573  14.531 -0.1535  0.5024 -0.0773
  657TMC3    C5 9724   0.864   3.642  14.607 -0.2408 -0.1460  0.0662
  657TMC3    C6 9725   0.877   3.638  14.748 -0.9449 -0.5757  0.5957
  657TMC3     C 9726   1.153   3.455  14.506  0.3970 -0.3144  0.0860
  657TMC3     O 9727   1.155   3.497  14.393 -0.0663  0.6241 -0.0421
  657TMC3     H 9728   1.171   3.472  14.758 -0.6898 -0.3333 -0.5932
  657TMC3    H1 9729   0.941   3.571  14.423  1.8762 -2.1559 -0.2004
  657TMC3    H2 9730   0.800   3.685  14.809 -1.4972 -1.4226  0.5556
  657TMC3    C7 9731   0.788   3.745  14.539 -0.1056 -0.5731 -0.2647
  657TMC3    C8 9732   1.027   3.608  14.937 -0.3801 -1.0018  0.2219
  657TMC3    O1 9733   0.785   3.737  14.418  0.3040 -0.0483  0.1022
  657TMC3    O2 9734   0.968   3.702  14.985 -0.0174  0.3293 -0.1935
  658MPD2     C 9735   2.453   3.742  14.703  0.2383 -0.6256 -0.0255
  658MPD2    C1 9736   2.377   3.843  14.645  0.4976  0.1209 -0.5504
  658MPD2    C2 9737   2.401   3.872  14.508 -0.6202 -0.5235  0.3374
  658MPD2    C3 9738   2.491   3.799  14.436 -0.0478 -0.5290  0.4890
  658MPD2    C4 9739   2.561   3.699  14.496 -0.7027 -0.2495  0.9538
  658MPD2    C5 9740   2.544   3.676  14.631 -0.0402  0.1677  0.7876
  658MPD2     H 9741   2.333   3.941  14.459 -1.3947 -0.6262  1.2833
  658MPD2    H1 9742   2.632   3.642  14.437 -1.8382 -0.3805 -0.2801
  658MPD2    H2 9743   2.444   3.710  14.806  2.6914  0.4779  0.5510
  658MPD2    H3 9744   2.597   3.596  14.681  0.9022  1.1314  1.3255
  658MPD2     N 9745   2.489   3.821  14.297  0.6904 -0.1308  0.3205
  658MPD2    H5 9746   2.415   3.877  14.256  1.3222  0.2109 -0.3640
  658MPD2    N1 9747   2.274   3.906  14.723  0.5895 -0.3038  0.2134
  658MPD2    H7 9748   2.272   3.870  14.817 -2.0100  0.3357  0.4224
  659TMC3    C1 9749   2.064   4.021  14.768 -0.3935 -0.1614 -0.0826
  659TMC3    C2 9750   2.078   4.004  14.903  0.5379 -0.2486 -0.1648
  659TMC3    C3 9751   1.967   3.992  14.977 -0.4828 -0.0879  0.0950
  659TMC3    C4 9752   1.944   4.028  14.702 -0.3605 -0.0218 -0.4648
  659TMC3    C5 9753   1.834   4.027  14.783  0.9328  0.3672 -0.0741
  659TMC3    C6 9754   1.844   4.010  14.920 -0.0488 -0.5540 -0.1731
  659TMC3     C 9755   2.174   3.987  14.669  0.1178 -0.0335 -0.2794
  659TMC3     O 9756   2.157   4.015  14.553  0.1920  0.3767 -0.2993
  659TMC3     H 9757   2.179   4.012  14.942  0.4249 -2.4144  0.5543
  659TMC3    H1 9758   1.942   4.045  14.595  1.3423  0.7622 -0.3821
  659TMC3    H2 9759   1.754   4.015  14.981 -0.3215 -1.5371 -0.5027
  659TMC3    C7 9760   1.712   4.014  14.706 -0.4165 -0.2415  0.1684
  659TMC3    C8 9761   1.964   3.994  15.123 -0.2323 -0.0246  0.4665
  659TMC3    O1 9762   1.612   4.030  14.774 -0.4921  0.1373 -0.1224
  659TMC3    O2 9763   1.858   4.028  15.175 -0.4642  0.3711 -0.4155
  660MPD2     C 9764   0.585   2.153  12.404  0.4992 -0.3043 -0.2784
  660MPD2    C1 9765   0.451   2.168  12.420  0.5875 -0.2955  0.1074
  660MPD2    C2 9766   0.376   2.062  12.457 -0.5176 -0.2388 -0.9081
  660MPD2    C3 9767   0.431   1.932  12.462 -0.6668  0.1564  0.1107
  660MPD2    C4 9768   0.568   1.923  12.450  0.2201 -0.4034 -0.5165
  660MPD2    C5 9769   0.648   2.032  12.412 -0.4599 -0.0421 -0.1290
  660MPD2     H 9770   0.268   2.069  12.462 -0.4915 -0.6290  0.2682
  660MPD2    H1 9771   0.619   1.831  12.475  0.2695 -0.0229  0.7980
  660MPD2    H2 9772   0.640   2.242  12.376  1.0933 -0.4664  0.3584
  660MPD2    H3 9773   0.756   2.026  12.409 -0.4111 -0.2393  2.0702
  660MPD2     N 9774   0.368   1.812  12.502  0.0338  0.1460  0.3370
  660MPD2    H5 9775   0.428   1.730  12.509 -1.7835 -1.3205 -0.9885
  660MPD2    N1 9776   0.393   2.294  12.382  0.3496  0.0615  0.5493
  660MPD2    H7 9777   0.446   2.367  12.335 -3.2966  0.7459 -2.4892
  661TMC3    C1 9778   0.242   2.463  12.355 -0.4510 -0.3465  1.1708
  661TMC3    C2 9779   0.325   2.503  12.252  0.2126 -0.3387  0.0949
  661TMC3    C3 9780   0.277   2.573  12.149 -0.0623  0.7820  0.1234
  661TMC3    C4 9781   0.103   2.486  12.342 -0.2239  1.1305  0.5084
  661TMC3    C5 9782   0.061   2.558  12.235 -0.4248  0.6690  0.7450
  661TMC3    C6 9783   0.140   2.605  12.138  0.4250 -0.2701  0.6135
  661TMC3     C 9784   0.261   2.328  12.408  0.1819 -0.3369 -0.0104
  661TMC3     O 9785   0.173   2.281  12.476 -0.1476  0.0719  0.4359
  661TMC3     H 9786   0.429   2.475  12.239  0.1516 -0.1615 -0.7544
  661TMC3    H1 9787   0.036   2.456  12.422  1.4821 -0.8344  1.2079
  661TMC3    H2 9788   0.097   2.663  12.057 -1.3654 -2.2663  0.1360
  661TMC3    C7 9789   4.646   2.604  12.239  0.0629 -0.3870 -0.5105
  661TMC3    C8 9790   0.370   2.648  12.066  0.0405  0.1311 -0.7569
  661TMC3    O1 9791   4.587   2.612  12.345 -0.6034 -0.3443 -0.3350
  661TMC3    O2 9792   0.478   2.690  12.102 -0.2425  0.5350 -0.2885
  662MPD2     C 9793   0.197   2.876  17.616  0.0702 -0.8115 -0.1637
  662MPD2    C1 9794   0.183   2.750  17.668 -1.0046  0.2103  0.3230
  662MPD2    C2 9795   0.111   2.732   0.086  0.1654  0.0028  0.1732
  662MPD2    C3 9796   0.044   2.835   0.149  0.4383 -0.1038 -0.3745
  662MPD2    C4 9797   0.054   2.964   0.095 -0.4304 -0.0093 -0.1863
  662MPD2    C5 9798   0.128   2.977  17.674 -0.6401  0.2574 -0.6178
  662MPD2     H 9799   0.092   2.631   0.121  1.4424 -1.4394 -3.3605
  662MPD2    H1 9800   0.001   3.050   0.134  1.7085  1.0626  0.3326
  662MPD2    H2 9801   0.260   2.902  17.532 -0.4780 -0.7071 -0.5445
  662MPD2    H3 9802   0.142   3.074  17.628  1.3290  1.0243  1.5504
  662MPD2     N 9803   4.667   2.810   0.244 -0.9378 -0.1621  0.2567
  662MPD2    H5 9804   4.606   2.891   0.256 -0.3523  0.5560 -1.6590
  662MPD2    N1 9805   0.236   2.634  17.608  0.1127 -1.1620 -0.1700
  662MPD2    H7 9806   0.226   2.548  17.661 -1.1358 -0.5149  0.6409
  663TMC3    C1 9807   0.287   2.492  17.444  0.3488 -0.5052 -0.1775
  663TMC3    C2 9808   0.353   2.403  17.521 -0.3311  0.8280 -0.5034
  663TMC3    C3 9809   0.410   2.298  17.464  0.3990  0.4580 -0.2368
  663TMC3    C4 9810   0.256   2.472  17.312  0.3980  0.6187  0.2573
  663TMC3    C5 9811   0.296   2.348  17.262  0.0487  1.1744 -0.3023
  663TMC3    C6 9812   0.364   2.257  17.342 -0.8206  0.1606  0.2940
  663TMC3     C 9813   0.278   2.625  17.478 -0.1226 -0.7403 -0.0273
  663TMC3     O 9814   0.275   2.710  17.392 -0.2617 -0.4098 -0.4797
  663TMC3     H 9815   0.390   2.439  17.617 -0.2370  3.0324 -1.3721
  663TMC3    H1 9816   0.197   2.546  17.258 -2.7287 -0.3670  2.3085
  663TMC3    H2 9817   0.407   2.168  17.299 -0.4560  1.4657 -2.0193
  663TMC3    C7 9818   0.239   2.302  17.140 -0.0055  0.8450  0.5464
  663TMC3    C8 9819   0.432   2.183  17.550 -0.4015 -0.0320 -0.7802
  663TMC3    O1 9820   0.201   2.385  17.062  0.5238  0.1474 -0.2482
  663TMC3    O2 9821   0.488   2.083  17.506 -0.5064 -0.2492  0.2463
  664MPD2     C 9822   3.148   1.043  17.264  0.2107  0.1063  0.2470
  664MPD2    C1 9823   3.192   1.148  17.331  0.9028 -0.4409 -0.3349
  664MPD2    C2 9824   3.147   1.181  17.453  0.5523  0.6308 -1.0392
  664MPD2    C3 9825   3.067   1.093  17.520  0.4910  0.4393  0.4601
  664MPD2    C4 9826   3.011   0.984  17.451 -0.3041 -0.3891 -0.7605
  664MPD2    C5 9827   3.056   0.960  17.320  0.6154 -0.1418 -0.5726
  664MPD2     H 9828   3.191   1.274  17.486 -1.1182  1.3307 -0.7610
  664MPD2    H1 9829   2.936   0.918  17.493  0.2706  0.3505  1.4473
  664MPD2    H2 9830   3.183   1.010  17.167  0.7659 -0.6230  0.6944
  664MPD2    H3 9831   3.022   0.869  17.271  2.6634 -1.2715  0.0836
  664MPD2     N 9832   3.025   1.124  17.652 -0.3641  0.8592  0.5546
  664MPD2    H5 9833   3.056   1.216  17.685  0.1583 -0.2013  3.0048
  664MPD2    N1 9834   3.281   1.240  17.274 -0.1422  0.7254  0.4878
  664MPD2    H7 9835   3.298   1.327  17.323 -1.0564 -0.4548  2.8654
  665TMC3    C1 9836   2.968   1.102   0.180 -0.3767 -0.3503 -0.4483
  665TMC3    C2 9837   3.002   1.021   0.288  0.5172  0.3840  0.1262
  665TMC3    C3 9838   3.026   1.081   0.403  0.8012 -0.0103 -0.4751
  665TMC3    C4 9839   2.959   1.241   0.188  0.1093 -0.4930 -0.7652
  665TMC3    C5 9840   2.970   1.295   0.311  0.6433 -0.1033 -0.0010
  665TMC3    C6 9841   3.011   1.215   0.414  0.2460 -0.5444 -0.0722
  665TMC3     C 9842   2.983   1.040   0.054 -0.1862 -0.5263 -0.2219
  665TMC3     O 9843   2.975   0.917   0.047 -0.7168 -0.4658  0.1967
  665TMC3     H 9844   3.009   0.913   0.279 -0.9014  0.3980 -1.1174
  665TMC3    H1 9845   2.898   1.297   0.117 -0.3779 -0.5473 -0.3937
  665TMC3    H2 9846   2.996   1.245   0.518  0.9035  0.3842 -0.2477
  665TMC3    C7 9847   2.895   1.417   0.348  0.7514  0.0185  0.4414
  665TMC3    C8 9848   3.090   1.018   0.513  0.1148  0.4885 -0.0334
  665TMC3    O1 9849   2.810   1.453   0.266 -0.1560 -0.1323 -0.1033
  665TMC3    O2 9850   3.104   1.088   0.611 -0.0074 -0.0790  0.1407
  666TMC3    C1 9851   2.724   4.577   9.857 -0.2668  0.4413  0.3561
  666TMC3    C2 9852   2.667   4.549   9.736  1.0211 -0.0455  0.4477
  666TMC3    C3 9853   2.571   4.632   9.687  0.0636 -0.4475  0.1191
  666TMC3    C4 9854   2.691   4.691   9.924 -0.8721  0.1141  0.3486
  666TMC3    C5 9855   2.590   0.048   9.871 -0.4135 -0.1586 -0.1090
  666TMC3    C6 9856   2.525   0.018   9.755  0.5894  0.7507  0.2752
  666TMC3     C 9857   2.798   4.470   9.922 -0.5196 -0.0604  0.5098
  666TMC3     O 9858   2.880   4.503  10.004  0.1366 -0.1241  0.0384
  666TMC3     H 9859   2.706   4.472   9.671  1.5009 -0.7890  1.6120
  666TMC3    H1 9860   2.738   4.716  10.018 -0.7449 -0.6713  0.4990
  666TMC3    H2 9861   2.434   0.061   9.714 -0.3346 -1.6652 -0.1829
  666TMC3    C7 9862   2.566   0.180   9.925  0.8014  0.4094  0.1030
  666TMC3    C8 9863   2.504   4.576   9.570 -0.0320 -0.4227  0.9312
  666TMC3    O1 9864   2.627   0.208  10.027 -0.0569  0.4171 -0.5293
  666TMC3    O2 9865   2.470   4.458   9.577 -0.1879 -0.0449 -0.3598
  667MPD2     C 9866   3.728   0.365  14.622 -0.3167  0.1616 -0.5077
  667MPD2    C1 9867   3.648   0.472  14.654 -0.1660  0.3165  0.5446
  667MPD2    C2 9868   3.531   0.501  14.581  0.2855  0.2925 -0.3774
  667MPD2    C3 9869   3.507   0.427  14.472 -0.3149 -0.0348  0.0962
  667MPD2    C4 9870   3.584   0.323  14.442 -0.5861 -0.0298 -0.1531
  667MPD2    C5 9871   3.694   0.287  14.516  0.2541 -0.1172 -0.6368
  667MPD2     H 9872   3.458   0.570  14.621 -0.3694 -0.3458 -0.4647
  667MPD2    H1 9873   3.574   0.264  14.351 -1.5073 -0.8015  0.4593
  667MPD2    H2 9874   3.822   0.347  14.672  0.1782  0.1194 -1.4622
  667MPD2    H3 9875   3.753   0.204  14.479  0.3264 -0.9562  1.3772
  667MPD2     N 9876   3.402   0.461  14.383  0.0198 -0.0338  0.1981
  667MPD2    H5 9877   3.392   0.402  14.301  3.0749  2.1138 -1.6871
  667MPD2    N1 9878   3.669   0.551  14.764  0.5366 -0.3946 -0.6845
  667MPD2    H7 9879   3.590   0.609  14.790  0.8146 -0.2760 -0.1044
  668TMC3    C1 9880   3.775   0.646  14.938 -0.6695  0.0125 -0.2459
  668TMC3    C2 9881   3.871   0.738  14.969 -0.4084 -0.1976  0.4633
  668TMC3    C3 9882   3.848   0.813  15.075 -0.0354  0.1763 -0.2180
  668TMC3    C4 9883   3.655   0.632  15.007 -0.9612 -0.1090 -0.1788
  668TMC3    C5 9884   3.644   0.705  15.122  0.5357 -0.2533 -0.1761
  668TMC3    C6 9885   3.736   0.801  15.152 -0.7705  0.3923 -0.1404
  668TMC3     C 9886   3.795   0.573  14.819  0.1757 -0.3853 -0.0176
  668TMC3     O 9887   3.904   0.530  14.784 -0.1509  0.2576 -0.0110
  668TMC3     H 9888   3.958   0.731  14.904 -0.3982  2.2790  0.2210
  668TMC3    H1 9889   3.579   0.556  14.992  0.6121 -1.1742 -2.9068
  668TMC3    H2 9890   3.728   0.852  15.248  0.4956  1.0691 -0.4022
  668TMC3    C7 9891   3.561   0.671  15.233  0.1158 -0.9912  0.6031
  668TMC3    C8 9892   3.957   0.885  15.139 -0.1661  0.2198 -1.0423
  668TMC3    O1 9893   3.539   0.753  15.318 -0.3566  0.4663 -0.1889
  668TMC3    O2 9894   3.938   0.918  15.255  0.0632  0.2901  0.1000
  669TMC3    C1 9895   2.253   0.711  14.583 -0.6427  0.3945  0.0475
  669TMC3    C2 9896   2.130   0.717  14.526  0.4556  0.3123 -0.2491
  669TMC3    C3 9897   2.114   0.741  14.387 -0.4721  0.0538  0.3749
  669TMC3    C4 9898   2.365   0.762  14.514 -0.7938 -0.2421 -0.0067
  669TMC3    C5 9899   2.339   0.805  14.388  0.2891 -0.5951 -0.7088
  669TMC3    C6 9900   2.224   0.785  14.323 -0.1337  0.3282  0.4574
  669TMC3     C 9901   2.263   0.665  14.719  0.0033 -0.2175 -0.5358
  669TMC3     O 9902   2.166   0.681  14.791  0.2556  0.1944  0.6160
  669TMC3     H 9903   2.049   0.674  14.583 -0.6763  3.2080  0.2882
  669TMC3    H1 9904   2.456   0.771  14.571 -0.3145 -0.1619 -0.7852
  669TMC3    H2 9905   2.208   0.806  14.218  0.9931 -2.1095 -0.2262
  669TMC3    C7 9906   2.466   0.869  14.334 -0.0881  0.2522  0.5577
  669TMC3    C8 9907   2.003   0.685  14.325 -0.1797 -0.1150 -0.6353
  669TMC3    O1 9908   2.534   0.934  14.408 -0.5977 -0.2167 -0.2590
  669TMC3    O2 9909   2.023   0.630  14.217  0.1426  0.0959  0.3156
  670MPD2     C 9910   0.384   3.287  13.264 -0.7795  0.6634  0.3891
  670MPD2    C1 9911   0.508   3.310  13.326 -0.2696  0.5929 -0.9213
  670MPD2    C2 9912   0.505   3.327  13.462  0.1526 -0.4755  0.2651
  670MPD2    C3 9913   0.392   3.319  13.543 -0.1741  0.1574 -0.1840
  670MPD2    C4 9914   0.269   3.298  13.479 -0.8302 -0.4443 -0.0175
  670MPD2    C5 9915   0.268   3.287  13.337 -0.6200 -0.1533 -0.1379
  670MPD2     H 9916   0.595   3.359  13.513 -0.6452  2.3550 -0.0733
  670MPD2    H1 9917   0.175   3.299  13.533 -1.9874 -1.5079 -2.0327
  670MPD2    H2 9918   0.378   3.292  13.156 -2.0285  1.5048  0.5005
  670MPD2    H3 9919   0.178   3.268  13.280 -0.3380 -2.4516  0.1534
  670MPD2     N 9920   0.403   3.324  13.686  0.6532 -0.4586  0.2719
  670MPD2    H5 9921   0.495   3.295  13.717  0.7039 -0.9694 -0.3553
  670MPD2    N1 9922   0.628   3.341  13.248 -0.7121 -0.2271  0.0858
  670MPD2    H7 9923   0.712   3.377  13.292 -0.4205 -0.1200 -0.5672
  671TMC3    C1 9924   0.333   3.211  13.883  0.1455  0.0557 -0.0315
  671TMC3    C2 9925   0.461   3.164  13.915 -1.0665 -0.4658 -0.4051
  671TMC3    C3 9926   0.468   3.086  14.027  0.2406 -0.0204 -0.7811
  671TMC3    C4 9927   0.221   3.175  13.953  0.1508  0.0112 -0.4498
  671TMC3    C5 9928   0.241   3.090  14.061  0.9473  0.3047  0.3285
  671TMC3    C6 9929   0.360   3.050  14.103  0.0596  0.0779  0.0586
  671TMC3     C 9930   0.303   3.298  13.773  0.0933 -0.5687 -0.6293
  671TMC3     O 9931   0.183   3.323  13.763 -0.3785  0.1063  0.3473
  671TMC3     H 9932   0.539   3.163  13.840 -1.5530  0.4370 -0.9309
  671TMC3    H1 9933   0.118   3.197  13.926  0.3894  0.6547 -0.8321
  671TMC3    H2 9934   0.374   2.985  14.189 -0.0381  1.6563  1.2754
  671TMC3    C7 9935   0.149   2.981  14.083 -0.9551 -0.6939  0.5900
  671TMC3    C8 9936   0.585   3.007  14.025 -0.6517  1.0819 -0.4390
  671TMC3    O1 9937   0.149   2.924  14.193 -0.1091  0.1977  0.1506
  671TMC3    O2 9938   0.670   3.014  13.935 -0.1273  0.3668 -0.0724
  672MPD2     C 9939   4.389   3.814   1.119 -0.2813  0.3870 -0.3284
  672MPD2    C1 9940   4.433   3.751   1.008 -0.1963  0.6307  0.0108
  672MPD2    C2 9941   4.554   3.780   0.950 -0.1590  0.1871 -0.8504
  672MPD2    C3 9942   4.621   3.892   0.999 -0.3657  0.7128 -0.0909
  672MPD2    C4 9943   4.575   3.956   1.112 -0.0404 -0.1224  0.0096
  672MPD2    C5 9944   4.459   3.914   1.177 -0.4520 -0.1275 -0.3095
  672MPD2     H 9945   4.591   3.723   0.866  1.7876  0.4306 -0.1725
  672MPD2    H1 9946   4.628   4.040   1.156 -2.5269  0.6875  1.4864
  672MPD2    H2 9947   4.296   3.777   1.159 -0.0517  1.5879  1.3135
  672MPD2    H3 9948   4.432   3.971   1.266  1.2002  2.6974 -1.6036
  672MPD2     N 9949   0.028   3.928   0.955 -0.1995 -0.7543 -1.0101
  672MPD2    H5 9950   0.073   4.015   0.982 -1.3276 -0.3935 -0.3091
  672MPD2    N1 9951   4.367   3.640   0.954  0.3331 -0.5293 -0.5047
  672MPD2    H7 9952   4.426   3.597   0.883 -2.2176  0.1973 -3.0906
  673TMC3    C1 9953   4.216   3.473   0.893  0.7613  0.0449  0.2455
  673TMC3    C2 9954   4.175   3.350   0.936  0.6554  0.0379  0.3888
  673TMC3    C3 9955   4.208   3.245   0.862  0.0063  0.4761 -0.1829
  673TMC3    C4 9956   4.265   3.492   0.761  0.3711  0.0068 -0.8671
  673TMC3    C5 9957   4.300   3.380   0.694 -0.1928  0.0323  0.0720
  673TMC3    C6 9958   4.269   3.261   0.737  0.3280  0.3525 -0.1504
  673TMC3     C 9959   4.250   3.574   0.997 -0.1437 -0.3316 -0.0504
  673TMC3     O 9960   4.192   3.578   1.110 -0.0728 -0.7467  0.1536
  673TMC3     H 9961   4.148   3.338   1.040  0.2231 -2.2151  0.0104
  673TMC3    H1 9962   4.289   3.591   0.725 -1.8058 -0.4509 -3.5503
  673TMC3    H2 9963   4.295   3.170   0.683 -0.7930 -0.2005  0.2394
  673TMC3    C7 9964   4.423   3.386   0.620  0.5891 -0.2445 -0.4031
  673TMC3    C8 9965   4.257   3.128   0.934  0.1097  0.3119  0.3494
  673TMC3    O1 9966   4.493   3.286   0.618  0.2239 -0.3967  0.2451
  673TMC3    O2 9967   4.195   3.094   1.036  0.3263  0.0746 -0.0824
  674MPD2     C 9968   0.324   3.703  17.677  0.1557  0.6233 -0.7365
  674MPD2    C1 9969   0.249   3.592   0.003 -0.0767 -0.0432 -0.3382
  674MPD2    C2 9970   0.110   3.600   0.015  0.3295  0.4144  0.2709
  674MPD2    C3 9971   0.054   3.722  17.695 -0.4185  0.2101 -0.1038
  674MPD2    C4 9972   0.133   3.835  17.675 -0.1562 -0.2465  0.3129
  674MPD2    C5 9973   0.266   3.824  17.654 -0.8183  0.1314 -0.3270
  674MPD2     H 9974   0.042   3.519   0.039 -1.1425  1.3075 -0.8111
  674MPD2    H1 9975   0.093   3.936  17.680  1.5550  0.5945 -2.3620
  674MPD2    H2 9976   0.432   3.706  17.669  0.3343  0.8677  1.8090
  674MPD2    H3 9977   0.327   3.911  17.630  0.1806 -0.3665  0.3812
  674MPD2     N 9978   4.639   3.738   0.020 -0.4947  0.5638 -0.3106
  674MPD2    H5 9979   4.586   3.652   0.037  0.1192  0.2528  0.0441
  674MPD2    N1 9980   0.319   3.474   0.002 -0.5832  0.4001  0.6802
  674MPD2    H7 9981   0.420   3.482  17.689 -1.0617  0.9722 -3.4946
  675TMC3    C1 9982   0.364   3.248  17.697  0.2460 -0.8276  0.2884
  675TMC3    C2 9983   0.387   3.150   0.095 -0.2812 -0.0161  0.3295
  675TMC3    C3 9984   0.464   3.039   0.058  0.1899 -0.1761 -0.6188
  675TMC3    C4 9985   0.438   3.252  17.579 -0.1184 -0.3260  0.4037
  675TMC3    C5 9986   0.514   3.144  17.557  0.1196 -0.1490  0.3932
  675TMC3    C6 9987   0.524   3.029  17.634 -0.0545 -0.1508  0.3491
  675TMC3     C 9988   0.268   3.354   0.026 -0.1162 -0.0267 -0.8451
  675TMC3     O 9989   0.157   3.322   0.063 -0.2626  0.3397 -0.2608
  675TMC3     H 9990   0.336   3.159   0.190  2.5100  1.5691  1.6855
  675TMC3    H1 9991   0.423   3.333  17.508  0.6136 -1.7949 -1.4033
  675TMC3    H2 9992   0.581   2.939  17.614  1.9493  1.1152  0.2938
  675TMC3    C7 9993   0.621   3.150  17.449  0.3291 -0.3561  0.3827
  675TMC3    C8 9994   0.482   2.933   0.145 -0.2429 -0.1408 -0.0110
  675TMC3    O1 9995   0.682   3.046  17.428  0.0679 -0.3461 -0.3130
  675TMC3    O2 9996   0.582   2.872   0.131 -0.1807  0.4997 -0.3594
  676MPD2     C 9997   3.252   1.580  10.642 -0.3851 -0.2339  0.0132
  676MPD2    C1 9998   3.236   1.506  10.758  0.7628  0.0187  0.3764
  676MPD2    C2 9999   3.291   1.381  10.763  0.1397  0.2029  0.1502
  676MPD2    C310000   3.364   1.330  10.658 -0.0573 -1.3313 -0.7932
  676MPD2    C410001   3.381   1.405  10.545 -0.9206 -0.2478 -0.3336
  676MPD2    C510002   3.323   1.527  10.532  0.2261  0.0607  0.3330
  676MPD2     H10003   3.266   1.324  10.851  1.2747 -0.8496 -0.2071
  676MPD2    H110004   3.445   1.366  10.467 -1.4752  0.9257 -1.3577
  676MPD2    H210005   3.202   1.675  10.638 -0.4889 -0.3260 -0.8557
  676MPD2    H310006   3.344   1.582  10.441  1.8392  0.7814  1.1367
  676MPD2     N10007   3.398   1.198  10.658  0.1613 -0.6265 -0.0025
  676MPD2    H510008   3.469   1.184  10.587  1.1431  0.5969  0.7488
  676MPD2    N110009   3.158   1.552  10.871 -0.8685  0.0476 -0.3565
  676MPD2    H710010   3.166   1.501  10.958  1.5856 -1.8349 -1.6800
  677TMC3    C110011   3.027   1.677  11.011  0.3349  0.0605  0.8501
  677TMC3    C210012   2.949   1.568  11.031 -0.4270  0.0422 -0.2747
  677TMC3    C310013   2.915   1.546  11.160 -0.5063  0.5127 -0.4563
  677TMC3    C410014   3.050   1.765  11.115 -0.3859  0.0523 -0.7564
  677TMC3    C510015   2.999   1.748  11.242  0.3692 -0.2301 -0.8846
  677TMC3    C610016   2.925   1.639  11.265 -0.0169  0.3027  0.6799
  677TMC3     C10017   3.102   1.676  10.890  0.1380 -0.6125  0.2015
  677TMC3     O10018   3.108   1.779  10.821  0.2158  0.2022 -0.1166
  677TMC3     H10019   2.939   1.487  10.959 -1.3551  1.4923 -1.7763
  677TMC3    H110020   3.121   1.845  11.094  0.0632  0.8626  3.9431
  677TMC3    H210021   2.869   1.626  11.357  3.5660 -1.2878  2.6199
  677TMC3    C710022   3.048   1.816  11.358 -0.4146 -0.6240  0.3509
  677TMC3    C810023   2.842   1.425  11.164  0.3898  0.4328  0.0260
  677TMC3    O110024   3.018   1.766  11.463 -0.0478 -0.5558 -0.4660
  677TMC3    O210025   2.757   1.414  11.075  0.3388 -0.0943  0.6179
  678MPD2     C10026   3.921   1.536   1.580 -0.0861  0.0108  0.0534
  678MPD2    C110027   3.938   1.537   1.448 -0.0495  0.2319  0.3395
  678MPD2    C210028   3.835   1.584   1.364  0.2213  0.5574 -0.0282
  678MPD2    C310029   3.718   1.637   1.413  0.5657 -0.0373  0.5744
  678MPD2    C410030   3.698   1.622   1.548 -0.1314  0.0245  0.5922
  678MPD2    C510031   3.801   1.575   1.627  0.6452  0.1793  0.4042
  678MPD2     H10032   3.852   1.574   1.257 -0.6287 -1.9939  0.0748
  678MPD2    H110033   3.615   1.667   1.602  0.6697  0.4329  1.4912
  678MPD2    H210034   3.993   1.495   1.649 -1.8341 -0.7729  1.4191
  678MPD2    H310035   3.762   1.572   1.728  1.6143 -0.0636  0.7700
  678MPD2     N10036   3.626   1.689   1.323 -0.4875  0.3800 -0.2060
  678MPD2    H510037   3.654   1.692   1.226 -0.3893 -1.3353 -0.2428
  678MPD2    N110038   4.049   1.488   1.380 -0.4254  0.1768  0.0495
  678MPD2    H710039   4.051   1.485   1.279 -4.5856 -3.0998  0.0298
  679TMC3    C110040   4.408   1.252   1.241  0.0259 -0.0686  0.0410
  679TMC3    C210041   4.334   1.289   1.349  0.1763  0.6366 -0.2505
  679TMC3    C310042   4.251   1.394   1.335 -0.2837  0.2997 -0.8393
  679TMC3    C410043   4.416   1.322   1.125 -0.2023 -0.1129 -0.0422
  679TMC3    C510044   4.337   1.429   1.122 -0.7404  0.0751 -0.4021
  679TMC3    C610045   4.245   1.465   1.216 -0.3222 -0.7475  0.3837
  679TMC3     C10046   4.481   1.128   1.250 -0.0990  0.1796  0.2567
  679TMC3     O10047   4.583   1.129   1.184 -0.0157 -0.0665  0.3458
  679TMC3     H10048   4.314   1.230   1.437 -0.6309 -1.2724 -1.7097
  679TMC3    H110049   4.486   1.295   1.046  0.6325  0.6074  0.4535
  679TMC3    H210050   4.190   1.559   1.209  1.5545  0.4148  1.4803
  679TMC3    C710051   4.326   1.487   0.994 -0.8704  0.7426 -0.2536
  679TMC3    C810052   4.157   1.421   1.437  0.3781 -0.6823  0.5328
  679TMC3    O110053   4.430   1.501   0.930  0.5240 -0.2186  0.2859
  679TMC3    O210054   4.169   1.384   1.552 -0.2476  0.1276  0.5913
  680MPD2     C10055   4.705   0.519  13.447  0.2192 -0.2281 -0.3584
  680MPD2    C110056   0.092   0.456  13.481 -0.2106 -0.0285 -0.0643
  680MPD2    C210057   0.204   0.536  13.519 -0.2637 -0.2939 -0.2852
  680MPD2    C310058   0.198   0.670  13.537 -0.0464 -0.1201  0.5124
  680MPD2    C410059   0.078   0.731  13.515  1.0924 -0.5726  1.0576
  680MPD2    C510060   4.701   0.653  13.466 -0.1408 -0.0045  0.7036
  680MPD2     H10061   0.296   0.485  13.545  0.9330  1.4273 -1.1137
  680MPD2    H110062   0.063   0.838  13.520  1.4259 -0.6178  3.0031
  680MPD2    H210063   4.609   0.480  13.414  1.4568 -3.6073  0.1302
  680MPD2    H310064   4.606   0.699  13.441  0.7961  2.0279  0.8749
  680MPD2     N10065   0.304   0.747  13.580  0.0220 -0.1310  0.0606
  680MPD2    H510066   0.291   0.848  13.578  1.8951  0.1068  0.0710
  680MPD2    N110067   0.108   0.316  13.478  0.0220 -0.2029  0.0653
  680MPD2    H710068   0.197   0.278  13.508 -0.9509 -0.5809  2.4387
  681TMC3    C110069   0.038   0.088  13.482 -0.6598 -0.5970  0.3994
  681TMC3    C210070   4.677   0.014  13.559  0.1724  0.2254  0.3368
  681TMC3    C310071   0.005   4.621  13.612 -0.5521  0.4723 -0.3074
  681TMC3    C410072   0.164   0.046  13.445 -0.3275  0.2209  0.0378
  681TMC3    C510073   0.203   4.643  13.482  0.0031 -0.1604 -0.6498
  681TMC3    C610074   0.127   4.574  13.573  0.4269 -0.7467 -0.2763
  681TMC3     C10075   4.722   0.232  13.459 -0.0548  0.0199 -1.0237
  681TMC3     O10076   4.606   0.261  13.455  0.3367 -0.0255 -0.0525
  681TMC3     H10077   4.585   0.054  13.600  0.1735  1.4097 -0.8159
  681TMC3    H110078   0.228   0.112  13.387  0.4099 -0.5352 -0.0005
  681TMC3    H210079   0.164   4.483  13.618 -1.4852 -1.5274 -0.2837
  681TMC3    C710080   0.341   4.598  13.442 -0.0925 -0.4258  0.3861
  681TMC3    C810081   4.696   4.598  13.753  0.5896  0.8020  0.3123
  681TMC3    O110082   0.378   4.493  13.498 -0.0276 -0.0848 -0.1594
  681TMC3    O210083   0.062   4.547  13.820 -0.3098 -0.3296  0.1485
  682MPD2     C10084   2.476   1.361  10.526 -0.2588 -0.5332 -0.6325
  682MPD2    C110085   2.439   1.230  10.538  0.0551 -0.5907  0.4408
  682MPD2    C210086   2.319   1.191  10.588  0.0365  0.6564  0.6968
  682MPD2    C310087   2.234   1.285  10.635 -0.4059 -0.0429  0.0865
  682MPD2    C410088   2.262   1.414  10.625  0.5088 -0.5402 -0.0370
  682MPD2    C510089   2.382   1.452  10.565  0.5348 -0.3963 -0.1020
  682MPD2     H10090   2.294   1.086  10.602 -0.3504  0.7241  0.5068
  682MPD2    H110091   2.201   1.489  10.673  0.5038 -0.1975 -0.5856
  682MPD2    H210092   2.567   1.398  10.482  0.3881 -0.5150  0.7318
  682MPD2    H310093   2.394   1.560  10.557 -0.8214 -0.1456  1.1670
  682MPD2     N10094   2.112   1.251  10.700 -0.0347 -0.1696  0.1280
  682MPD2    H510095   2.072   1.332  10.748 -0.1562 -0.9949  1.4368
  682MPD2    N110096   2.524   1.121  10.496  0.5062  0.3667 -0.1606
  682MPD2    H710097   2.489   1.028  10.516 -0.7341  1.4017  2.4972
  683TMC3    C110098   1.935   1.172  11.062 -0.2933 -0.2125 -0.5770
  683TMC3    C210099   1.852   1.063  11.072 -0.5407  0.6441  0.2850
  683TMC3    C310100   1.828   0.993  10.960  0.2112  0.3503  0.3957
  683TMC3    C410101   2.009   1.205  10.949  0.4023  0.1741 -0.2807
  683TMC3    C510102   1.986   1.113  10.849  0.4522  0.2661 -0.4179
  683TMC3    C610103   1.901   1.010  10.849 -0.0802  0.3699  0.0037
  683TMC3     C10104   1.949   1.259  11.179  0.2903 -0.2154 -0.1479
  683TMC3     O10105   2.049   1.328  11.185 -0.4922 -0.1825 -0.2481
  683TMC3     H10106   1.818   1.031  11.169  2.5486 -1.2763  0.7248
  683TMC3    H110107   2.078   1.289  10.944  0.7438 -0.1200 -0.6234
  683TMC3    H210108   1.877   0.945  10.765  3.0155 -1.6649  0.6733
  683TMC3    C710109   2.065   1.123  10.725 -0.2608  0.9372 -0.9346
  683TMC3    C810110   1.732   0.882  10.958 -0.2141  0.1369  0.7444
  683TMC3    O110111   2.062   1.034  10.642 -0.2438 -0.3625  0.2781
  683TMC3    O210112   1.691   0.850  10.850  0.7554  0.0443 -0.3253
  684MPD2     C10113   0.360   1.480  15.964  0.6196  0.7198  0.7895
  684MPD2    C110114   0.431   1.404  15.865  0.1597 -0.4886  0.2453
  684MPD2    C210115   0.547   1.455  15.805  0.3125  0.1022 -0.2749
  684MPD2    C310116   0.595   1.582  15.835 -0.0931 -0.0020  0.7469
  684MPD2    C410117   0.534   1.651  15.939 -0.0165 -0.5961  0.7760
  684MPD2    C510118   0.424   1.599  15.996 -0.0413 -0.1981  0.7373
  684MPD2     H10119   0.585   1.394  15.724 -0.2540 -0.5663 -0.0300
  684MPD2    H110120   0.565   1.750  15.970  0.6292  0.0726 -2.0756
  684MPD2    H210121   0.263   1.451  16.003 -0.3461  1.8451 -0.8164
  684MPD2    H310122   0.372   1.649  16.076  0.2180  1.7588 -0.3277
  684MPD2     N10123   0.700   1.649  15.764  1.1889 -0.1208  0.3353
  684MPD2    H510124   0.747   1.732  15.799  0.5374  0.7461 -0.8194
  684MPD2    N110125   0.391   1.277  15.810 -0.4422 -0.6140  0.1353
  684MPD2    H710126   0.457   1.239  15.742  0.9799 -1.1006  1.7788
  685TMC3    C110127   0.258   1.093  15.760  0.5431  0.1419 -0.3007
  685TMC3    C210128   0.141   1.024  15.787  0.4690  0.1711 -0.5081
  685TMC3    C310129   0.139   0.888  15.749 -0.5398 -0.3607 -0.0307
  685TMC3    C410130   0.377   1.027  15.732  0.8718 -0.2096  0.5799
  685TMC3    C510131   0.368   0.896  15.704  0.1087  0.2117 -0.6003
  685TMC3    C610132   0.252   0.831  15.704 -0.3471  0.8367  0.0837
  685TMC3     C10133   0.270   1.214  15.835 -0.1218 -0.0893 -0.1131
  685TMC3     O10134   0.177   1.262  15.898  0.4008 -0.3476 -0.2147
  685TMC3     H10135   0.053   1.079  15.817  0.6611  1.1154 -1.6624
  685TMC3    H110136   0.476   1.070  15.730  0.6522  0.2616  0.0919
  685TMC3    H210137   0.258   0.724  15.688 -0.1458  0.4243  2.8704
  685TMC3    C710138   0.492   0.823  15.682 -0.2978 -0.0392 -0.2839
  685TMC3    C810139   0.012   0.822  15.716  0.1329  0.0564  0.1684
  685TMC3    O110140   0.486   0.713  15.632  0.2429 -0.1269 -0.1381
  685TMC3    O210141   0.035   0.725  15.642  0.0677 -0.0810  0.4039
  686MPD2     C10142   2.084   1.197  15.629 -0.2653 -0.7499 -0.9614
  686MPD2    C110143   2.122   1.088  15.710 -0.8183 -0.5293 -0.5021
  686MPD2    C210144   2.256   1.079  15.755  0.1598 -0.0436  0.1832
  686MPD2    C310145   2.351   1.166  15.699  0.3829  0.2809  0.2295
  686MPD2    C410146   2.311   1.259  15.607  0.4133 -0.1075  0.5768
  686MPD2    C510147   2.183   1.268  15.577  0.3757 -0.3684 -0.2685
  686MPD2     H10148   2.288   1.003  15.826  0.8534 -0.8891 -1.0419
  686MPD2    H110149   2.384   1.325  15.561  1.4284 -0.6532  1.4216
  686MPD2    H210150   1.982   1.221  15.604  0.2147  1.2410 -1.0271
  686MPD2    H310151   2.158   1.332  15.493  1.2430 -2.3674 -2.0326
  686MPD2     N10152   2.489   1.158  15.732  0.3720  0.0881 -0.0454
  686MPD2    H510153   2.534   1.245  15.706  0.1800 -0.2322 -1.4597
  686MPD2    N110154   2.017   1.004  15.750 -0.3354  0.3713 -0.0450
  686MPD2    H710155   1.928   1.013  15.702  0.3867  2.3714 -1.0193
  687TMC3    C110156   2.515   0.923  15.781  0.2488  0.2289 -0.5445
  687TMC3    C210157   2.442   0.877  15.670 -0.1398  0.0600  0.9336
  687TMC3    C310158   2.393   0.748  15.668  0.2797 -0.3712  0.0805
  687TMC3    C410159   2.557   0.829  15.872 -0.3510  0.0724  0.9846
  687TMC3    C510160   2.516   0.699  15.864 -0.2539  0.2360  0.2533
  687TMC3    C610161   2.429   0.661  15.770  0.2923  0.3701  0.9324
  687TMC3     C10162   2.561   1.061  15.798 -0.1728  0.3528 -0.1253
  687TMC3     O10163   2.663   1.077  15.860  0.1243 -1.2069 -0.1843
  687TMC3     H10164   2.410   0.942  15.589 -0.4168  1.0948  1.8667
  687TMC3    H110165   2.613   0.865  15.957 -0.7802  0.5069  1.0889
  687TMC3    H210166   2.410   0.555  15.756 -0.8197  0.6951 -0.0563
  687TMC3    C710167   2.482   0.638  15.993 -0.1002  0.8672  0.0026
  687TMC3    C810168   2.270   0.711  15.605 -0.1748  0.4260  0.3004
  687TMC3    O110169   2.552   0.673  16.086 -0.2780 -0.0938 -0.6722
  687TMC3    O210170   2.225   0.603  15.646 -0.4333 -0.3332  0.0922
  688MPD2     C10171   0.893   0.036  17.067 -0.2598 -0.7787  0.2379
  688MPD2    C110172   0.907   4.627  17.094  0.1099  0.5870 -0.0381
  688MPD2    C210173   0.975   4.543  17.012  0.4061 -0.6567  1.4145
  688MPD2    C310174   1.062   4.601  16.913  0.4217 -0.0952 -1.0357
  688MPD2    C410175   1.049   0.016  16.893  0.2334  0.0313 -0.5694
  688MPD2    C510176   0.951   0.089  16.959  0.7925 -0.4006  1.0363
  688MPD2     H10177   0.970   4.438  17.036 -0.5765 -0.8199  0.4799
  688MPD2    H110178   1.108   0.071  16.821  0.1388  0.0858 -0.6060
  688MPD2    H210179   0.843   0.110  17.129  2.4957  0.3314  1.1287
  688MPD2    H310180   0.944   0.194  16.933 -0.5705 -0.9607 -0.8034
  688MPD2     N10181   1.149   4.535  16.821  0.0868 -0.4016 -0.0187
  688MPD2    H510182   1.201   4.587  16.752 -0.5902  1.5009  0.8986
  688MPD2    N110183   0.837   4.563  17.197  0.9534 -0.0770 -0.4023
  688MPD2    H710184   0.855   4.466  17.220 -1.2794 -0.2367  0.7059
  689TMC3    C110185   0.744   4.570  17.420 -0.2907  0.2854 -0.0619
  689TMC3    C210186   0.753   4.659  17.527  0.1384  0.2906  0.1068
  689TMC3    C310187   0.757   4.614  17.654 -0.0405 -0.0829  0.1478
  689TMC3    C410188   0.734   4.438  17.439 -0.6076  0.0017  0.5286
  689TMC3    C510189   0.736   4.392  17.566 -0.0791 -0.1922 -0.2392
  689TMC3    C610190   0.744   4.480  17.676  0.1157 -0.2608 -0.1230
  689TMC3     C10191   0.764   4.634  17.294 -0.3031  0.5508  0.0965
  689TMC3     O10192   0.712   0.021  17.291  0.4905  0.1223 -0.0269
  689TMC3     H10193   0.755   0.039  17.499  2.2699  0.7620  2.0436
  689TMC3    H110194   0.721   4.373  17.352  1.1521 -1.6153  1.4734
  689TMC3    H210195   0.755   4.436   0.077 -2.3415 -0.8412 -0.1021
  689TMC3    C710196   0.727   4.253  17.597  0.3248 -0.5504 -0.0312
  689TMC3    C810197   0.728   4.700   0.064 -0.0249 -0.4214  0.1390
  689TMC3    O110198   0.747   4.221   0.013 -0.0099 -0.2186 -0.2667
  689TMC3    O210199   0.682   4.656   0.168 -0.1866  0.3373 -0.0320
  690MPD2     C10200   3.474   1.749  15.430  0.4372  0.0971 -0.7074
  690MPD2    C110201   3.507   1.718  15.300  0.5848 -0.5771  0.3533
  690MPD2    C210202   3.620   1.766  15.242  0.1362 -0.0176  0.2638
  690MPD2    C310203   3.700   1.853  15.312  1.0592 -0.6261 -0.0271
  690MPD2    C410204   3.676   1.872  15.446  0.3881  0.2344 -0.6356
  690MPD2    C510205   3.566   1.828  15.498  0.7469  0.0593 -0.0072
  690MPD2     H10206   3.634   1.745  15.137 -3.7926  1.0796 -0.4855
  690MPD2    H110207   3.735   1.937  15.510 -0.2780  0.4801 -0.2643
  690MPD2    H210208   3.396   1.696  15.484  0.1868 -0.9490 -2.1087
  690MPD2    H310209   3.547   1.860  15.600  2.3644  3.9903 -0.9271
  690MPD2     N10210   3.811   1.912  15.248 -0.6684 -0.4584 -0.9276
  690MPD2    H510211   3.818   1.908  15.147 -0.9279  1.2800 -1.0079
  690MPD2    N110212   3.413   1.651  15.222 -0.7807 -0.5038 -0.0286
  690MPD2    H710213   3.454   1.611  15.138 -0.0583  4.2804 -1.9215
  691TMC3    C110214   3.231   1.540  15.149  0.0044 -0.3768  0.5734
  691TMC3    C210215   3.105   1.561  15.105 -0.5036 -0.2541 -0.5022
  691TMC3    C310216   3.062   1.477  15.003 -0.3440 -1.0372 -0.2491
  691TMC3    C410217   3.310   1.433  15.114  0.3778 -0.1482  0.1725
  691TMC3    C510218   3.260   1.353  15.017  0.0699  0.1547  0.3697
  691TMC3    C610219   3.143   1.377  14.953  0.0078 -0.4613  0.0850
  691TMC3     C10220   3.276   1.627  15.253 -0.5022  0.2787  0.1619
  691TMC3     O10221   3.195   1.695  15.316 -0.0608 -0.5803  0.1274
  691TMC3     H10222   3.042   1.634  15.155  0.7678  1.0563 -0.8177
  691TMC3    H110223   3.395   1.410  15.178 -0.5553 -2.3113  0.6165
  691TMC3    H210224   3.121   1.318  14.865 -0.9128  0.8238 -0.5321
  691TMC3    C710225   3.291   1.215  15.038  0.6252  0.1240 -0.9621
  691TMC3    C810226   2.921   1.444  14.977  1.1519 -0.5577  0.2781
  691TMC3    O110227   3.404   1.185  15.081 -0.0536 -0.1263  0.2604
  691TMC3    O210228   2.903   1.334  14.921  0.3226 -0.4884  0.0800
  692TMC3    C110229   0.293   2.769  15.860 -0.1100  0.6786  0.5039
  692TMC3    C210230   0.407   2.785  15.937 -0.1433 -0.9571 -0.7294
  692TMC3    C310231   0.510   2.698  15.920  0.2437 -0.4508 -0.2797
  692TMC3    C410232   0.277   2.665  15.776 -0.9468 -0.0254 -0.1067
  692TMC3    C510233   0.360   2.562  15.779 -0.9194 -0.3269  0.5356
  692TMC3    C610234   0.473   2.579  15.858 -0.3718 -0.6223 -0.7355
  692TMC3     C10235   0.175   2.851  15.892 -0.5054  0.1890 -1.1809
  692TMC3     O10236   0.070   2.784  15.894  0.2303  0.4498 -0.5586
  692TMC3     H10237   0.434   2.888  15.954 -1.2802 -0.8867  0.6120
  692TMC3    H110238   0.181   2.671  15.725 -1.3624  1.4127  0.8410
  692TMC3    H210239   0.561   2.521  15.831  1.2786  0.7489  1.7489
  692TMC3    C710240   0.374   2.497  15.646  0.9715 -1.1670 -0.2486
  692TMC3    C810241   0.588   2.662  16.042  0.1273 -0.3582  0.3262
  692TMC3    O110242   0.298   2.522  15.553  0.8781 -0.1425  0.3495
  692TMC3    O210243   0.629   2.546  16.050  0.0834 -0.4843 -0.0730
  693MPD2     C10244   4.442   1.150  10.750  0.1141 -0.3196 -0.1595
  693MPD2    C110245   4.394   1.037  10.692 -0.8123  0.7010  0.7349
  693MPD2    C210246   4.479   0.953  10.618 -0.7229 -0.2706  0.2168
  693MPD2    C310247   4.620   0.979  10.626 -0.4110  0.2114 -0.0102
  693MPD2    C410248   4.660   1.091  10.701  0.1527  0.1172 -0.3049
  693MPD2    C510249   4.571   1.169  10.765 -0.2799 -0.2596  0.5350
  693MPD2     H10250   4.443   0.876  10.552  0.2253 -2.2178  1.9825
  693MPD2    H110251   0.040   1.106  10.728  0.9950 -0.5515 -3.1999
  693MPD2    H210252   4.372   1.214  10.801  1.3138  1.4856 -0.7741
  693MPD2    H310253   4.595   1.244  10.839 -1.4873 -0.4879  1.1599
  693MPD2     N10254   4.716   0.898  10.567 -0.4586 -0.1250  0.2479
  693MPD2    H510255   0.091   0.908  10.586 -0.4216  0.9138 -0.5077
  693MPD2    N110256   4.259   1.006  10.700  0.2044 -0.0961 -0.1090
  693MPD2    H710257   4.208   1.061  10.768 -0.9687 -0.8112 -0.4097
  694TMC3    C110258   4.127   0.801  10.701  0.0957  0.5776  0.1805
  694TMC3    C210259   4.077   0.702  10.625  0.2367 -0.2466 -0.3892
  694TMC3    C310260   4.033   0.594  10.696 -0.2875  0.6795 -0.4467
  694TMC3    C410261   4.163   0.786  10.833  0.4262 -0.3626 -0.0285
  694TMC3    C510262   4.124   0.667  10.896 -0.3946 -0.6377 -0.4256
  694TMC3    C610263   4.043   0.578  10.830  0.1848 -0.0215 -0.4815
  694TMC3     C10264   4.199   0.906  10.625  0.4377 -0.0043 -0.2582
  694TMC3     O10265   4.214   0.892  10.506 -0.3556  0.6576 -0.4280
  694TMC3     H10266   4.062   0.717  10.519  1.4055  0.1865 -0.4903
  694TMC3    H110267   4.221   0.860  10.887 -1.6576  0.9296  0.4411
  694TMC3    H210268   3.999   0.495  10.884  1.5345 -0.4491 -0.0261
  694TMC3    C710269   4.107   0.664  11.040  0.2288  0.4713  0.0190
  694TMC3    C810270   4.006   0.467  10.621 -0.7390  0.7374 -0.3708
  694TMC3    O110271   4.115   0.771  11.099  0.1662  0.4830 -0.2074
  694TMC3    O210272   3.943   0.376  10.680  0.3319  0.2043 -0.1001
  695MPD2     C10273   0.594   2.458  13.155 -0.5598  0.9713 -0.3026
  695MPD2    C110274   0.549   2.456  13.287 -0.0691 -0.4425 -0.3850
  695MPD2    C210275   0.416   2.458  13.317 -0.5439 -0.4879 -0.0215
  695MPD2    C310276   0.322   2.456  13.211 -0.3318 -0.0535  0.0832
  695MPD2    C410277   0.365   2.442  13.083  0.3730 -1.0991  1.3658
  695MPD2    C510278   0.502   2.434  13.057 -0.5658  0.0067  0.1564
  695MPD2     H10279   0.399   2.455  13.424 -0.2852  0.6064  0.0544
  695MPD2    H110280   0.288   2.423  13.008 -1.7296 -0.0002  3.2378
  695MPD2    H210281   0.698   2.437  13.135 -0.2126  1.6636  0.7752
  695MPD2    H310282   0.536   2.419  12.956 -2.2025  0.3328 -0.4414
  695MPD2     N10283   0.193   2.477  13.248 -0.4279 -0.2942  0.0195
  695MPD2    H510284   0.165   2.487  13.345  4.7095 -2.2527  1.7114
  695MPD2    N110285   0.637   2.467  13.402  0.5641 -0.2240 -0.1088
  695MPD2    H710286   0.594   2.483  13.492  0.5525  1.2105 -0.3776
  696TMC3    C110287   4.691   2.546  13.214  0.2305 -0.0075 -0.5009
  696TMC3    C210288   4.659   2.490  13.335 -0.6855 -0.7097 -1.0936
  696TMC3    C310289   4.561   2.555  13.409 -0.3509 -0.1558  0.4645
  696TMC3    C410290   4.620   2.641  13.141 -0.1480 -0.2103 -0.3272
  696TMC3    C510291   4.534   2.704  13.217 -0.3228 -0.7273  0.1244
  696TMC3    C610292   4.510   2.675  13.353 -0.9129 -0.3521  0.6367
  696TMC3     C10293   0.084   2.485  13.157  0.3191  0.2394  0.2916
  696TMC3     O10294   0.094   2.498  13.033  0.0271 -0.8018  0.3539
  696TMC3     H10295   4.710   2.404  13.376 -0.1355 -0.1258 -0.5347
  696TMC3    H110296   4.641   2.673  13.040  1.2791 -2.4188 -0.7351
  696TMC3    H210297   4.439   2.743  13.400 -3.6849 -1.9095 -1.2996
  696TMC3    C710298   4.502   2.840  13.168 -0.4498 -0.6830 -1.1920
  696TMC3    C810299   4.571   2.545  13.554 -0.1261 -0.0473  0.2994
  696TMC3    O110300   4.514   2.865  13.049  0.3561 -0.8554 -0.7581
  696TMC3    O210301   4.534   2.439  13.605  0.1456 -0.5863  0.6000
  697MPD2     C10302   4.489   4.429  15.753 -0.3503  0.7178 -0.1372
  697MPD2    C110303   4.571   4.375  15.657  0.1288 -0.3065 -0.0863
  697MPD2    C210304   4.639   4.462  15.573  0.6276 -0.0307  0.1611
  697MPD2    C310305   4.624   4.596  15.585  0.5644 -0.3265 -0.3346
  697MPD2    C410306   4.542   4.653  15.681 -0.1034  0.2623 -0.4302
  697MPD2    C510307   4.474   4.566  15.766 -0.0389  0.4318 -0.5386
  697MPD2     H10308   4.697   4.412  15.496 -0.2306 -0.2869 -0.3119
  697MPD2    H110309   4.521   0.035  15.680  0.8503  0.4606  0.4251
  697MPD2    H210310   4.432   4.378  15.829  1.2745  0.2336  0.7634
  697MPD2    H310311   4.400   4.600  15.837 -0.7544  1.4555 -1.7931
  697MPD2     N10312   4.723   4.664  15.512  0.7815 -0.2130 -0.0078
  697MPD2    H510313   0.034   4.615  15.430  1.0161 -2.1406  1.2617
  697MPD2    N110314   4.585   4.236  15.635  0.0767  0.2589 -0.4602
  697MPD2    H710315   4.628   4.209  15.547 -1.1548 -2.2830 -0.2803
  698TMC3    C110316   0.135   0.095  15.418  0.2299  0.2004  0.1848
  698TMC3    C210317   0.247   0.163  15.445 -0.3450  0.1819 -0.1216
  698TMC3    C310318   0.335   0.169  15.343  0.4637  1.3882  0.4352
  698TMC3    C410319   0.113   0.027  15.300 -0.0007  0.7174  0.4337
  698TMC3    C510320   0.206   0.038  15.201  0.7009 -0.1468  0.0678
  698TMC3    C610321   0.318   0.117  15.217  0.0382  1.0903  0.0537
  698TMC3     C10322   0.042   0.070  15.532  0.1954 -0.8058  0.0035
  698TMC3     O10323   0.019   0.147  15.625 -0.3554 -0.3326  0.0132
  698TMC3     H10324   0.267   0.214  15.538 -0.0001 -2.8557  1.4714
  698TMC3    H110325   0.020   4.708  15.264  0.6148 -1.2776  1.2090
  698TMC3    H210326   0.394   0.120  15.139 -1.5348  1.5806 -1.4667
  698TMC3    C710327   0.181   4.695  15.078 -0.7668 -0.3360  0.5046
  698TMC3    C810328   0.450   0.256  15.365 -0.3184 -0.5234  0.1756
  698TMC3    O110329   0.064   4.657  15.059 -0.4429 -0.7700 -0.1525
  698TMC3    O210330   0.488   0.284  15.478 -0.1818 -0.4295  0.1130
  699TMC3    C110331   0.192   1.684  12.577 -0.3165  0.1483 -0.0444
  699TMC3    C210332   0.263   1.630  12.680  0.2783  0.1003 -0.4040
  699TMC3    C310333   0.199   1.553  12.771  0.3870 -0.9675 -0.2343
  699TMC3    C410334   0.060   1.654  12.564  0.4426  0.3713  0.4103
  699TMC3    C510335   4.723   1.569  12.643 -0.0576  0.1183  0.0471
  699TMC3    C610336   0.064   1.522  12.748  0.0827  0.0150  0.5433
  699TMC3     C10337   0.237   1.809  12.520  0.0922 -0.7817 -0.0788
  699TMC3     O10338   0.147   1.890  12.497 -0.9349  0.1567 -0.4640
  699TMC3     H10339   0.367   1.656  12.693  0.5600 -0.9967 -0.4346
  699TMC3    H110340   0.005   1.701  12.484 -0.9320  0.0075  1.1517
  699TMC3    H210341   0.021   1.453  12.819  1.4823 -1.7112 -0.2838
  699TMC3    C710342   4.584   1.593  12.659 -0.9205  0.5660 -0.3769
  699TMC3    C810343   0.218   1.589  12.907  0.8635 -0.8618 -0.4082
  699TMC3    O110344   4.547   1.705  12.631 -0.1037  0.0322 -0.2319
  699TMC3    O210345   0.118   1.628  12.964  0.6030 -0.3604  0.4934
  700TMC3    C110346   3.506   0.391  16.801 -0.1437  0.3879 -0.2942
  700TMC3    C210347   3.474   0.268  16.851 -0.3391  0.4989  0.3950
  700TMC3    C310348   3.432   0.265  16.983  0.0467  0.7233  0.6938
  700TMC3    C410349   3.485   0.501  16.879 -0.2153  0.3205 -0.0109
  700TMC3    C510350   3.432   0.495  17.007 -0.1848 -0.2432 -0.6085
  700TMC3    C610351   3.415   0.370  17.064 -0.5773  0.1343 -0.0356
  700TMC3     C10352   3.510   0.413  16.659  0.3263  0.3392 -0.1476
  700TMC3     O10353   3.466   0.324  16.585 -0.5721  0.1513  0.2546
  700TMC3     H10354   3.474   0.184  16.782  0.1188  0.6628  0.1941
  700TMC3    H110355   3.481   0.602  16.839 -1.1408 -0.3193 -1.5119
  700TMC3    H210356   3.369   0.359  17.162  0.5120 -1.3659  0.3204
  700TMC3    C710357   3.424   0.609  17.092 -0.1259  0.0677 -0.0768
  700TMC3    C810358   3.412   0.139  17.049  0.1200 -0.1368 -0.7163
  700TMC3    O110359   3.507   0.697  17.076  0.0554 -0.2475 -0.3297
  700TMC3    O210360   3.320   0.129  17.127  0.4561  0.1756  0.2400
  701TMC3    C110361   4.064   3.423  15.571 -0.1041 -0.5424  0.4987
  701TMC3    C210362   4.088   3.335  15.474 -0.3807  0.5320 -0.4616
  701TMC3    C310363   4.193   3.360  15.390 -0.4824  0.0185  0.0826
  701TMC3    C410364   4.145   3.528  15.592  0.4733 -1.1504 -0.1087
  701TMC3    C510365   4.250   3.559  15.511 -0.7624 -0.1424 -0.3260
  701TMC3    C610366   4.277   3.470  15.406  0.7549  0.2459 -0.9803
  701TMC3     C10367   3.953   3.404  15.671 -0.0683  0.0980  1.2771
  701TMC3     O10368   3.965   3.477  15.763 -0.0928 -0.0218  0.1162
  701TMC3     H10369   4.027   3.246  15.466  0.4313  0.2042 -2.9689
  701TMC3    H110370   4.119   3.599  15.670  0.7104 -1.5783  0.3523
  701TMC3    H210371   4.361   3.492  15.342 -0.2909 -1.1149 -2.8299
  701TMC3    C710372   4.284   3.698  15.482 -0.0366  0.9892 -0.4994
  701TMC3    C810373   4.216   3.283  15.268  0.1245  0.1553 -0.2249
  701TMC3    O110374   4.329   3.733  15.371  0.5629  0.4235  0.5987
  701TMC3    O210375   4.323   3.297  15.202 -0.7157  0.0113  0.0616
  702MPD2     C10376   3.825   0.691  10.366 -0.1723  0.3356 -1.1590
  702MPD2    C110377   3.786   0.814  10.392  0.2212  0.1104  0.1053
  702MPD2    C210378   3.799   0.912  10.292 -0.4325  0.1980  0.3086
  702MPD2    C310379   3.854   0.880  10.172  0.4191 -0.4532  0.0532
  702MPD2    C410380   3.886   0.753  10.147 -0.0384  0.4445  0.1641
  702MPD2    C510381   3.867   0.659  10.241  0.4825  0.1379  0.1839
  702MPD2     H10382   3.771   1.015  10.308  0.7103  0.3809  1.1156
  702MPD2    H110383   3.923   0.726  10.048 -2.0697  1.3462 -0.8447
  702MPD2    H210384   3.805   0.611  10.436  1.0904  1.4109  0.4581
  702MPD2    H310385   3.885   0.556  10.212 -1.6214 -0.1473 -0.0977
  702MPD2     N10386   3.860   0.982  10.078 -0.2515 -0.0843 -0.6733
  702MPD2    H510387   3.835   1.072  10.117  0.8938 -0.5889  1.2388
  702MPD2    N110388   3.716   0.852  10.507 -0.0382 -0.1767  0.5489
  702MPD2    H710389   3.676   0.945  10.500 -1.4132 -0.7426  0.9657
  703TMC3    C110390   3.851   1.097   9.888  0.3433  0.9622 -0.2804
  703TMC3    C210391   3.714   1.091   9.909 -0.1256 -0.0052  0.5032
  703TMC3    C310392   3.647   1.194   9.971  0.2036 -0.3700 -0.0088
  703TMC3    C410393   3.921   1.210   9.906  0.3123  0.0259  0.2082
  703TMC3    C510394   3.849   1.314   9.959  0.3251 -0.1565  1.3024
  703TMC3    C610395   3.707   1.315   9.986 -0.3657 -0.4006 -0.0639
  703TMC3     C10396   3.899   0.974   9.949 -0.1735 -0.1467  0.0322
  703TMC3     O10397   3.949   0.891   9.879  0.1645 -0.2204  0.3048
  703TMC3     H10398   3.669   0.993   9.892  0.7802 -0.1935 -0.7920
  703TMC3    H110399   4.029   1.200   9.903  0.2136 -1.0400  0.2345
  703TMC3    H210400   3.664   1.393  10.046  0.3587 -0.8184  0.9957
  703TMC3    C710401   3.912   1.446   9.942 -0.1643  0.6529  1.0365
  703TMC3    C810402   3.543   1.172  10.069 -0.4715 -0.1698 -0.0735
  703TMC3    O110403   4.031   1.461   9.919 -0.3797 -0.4381  0.2282
  703TMC3    O210404   3.505   1.272  10.129 -0.2000 -0.1374 -0.2587
  704TMC3    C110405   0.727   4.164  12.689  0.3055  0.0932  0.2238
  704TMC3    C210406   0.856   4.204  12.710  0.9839  0.4952 -0.0649
  704TMC3    C310407   0.935   4.119  12.774  0.3088 -0.7286  0.6039
  704TMC3    C410408   0.675   4.053  12.749 -0.1009 -0.2818  0.1791
  704TMC3    C510409   0.757   3.975  12.823 -0.5424 -0.1592 -0.2570
  704TMC3    C610410   0.893   3.998  12.827  0.4121  0.1539 -0.1230
  704TMC3     C10411   0.657   4.197  12.567 -0.0398  0.8435  0.1888
  704TMC3     O10412   0.552   4.138  12.552  0.2546  0.3482  0.2385
  704TMC3     H10413   0.894   4.295  12.665 -1.7247  0.8842 -1.5662
  704TMC3    H110414   0.571   4.024  12.742  0.1174 -0.7207 -1.1289
  704TMC3    H210415   0.963   3.936  12.881  0.2308  0.7996  0.8543
  704TMC3    C710416   0.723   3.838  12.803  0.0459 -0.2767 -0.2440
  704TMC3    C810417   1.078   4.134  12.739  0.3245  0.1669 -0.2200
  704TMC3    O110418   0.608   3.800  12.838  0.2559 -0.0929  0.1579
  704TMC3    O210419   1.118   4.202  12.647  0.1700 -0.5621  0.2570
  705MPD2     C10420   0.671   2.013  16.122  0.1697 -0.4453 -0.0185
  705MPD2    C110421   0.656   2.150  16.152  0.7192 -0.1924 -0.3510
  705MPD2    C210422   0.547   2.187  16.231  0.4257  0.2416  0.7166
  705MPD2    C310423   0.471   2.092  16.293  0.1106 -0.5313 -0.1356
  705MPD2    C410424   0.486   1.961  16.256 -0.5983 -0.9517  0.3259
  705MPD2    C510425   0.595   1.918  16.184  0.6560 -0.0803 -0.0742
  705MPD2     H10426   0.525   2.290  16.258 -0.7306 -0.4713  2.5360
  705MPD2    H110427   0.426   1.885  16.305  0.0395  0.0114  2.5899
  705MPD2    H210428   0.758   1.975  16.069 -0.7265 -1.4168 -0.7725
  705MPD2    H310429   0.611   1.814  16.159  1.2705  0.2387 -1.0224
  705MPD2     N10430   0.355   2.137  16.369 -0.2128  0.2883  0.1358
  705MPD2    H510431   0.275   2.076  16.354  0.5234 -0.2843 -1.4689
  705MPD2    N110432   0.726   2.253  16.090 -0.0235  0.3062  0.3460
  705MPD2    H710433   0.708   2.352  16.106 -0.2285  0.2920  0.2017
  706TMC3    C110434   1.087   2.458  15.853 -0.1640 -0.3616 -0.0261
  706TMC3    C210435   1.096   2.554  15.955  0.1063  0.0532 -0.1327
  706TMC3    C310436   1.025   2.537  16.066  0.1653 -0.7212  0.7770
  706TMC3    C410437   0.985   2.364  15.865  0.0478  0.3586 -0.2839
  706TMC3    C510438   0.904   2.355  15.975 -0.4043  0.2208 -0.4695
  706TMC3    C610439   0.920   2.447  16.076  0.3289 -0.6977  0.0433
  706TMC3     C10440   1.198   2.447  15.754  0.0538 -0.9921  0.4119
  706TMC3     O10441   1.312   2.477  15.791  0.0968  0.2572 -0.0233
  706TMC3     H10442   1.174   2.629  15.952 -1.0121  1.2425  0.9209
  706TMC3    H110443   0.972   2.288  15.789 -2.4681 -1.3768  1.8834
  706TMC3    H210444   0.859   2.450  16.166 -1.0020  1.4171 -0.9162
  706TMC3    C710445   0.833   2.232  15.998  0.7632  0.7529  0.0463
  706TMC3    C810446   1.008   2.665  16.134 -0.5298 -0.2312 -0.2992
  706TMC3    O110447   0.853   2.136  15.920  0.3790 -0.4305  0.2883
  706TMC3    O210448   1.024   2.766  16.070 -0.0260 -0.6174  0.0357
  707TMC3    C110449   2.727   1.336   1.946  0.6570 -0.3458 -0.1182
  707TMC3    C210450   2.853   1.280   1.946  0.8212 -0.1609 -0.5520
  707TMC3    C310451   2.898   1.221   2.062 -0.5550 -0.2344  0.4554
  707TMC3    C410452   2.656   1.336   2.057  0.1458  0.2245  0.6175
  707TMC3    C510453   2.701   1.283   2.173 -0.2731 -0.0546  0.2305
  707TMC3    C610454   2.823   1.221   2.176 -0.4629 -0.8068 -0.7635
  707TMC3     C10455   2.655   1.385   1.827 -0.1598  0.2300 -0.4869
  707TMC3     O10456   2.554   1.452   1.841  0.2119  0.6611  0.0717
  707TMC3     H10457   2.907   1.297   1.854  0.0144 -1.1128 -1.1992
  707TMC3    H110458   2.566   1.395   2.060 -1.5432 -2.3263  0.2085
  707TMC3    H210459   2.845   1.150   2.255 -4.0615 -1.4444 -0.3469
  707TMC3    C710460   2.610   1.289   2.281 -0.2463  0.5045  0.7286
  707TMC3    C810461   3.014   1.134   2.060 -0.2812  0.2331 -0.5194
  707TMC3    O110462   2.487   1.297   2.268 -0.2270 -0.5487 -0.2446
  707TMC3    O210463   3.041   1.068   2.164 -0.0531  0.0635 -0.3460
  708MPD2     C10464   4.047   0.798  13.716  0.3985 -0.7548 -0.4375
  708MPD2    C110465   3.926   0.832  13.767 -0.5839  0.2499  0.4863
  708MPD2    C210466   3.878   0.769  13.874  0.7693 -0.4839  0.1861
  708MPD2    C310467   3.955   0.686  13.949 -0.5768 -0.2394  0.2463
  708MPD2    C410468   4.082   0.654  13.907 -0.0575 -0.0970 -0.3105
  708MPD2    C510469   4.126   0.710  13.788  0.1702  0.8384  0.7690
  708MPD2     H10470   3.776   0.786  13.908 -0.0110 -0.1522 -2.3494
  708MPD2    H110471   4.160   0.605  13.964 -0.7645  0.1299  0.8410
  708MPD2    H210472   4.082   0.837  13.621  0.2798  1.6878  0.5316
  708MPD2    H310473   4.223   0.683  13.747 -0.7262 -0.2719 -0.6166
  708MPD2     N10474   3.904   0.638  14.070  0.1321  0.6292  0.0565
  708MPD2    H510475   3.813   0.676  14.095 -1.5724 -1.9733 -2.1201
  708MPD2    N110476   3.843   0.914  13.687  0.0085  0.2037 -0.1328
  708MPD2    H710477   3.866   0.920  13.589  0.8832 -2.4398 -0.0942
  709TMC3    C110478   3.657   1.068  13.661 -0.2739 -0.0821  0.3004
  709TMC3    C210479   3.605   0.991  13.560 -0.6699 -0.1543 -0.7641
  709TMC3    C310480   3.464   1.006  13.543 -0.6128 -1.1864 -0.5562
  709TMC3    C410481   3.574   1.153  13.733  0.1388 -0.4646 -0.8548
  709TMC3    C510482   3.442   1.170  13.710 -0.3368 -0.0262  0.7144
  709TMC3    C610483   3.385   1.096  13.610  0.4709  0.7483 -1.1212
  709TMC3     C10484   3.759   1.006  13.750 -0.5130 -0.1745  0.0333
  709TMC3     O10485   3.748   1.029  13.871  0.5733 -0.9714  0.2193
  709TMC3     H10486   3.659   0.906  13.520  0.1130 -0.5585  1.1606
  709TMC3    H110487   3.620   1.215  13.809  0.5149 -1.7441 -0.0271
  709TMC3    H210488   3.277   1.094  13.594  0.5450  0.9304 -1.6519
  709TMC3    C710489   3.361   1.155  13.831  0.2915  0.6716 -0.5260
  709TMC3    C810490   3.392   0.928  13.441  0.2601  0.3362  0.1658
  709TMC3    O110491   3.245   1.178  13.817 -0.5027 -0.0209  0.3419
  709TMC3    O210492   3.275   0.901  13.476  0.3612 -0.0134 -0.7668
  710TMC3    C110493   4.391   2.164   0.492 -0.1562  0.7885  0.3982
  710TMC3    C210494   4.500   2.180   0.408 -0.2282  0.5754  0.0412
  710TMC3    C310495   4.578   2.070   0.383  0.1632  0.1565  0.6911
  710TMC3    C410496   4.352   2.048   0.540 -0.1973 -0.5200  0.0395
  710TMC3    C510497   4.429   1.940   0.509 -1.0541  0.1960 -0.6035
  710TMC3    C610498   4.545   1.946   0.440 -0.1480 -0.1105  0.4430
  710TMC3     C10499   4.319   2.285   0.536 -0.4948  1.0915 -0.5687
  710TMC3     O10500   4.330   2.378   0.458 -0.7416  0.0529  0.2544
  710TMC3     H10501   4.537   2.276   0.373  0.7666 -0.2709 -1.2405
  710TMC3    H110502   4.269   2.045   0.610 -1.2293 -1.3389 -1.2029
  710TMC3    H210503   4.598   1.852   0.427  0.1562  0.0988  0.1443
  710TMC3    C710504   4.385   1.813   0.558 -0.8815  0.1733 -0.2031
  710TMC3    C810505   4.698   2.095   0.300 -0.7563 -0.4588 -0.7087
  710TMC3    O110506   4.468   1.719   0.574 -0.3828 -0.1855 -0.5111
  710TMC3    O210507   4.712   2.205   0.252  0.4958 -0.4694 -0.4682
  711TMC3    C110508   4.679   3.129  15.128  0.1159  0.2273  0.5241
  711TMC3    C210509   0.047   3.054  15.198  0.0485  0.2042 -0.0774
  711TMC3    C310510   0.102   3.107  15.317 -0.0718  0.5611  0.0831
  711TMC3    C410511   4.645   3.255  15.168  0.0704  0.2563  0.0756
  711TMC3    C510512   4.709   3.306  15.273  0.7093 -0.8521 -0.2336
  711TMC3    C610513   0.073   3.233  15.353 -0.1901  0.6432 -1.3175
  711TMC3     C10514   4.647   3.076  14.992  0.4366  0.8649  0.0080
  711TMC3     O10515   4.670   2.962  14.957  0.3567 -0.3316  0.6078
  711TMC3     H10516   0.047   2.947  15.182 -1.0636 -0.1272  2.1518
  711TMC3    H110517   4.577   3.310  15.104 -1.0510 -0.1015  0.9594
  711TMC3    H210518   0.109   3.279  15.444 -1.4951  4.2980 -2.6461
  711TMC3    C710519   4.692   3.455  15.291 -0.3639  0.1768 -0.0605
  711TMC3    C810520   0.196   3.028  15.401 -0.8386  0.2044 -0.3572
  711TMC3    O110521   4.638   3.496  15.392  0.4853  0.2834  0.2855
  711TMC3    O210522   0.233   2.929  15.347  0.3695 -0.0263 -0.7618
  712MPD2     C10523   1.281   4.236  13.243 -0.1173  0.6345 -0.4634
  712MPD2    C110524   1.175   4.314  13.287 -0.6120 -0.2597  0.2982
  712MPD2    C210525   1.200   4.451  13.315  1.0401 -0.3048 -0.5515
  712MPD2    C310526   1.322   4.508  13.285  0.1049 -0.7041 -0.1741
  712MPD2    C410527   1.424   4.421  13.256 -0.2914  0.4721  1.1489
  712MPD2    C510528   1.404   4.286  13.241 -0.0626  0.1564 -0.3630
  712MPD2     H10529   1.119   4.514  13.350  1.3024  0.3506 -1.1355
  712MPD2    H110530   1.527   4.452  13.246 -0.5580  0.9327 -0.3024
  712MPD2    H210531   1.266   4.128  13.245 -1.4257  0.8258  0.3549
  712MPD2    H310532   1.489   4.221  13.223  0.4661  1.4529 -2.5256
  712MPD2     N10533   1.349   4.647  13.266  0.1475  0.1141 -0.2423
  712MPD2    H510534   1.444   4.682  13.263 -0.9154  2.9321 -1.3244
  712MPD2    N110535   1.046   4.262  13.307  0.4642 -0.1610 -0.3766
  712MPD2    H710536   0.985   4.311  13.372  0.8480 -3.9718  2.8551
  713TMC3    C110537   1.307   0.154  13.301 -0.0746  0.3451 -0.1029
  713TMC3    C210538   1.430   0.183  13.363  0.1042  0.3190 -0.1528
  713TMC3    C310539   1.459   0.314  13.374 -0.2725  0.1587  0.1225
  713TMC3    C410540   1.225   0.254  13.259 -0.0132 -0.2785  0.6921
  713TMC3    C510541   1.248   0.383  13.302  0.3155  0.2290 -0.4326
  713TMC3    C610542   1.369   0.412  13.360  1.0728  0.5965  0.4105
  713TMC3     C10543   1.255   0.017  13.288  0.3421  0.0092  0.7201
  713TMC3     O10544   1.133   0.004  13.290 -0.1654  0.5233  0.0851
  713TMC3     H10545   1.502   0.103  13.382 -3.1668 -2.2118  1.5552
  713TMC3    H110546   1.140   0.232  13.195 -0.2655 -0.2245  1.0098
  713TMC3    H210547   1.398   0.511  13.393  1.6798  0.4945  0.1900
  713TMC3    C710548   1.160   0.494  13.269  1.4666 -0.4905 -0.2956
  713TMC3    C810549   1.575   0.339  13.456  1.0678  0.1110 -0.0790
  713TMC3    O110550   1.201   0.612  13.278 -0.6786 -0.6960  0.4163
  713TMC3    O210551   1.562   0.413  13.551  0.2149 -0.1289  0.0982
  714MPD2     C10552   2.872   2.798   0.833 -0.0422 -0.2658 -0.1830
  714MPD2    C110553   2.807   2.696   0.885  0.0266  0.2842 -0.1418
  714MPD2    C210554   2.679   2.666   0.833 -0.1688  0.0249  0.1211
  714MPD2    C310555   2.629   2.732   0.722 -0.3374  0.8743 -0.3326
  714MPD2    C410556   2.694   2.846   0.676  0.1319 -0.3041  0.1248
  714MPD2    C510557   2.815   2.879   0.733  0.0862  0.0718  0.4402
  714MPD2     H10558   2.610   2.596   0.881  1.6573 -0.4843  1.9980
  714MPD2    H110559   2.658   2.905   0.592  1.2859 -1.8306 -1.4334
  714MPD2    H210560   2.968   2.832   0.870 -1.3734 -0.0345  3.0671
  714MPD2    H310561   2.867   2.967   0.697 -0.1458  0.3009  0.6686
  714MPD2     N10562   2.511   2.674   0.662 -0.0269  0.6639 -0.0709
  714MPD2    H510563   2.474   2.592   0.708  1.0503  1.0681  1.4883
  714MPD2    N110564   2.875   2.604   0.972 -0.3543  0.0313 -0.3814
  714MPD2    H710565   2.974   2.618   0.991 -0.2139 -1.9510  0.3346
  715TMC3    C110566   2.926   2.413   1.100 -0.1725 -0.5111 -0.4694
  715TMC3    C210567   3.043   2.382   1.044 -0.1928  0.4658 -0.1213
  715TMC3    C310568   3.148   2.356   1.127 -0.1549  0.4191 -0.9562
  715TMC3    C410569   2.906   2.420   1.235  0.1285 -0.0549 -0.9933
  715TMC3    C510570   3.017   2.388   1.314  0.0923  0.2510 -0.0692
  715TMC3    C610571   3.135   2.352   1.262 -0.0129 -0.0641  0.1808
  715TMC3     C10572   2.827   2.489   1.028 -0.2867  0.7814  0.3121
  715TMC3     O10573   2.708   2.475   1.055 -0.4889  0.3819  0.1785
  715TMC3     H10574   3.048   2.378   0.936 -0.5553  1.2407 -0.1603
  715TMC3    H110575   2.806   2.447   1.264  0.1077 -0.7256 -0.4314
  715TMC3    H210576   3.220   2.334   1.328 -0.0710  0.5046  0.4112
  715TMC3    C710577   3.013   2.397   1.459 -0.7556 -0.3015 -1.4561
  715TMC3    C810578   3.273   2.318   1.058 -0.6744 -0.4028  0.1132
  715TMC3    O110579   3.093   2.328   1.521  0.0685 -0.0451 -0.3142
  715TMC3    O210580   3.295   2.365   0.946 -0.4995  1.0514 -0.2264
  716MPD2     C10581   3.150   1.236   9.351  0.7719  0.1478 -0.3204
  716MPD2    C110582   3.073   1.151   9.280 -0.1196 -0.2430  0.3151
  716MPD2    C210583   3.124   1.022   9.261 -0.2285  0.8958 -0.0199
  716MPD2    C310584   3.250   0.984   9.304  0.1169 -0.1363  0.5284
  716MPD2    C410585   3.326   1.075   9.374  0.0636 -0.2025  0.1100
  716MPD2    C510586   3.274   1.203   9.400  0.2857 -0.0303  0.5943
  716MPD2     H10587   3.059   0.953   9.209 -2.8880  1.1434  2.9623
  716MPD2    H110588   3.416   1.044   9.425  0.3837  0.0747 -0.2909
  716MPD2    H210589   3.108   1.333   9.376  1.2272  0.2047  0.2416
  716MPD2    H310590   3.318   1.268   9.474 -0.4734  0.9044  0.2258
  716MPD2     N10591   3.287   0.849   9.276 -0.4425 -0.4840  0.6970
  716MPD2    H510592   3.214   0.790   9.238  0.8185 -2.5192  1.4291
  716MPD2    N110593   2.949   1.192   9.237 -0.4542  0.0267 -0.2363
  716MPD2    H710594   2.914   1.286   9.255  1.4251  0.3531  1.7994
  717TMC3    C110595   3.420   0.652   9.277 -0.1037  0.3678  0.0533
  717TMC3    C210596   3.337   0.585   9.183 -0.1557  0.2972 -0.4619
  717TMC3    C310597   3.351   0.451   9.166  0.2578  0.1326  0.4453
  717TMC3    C410598   3.517   0.578   9.350 -0.4710 -0.2260  0.0320
  717TMC3    C510599   3.516   0.439   9.332 -0.2640 -0.1007 -0.5560
  717TMC3    C610600   3.435   0.370   9.241 -0.0239  0.3171 -0.2325
  717TMC3     C10601   3.407   0.791   9.308 -0.7545 -0.9515 -0.1402
  717TMC3     O10602   3.508   0.845   9.345 -0.8251 -0.1323 -0.6483
  717TMC3     H10603   3.280   0.657   9.125  1.2284  1.7507 -0.0328
  717TMC3    H110604   3.575   0.625   9.429  0.7513 -0.2878 -0.8181
  717TMC3    H210605   3.453   0.266   9.218 -1.1654  0.2733 -0.9398
  717TMC3    C710606   3.607   0.359   9.402 -0.5838  0.5302  0.1366
  717TMC3    C810607   3.276   0.407   9.054 -0.3022  0.1533  0.5579
  717TMC3    O110608   3.630   0.246   9.360 -0.1209  0.3540  0.2018
  717TMC3    O210609   3.180   0.475   9.021 -0.1577 -0.4075  0.2234
  718MPD2     C10610   2.406   0.826  12.625  0.3607 -0.9891 -0.3176
  718MPD2    C110611   2.405   0.713  12.544  0.2833 -0.7157  0.1944
  718MPD2    C210612   2.361   0.596  12.600 -0.9265 -0.3288  0.1488
  718MPD2    C310613   2.341   0.581  12.733  0.2534  0.4796  0.2019
  718MPD2    C410614   2.332   0.693  12.812 -0.5122 -0.2521 -0.2637
  718MPD2    C510615   2.359   0.817  12.758 -0.0544  0.8140  0.0830
  718MPD2     H10616   2.363   0.503  12.545  0.9812  0.1258 -0.5489
  718MPD2    H110617   2.289   0.697  12.911  1.1636  1.0855  0.4102
  718MPD2    H210618   2.440   0.923  12.591 -1.7933  0.7220  2.3456
  718MPD2    H310619   2.342   0.907  12.817 -0.3920  0.5387  0.4018
  718MPD2     N10620   2.306   0.448  12.771  0.3997  0.4853 -0.2821
  718MPD2    H510621   2.334   0.374  12.707  0.3970  0.6228 -0.4425
  718MPD2    N110622   2.449   0.724  12.410  0.0854 -0.7886  0.1092
  718MPD2    H710623   2.476   0.817  12.380  1.6313 -1.0668  0.6400
  719TMC3    C110624   2.518   0.644  12.196  0.5370  0.2173 -0.1072
  719TMC3    C210625   2.485   0.546  12.104  0.3955 -0.3533  0.3651
  719TMC3    C310626   2.586   0.471  12.047 -0.9767  0.1826  0.0196
  719TMC3    C410627   2.643   0.687  12.210 -0.2096  0.8346  0.4678
  719TMC3    C510628   2.739   0.629  12.133  0.5695  0.2892  0.4936
  719TMC3    C610629   2.717   0.518  12.055 -0.3418 -0.3650  0.0139
  719TMC3     C10630   2.438   0.627  12.314 -0.0813  0.1788  0.1092
  719TMC3     O10631   2.380   0.519  12.324 -0.2131 -0.1562  0.0874
  719TMC3     H10632   2.383   0.510  12.097  0.7694 -1.4991  0.8157
  719TMC3    H110633   2.676   0.748  12.293 -2.6002  1.0458  1.2506
  719TMC3    H210634   2.797   0.462  12.008 -0.1099  1.1392 -1.3815
  719TMC3    C710635   2.873   0.658  12.161 -0.0393 -0.7085 -0.1048
  719TMC3    C810636   2.582   0.327  12.069 -0.3899  0.6216 -0.1696
  719TMC3    O110637   2.950   0.568  12.127  0.0635 -0.3037 -0.2125
  719TMC3    O210638   2.662   0.255  12.014 -0.5380 -0.0749  0.0003
  720MPD2     C10639   1.048   1.860  13.939 -0.3975 -0.7651  0.0089
  720MPD2    C110640   1.126   1.847  13.830  0.5494 -0.1536  0.2401
  720MPD2    C210641   1.250   1.787  13.845 -0.1734  0.1917 -0.4251
  720MPD2    C310642   1.305   1.771  13.974  0.1936  0.3226  0.1611
  720MPD2    C410643   1.220   1.787  14.079  0.2161  0.2221  0.5807
  720MPD2    C510644   1.102   1.841  14.066 -0.1126  0.1009  0.3000
  720MPD2     H10645   1.300   1.773  13.750  0.5268 -1.2817  0.1643
  720MPD2    H110646   1.237   1.770  14.185 -0.5592 -1.6556  0.4110
  720MPD2    H210647   0.948   1.900  13.946 -1.1154 -2.9308  1.8598
  720MPD2    H310648   1.044   1.871  14.153 -3.4300  0.2947 -1.9986
  720MPD2     N10649   1.435   1.731  13.988  0.5102  0.7482  0.2564
  720MPD2    H510650   1.473   1.711  13.897 -0.0414 -1.0823  0.4315
  720MPD2    N110651   1.083   1.883  13.701  0.1634  0.3302 -0.2777
  720MPD2    H710652   1.149   1.853  13.630  0.9532 -2.8805  1.8433
  721TMC3    C110653   1.644   1.718  14.086 -0.2600  0.2894 -0.4223
  721TMC3    C210654   1.712   1.691  14.207  0.5577  0.0636 -0.1087
  721TMC3    C310655   1.845   1.661  14.201  0.3698 -0.9076 -0.7554
  721TMC3    C410656   1.701   1.707  13.967  0.5061 -0.0058  0.0194
  721TMC3    C510657   1.836   1.686  13.967  0.3855  0.4785 -0.4104
  721TMC3    C610658   1.911   1.673  14.078 -0.0831 -0.1070  0.2624
  721TMC3     C10659   1.501   1.732  14.106  0.4909 -0.2221  0.5278
  721TMC3     O10660   1.465   1.764  14.220 -0.9707  0.2078 -0.1165
  721TMC3     H10661   1.657   1.676  14.299 -2.7402  0.0109 -2.1064
  721TMC3    H110662   1.651   1.692  13.872  0.8513 -1.0539  0.0015
  721TMC3    H210663   2.016   1.647  14.084  0.6959  2.6181 -1.5671
  721TMC3    C710664   1.901   1.636  13.848  0.3612  1.0938 -0.2041
  721TMC3    C810665   1.927   1.701  14.310  0.3364 -0.8103 -0.3539
  721TMC3    O110666   1.877   1.678  13.738  0.0411  0.3651  0.1718
  721TMC3    O210667   2.009   1.781  14.274  0.2286 -0.3671  0.1673
  722MPD2     C10668   0.052   4.693  13.157  0.0613  0.2602 -0.2873
  722MPD2    C110669   4.714   0.093  13.142 -0.1466  0.1328 -0.1040
  722MPD2    C210670   4.577   0.104  13.144 -0.3575 -0.6630 -0.2676
  722MPD2    C310671   4.498   4.720  13.170 -0.2723  0.6874  0.0038
  722MPD2    C410672   4.557   4.603  13.200  0.5408 -0.2846 -0.3211
  722MPD2    C510673   4.694   4.591  13.196 -0.6191  0.1134  0.1305
  722MPD2     H10674   4.530   0.195  13.109 -2.2441 -1.9337 -1.0992
  722MPD2    H110675   4.501   4.510  13.208  2.5670 -1.2907  2.0882
  722MPD2    H210676   0.159   4.681  13.148  0.2151  1.1141  0.3162
  722MPD2    H310677   0.018   4.498  13.223 -0.4452  0.1571 -0.0286
  722MPD2     N10678   4.358   0.009  13.146  0.3793 -0.5878 -0.1358
  722MPD2    H510679   4.333   0.101  13.110  3.2952 -0.0060 -0.7145
  722MPD2    N110680   0.052   0.217  13.117  0.4822 -0.3359  0.0543
  722MPD2    H710681   4.712   0.292  13.093  1.3736 -0.0227 -1.3155
  723TMC3    C110682   4.138   4.673  13.105 -0.3504  0.2357 -0.4697
  723TMC3    C210683   4.058   4.574  13.063  0.1372  0.6350  1.0172
  723TMC3    C310684   3.930   4.608  13.022 -0.5204  0.7132 -0.5567
  723TMC3    C410685   4.106   0.087  13.093 -0.7284  0.0056 -0.1277
  723TMC3    C510686   3.981   0.116  13.047  0.3993  0.3327  0.6108
  723TMC3    C610687   3.891   0.015  13.026 -0.9345 -0.1463  0.3714
  723TMC3     C10688   4.266   4.631  13.167 -0.4244 -1.3012  0.0854
  723TMC3     O10689   4.283   4.512  13.198 -0.1410  0.0180 -0.4433
  723TMC3     H10690   4.074   4.472  13.097  1.4697 -0.5559 -3.1144
  723TMC3    H110691   4.166   0.163  13.142 -1.0695  0.4018 -0.3255
  723TMC3    H210692   3.786   0.030  13.003 -0.7360  0.6109 -0.0474
  723TMC3    C710693   3.936   0.254  13.034 -0.2682  0.0165  0.3557
  723TMC3    C810694   3.835   4.506  12.979  0.3192 -0.5378  0.3822
  723TMC3    O110695   3.814   0.264  13.020  0.0557 -0.2572 -0.3815
  723TMC3    O210696   3.713   4.526  12.998  0.6642  0.6893 -0.4816
  724TMC3    C110697   0.440   2.822  10.389  0.3049 -0.5220 -0.2350
  724TMC3    C210698   0.419   2.744  10.277 -0.4115 -0.5207 -0.2895
  724TMC3    C310699   0.511   2.757  10.171  0.1154 -0.5632  0.1215
  724TMC3    C410700   0.574   2.869  10.407  0.3380 -0.7482  0.6785
  724TMC3    C510701   0.669   2.858  10.306 -0.5795  0.5536 -0.1981
  724TMC3    C610702   0.629   2.817  10.178 -0.3857  0.0117  0.6812
  724TMC3     C10703   0.349   2.799  10.497  1.0267 -0.0381  0.8999
  724TMC3     O10704   0.263   2.715  10.472 -0.5007 -0.0883 -0.2332
  724TMC3     H10705   0.321   2.702  10.257 -0.2286  0.5234 -3.2093
  724TMC3    H110706   0.608   2.909  10.502 -1.0338  0.5649  0.6246
  724TMC3    H210707   0.711   2.802  10.109  1.1680  0.8818  2.3444
  724TMC3    C710708   0.739   2.977  10.296 -0.2254 -0.0885 -0.3903
  724TMC3    C810709   0.457   2.776  10.038  0.1004 -0.4177 -0.4048
  724TMC3    O110710   0.717   3.042  10.192  0.0714  0.3533 -0.1493
  724TMC3    O210711   0.348   2.730  10.007  0.5558 -0.2600  0.2014
  725TMC3    C110712   1.955   2.058  12.545  0.3959 -0.5365 -0.0280
  725TMC3    C210713   1.940   2.083  12.411  0.4179  0.7045  0.1036
  725TMC3    C310714   1.901   1.972  12.341  0.6064 -0.1024 -0.2096
  725TMC3    C410715   1.936   1.940  12.612 -0.4133 -0.1253  0.9238
  725TMC3    C510716   1.907   1.831  12.534 -0.4434 -0.0522 -0.6511
  725TMC3    C610717   1.883   1.852  12.398  0.0358 -0.3412 -0.5772
  725TMC3     C10718   2.011   2.169  12.614 -0.5849 -0.1850 -0.3701
  725TMC3     O10719   2.065   2.263  12.552  0.2810 -0.2516 -0.4427
  725TMC3     H10720   1.964   2.183  12.378 -0.6124  0.8928 -0.0738
  725TMC3    H110721   1.985   1.924  12.708  1.2221 -0.7153 -0.0030
  725TMC3    H210722   1.871   1.759  12.345 -0.9834  0.4321 -1.6999
  725TMC3    C710723   1.964   1.703  12.581 -0.0138  0.3122  0.1278
  725TMC3    C810724   1.924   1.966  12.198  0.0516  0.7234 -0.2335
  725TMC3    O110725   2.004   1.627  12.492  0.4182 -0.4764 -0.0915
  725TMC3    O210726   1.900   1.861  12.141 -0.0616 -0.2998 -0.3121
  726MPD2     C10727   4.566   3.068  10.031  0.3896 -0.3742  0.3759
  726MPD2    C110728   4.554   3.159  10.135  0.1269  0.6960  0.2584
  726MPD2    C210729   4.435   3.151  10.214  0.2282 -0.1035  0.6509
  726MPD2    C310730   4.345   3.044  10.190 -0.4124  0.0201 -0.6015
  726MPD2    C410731   4.363   2.958  10.084  0.4150  0.5573  0.0707
  726MPD2    C510732   4.471   2.977   9.998 -0.2850 -0.2699  0.0131
  726MPD2     H10733   4.407   3.221  10.291 -0.9748 -0.2629  0.3628
  726MPD2    H110734   4.295   2.876  10.067  0.0047  0.6235  1.3730
  726MPD2    H210735   4.652   3.088   9.968  1.0027 -1.0931  0.9930
  726MPD2    H310736   4.494   2.919   9.909 -1.9896 -1.2785  0.2316
  726MPD2     N10737   4.225   3.031  10.263  0.0602  0.0573 -0.7328
  726MPD2    H510738   4.152   2.973  10.223 -1.0572  1.4598 -0.7208
  726MPD2    N110739   4.650   3.261  10.163 -0.1078  0.0691  0.4084
  726MPD2    H710740   4.620   3.322  10.239 -4.3041 -2.6488  0.8937
  727TMC3    C110741   0.090   3.424  10.134 -0.4747 -0.0528  0.6514
  727TMC3    C210742   0.106   3.426  10.269  0.1982  0.3741  0.8255
  727TMC3    C310743   0.181   3.536  10.317  0.4472  0.5698  0.6170
  727TMC3    C410744   0.155   3.502  10.038 -0.4127 -0.2223  0.2620
  727TMC3    C510745   0.226   3.611  10.099  0.2559  0.0119  0.1351
  727TMC3    C610746   0.241   3.623  10.235 -0.0331 -0.5859 -0.1400
  727TMC3     C10747   0.029   3.304  10.079 -0.1091 -0.0515 -0.5810
  727TMC3     O10748   0.066   3.282   9.967  0.4084  0.6603  0.3143
  727TMC3     H10749   0.052   3.363  10.338 -0.2260 -0.3932 -0.2010
  727TMC3    H110750   0.159   3.491   9.930 -0.4921 -2.4705  0.4919
  727TMC3    H210751   0.288   3.710  10.279 -1.1093  0.2145 -0.6052
  727TMC3    C710752   0.246   3.732  10.023  0.5228 -0.1570 -0.1417
  727TMC3    C810753   0.210   3.544  10.461  0.2348 -0.1184 -0.5204
  727TMC3    O110754   0.318   3.818  10.070 -0.4808 -0.0970 -0.5008
  727TMC3    O210755   0.224   3.440  10.518  0.3402 -0.8932  0.0573
  728TMC3    C110756   4.003   2.023  15.202  0.0474 -0.2432  0.0400
  728TMC3    C210757   4.135   2.036  15.243 -0.1278 -0.1152 -0.5806
  728TMC3    C310758   4.225   2.045  15.140  0.5034  0.0071  0.1252
  728TMC3    C410759   3.966   2.027  15.072  0.0894 -0.1506  0.5671
  728TMC3    C510760   4.063   2.038  14.972  0.1509  0.7593 -1.0407
  728TMC3    C610761   4.193   2.037  15.006 -0.3081 -0.3688  0.8830
  728TMC3     C10762   3.914   1.976  15.306  0.1682  0.4827  0.3224
  728TMC3     O10763   3.946   1.992  15.424 -0.0997  0.5188 -0.6284
  728TMC3     H10764   4.180   2.045  15.342 -2.1832  2.9832  0.0735
  728TMC3    H110765   3.862   2.033  15.042 -0.1593  0.1241  1.5042
  728TMC3    H210766   4.264   2.048  14.925  1.6836  0.1026  2.7131
  728TMC3    C710767   4.019   2.040  14.833 -0.3717 -0.9094  0.4208
  728TMC3    C810768   4.334   2.134  15.167  0.2662 -0.4368 -0.0959
  728TMC3    O110769   3.908   1.993  14.805  0.1487 -0.1047  0.1822
  728TMC3    O210770   4.324   2.210  15.260  0.4043 -0.1263 -0.2190
  729MPD2     C10771   1.337   3.057  16.557  0.0546  0.1621  0.3585
  729MPD2    C110772   1.447   3.098  16.491 -0.0666  0.2198  0.3816
  729MPD2    C210773   1.543   3.169  16.565  0.1020  0.0507 -0.2085
  729MPD2    C310774   1.529   3.207  16.701 -0.5341 -0.2524 -0.4037
  729MPD2    C410775   1.412   3.153  16.761  0.2993 -0.6386 -0.5129
  729MPD2    C510776   1.322   3.079  16.688 -0.3191 -0.0633  0.3750
  729MPD2     H10777   1.632   3.203  16.514  0.1777 -0.0570 -0.1480
  729MPD2    H110778   1.383   3.180  16.862  1.4407  0.5047 -0.4905
  729MPD2    H210779   1.256   3.011  16.501 -1.7091  0.4327  2.6525
  729MPD2    H310780   1.234   3.031  16.729  0.4571  0.8693  3.1130
  729MPD2     N10781   1.611   3.305  16.778  0.2660 -0.3447  0.3317
  729MPD2    H510782   1.594   3.322  16.877  1.9903  0.7567  0.4466
  729MPD2    N110783   1.443   3.081  16.347  0.8217  0.0625  0.4041
  729MPD2    H710784   1.357   3.051  16.302  0.1276 -0.1209  1.8457
  730TMC3    C110785   1.777   3.475  16.823  0.5452  0.0044  0.0069
  730TMC3    C210786   1.840   3.584  16.765 -0.2949  1.0238 -0.5303
  730TMC3    C310787   1.851   3.697  16.832 -0.1562 -0.5700  0.9000
  730TMC3    C410788   1.744   3.477  16.955  0.5936 -0.0297  0.5320
  730TMC3    C510789   1.780   3.595  17.030 -1.3133 -0.0508 -0.2204
  730TMC3    C610790   1.829   3.707  16.969 -0.6547 -0.5294 -0.2808
  730TMC3     C10791   1.713   3.380  16.723 -0.5513 -0.5243  0.0587
  730TMC3     O10792   1.752   3.386  16.607 -0.1160  0.2377  0.0711
  730TMC3     H10793   1.833   3.587  16.657 -0.9880  1.7175 -0.4633
  730TMC3    H110794   1.703   3.390  17.004  0.0081 -1.2044 -2.0136
  730TMC3    H210795   1.848   3.794  17.031 -1.7496  1.1575 -2.2941
  730TMC3    C710796   1.668   3.629  17.110 -0.1953  0.7471 -0.1587
  730TMC3    C810797   1.906   3.807  16.756  0.0528 -0.1112 -0.5255
  730TMC3    O110798   1.692   3.695  17.212  0.1583 -0.1115 -0.0214
  730TMC3    O210799   1.891   3.797  16.635  0.2528  0.7062  0.2950
  731MPD2     C10800   1.161   1.217  11.974 -0.1005 -0.0559  0.2177
  731MPD2    C110801   1.295   1.258  11.963 -0.0325  0.0969  0.0579
  731MPD2    C210802   1.344   1.347  12.054 -0.0045 -0.2188  0.4055
  731MPD2    C310803   1.266   1.403  12.151 -0.2671 -0.7809 -0.0320
  731MPD2    C410804   1.134   1.371  12.158  0.4508  0.3713  0.5419
  731MPD2    C510805   1.091   1.274  12.077  0.4156  0.1807  0.3029
  731MPD2     H10806   1.445   1.386  12.045 -0.4228  0.5593 -0.9568
  731MPD2    H110807   1.073   1.411  12.238  0.1575 -1.3861  1.1968
  731MPD2    H210808   1.111   1.139  11.918 -2.5031  2.2901 -0.8800
  731MPD2    H310809   0.985   1.249  12.084  1.3667 -3.3931  1.7960
  731MPD2     N10810   1.332   1.478  12.255  0.2852 -1.0229  0.5292
  731MPD2    H510811   1.431   1.494  12.239 -0.5177  3.6625  0.1639
  731MPD2    N110812   1.371   1.201  11.858 -0.0603  0.2181  0.9041
  731MPD2    H710813   1.331   1.130  11.797 -2.2034  0.9505  1.4702
  732TMC3    C110814   1.565   1.143  11.743  0.3926  0.4852 -0.2954
  732TMC3    C210815   1.500   1.137  11.623 -0.4245 -1.1341 -0.0965
  732TMC3    C310816   1.573   1.088  11.517  0.1201 -0.2656  0.4239
  732TMC3    C410817   1.688   1.089  11.768 -0.0512  0.5927  0.0931
  732TMC3    C510818   1.755   1.042  11.655  0.1788 -0.4641 -0.5059
  732TMC3    C610819   1.698   1.036  11.529  0.0853  0.0602 -0.5465
  732TMC3     C10820   1.511   1.221  11.849 -0.1934  0.4038  0.7390
  732TMC3     O10821   1.595   1.284  11.909  0.5769  0.2143  0.4197
  732TMC3     H10822   1.405   1.187  11.611 -0.5717 -0.7201  2.8653
  732TMC3    H110823   1.738   1.106  11.863  1.6033 -2.3456 -0.2500
  732TMC3    H210824   1.746   0.983  11.447  0.5406 -0.9270  0.3509
  732TMC3    C710825   1.899   1.009  11.663 -0.4669 -0.1009 -0.2038
  732TMC3    C810826   1.504   1.051  11.397 -0.4406  0.5640  0.2817
  732TMC3    O110827   1.977   1.000  11.567 -0.3214  0.1561 -0.5946
  732TMC3    O210828   1.563   1.056  11.289  0.0973  0.0031  0.2816
  733TMC3    C110829   2.155   0.075  12.961 -0.1505 -0.5323 -0.7217
  733TMC3    C210830   2.167   0.213  12.977 -0.4087 -0.6841  0.0801
  733TMC3    C310831   2.263   0.273  12.902 -0.4573 -0.4748 -0.2686
  733TMC3    C410832   2.238   4.721  12.877  0.2670 -0.5220  0.9381
  733TMC3    C510833   2.327   0.071  12.804  0.3487  0.3910  0.1460
  733TMC3    C610834   2.346   0.203  12.818 -0.5810  0.4357 -0.4887
  733TMC3     C10835   2.020   0.031  12.997  0.0567  0.7233  0.1549
  733TMC3     O10836   1.936   0.123  13.013 -0.6636 -0.0859 -0.1365
  733TMC3     H10837   2.103   0.284  13.028  0.1561  1.0930 -1.6847
  733TMC3    H110838   2.218   4.620  12.846 -0.3179 -0.1327  0.0434
  733TMC3    H210839   2.438   0.243  12.776 -1.8367  3.1443 -0.6696
  733TMC3    C710840   2.389   4.723  12.697 -0.4566 -0.0165 -0.1299
  733TMC3    C810841   2.257   0.415  12.893 -0.4071  0.1750  0.5894
  733TMC3    O110842   2.385   4.597  12.689 -0.5433 -0.1883 -0.5123
  733TMC3    O210843   2.186   0.483  12.964 -0.1096  0.4184  0.4058
  734MPD2     C10844   4.109   2.202  11.884  0.3461  1.3031 -0.2106
  734MPD2    C110845   4.052   2.087  11.829 -0.1255  0.3420 -0.0919
  734MPD2    C210846   4.061   2.067  11.692  0.2212  0.3340 -0.5223
  734MPD2    C310847   4.120   2.152  11.607 -0.1467 -0.4718  0.4865
  734MPD2    C410848   4.180   2.262  11.660 -0.2249  0.7474  0.6816
  734MPD2    C510849   4.171   2.290  11.793 -0.6840  0.0960  0.0174
  734MPD2     H10850   4.041   1.973  11.642 -0.5957 -0.6880  1.6863
  734MPD2    H110851   4.229   2.339  11.602 -1.8376  1.6111  0.4643
  734MPD2    H210852   4.107   2.231  11.989  1.5286  3.6048 -0.8230
  734MPD2    H310853   4.224   2.377  11.832  1.9977 -0.1662 -3.0608
  734MPD2     N10854   4.110   2.117  11.467  0.0119 -0.2354 -0.4085
  734MPD2    H510855   4.061   2.032  11.439 -0.1052  0.6762 -2.9145
  734MPD2    N110856   4.000   1.985  11.911  0.3186  0.3783 -0.4037
  734MPD2    H710857   4.018   1.982  12.011  0.5755 -2.3304 -0.5430
  735TMC3    C110858   3.903   1.770  11.960  0.3588 -0.5548  0.4852
  735TMC3    C210859   3.819   1.683  11.910 -0.0100 -0.0581  0.2942
  735TMC3    C310860   3.861   1.551  11.886 -0.2691  0.1192  0.5121
  735TMC3    C410861   4.026   1.725  12.006  0.7808  0.2099  0.0798
  735TMC3    C510862   4.061   1.594  11.999 -0.1020 -0.3723  0.7954
  735TMC3    C610863   3.982   1.504  11.935 -0.2973  0.1187  0.0469
  735TMC3     C10864   3.920   1.882  11.862  0.1898  0.6832  0.3975
  735TMC3     O10865   3.871   1.864  11.752  0.1911  0.4265 -0.2288
  735TMC3     H10866   3.728   1.723  11.866  2.2925  4.6935 -0.2180
  735TMC3    H110867   4.084   1.797  12.061  1.5120  0.3163 -0.8262
  735TMC3    H210868   4.005   1.404  11.901  2.5142  0.7309  0.1453
  735TMC3    C710869   4.198   1.563  12.018 -0.1398  0.2504  0.2957
  735TMC3    C810870   3.818   1.490  11.758  0.5242 -1.0031  0.1676
  735TMC3    O110871   4.276   1.658  12.018 -0.4990 -0.6986  0.1033
  735TMC3    O210872   3.809   1.368  11.743  0.3614  0.3046 -0.1062
  736MPD2     C10873   4.351   1.230  12.066  0.0081  0.0283  0.1352
  736MPD2    C110874   4.349   1.365  12.030  0.0980  0.2150  0.0392
  736MPD2    C210875   4.458   1.431  11.982 -0.6086 -0.0736  0.3925
  736MPD2    C310876   4.582   1.364  11.984  0.0404  0.5000 -0.5963
  736MPD2    C410877   4.586   1.233  12.032 -0.2343 -0.2607 -0.0878
  736MPD2    C510878   4.472   1.164  12.070 -0.2803 -0.0348  0.2382
  736MPD2     H10879   4.455   1.536  11.955  1.0098 -0.6977 -2.1754
  736MPD2    H110880   4.678   1.176  12.037 -0.3371 -0.2884  1.5607
  736MPD2    H210881   4.262   1.191  12.113 -1.3311  3.3834  0.4181
  736MPD2    H310882   4.483   1.064  12.110  0.4494  1.0976  2.9252
  736MPD2     N10883   4.708   1.419  11.942 -1.1822  0.0261 -0.4480
  736MPD2    H510884   0.059   1.351  11.951 -0.7475  0.4572 -0.8858
  736MPD2    N110885   4.221   1.424  12.032 -0.4285  0.1337 -0.2481
  736MPD2    H710886   4.139   1.364  12.038 -0.0582 -0.1495  1.7172
  737TMC3    C110887   0.135   1.563  11.819 -0.1006 -0.1209 -0.1177
  737TMC3    C210888   0.151   1.678  11.752 -0.2359 -0.0127 -0.2177
  737TMC3    C310889   0.234   1.680  11.636  0.8118  0.1489 -0.0215
  737TMC3    C410890   0.201   1.450  11.772 -0.5892  0.2605  0.3991
  737TMC3    C510891   0.291   1.461  11.669 -0.1062 -0.1173 -0.4377
  737TMC3    C610892   0.310   1.571  11.595  0.3430  0.2883  0.2766
  737TMC3     C10893   4.724   1.537  11.872  0.7635 -0.2968 -0.1833
  737TMC3     O10894   4.635   1.614  11.828  0.5061 -0.8755  0.5612
  737TMC3     H10895   0.102   1.771  11.780 -0.3310 -0.0094 -0.3944
  737TMC3    H110896   0.184   1.353  11.815 -2.9025  0.5267  0.0620
  737TMC3    H210897   0.385   1.590  11.518  0.3344 -0.1828  0.1540
  737TMC3    C710898   0.331   1.333  11.606 -0.5362  0.0031 -0.6166
  737TMC3    C810899   0.229   1.803  11.552  0.1091 -0.3869 -0.2052
  737TMC3    O110900   0.252   1.236  11.615  0.2301 -0.0992 -0.2923
  737TMC3    O210901   0.181   1.903  11.607  0.3559  0.6251 -0.4639
  738MPD2     C10902   0.720   0.380  15.345 -0.2043  0.3925 -0.1105
  738MPD2    C110903   0.636   0.360  15.242  0.2223 -0.0038  1.1140
  738MPD2    C210904   0.667   0.415  15.125 -0.0069 -0.0154 -0.3903
  738MPD2    C310905   0.774   0.508  15.120  0.4049  0.4429 -0.1741
  738MPD2    C410906   0.859   0.525  15.221 -1.1131 -0.5515 -0.6012
  738MPD2    C510907   0.831   0.465  15.336  0.9081 -0.2895 -0.6288
  738MPD2     H10908   0.597   0.389  15.047  0.8140 -0.2828 -1.0356
  738MPD2    H110909   0.947   0.589  15.214 -2.1218  0.8277 -0.6787
  738MPD2    H210910   0.704   0.350  15.448  0.4175 -1.0421 -0.4322
  738MPD2    H310911   0.894   0.490  15.421  1.9556 -0.5314 -1.3403
  738MPD2     N10912   0.811   0.583  15.002  0.2919  0.1030  0.3983
  738MPD2    H510913   0.891   0.645  15.013  0.6522 -0.1644 -0.7020
  738MPD2    N110914   0.515   0.291  15.253 -0.2244 -0.3056  0.2622
  738MPD2    H710915   0.477   0.254  15.166  0.2904  0.6542 -0.3714
  739TMC3    C110916   0.808   0.672  14.788  0.3058  0.9317  0.1223
  739TMC3    C210917   0.800   0.632  14.661 -0.2861 -0.4375 -0.0152
  739TMC3    C310918   0.877   0.701  14.566  0.3557  0.2278 -0.4854
  739TMC3    C410919   0.880   0.778  14.825  0.3117  0.2008 -0.3815
  739TMC3    C510920   0.936   0.856  14.728 -0.2401  0.0183 -0.5275
  739TMC3    C610921   0.940   0.815  14.599 -0.0329 -0.0422 -0.6194
  739TMC3     C10922   0.743   0.584  14.886  0.1354 -0.7992  0.2736
  739TMC3     O10923   0.661   0.497  14.851  0.2458  0.2093  0.0249
  739TMC3     H10924   0.735   0.549  14.636 -1.6719  0.7968 -0.4864
  739TMC3    H110925   0.896   0.817  14.925 -0.5806 -2.6027  0.8325
  739TMC3    H210926   1.011   0.851  14.527 -1.4157 -0.9057 -2.4149
  739TMC3    C710927   0.989   0.988  14.770  1.3601 -0.2302  0.5532
  739TMC3    C810928   0.901   0.632  14.441 -0.6818 -0.8482 -0.9845
  739TMC3    O110929   0.958   1.041  14.876  0.1554 -0.2814  0.2243
  739TMC3    O210930   0.892   0.510  14.442 -0.6335 -0.2396 -0.7740
  740TMC3    C110931   1.125   2.206  14.203 -0.4061 -0.1916  0.4321
  740TMC3    C210932   1.176   2.157  14.323 -0.6256 -0.6983  0.0003
  740TMC3    C310933   1.286   2.079  14.334 -0.1246  0.3153 -0.6422
  740TMC3    C410934   1.191   2.172  14.089  1.5656  0.2101 -0.2186
  740TMC3    C510935   1.307   2.094  14.104 -0.1016  0.0111  0.0960
  740TMC3    C610936   1.356   2.051  14.223 -0.1744  0.4053 -0.7569
  740TMC3     C10937   0.983   2.252  14.183  0.3984  0.1421 -0.7321
  740TMC3     O10938   0.946   2.279  14.076 -0.0553 -0.8024  0.1331
  740TMC3     H10939   1.128   2.198  14.411 -0.2680  1.8258 -0.9727
  740TMC3    H110940   1.155   2.194  13.989 -0.7204  0.0356  0.5676
  740TMC3    H210941   1.445   1.991  14.240 -1.3622 -0.3319  2.8213
  740TMC3    C710942   1.405   2.081  13.995  0.0852  0.2708  0.0673
  740TMC3    C810943   1.303   2.010  14.462 -0.5975  0.4450  0.3415
  740TMC3    O110944   1.525   2.078  14.031  0.5705 -0.0227  0.2194
  740TMC3    O210945   1.239   2.064  14.550 -0.3791  0.3074 -0.2219
  741TMC3    C110946   0.789   1.167  14.406  0.9199 -0.4646 -0.6775
  741TMC3    C210947   0.705   1.065  14.440 -0.2599 -0.4541  0.8928
  741TMC3    C310948   0.631   1.060  14.555  0.0304 -0.2558 -0.1292
  741TMC3    C410949   0.798   1.269  14.501 -0.4057 -0.0404 -0.1860
  741TMC3    C510950   0.704   1.275  14.602 -0.3268  0.4717 -0.1275
  741TMC3    C610951   0.622   1.172  14.625 -0.2771  0.7601  0.5596
  741TMC3     C10952   0.888   1.121  14.315  1.0448  0.1934 -0.6635
  741TMC3     O10953   0.919   1.005  14.315  0.2322  0.3294  0.6368
  741TMC3     H10954   0.697   0.973  14.383 -1.9678  0.7568 -0.8134
  741TMC3    H110955   0.888   1.329  14.511  0.9921 -2.0325 -0.7416
  741TMC3    H210956   0.553   1.171  14.709  1.6125 -1.4019  2.0988
  741TMC3    C710957   0.715   1.372  14.711  0.2020 -0.4287  0.2009
  741TMC3    C810958   0.523   0.966  14.561  0.2335  0.1074  0.2050
  741TMC3    O110959   0.667   1.335  14.816  0.0880  0.2835 -0.2404
  741TMC3    O210960   0.494   0.909  14.457 -0.3334  0.0780 -0.0345
  742TMC3    C110961   0.309   4.162  15.237 -0.1957 -0.5189  0.6654
  742TMC3    C210962   0.213   4.216  15.148 -0.1574  0.6836  0.7214
  742TMC3    C310963   0.254   4.245  15.022  0.3516 -0.1190 -0.6282
  742TMC3    C410964   0.437   4.164  15.201 -0.4448 -0.4807  0.6029
  742TMC3    C510965   0.476   4.221  15.084  0.0382  0.3478  0.0538
  742TMC3    C610966   0.384   4.238  14.986 -0.0312 -0.2116 -0.5232
  742TMC3     C10967   0.282   4.134  15.375 -0.2098  0.3803 -0.0726
  742TMC3     O10968   0.182   4.186  15.417  0.1981  0.6764  0.0210
  742TMC3     H10969   0.109   4.198  15.170  0.1120 -2.2793 -0.3626
  742TMC3    H110970   0.517   4.150  15.273  1.1902 -0.4722 -1.2057
  742TMC3    H210971   0.417   4.262  14.885 -1.2412  1.5532 -0.4986
  742TMC3    C710972   0.616   4.243  15.046 -0.6583 -0.1669 -0.1589
  742TMC3    C810973   0.171   4.237  14.907  0.1170  0.5974  0.2780
  742TMC3    O110974   0.648   4.240  14.924 -0.0801  0.2600  0.2232
  742TMC3    O210975   0.224   4.227  14.797 -0.0198  0.1651 -0.2266
  743MPD2     C10976   3.907   0.674   1.418 -0.3683 -0.0551 -0.2528
  743MPD2    C110977   3.895   0.757   1.315 -0.1136  0.6072  1.1312
  743MPD2    C210978   4.006   0.785   1.235 -0.1313 -0.1134  0.2192
  743MPD2    C310979   4.123   0.714   1.256 -0.4312 -0.6217 -1.1190
  743MPD2    C410980   4.127   0.618   1.354  0.6903  0.2871  0.1951
  743MPD2    C510981   4.018   0.598   1.430 -0.2553 -1.1965  0.7610
  743MPD2     H10982   4.000   0.854   1.152 -1.3463 -0.4633  0.0167
  743MPD2    H110983   4.214   0.557   1.377  1.3560  2.1225  2.4483
  743MPD2    H210984   3.828   0.660   1.491  0.3041  1.6319  0.8009
  743MPD2    H310985   4.032   0.523   1.507 -0.2206 -0.4634  1.4784
  743MPD2     N10986   4.227   0.748   1.172 -1.2787 -0.6386 -0.0591
  743MPD2    H510987   4.214   0.825   1.107  1.0723 -0.1824  0.0189
  743MPD2    N110988   3.775   0.838   1.317  0.1067  0.4613 -0.1218
  743MPD2    H710989   3.714   0.817   1.395 -0.6638 -0.9739 -1.0987
  744TMC3    C110990   3.587   0.952   1.224 -0.1310  0.5820  0.2628
  744TMC3    C210991   3.526   0.977   1.345  0.2394  0.3460  0.2755
  744TMC3    C310992   3.394   1.010   1.350  0.8988 -0.1241 -0.6773
  744TMC3    C410993   3.513   0.966   1.110 -0.0855 -0.3950  1.5589
  744TMC3    C510994   3.380   0.982   1.121 -0.5896  0.2332  0.4733
  744TMC3    C610995   3.315   1.016   1.234 -0.0589  0.8110 -0.5902
  744TMC3     C10996   3.726   0.912   1.211  0.2202  0.0693  0.4317
  744TMC3     O10997   3.781   0.936   1.103 -0.2482  0.0200  0.0085
  744TMC3     H10998   3.593   0.989   1.430  0.1487 -0.8342  0.5223
  744TMC3    H110999   3.567   0.950   1.018 -0.3264  0.0011  1.3463
  744TMC3    H211000   3.209   1.031   1.221 -0.8070 -1.4079  2.8217
  744TMC3    C711001   3.300   0.936   1.005 -0.5491  0.0675 -0.6131
  744TMC3    C811002   3.318   1.023   1.472 -1.0033  0.0732 -0.5787
  744TMC3    O111003   3.180   0.954   1.000  0.8762 -0.0278 -0.1015
  744TMC3    O211004   3.196   1.034   1.460  0.2342 -0.7156  0.3375
  745TMC3    C111005   0.860   4.131  13.288  0.1914  0.0529  0.1449
  745TMC3    C211006   0.823   4.158  13.419  0.3584 -0.1529 -0.3209
  745TMC3    C311007   0.693   4.185  13.444 -0.0206  0.4773  0.3149
  745TMC3    C411008   0.779   4.143  13.181 -0.0495 -0.7920 -0.1771
  745TMC3    C511009   0.643   4.166  13.209 -0.3064  0.0990 -0.1507
  745TMC3    C611010   0.600   4.188  13.335 -0.0197  0.3243 -0.5708
  745TMC3     C11011   0.997   4.148  13.258  0.0439 -0.7945 -0.1650
  745TMC3     O11012   1.039   4.104  13.156 -0.0212 -0.0536 -0.3781
  745TMC3     H11013   0.894   4.150  13.500  0.6035  0.3190 -0.4879
  745TMC3    H111014   0.814   4.126  13.080  0.7253 -0.3823  0.0242
  745TMC3    H211015   0.503   4.231  13.357 -0.1557  0.9062 -2.2496
  745TMC3    C711016   0.589   4.257  13.118 -0.6919 -0.5486  0.7045
  745TMC3    C811017   0.640   4.208  13.577  0.7229 -0.0735  0.1570
  745TMC3    O111018   0.472   4.283  13.117  0.2106 -0.5035 -0.3419
  745TMC3    O211019   0.519   4.197  13.593  0.2191  0.0458  0.0847
  746TMC3    C111020   3.410   0.970  10.731  0.4159  0.4399 -0.7315
  746TMC3    C211021   3.533   0.956  10.677 -0.2105  0.2957 -0.0871
  746TMC3    C311022   3.592   0.832  10.700  0.6786  0.3415 -0.7871
  746TMC3    C411023   3.355   0.871  10.808  0.1222 -0.1179 -0.1439
  746TMC3    C511024   3.427   0.762  10.850  0.2987 -0.0512 -0.4346
  746TMC3    C611025   3.544   0.740  10.790  0.1118 -0.7357 -0.0142
  746TMC3     C11026   3.361   1.103  10.753 -0.4595 -0.0075 -0.0566
  746TMC3     O11027   3.284   1.102  10.848  0.3055 -0.1927 -0.3386
  746TMC3     H11028   3.572   1.029  10.607 -1.3846  0.6791 -0.3386
  746TMC3    H111029   3.249   0.878  10.829 -0.0391  1.6784 -1.5565
  746TMC3    H211030   3.603   0.653  10.817  0.1875 -0.5111  0.5490
  746TMC3    C711031   3.359   0.652  10.911 -0.4504  0.0298 -0.0406
  746TMC3    C811032   3.683   0.770  10.610 -0.5260 -0.1438 -0.7921
  746TMC3    O111033   3.243   0.639  10.874 -0.1571  0.3463 -0.5079
  746TMC3    O211034   3.720   0.657  10.632  0.1928 -0.2197 -0.1796
  747TMC3    C111035   1.138   1.180  10.894  0.5021  0.1886  0.1082
  747TMC3    C211036   1.008   1.157  10.932 -0.1223  0.2305  0.0453
  747TMC3    C311037   0.965   1.211  11.047 -0.3279 -0.3953  0.0955
  747TMC3    C411038   1.222   1.258  10.966  0.0798 -0.0500 -0.7335
  747TMC3    C511039   1.177   1.312  11.082  0.3940 -0.0562 -0.0718
  747TMC3    C611040   1.047   1.295  11.125 -0.0639 -0.4728 -0.1645
  747TMC3     C11041   1.183   1.166  10.760  0.6371  0.3468 -0.0764
  747TMC3     O11042   1.274   1.236  10.721  0.6781 -0.4835  0.0221
  747TMC3     H11043   0.944   1.092  10.873 -2.0136  0.5236  1.8046
  747TMC3    H111044   1.321   1.267  10.923  0.7838  1.0607  1.1014
  747TMC3    H211045   1.025   1.314  11.229  2.8550 -0.1698  0.4011
  747TMC3    C711046   1.252   1.414  11.139 -0.0934  0.2790  0.2819
  747TMC3    C811047   0.840   1.165  11.097  0.1005  0.7441 -0.2512
  747TMC3    O111048   1.203   1.522  11.171 -0.3844  0.2306 -0.0694
  747TMC3    O211049   0.766   1.115  11.016  0.1231 -0.3320  0.2622
  748MPD2     C11050   1.493   2.509   1.066  0.5526  0.7213 -0.2537
  748MPD2    C111051   1.519   2.386   1.127 -0.3380 -0.2103 -0.8918
  748MPD2    C211052   1.651   2.340   1.125 -0.4278  0.2820  0.2893
  748MPD2    C311053   1.746   2.407   1.052 -0.3758 -0.5213 -0.1352
  748MPD2    C411054   1.714   2.530   0.988 -0.3553  0.7779  0.1751
  748MPD2    C511055   1.585   2.580   1.000 -0.6389 -0.4349  0.1671
  748MPD2     H11056   1.669   2.248   1.179 -2.5338  0.7656  1.8197
  748MPD2    H111057   1.781   2.583   0.922 -0.3279 -1.5314 -1.6603
  748MPD2    H211058   1.394   2.550   1.079  1.2602  1.5910  2.4676
  748MPD2    H311059   1.554   2.672   0.951  0.7422 -0.1831 -0.2337
  748MPD2     N11060   1.873   2.346   1.039  0.4836  0.3984 -0.5349
  748MPD2    H511061   1.885   2.255   1.082  0.5667 -0.4840 -2.4076
  748MPD2    N111062   1.407   2.324   1.195 -0.3099  0.0488 -0.1531
  748MPD2    H711063   1.322   2.380   1.194 -0.0001  0.5138 -0.1287
  749TMC3    C111064   2.100   2.328   0.984  0.8363 -0.7709 -0.1282
  749TMC3    C211065   2.115   2.264   1.104 -0.4442  0.3678  0.0561
  749TMC3    C311066   2.237   2.203   1.126 -0.7321 -0.1191 -0.0397
  749TMC3    C411067   2.198   2.339   0.891 -0.3456 -0.5288  0.5929
  749TMC3    C511068   2.318   2.276   0.916  0.4572 -0.5356 -0.0331
  749TMC3    C611069   2.342   2.204   1.029  0.0595  0.8515  0.1291
  749TMC3     C11070   1.975   2.392   0.960  0.5950  0.1659 -0.3012
  749TMC3     O11071   1.969   2.496   0.892 -0.1583  0.4623 -0.2052
  749TMC3     H11072   2.048   2.278   1.188 -0.4788 -0.0601  0.1028
  749TMC3    H111073   2.171   2.388   0.798 -0.3254 -2.2676 -0.3277
  749TMC3    H211074   2.439   2.171   1.062 -0.2928 -2.1379 -1.9118
  749TMC3    C711075   2.434   2.318   0.849 -0.0264 -0.2588  0.4118
  749TMC3    C811076   2.270   2.147   1.255  0.9132 -0.2300 -0.1881
  749TMC3    O111077   2.426   2.424   0.793  0.2007 -0.0704  0.4630
  749TMC3    O211078   2.201   2.190   1.349 -0.2974 -0.6788 -0.8410
  750MPD2     C11079   3.420   2.871  10.790  0.2157 -1.0215 -0.5538
  750MPD2    C111080   3.322   2.811  10.861 -0.0902 -0.1071  0.0254
  750MPD2    C211081   3.254   2.703  10.812 -0.9798 -0.0335 -0.1430
  750MPD2    C311082   3.296   2.650  10.694 -0.4895  0.2838 -0.1299
  750MPD2    C411083   3.394   2.707  10.618 -0.1952  0.5657 -0.6003
  750MPD2    C511084   3.448   2.824  10.668  0.5944 -0.1751 -0.2337
  750MPD2     H11085   3.175   2.651  10.865  0.4149  1.1965  3.1221
  750MPD2    H111086   3.435   2.666  10.526  0.8262 -1.3632  0.7173
  750MPD2    H211087   3.473   2.960  10.822 -0.4942 -1.8592  3.0225
  750MPD2    H311088   3.516   2.878  10.603  0.3484  1.9616  1.3026
  750MPD2     N11089   3.239   2.535  10.631  0.4781  0.7701 -0.7776
  750MPD2    H511090   3.292   2.503  10.550  1.9846  1.3994 -0.0414
  750MPD2    N111091   3.284   2.872  10.985  0.1976 -0.4680  0.2907
  750MPD2    H711092   3.334   2.955  11.012 -0.8460  0.8573 -1.8924
  751TMC3    C111093   3.105   2.357  10.572  0.8441  0.1833 -0.0246
  751TMC3    C211094   3.000   2.277  10.602 -0.3946  0.5404 -0.3022
  751TMC3    C311095   2.980   2.182  10.502  0.4819  0.9205 -0.2548
  751TMC3    C411096   3.177   2.343  10.449 -0.2484  0.2185  0.8976
  751TMC3    C511097   3.142   2.253  10.349  0.3746 -0.2352 -0.6768
  751TMC3    C611098   3.037   2.174  10.376  0.4852  0.2114  0.2915
  751TMC3     C11099   3.132   2.459  10.671 -0.0066 -0.1076 -0.5730
  751TMC3     O11100   3.040   2.475  10.753 -0.4164  0.0638 -0.1728
  751TMC3     H11101   2.965   2.262  10.703  0.4766 -1.5116 -0.3148
  751TMC3    H111102   3.279   2.379  10.442  0.3963 -1.9128 -0.6540
  751TMC3    H211103   2.996   2.102  10.307  0.5557 -0.9505  1.4711
  751TMC3    C711104   3.239   2.234  10.237  0.3505 -0.1877  0.5046
  751TMC3    C811105   2.935   2.053  10.542 -0.0371 -0.4224  1.1269
  751TMC3    O111106   3.329   2.315  10.233  0.0766  0.4160  0.2433
  751TMC3    O211107   2.952   1.962  10.466  0.6615  0.1003  0.3360
  752TMC3    C111108   2.184   3.705  16.540 -0.6017 -0.3247 -0.4895
  752TMC3    C211109   2.176   3.578  16.592  0.2129 -0.3050 -0.5815
  752TMC3    C311110   2.219   3.566  16.720 -0.8423  0.4561  0.1988
  752TMC3    C411111   2.220   3.812  16.612 -0.0258  0.8747 -0.0068
  752TMC3    C511112   2.271   3.789  16.736  0.5108  0.0767  0.8202
  752TMC3    C611113   2.267   3.668  16.800 -0.3364  0.4673  0.2423
  752TMC3     C11114   2.148   3.721  16.393  0.3369 -0.0385  0.4108
  752TMC3     O11115   2.205   3.808  16.325 -0.0433  0.1272  0.2965
  752TMC3     H11116   2.175   3.491  16.527 -3.1441 -0.1101 -0.8068
  752TMC3    H111117   2.227   3.904  16.555 -3.9440 -0.1060 -2.0660
  752TMC3    H211118   2.272   3.660  16.908 -2.8288  0.2714  0.3410
  752TMC3    C711119   2.353   3.890  16.806  0.2554 -0.7267  0.5690
  752TMC3    C811120   2.219   3.431  16.772 -0.0137  0.7427 -0.4475
  752TMC3    O111121   2.401   3.857  16.913 -0.2208 -0.6407 -0.1783
  752TMC3    O211122   2.161   3.341  16.710 -0.3346  0.1760  0.1685
  753TMC3    C111123   4.113   4.165  13.332 -0.3590  0.8310  0.2115
  753TMC3    C211124   4.149   4.157  13.468 -0.9681  0.7790  0.2393
  753TMC3    C311125   4.161   4.028  13.522 -1.0220  0.1115 -1.2620
  753TMC3    C411126   4.109   4.057  13.249 -0.0455 -0.0267  0.0502
  753TMC3    C511127   4.109   3.936  13.310  0.2723 -0.3819 -0.0861
  753TMC3    C611128   4.155   3.917  13.440  0.4810  0.1616  0.1075
  753TMC3     C11129   4.017   4.276  13.314  0.0946  0.3444 -0.2912
  753TMC3     O11130   3.922   4.263  13.236 -0.3811  0.1568 -0.2788
  753TMC3     H11131   4.132   4.237  13.539  2.2195  0.5927  1.1722
  753TMC3    H111132   4.070   4.059  13.148  0.7797  0.9267 -0.2463
  753TMC3    H211133   4.165   3.819  13.485 -0.8689 -1.0171 -2.1820
  753TMC3    C711134   4.056   3.826  13.238  0.3550  0.1390  0.3835
  753TMC3    C811135   4.124   4.002  13.659  0.5426  1.1475 -0.2865
  753TMC3    O111136   4.054   3.823  13.114 -0.8315  0.2771  0.8256
  753TMC3    O211137   4.077   3.887  13.671 -0.0677  0.2844 -0.0540
  754MPD2     C11138   3.278   2.889  12.859  0.1448 -1.5271 -0.4256
  754MPD2    C111139   3.230   2.761  12.843  1.0699 -0.5198  0.3105
  754MPD2    C211140   3.101   2.743  12.794 -0.7343 -0.0026 -0.2199
  754MPD2    C311141   3.012   2.844  12.799  0.1932  0.4206  0.4850
  754MPD2    C411142   3.060   2.972  12.815 -0.0069 -0.5158  0.4505
  754MPD2    C511143   3.196   2.991  12.838 -0.5451  1.0037  0.1127
  754MPD2     H11144   3.073   2.643  12.763 -0.8517 -0.3221  0.9086
  754MPD2    H111145   2.992   3.057  12.809  0.7527 -0.2174 -3.7108
  754MPD2    H211146   3.379   2.905  12.894 -1.2300  1.0260  2.4679
  754MPD2    H311147   3.227   3.092  12.860  1.3835  0.6502 -1.0002
  754MPD2     N11148   2.871   2.829  12.796 -0.4960  0.1018  0.1028
  754MPD2    H511149   2.815   2.912  12.811  0.0215  0.4845 -0.0810
  754MPD2    N111150   3.320   2.656  12.859  0.0219  0.3157 -0.5259
  754MPD2    H711151   3.419   2.678  12.854  0.1152  0.2043  0.7215
  755MPD2     C11152   2.156   3.336  12.847 -0.3801  0.0712  0.6374
  755MPD2    C111153   2.154   3.255  12.959 -0.1057  0.7074  0.4222
  755MPD2    C211154   2.245   3.156  12.975 -0.9138  0.0891  0.0946
  755MPD2    C311155   2.329   3.127  12.869  1.1975 -0.3526  0.2988
  755MPD2    C411156   2.335   3.211  12.756 -0.3014  0.4347  0.1579
  755MPD2    C511157   2.247   3.323  12.745 -0.2283  0.3309  0.1473
  755MPD2     H11158   2.235   3.096  13.066 -1.3707 -0.8266 -0.5569
  755MPD2    H111159   2.409   3.184  12.682  2.8245  1.0254  3.0694
  755MPD2    H211160   2.085   3.418  12.859  0.9381  1.1844  0.8681
  755MPD2    H311161   2.250   3.387  12.658 -1.2445  1.9346  1.2879
  755MPD2     N11162   2.424   3.021  12.869 -0.4385  0.2108 -0.1505
  755MPD2    H511163   2.484   3.013  12.787  1.0638  0.1058  0.9611
  755MPD2    N111164   2.053   3.268  13.060  0.2605  0.2494 -0.5855
  755MPD2    H711165   2.069   3.202  13.136  0.2477 -0.5368 -1.2693
  756MPD2     C11166   3.700   2.732   9.409  0.7021  0.2430  0.3808
  756MPD2    C111167   3.604   2.826   9.447  0.4242 -0.0031 -0.4930
  756MPD2    C211168   3.490   2.816   9.373  0.5814  0.3412 -0.3988
  756MPD2    C311169   3.462   2.712   9.281 -0.6473  1.0736 -0.3374
  756MPD2    C411170   3.553   2.615   9.261  0.5879  0.3083 -0.0250
  756MPD2    C511171   3.666   2.619   9.335 -0.6054 -0.0938 -0.3526
  756MPD2     H11172   3.420   2.899   9.388  0.6994  0.0307  1.9638
  756MPD2    H111173   3.529   2.526   9.204  0.2378 -0.0669  0.7062
  756MPD2    H211174   3.802   2.729   9.445  0.8336 -2.1258 -0.1891
  756MPD2    H311175   3.743   2.545   9.318  2.0523  2.3634  1.0769
  756MPD2     N11176   3.339   2.708   9.218 -0.1700  0.4748  0.0952
  756MPD2    H511177   3.265   2.770   9.251  0.4896  0.1228  2.2227
  756MPD2    N111178   3.630   2.936   9.530 -0.0476 -0.4189  0.2833
  756MPD2    H711179   3.550   2.976   9.578 -1.5106 -2.0086 -0.8169
  757MPD2     C11180   2.489   2.724   9.633 -0.0662 -0.0771 -0.1203
  757MPD2    C111181   2.431   2.739   9.507 -0.0642  1.0805 -0.0079
  757MPD2    C211182   2.509   2.715   9.398  0.4903 -0.2206 -0.2169
  757MPD2    C311183   2.651   2.697   9.407 -0.2384 -0.7159 -0.1272
  757MPD2    C411184   2.697   2.662   9.530 -0.0933 -0.7637  0.3707
  757MPD2    C511185   2.622   2.682   9.646  0.4058 -0.5222  0.5765
  757MPD2     H11186   2.455   2.727   9.305 -0.1525  1.9684  0.4430
  757MPD2    H111187   2.801   2.631   9.539  0.2438  0.3802  0.3615
  757MPD2    H211188   2.436   2.754   9.723  2.4326 -1.5324  1.8338
  757MPD2    H311189   2.664   2.649   9.740  0.7169  0.3427  0.7423
  757MPD2     N11190   2.734   2.700   9.293 -0.4274  0.1124  0.3358
  757MPD2    H511191   2.694   2.722   9.202  1.6783 -2.0588 -1.1245
  757MPD2    N111192   2.292   2.778   9.503 -0.1744 -0.2236 -0.2683
  757MPD2    H711193   2.247   2.810   9.588 -0.0528 -0.5794 -0.0686
  758MPD2     C11194   2.728   2.455  15.441  0.1799  0.5408  0.5312
  758MPD2    C111195   2.751   2.346  15.532 -0.0397 -0.1348 -0.2599
  758MPD2    C211196   2.675   2.338  15.648  0.0738  0.8920 -0.0710
  758MPD2    C311197   2.570   2.427  15.662  0.0749  0.1278  0.6965
  758MPD2    C411198   2.542   2.515  15.566  0.3208  0.8687 -0.5141
  758MPD2    C511199   2.632   2.541  15.467 -0.6180 -0.2016 -0.1843
  758MPD2     H11200   2.680   2.252  15.714  0.3204  1.1017  0.1830
  758MPD2    H111201   2.452   2.576  15.570  1.2957  2.1518  1.9448
  758MPD2    H211202   2.773   2.461  15.343 -1.3019  2.1343 -0.0405
  758MPD2    H311203   2.611   2.623  15.399  1.1003 -0.5970 -1.1655
  758MPD2     N11204   2.482   2.424  15.766  0.3792  0.1201  0.0629
  758MPD2    H511205   2.398   2.480  15.758 -0.0651 -0.6719 -0.8903
  758MPD2    N111206   2.850   2.246  15.507  0.5346 -0.0118  0.3021
  758MPD2    H711207   2.901   2.250  15.418  0.5751 -2.3694  0.2415
  759MPD2     C11208   2.183   0.159   9.832 -0.5798 -0.6323  0.1630
  759MPD2    C111209   2.147   0.144   9.698 -0.0932 -0.5857 -0.1609
  759MPD2    C211210   2.137   0.254   9.611 -0.5694  0.6925 -0.2231
  759MPD2    C311211   2.170   0.381   9.658 -0.4509  0.6723  0.3330
  759MPD2    C411212   2.183   0.397   9.796 -0.2271  0.4148  0.0938
  759MPD2    C511213   2.199   0.291   9.873 -0.5061  0.5173  0.1157
  759MPD2     H11214   2.114   0.244   9.506  1.5026  0.3837 -0.6570
  759MPD2    H111215   2.219   0.487   9.844  0.7218  0.3884 -0.5682
  759MPD2    H211216   2.200   0.081   9.905  2.7324  0.2530  0.3111
  759MPD2    H311217   2.223   0.306   9.977  2.8011  3.1864 -1.0451
  759MPD2     N11218   2.169   0.501   9.568  0.2756 -0.3735  0.3503
  759MPD2    H511219   2.134   0.482   9.475 -1.3952  2.8991  0.3258
  759MPD2    N111220   2.117   0.014   9.649  0.8981 -0.2416 -0.0674
  759MPD2    H711221   2.076   0.013   9.557  0.9173 -1.8603 -0.0570
  760MPD2     C11222   1.433   3.270  11.760  0.3883 -0.2759 -0.0887
  760MPD2    C111223   1.567   3.298  11.770 -0.2331 -0.4275 -0.0440
  760MPD2    C211224   1.662   3.197  11.760  0.1321 -0.6622  0.6558
  760MPD2    C311225   1.627   3.070  11.729 -0.0756  0.3190  0.3141
  760MPD2    C411226   1.492   3.036  11.720 -1.5128  0.0452 -0.0132
  760MPD2    C511227   1.400   3.136  11.739 -0.3059 -0.2355 -0.2312
  760MPD2     H11228   1.768   3.219  11.772 -0.4149  2.1106  0.5672
  760MPD2    H111229   1.460   2.932  11.720 -2.5779  0.3692 -1.1681
  760MPD2    H211230   1.354   3.343  11.765 -0.7866 -1.2661 -3.9970
  760MPD2    H311231   1.296   3.112  11.722 -0.1324 -0.2045 -1.3721
  760MPD2     N11232   1.727   2.970  11.710  0.0686 -0.0198 -0.0119
  760MPD2    H511233   1.692   2.879  11.683  1.6339 -0.7241  0.3138
  760MPD2    N111234   1.611   3.431  11.802  0.2813 -0.3880  0.3367
  760MPD2    H711235   1.536   3.498  11.789  0.7495 -0.2191 -1.4380
  761MPD2     C11236   2.647   1.739  10.841 -0.1990 -0.3479 -0.4210
  761MPD2    C111237   2.744   1.722  10.747  1.2719 -1.0971  0.1215
  761MPD2    C211238   2.817   1.821  10.686 -0.6065 -0.8674  0.3324
  761MPD2    C311239   2.782   1.951  10.713  0.2851 -0.2481 -0.1985
  761MPD2    C411240   2.685   1.971  10.811  0.4196 -0.3916 -0.2187
  761MPD2    C511241   2.616   1.870  10.870 -0.6265 -0.1413  0.5221
  761MPD2     H11242   2.900   1.800  10.620  0.1786  1.6214  0.5072
  761MPD2    H111243   2.657   2.073  10.833 -0.0039 -0.5782  0.1289
  761MPD2    H211244   2.585   1.665  10.889  0.2377  0.9998  2.2257
  761MPD2    H311245   2.540   1.892  10.945 -1.5560 -0.1880 -0.4049
  761MPD2     N11246   2.842   2.064  10.648 -0.4411 -0.4197 -0.3557
  761MPD2    H511247   2.809   2.155  10.680  0.0506 -0.0273 -0.9730
  761MPD2    N111248   2.769   1.587  10.716 -0.2251  0.3026 -0.1496
  761MPD2    H711249   2.736   1.515  10.779  2.4703 -1.8976 -1.2635
  762MPD2     C11250   3.318   0.857  10.418  0.0006 -0.0957 -0.1942
  762MPD2    C111251   3.282   0.983  10.389  0.5965  0.3791  0.2420
  762MPD2    C211252   3.352   1.047  10.286  0.6468 -0.2158 -0.0792
  762MPD2    C311253   3.453   0.980  10.208 -0.0306  0.3545  0.4590
  762MPD2    C411254   3.477   0.847  10.232  0.6390 -0.0035  0.4903
  762MPD2    C511255   3.407   0.793  10.337  0.3487 -0.1319  1.1130
  762MPD2     H11256   3.317   1.145  10.255  1.0595 -0.3476 -0.9670
  762MPD2    H111257   3.548   0.785  10.179 -0.2640  0.5459 -1.3717
  762MPD2    H211258   3.283   0.805  10.507 -0.5232 -0.5911 -0.6938
  762MPD2    H311259   3.428   0.690  10.365 -0.7608 -1.2948 -2.3519
  762MPD2     N11260   3.523   1.040  10.094 -0.5469  0.2245 -0.5488
  762MPD2    H511261   3.578   0.976  10.038  0.5368  0.1780  0.5536
  762MPD2    N111262   3.174   1.048  10.461  0.2155  1.1088 -0.0671
  762MPD2    H711263   3.119   0.991  10.524 -0.6504  0.5974 -1.2746
  763MPD2     C11264   0.212   2.412  16.085 -0.0712  0.1099 -0.0793
  763MPD2    C111265   0.098   2.480  16.066  0.2893 -0.4875  0.8431
  763MPD2    C211266   0.064   2.586  16.148 -0.7353 -0.0418  1.2336
  763MPD2    C311267   0.150   2.637  16.242 -0.1459 -0.3381  0.6282
  763MPD2    C411268   0.275   2.570  16.244 -0.3218 -0.6102 -0.1666
  763MPD2    C511269   0.301   2.460  16.171 -0.4876  0.0519 -0.0662
  763MPD2     H11270   4.692   2.637  16.138 -0.3008  0.8790  1.7418
  763MPD2    H111271   0.346   2.603  16.319 -1.0650  0.5397  0.0384
  763MPD2    H211272   0.250   2.332  16.022  0.5944  2.1849 -2.3304
  763MPD2    H311273   0.402   2.421  16.179 -0.1826  0.9257  0.3305
  763MPD2     N11274   0.129   2.756  16.316  0.0710 -0.7745 -0.6843
  763MPD2    H511275   0.211   2.789  16.366 -0.6006  0.1757 -0.2190
  763MPD2    N111276   4.720   2.436  15.978  0.1309 -0.3466 -0.9483
  763MPD2    H711277   4.643   2.496  15.954  0.3331 -0.6285 -2.3253
  764MPD2     C11278   2.771   3.609  17.100  0.0823  0.4661  0.0334
  764MPD2    C111279   2.660   3.683  17.074  0.5860  0.0040 -0.0829
  764MPD2    C211280   2.549   3.658  17.151 -0.5837  0.4399  0.2298
  764MPD2    C311281   2.552   3.567  17.259 -0.2307 -0.0520  0.0314
  764MPD2    C411282   2.662   3.490  17.283 -0.5616  0.0900 -0.7295
  764MPD2    C511283   2.776   3.517  17.199  0.3511 -0.3986 -0.7053
  764MPD2     H11284   2.458   3.701  17.112  0.4559  2.7433  0.3416
  764MPD2    H111285   2.671   3.422  17.367  2.1103 -0.7851 -1.7393
  764MPD2    H211286   2.865   3.615  17.047  0.1062  0.9384  0.1283
  764MPD2    H311287   2.869   3.470  17.228 -0.5088 -0.3992  2.1089
  764MPD2     N11288   2.430   3.562  17.328  0.7074  0.0179  0.1070
  764MPD2    H511289   2.350   3.616  17.298 -0.0028  0.2475  2.4414
  764MPD2    N111290   2.656   3.779  16.967  0.3301  0.1899  0.4380
  764MPD2    H711291   2.567   3.816  16.935  2.6875  2.1578 -3.7414
  765MPD2     C11292   2.416   1.485  14.988  0.1783 -0.1139  0.2858
  765MPD2    C111293   2.462   1.595  15.063  0.1491  0.4442  0.0746
  765MPD2    C211294   2.602   1.616  15.071 -0.3409  1.3058 -0.5301
  765MPD2    C311295   2.691   1.525  15.014 -0.1992 -0.4935  0.1286
  765MPD2    C411296   2.637   1.419  14.942 -0.8966  0.2685  0.3892
  765MPD2    C511297   2.504   1.392  14.935  0.4800  0.2573 -0.0916
  765MPD2     H11298   2.642   1.701  15.125 -0.1027  0.9737 -0.1868
  765MPD2    H111299   2.697   1.345  14.890  0.0958  0.8950  0.6333
  765MPD2    H211300   2.310   1.465  14.973  0.3831  0.2345 -1.6147
  765MPD2    H311301   2.465   1.312  14.873  0.4791  1.8779 -2.1836
  765MPD2     N11302   2.831   1.537  15.029 -0.2275  0.6593 -0.0634
  765MPD2    H511303   2.866   1.614  15.085 -2.7270  1.7727 -0.0286
  765MPD2    N111304   2.357   1.674  15.103 -0.1850 -0.0469  0.3896
  765MPD2    H711305   2.262   1.639  15.097 -0.6402  1.0619  1.1308
  766MPD2     C11306   1.814   1.934  14.788 -0.8667 -0.3956 -0.9888
  766MPD2    C111307   1.949   1.959  14.810 -0.7937  0.1937 -0.5127
  766MPD2    C211308   2.031   2.004  14.704 -0.2867  0.3566  0.0203
  766MPD2    C311309   1.981   2.024  14.576 -0.5162 -0.1263  0.9398
  766MPD2    C411310   1.838   1.989  14.558  0.3780 -0.1085  0.0925
  766MPD2    C511311   1.765   1.945  14.664  0.0473  0.6382  0.5233
  766MPD2     H11312   2.136   2.022  14.725  0.3904 -3.4224 -0.1559
  766MPD2    H111313   1.792   1.995  14.460 -0.4840 -1.8166  0.3760
  766MPD2    H211314   1.759   1.883  14.866 -2.3084 -0.2147 -1.9086
  766MPD2    H311315   1.659   1.923  14.654 -0.1567  1.3441  1.1374
  766MPD2     N11316   2.052   2.069  14.466  0.5363  0.0241 -0.0595
  766MPD2    H511317   1.990   2.083  14.386  2.1213 -1.4143 -1.5301
  766MPD2    N111318   2.010   1.956  14.934 -0.5923  0.1453 -0.2791
  766MPD2    H711319   2.110   1.975  14.925 -0.7745  1.3459  0.1580
  767MPD2     C11320   1.546   2.387  14.573  0.4914  0.6018 -0.5114
  767MPD2    C111321   1.680   2.356  14.556 -0.1505  0.1253 -0.1564
  767MPD2    C211322   1.721   2.304  14.433 -0.1647  0.3129 -0.0684
  767MPD2    C311323   1.630   2.286  14.329 -0.2188 -0.2280  0.0488
  767MPD2    C411324   1.499   2.312  14.351  0.1631 -0.1396  0.3022
  767MPD2    C511325   1.458   2.360  14.473 -0.6753 -0.1165  0.6997
  767MPD2     H11326   1.827   2.289  14.416 -0.9250 -2.5796 -2.1625
  767MPD2    H111327   1.430   2.323  14.268  0.9959  1.0179 -0.2356
  767MPD2    H211328   1.516   2.445  14.660  0.2175  0.4676 -0.5161
  767MPD2    H311329   1.355   2.391  14.480 -0.7611 -0.2326 -0.0827
  767MPD2     N11330   1.683   2.240  14.203  0.1819 -0.3128  0.0433
  767MPD2    H511331   1.620   2.251  14.124 -2.0070 -0.8052  1.7407
  767MPD2    N111332   1.771   2.380  14.668  0.5345 -0.0027  0.2860
  767MPD2    H711333   1.723   2.382  14.758  0.3751 -0.8213  0.2256
  768MPD2     C11334   3.171   0.122  10.600 -0.2537  0.0539 -0.3616
  768MPD2    C111335   3.174   0.024  10.701  0.1635 -0.2067  0.5040
  768MPD2    C211336   3.282   0.019  10.783  0.2973 -0.1528  0.4146
  768MPD2    C311337   3.391   0.104  10.769 -0.2184 -0.2280  0.5274
  768MPD2    C411338   3.390   0.184  10.659  0.0019 -0.0374 -0.0039
  768MPD2    C511339   3.283   0.185  10.573  0.7535  0.0020 -0.1011
  768MPD2     H11340   3.283   4.688  10.877  0.9027 -0.0560  0.4583
  768MPD2    H111341   3.474   0.249  10.638  0.6960 -0.8994  0.1118
  768MPD2    H211342   3.086   0.152  10.539  0.7122  0.0928 -1.6860
  768MPD2    H311343   3.281   0.264  10.498  1.9076 -0.4841 -0.6501
  768MPD2     N11344   3.502   0.129  10.862 -0.0541  0.5641  0.3355
  768MPD2    H511345   3.578   0.191  10.835  0.4836 -0.5768 -0.7465
  768MPD2    N111346   3.051   4.685  10.742 -0.2279 -0.0013  0.8186
  768MPD2    H711347   2.972   0.012  10.703 -0.7586 -0.9587  0.6467
  769MPD2     C11348   4.018   3.105  14.820  0.6287 -0.1334 -0.0387
  769MPD2    C111349   3.920   3.160  14.895  0.6884 -0.2650 -0.1469
  769MPD2    C211350   3.952   3.208  15.023 -0.0203  0.4984  0.4068
  769MPD2    C311351   4.079   3.203  15.081 -0.3646 -0.2062  0.9723
  769MPD2    C411352   4.181   3.150  14.994  0.4384  0.1972 -0.0852
  769MPD2    C511353   4.147   3.112  14.866 -0.6292  0.0953  0.6200
  769MPD2     H11354   3.877   3.247  15.091  0.2351  0.3259  0.7902
  769MPD2    H111355   4.282   3.145  15.033 -0.1358  0.4320  1.4118
  769MPD2    H211356   4.000   3.068  14.720  1.4757  0.8381 -0.5617
  769MPD2    H311357   4.220   3.069  14.799 -0.1685 -0.0608  1.2274
  769MPD2     N11358   4.095   3.259  15.210  0.1299  0.0415  0.3259
  769MPD2    H511359   4.008   3.282  15.257 -0.9986 -1.5538 -0.9679
  769MPD2    N111360   3.789   3.160  14.842 -0.7561 -0.2187 -0.1512
  769MPD2    H711361   3.772   3.103  14.760 -1.6820 -0.5337  0.2544
  770MPD2     C11362   2.999   2.549  14.866  0.3973 -1.4288  0.9908
  770MPD2    C111363   3.074   2.556  14.753  0.3097 -0.1449  0.5795
  770MPD2    C211364   3.166   2.656  14.737  0.5856  0.0348  0.0612
  770MPD2    C311365   3.184   2.752  14.833  0.0756  0.4754  1.1891
  770MPD2    C411366   3.108   2.738  14.951 -0.4089  0.0412  0.4016
  770MPD2    C511367   3.024   2.636  14.968 -0.0928 -0.4335  0.1496
  770MPD2     H11368   3.237   2.653  14.656  0.0720  1.7226 -0.4442
  770MPD2    H111369   3.123   2.795  15.042  2.9864  2.5281 -1.7106
  770MPD2    H211370   2.933   2.465  14.883  0.6365 -1.5639  1.2476
  770MPD2    H311371   2.974   2.629  15.064  1.7398 -0.6323  1.0790
  770MPD2     N11372   3.275   2.856  14.813 -0.0278  0.6962  0.3410
  770MPD2    H511373   3.312   2.868  14.719  0.1058  2.0329  0.5498
  770MPD2    N111374   3.054   2.447  14.667 -0.1589 -0.4318  0.1208
  770MPD2    H711375   3.005   2.366  14.704  1.9555 -2.5047 -1.6065
  771MPD2     C11376   4.680   1.281  13.774  0.1470 -0.5025  0.5346
  771MPD2    C111377   4.688   1.362  13.659 -1.0736 -0.5475  0.7784
  771MPD2    C211378   4.667   1.302  13.538  0.4481 -0.3606 -0.1733
  771MPD2    C311379   4.643   1.167  13.523  0.7554  0.2753  0.2994
  771MPD2    C411380   4.636   1.089  13.635 -0.1024  1.3510  0.7263
  771MPD2    C511381   4.651   1.145  13.757  0.5135  0.1341  0.7682
  771MPD2     H11382   4.670   1.357  13.445  0.5056 -1.1176 -0.6145
  771MPD2    H111383   4.608   0.985  13.622  1.4828  1.0980 -0.6859
  771MPD2    H211384   4.690   1.317  13.876 -3.0196 -0.0476  0.6750
  771MPD2    H311385   4.644   1.078  13.842 -0.8695 -0.6985 -0.0033
  771MPD2     N11386   4.611   1.121  13.394  0.0517 -0.3681 -0.0965
  771MPD2    H511387   4.642   1.177  13.315  2.7576  0.6404  1.6358
  771MPD2    N111388   4.703   1.505  13.660 -0.7309 -0.0129 -0.1509
  771MPD2    H711389   4.703   1.555  13.572  2.1516 -1.2026 -0.8217
  772MPD2     C11390   4.483   2.234  13.879  1.0341  0.6030 -0.0470
  772MPD2    C111391   4.448   2.102  13.859 -0.3787 -0.7866  0.6741
  772MPD2    C211392   4.315   2.058  13.883 -0.5321  0.8467 -0.4068
  772MPD2    C311393   4.220   2.149  13.923  0.2512 -0.4003 -0.1272
  772MPD2    C411394   4.257   2.280  13.944  0.3842 -0.1532  0.4621
  772MPD2    C511395   4.382   2.321  13.918 -0.0102 -0.1994  0.6167
  772MPD2     H11396   4.295   1.952  13.882 -2.1568  1.1730 -1.5107
  772MPD2    H111397   4.185   2.355  13.974 -0.5863  0.5665 -3.6924
  772MPD2    H211398   4.581   2.269  13.849  1.6234 -0.2911  0.8566
  772MPD2    H311399   4.403   2.427  13.919  0.2296 -0.2449 -0.2645
  772MPD2     N11400   4.086   2.116  13.941 -0.2252  0.1778  0.1278
  772MPD2    H511401   4.029   2.194  13.972 -0.6667 -0.5463  1.1338
  772MPD2    N111402   4.545   2.016  13.808  0.0723 -0.4957 -0.5348
  772MPD2    H711403   4.527   1.918  13.829 -2.2197  0.3334  1.3182
  773MPD2     C11404   3.384   2.728  17.244 -0.0640  0.3988 -0.6370
  773MPD2    C111405   3.259   2.674  17.271 -0.3683 -0.2626  0.6480
  773MPD2    C211406   3.250   2.542  17.304  0.6745 -0.4766 -0.4585
  773MPD2    C311407   3.362   2.459  17.305 -0.4689 -0.0959 -0.8002
  773MPD2    C411408   3.485   2.515  17.283  0.5710  0.0961 -0.7095
  773MPD2    C511409   3.488   2.644  17.248 -0.0315 -0.6896  0.3298
  773MPD2     H11410   3.156   2.495  17.330 -0.0033  1.2335  0.1898
  773MPD2    H111411   3.576   2.457  17.283 -0.6046 -1.7414 -0.3047
  773MPD2    H211412   3.406   2.829  17.213  2.0305 -0.0535 -0.6712
  773MPD2    H311413   3.586   2.680  17.220 -1.8880  2.5571 -1.9672
  773MPD2     N11414   3.340   2.321  17.322 -0.7460 -0.0887 -0.1164
  773MPD2    H511415   3.248   2.287  17.297 -0.4067 -0.8221 -0.3528
  773MPD2    N111416   3.144   2.759  17.281 -0.1392 -0.2383 -0.8177
  773MPD2    H711417   3.059   2.732  17.331  0.1213  1.4636  0.5720
  774MPD2     C11418   2.849   1.731  13.066 -0.1231 -0.3700  0.2250
  774MPD2    C111419   2.773   1.833  13.127  0.4511 -0.1435  0.0156
  774MPD2    C211420   2.782   1.955  13.061 -1.1534  0.3169  0.7433
  774MPD2    C311421   2.871   1.983  12.960  0.0674  0.2141 -0.2476
  774MPD2    C411422   2.955   1.884  12.915  0.5227 -0.2712  0.3278
  774MPD2    C511423   2.944   1.765  12.969 -0.1302  0.0299 -0.0337
  774MPD2     H11424   2.729   2.031  13.116 -2.2821 -0.5287  0.8293
  774MPD2    H111425   3.034   1.907  12.844 -2.6970 -1.0651 -3.5358
  774MPD2    H211426   2.854   1.635  13.116  1.6387 -0.1800  0.4263
  774MPD2    H311427   3.016   1.696  12.927  1.8647  2.4376 -0.6231
  774MPD2     N11428   2.879   2.119  12.929 -0.2904  0.0311  0.0524
  774MPD2    H511429   2.815   2.177  12.983 -0.6756  0.3548 -0.7433
  774MPD2    N111430   2.705   1.809  13.242 -0.2354 -0.1303 -0.1937
  774MPD2    H711431   2.706   1.719  13.290 -0.8847  0.9696  1.8978
  775MPD2     C11432   4.262   3.222  15.795 -0.2798  0.3347  0.1553
  775MPD2    C111433   4.268   3.317  15.895  0.0316 -0.0823 -0.8453
  775MPD2    C211434   4.359   3.423  15.883 -0.1243  0.3217 -0.0865
  775MPD2    C311435   4.445   3.435  15.775  0.3336 -0.3022  0.5180
  775MPD2    C411436   4.436   3.341  15.671 -0.3368  0.1997 -0.6187
  775MPD2    C511437   4.349   3.237  15.689  0.1053  0.6872  0.4057
  775MPD2     H11438   4.350   3.512  15.945  1.3544  0.0715  0.4918
  775MPD2    H111439   4.497   3.358  15.583  3.8399 -0.1423  2.2105
  775MPD2    H211440   4.188   3.143  15.797  0.0052  0.0236 -1.6624
  775MPD2    H311441   4.342   3.159  15.614 -0.0037  0.5518  0.5570
  775MPD2     N11442   4.526   3.553  15.751  0.3772  0.0156  0.2400
  775MPD2    H511443   4.570   3.568  15.661  0.9046 -0.7667  0.3692
  775MPD2    N111444   4.186   3.303  16.011  0.2514 -0.5534  0.0112
  775MPD2    H711445   4.100   3.254  15.993  0.2917  0.0311 -1.7876
  776MPD2     C11446   3.676   3.205  11.422  1.0289 -0.1440  0.8767
  776MPD2    C111447   3.558   3.256  11.375 -0.3714  0.0824  1.2264
  776MPD2    C211448   3.553   3.397  11.380  0.2559 -0.5662  0.8517
  776MPD2    C311449   3.662   3.482  11.401  0.5074 -0.0539 -0.6082
  776MPD2    C411450   3.781   3.417  11.433 -0.3547 -0.2103 -0.1733
  776MPD2    C511451   3.789   3.282  11.442 -0.1237  0.4853  0.1354
  776MPD2     H11452   3.457   3.446  11.366  0.9116  0.9574  1.7499
  776MPD2    H111453   3.873   3.474  11.439 -0.2765 -0.5838  1.9381
  776MPD2    H211454   3.687   3.098  11.431  1.1099 -0.3308 -1.3210
  776MPD2    H311455   3.872   3.215  11.463 -1.6470 -1.0370  1.3050
  776MPD2     N11456   3.667   3.625  11.405  0.0077 -0.0268  0.5996
  776MPD2    H511457   3.750   3.676  11.435 -0.9620  1.3513  0.9407
  776MPD2    N111458   3.452   3.176  11.354  0.5749 -0.3336 -0.6480
  776MPD2    H711459   3.464   3.075  11.365 -0.9986 -0.4945 -0.3674
  777MPD2     C11460   2.723   1.709   0.735 -0.8730 -0.4924  0.5150
  777MPD2    C111461   2.837   1.639   0.780 -0.4894  0.8869 -0.1121
  777MPD2    C211462   2.901   1.556   0.687 -0.2232  0.5136 -0.0170
  777MPD2    C311463   2.855   1.554   0.558  0.1789  0.0899 -0.2249
  777MPD2    C411464   2.746   1.621   0.513 -0.0993 -0.8858  0.4623
  777MPD2    C511465   2.678   1.695   0.605 -0.5631 -0.6702 -0.2393
  777MPD2     H11466   2.977   1.483   0.711 -3.1254 -2.1752  0.9893
  777MPD2    H111467   2.707   1.614   0.412 -0.3669 -2.5585  0.6762
  777MPD2    H211468   2.657   1.758   0.805 -2.9239 -1.8118 -0.4890
  777MPD2    H311469   2.579   1.726   0.572  0.7648  4.9393  1.2426
  777MPD2     N11470   2.927   1.459   0.477 -0.0476  0.6945 -0.0643
  777MPD2    H511471   3.003   1.405   0.519 -1.8768 -0.5186  1.6827
  777MPD2    N111472   2.871   1.643   0.918  0.0403 -0.0703 -0.3099
  777MPD2    H711473   2.791   1.661   0.979  0.4324  1.1928 -0.1632
  778MPD2     C11474   4.230   0.988  15.209  0.7439  0.3598  0.1536
  778MPD2    C111475   4.181   0.988  15.082 -0.6482  0.2337  0.0263
  778MPD2    C211476   4.252   1.050  14.978  0.4229 -0.5376 -0.2036
  778MPD2    C311477   4.366   1.125  15.010  0.3191 -0.2137 -0.5526
  778MPD2    C411478   4.397   1.135  15.146 -0.4405  0.1835  0.4996
  778MPD2    C511479   4.337   1.065  15.243  0.3954 -0.5079 -0.3006
  778MPD2     H11480   4.213   1.052  14.877 -1.3146 -1.7574  0.4528
  778MPD2    H111481   4.484   1.188  15.184 -2.0187  2.0589  1.4554
  778MPD2    H211482   4.189   0.928  15.290  0.9559  0.8480  0.6269
  778MPD2    H311483   4.380   1.063  15.342 -0.4736  0.5123  0.0930
  778MPD2     N11484   4.443   1.179  14.915  0.1907 -0.2621  0.3253
  778MPD2    H511485   4.424   1.151  14.819 -0.3750  0.5081  0.2153
  778MPD2    N111486   4.057   0.920  15.051 -0.5348  0.4507 -0.4479
  778MPD2    H711487   4.036   0.919  14.952  0.3753 -0.0372 -0.6321
  779MPD2     C11488   4.161   0.111  14.615  0.5359  0.4325  0.2320
  779MPD2    C111489   4.284   0.112  14.551 -0.3582  0.1086 -0.0633
  779MPD2    C211490   4.335   0.229  14.505 -0.0812  0.0001  0.9747
  779MPD2    C311491   4.269   0.348  14.524 -0.5806  0.0139  0.5716
  779MPD2    C411492   4.141   0.350  14.579 -0.0847 -0.6636  0.4454
  779MPD2    C511493   4.097   0.234  14.636  0.0342 -0.8204  0.2467
  779MPD2     H11494   4.431   0.232  14.457 -0.4030  1.2478  0.4179
  779MPD2    H111495   4.075   0.436  14.590  1.8380  0.9299 -0.2828
  779MPD2    H211496   4.116   0.033  14.675 -0.1326  0.3779 -0.3464
  779MPD2    H311497   4.005   0.226  14.692 -1.9841  0.0739 -2.9663
  779MPD2     N11498   4.339   0.463  14.474 -0.2422 -0.3113 -0.0568
  779MPD2    H511499   4.427   0.441  14.428 -0.3128  2.7701 -1.7252
  779MPD2    N111500   4.359   4.720  14.533  0.8239  1.2102  0.3784
  779MPD2    H711501   4.455   0.002  14.500  1.0258  0.3941  0.8287
  780MPD2     C11502   2.921   0.397  17.493  0.3428 -0.3345 -0.4094
  780MPD2    C111503   2.949   0.348  17.364  0.2022  0.5121  0.5606
  780MPD2    C211504   3.080   0.308  17.337  0.6262  0.0331  0.8177
  780MPD2    C311505   3.188   0.311  17.432 -0.7454  0.6071  0.1075
  780MPD2    C411506   3.161   0.355  17.557  0.3243  0.7852 -0.3384
  780MPD2    C511507   3.029   0.405  17.582 -0.2497 -0.2772 -0.1044
  780MPD2     H11508   3.111   0.269  17.240 -0.2196  1.2913  0.0403
  780MPD2    H111509   3.234   0.353  17.637  1.3002  0.1698 -1.2425
  780MPD2    H211510   2.817   0.421  17.515  0.4065 -0.2069 -0.2520
  780MPD2    H311511   3.003   0.440  17.682  1.1149 -1.3666  0.6367
  780MPD2     N11512   3.307   0.255  17.391 -0.8195 -0.5324  0.3194
  780MPD2    H511513   3.316   0.192  17.311 -2.8313 -0.2910 -0.1003
  780MPD2    N111514   2.842   0.332  17.269 -0.4592 -0.8764 -0.5559
  780MPD2    H711515   2.758   0.376  17.305 -0.3942 -2.3405  1.3181
  781MPD2     C11516   0.837   2.166  11.828 -0.2144  0.2902  0.4026
  781MPD2    C111517   0.955   2.099  11.859 -0.1388  0.0419  0.1389
  781MPD2    C211518   1.072   2.115  11.781 -0.1671  0.1323  0.1184
  781MPD2    C311519   1.069   2.199  11.668  0.4974 -0.6975 -0.1604
  781MPD2    C411520   0.947   2.264  11.643 -0.8047 -1.0469 -0.2250
  781MPD2    C511521   0.835   2.250  11.718 -0.2127 -0.3190 -0.4103
  781MPD2     H11522   1.170   2.074  11.803 -0.1669  0.0302 -0.0724
  781MPD2    H111523   0.930   2.315  11.549  0.1654 -1.3273 -0.5495
  781MPD2    H211524   0.743   2.142  11.876 -0.3322 -0.3306 -0.1333
  781MPD2    H311525   0.740   2.295  11.692 -0.6236  0.6096  2.7226
  781MPD2     N11526   1.181   2.216  11.580  0.2335 -0.2639 -0.1087
  781MPD2    H511527   1.180   2.290  11.510  1.8787 -2.0509 -2.0532
  781MPD2    N111528   0.967   1.999  11.963  0.3462  0.2256  0.2940
  781MPD2    H711529   1.057   1.962  11.989 -0.4866  0.0585  2.9708
  782MPD2     C11530   3.477   2.797   9.896 -0.1308 -0.0889  0.4463
  782MPD2    C111531   3.613   2.776   9.872  0.3188 -0.4946 -0.7381
  782MPD2    C211532   3.708   2.841   9.948  0.0570 -0.0908 -0.7316
  782MPD2    C311533   3.667   2.927  10.049 -0.2955 -0.8220 -0.1881
  782MPD2    C411534   3.534   2.945  10.069 -0.4342 -0.0664  0.3693
  782MPD2    C511535   3.442   2.889   9.990  0.3840  0.3044 -0.5588
  782MPD2     H11536   3.815   2.824   9.943 -0.0651 -0.3677 -2.2746
  782MPD2    H111537   3.492   3.003  10.151  2.2280  0.4255  1.3889
  782MPD2    H211538   3.401   2.740   9.843 -0.3142 -0.6430  1.3093
  782MPD2    H311539   3.340   2.912  10.019  0.1277  0.0115 -1.2479
  782MPD2     N11540   3.764   2.973  10.146 -0.3926 -0.7814 -0.7596
  782MPD2    H511541   3.861   2.960  10.121  0.1164  0.8489  0.4057
  782MPD2    N111542   3.650   2.690   9.763 -0.0283 -0.0449  0.5813
  782MPD2    H711543   3.578   2.641   9.712  0.2413  0.0519  0.1146
  783MPD2     C11544   3.253   1.962   9.989 -0.2038  0.7058  0.4405
  783MPD2    C111545   3.280   2.085  10.045  0.5232 -0.3645  1.1488
  783MPD2    C211546   3.370   2.165   9.975  0.1795 -0.2135  0.1336
  783MPD2    C311547   3.425   2.128   9.854  0.4130 -0.0434 -0.6909
  783MPD2    C411548   3.402   2.002   9.798 -0.3957  0.6587 -0.2211
  783MPD2    C511549   3.325   1.920   9.878  0.3629  0.5254  0.1101
  783MPD2     H11550   3.402   2.255  10.027 -0.4067  0.1432 -0.1360
  783MPD2    H111551   3.424   1.969   9.698  0.3837  0.8862 -0.1255
  783MPD2    H211552   3.178   1.898  10.034 -0.2130 -0.2562 -0.9437
  783MPD2    H311553   3.292   1.829   9.829 -0.8946  1.0315  0.0081
  783MPD2     N11554   3.524   2.214   9.800  0.0568 -0.0061 -0.3404
  783MPD2    H511555   3.546   2.292   9.861 -2.9635 -0.0094  0.8045
  783MPD2    N111556   3.212   2.123  10.166 -0.5584  0.1419  0.5546
  783MPD2    H711557   3.151   2.056  10.212 -0.5133 -0.5113 -0.3618
  784MPD2     C11558   4.682   2.851   1.058 -0.0034  0.1216 -0.9457
  784MPD2    C111559   4.705   2.930   0.946 -0.2727  0.0386 -0.3771
  784MPD2    C211560   4.608   3.022   0.907  0.3783  0.0107 -0.7388
  784MPD2    C311561   4.485   3.024   0.963  0.8463  0.0135 -0.3378
  784MPD2    C411562   4.465   2.951   1.077  0.4069 -0.0876 -0.4173
  784MPD2    C511563   4.565   2.869   1.122 -0.3530  0.1813  0.2669
  784MPD2     H11564   4.623   3.089   0.823  2.5327  2.1933  1.3806
  784MPD2    H111565   4.374   2.956   1.135 -0.2824 -2.1832 -1.3115
  784MPD2    H211566   0.034   2.786   1.101  0.1390  0.5217 -0.5892
  784MPD2    H311567   4.546   2.805   1.207  0.5461 -0.7906 -0.2704
  784MPD2     N11568   4.388   3.112   0.904  0.2756  0.1894  0.3277
  784MPD2    H511569   4.426   3.161   0.824  0.3713 -0.2500  0.1051
  784MPD2    N111570   0.100   2.932   0.868  0.0257 -0.6461  0.5344
  784MPD2    H711571   0.113   3.011   0.805  1.3350 -1.3032 -0.0334
  785MPD2     C11572   1.663   2.098  10.834 -0.9670  0.1915 -0.1008
  785MPD2    C111573   1.544   2.095  10.896  0.1445 -0.6326  0.6831
  785MPD2    C211574   1.489   1.966  10.920  0.4596 -0.1166  0.3317
  785MPD2    C311575   1.539   1.851  10.860  0.1138 -0.5874 -0.1228
  785MPD2    C411576   1.662   1.859  10.794 -0.4690  0.2897  0.0507
  785MPD2    C511577   1.723   1.982  10.786 -0.1976  0.1489 -0.5466
  785MPD2     H11578   1.398   1.948  10.976 -1.7334  1.3933 -2.7465
  785MPD2    H111579   1.715   1.775  10.753 -0.4497 -0.3444  1.3518
  785MPD2    H211580   1.713   2.194  10.822 -1.8715  0.8598  1.5085
  785MPD2    H311581   1.821   1.979  10.739  1.3993  0.0709  2.7371
  785MPD2     N11582   1.460   1.736  10.866  0.1664  0.6841  0.2207
  785MPD2    H511583   1.376   1.731  10.923  1.0001 -0.3451  1.3583
  785MPD2    N111584   1.485   2.214  10.938 -0.5132  0.3582 -0.5226
  785MPD2    H711585   1.548   2.285  10.903 -0.8746  0.0881 -1.7089
  786MPD2     C11586   4.444   4.228  14.653 -0.4303  0.5751 -0.5504
  786MPD2    C111587   4.569   4.183  14.618  0.5948  0.5314  0.0365
  786MPD2    C211588   4.670   4.192  14.714  0.3115  0.1958 -0.3986
  786MPD2    C311589   4.657   4.235  14.841  0.0182 -0.0520  0.0113
  786MPD2    C411590   4.532   4.268  14.875 -0.4791  0.2115  0.2593
  786MPD2    C511591   4.428   4.267  14.783  0.2993 -0.0712  0.2999
  786MPD2     H11592   0.040   4.143  14.691  1.0684  1.1459  0.6782
  786MPD2    H111593   4.506   4.310  14.972 -3.7523 -2.3151  0.4988
  786MPD2    H211594   4.359   4.234  14.586 -1.0718 -0.0285  0.2109
  786MPD2    H311595   4.328   4.296  14.812  0.6757  1.7514 -0.2509
  786MPD2     N11596   0.043   4.250  14.934 -0.1720  0.1273 -0.5779
  786MPD2    H511597   0.011   4.271  15.028 -0.8975 -1.6359 -0.4205
  786MPD2    N111598   4.602   4.122  14.495 -0.1540  0.2237 -0.4851
  786MPD2    H711599   4.700   4.105  14.476  0.5110  0.7490  2.5058
  787MPD2     C11600   0.307   3.779  14.602  0.2392 -0.6889  0.1501
  787MPD2    C111601   0.294   3.744  14.472  0.2462  0.1050  0.8617
  787MPD2    C211602   0.382   3.647  14.417  0.3042  0.3305 -0.0263
  787MPD2    C311603   0.474   3.574  14.505 -0.6330 -0.2005  0.3702
  787MPD2    C411604   0.490   3.618  14.634 -0.6888 -0.0140  0.0268
  787MPD2    C511605   0.404   3.722  14.676  0.0121 -0.1532 -0.7510
  787MPD2     H11606   0.385   3.625  14.311  0.4531 -1.0474  0.2687
  787MPD2    H111607   0.556   3.562  14.700  0.4605 -0.2867 -1.3527
  787MPD2    H211608   0.248   3.859  14.644  2.7120  1.0303  0.3638
  787MPD2    H311609   0.409   3.755  14.779  0.0955 -1.9121 -0.1945
  787MPD2     N11610   0.553   3.475  14.440  0.0090 -0.1722  0.1358
  787MPD2    H511611   0.533   3.466  14.341 -1.3944 -1.5411  0.5533
  787MPD2    N111612   0.187   3.807  14.396  0.6646  0.0495 -0.1846
  787MPD2    H711613   0.128   3.872  14.447 -0.6574 -1.1848 -0.1419
  788MPD2     C11614   1.471   2.333   0.221  0.0584  0.3432  0.1030
  788MPD2    C111615   1.611   2.313   0.209  0.6725  0.6101 -0.7761
  788MPD2    C211616   1.689   2.393   0.128  0.0742 -0.8169 -0.7818
  788MPD2    C311617   1.628   2.494   0.045 -0.3137  0.7442 -0.5336
  788MPD2    C411618   1.490   2.510   0.056  0.5441  0.3374 -0.4556
  788MPD2    C511619   1.413   2.437   0.144 -0.2537  0.2898  0.2645
  788MPD2     H11620   1.797   2.383   0.137  0.1821  2.0327  1.1208
  788MPD2    H111621   1.445   2.585  17.689  0.8481  1.1965  0.3288
  788MPD2    H211622   1.419   2.274   0.296 -2.2848  2.9947  0.5503
  788MPD2    H311623   1.306   2.452   0.129 -0.4691 -1.4317  0.1219
  788MPD2     N11624   1.703   2.571  17.647  0.6925  0.2956  0.0495
  788MPD2    H511625   1.649   2.645  17.603  0.0076  0.4512  1.1577
  788MPD2    N111626   1.671   2.210   0.292  0.1707  0.1244 -0.5271
  788MPD2    H711627   1.605   2.148   0.338  0.8783 -1.0399 -1.1161
  789MPD2     C11628   2.351   1.851  16.420 -0.3452 -0.3178 -0.7213
  789MPD2    C111629   2.280   1.775  16.508 -0.3859  0.1042  0.7019
  789MPD2    C211630   2.151   1.816  16.534  0.2666 -0.1377 -0.0888
  789MPD2    C311631   2.094   1.933  16.498  0.2378  0.4980 -0.7163
  789MPD2    C411632   2.171   2.013  16.414  0.5391  0.7387  0.4648
  789MPD2    C511633   2.297   1.973  16.377 -0.0779  0.6399  0.6927
  789MPD2     H11634   2.099   1.743  16.595  0.0946 -0.4690 -0.6275
  789MPD2    H111635   2.141   2.112  16.382  1.9072  0.8837 -0.3403
  789MPD2    H211636   2.453   1.837  16.384 -0.7050 -2.9682 -0.7028
  789MPD2    H311637   2.353   2.030  16.303  2.4065 -0.7562  1.5063
  789MPD2     N11638   1.969   1.979  16.528  0.4182  0.1908  0.5110
  789MPD2    H511639   1.945   2.070  16.488 -0.2007 -0.0847  0.2565
  789MPD2    N111640   2.322   1.644  16.549 -0.1580 -0.8329  0.5504
  789MPD2    H711641   2.258   1.574  16.586 -0.1552 -1.3857 -0.4877
  790MPD2     C11642   3.486   4.042  13.573 -0.0200  0.3408 -0.0871
  790MPD2    C111643   3.438   3.913  13.596 -0.1183  0.0224 -0.4006
  790MPD2    C211644   3.351   3.861  13.506 -0.4252 -0.2688  0.6048
  790MPD2    C311645   3.322   3.922  13.390  1.0874 -0.1458  0.0088
  790MPD2    C411646   3.378   4.044  13.357 -0.5217 -0.2179 -0.4333
  790MPD2    C511647   3.451   4.108  13.455 -0.2242  0.1059  0.2580
  790MPD2     H11648   3.299   3.767  13.522 -1.4948  0.8349  3.4056
  790MPD2    H111649   3.347   4.101  13.271 -3.3069  0.0942  0.7859
  790MPD2    H211650   3.548   4.090  13.647  0.6759 -0.8175  0.0839
  790MPD2    H311651   3.486   4.206  13.425 -1.5708  0.7422  0.7782
  790MPD2     N11652   3.248   3.843  13.295  0.2510 -0.1324 -0.1465
  790MPD2    H511653   3.239   3.747  13.324 -2.7274  0.6262  1.4343
  790MPD2    N111654   3.469   3.862  13.723  0.3765  1.0691 -0.2495
  790MPD2    H711655   3.529   3.922  13.778  1.1778  0.3740 -0.3780
  791MPD2     C11656   2.685   4.024  12.802 -0.3941 -0.0389 -0.2638
  791MPD2    C111657   2.738   3.897  12.774  0.4431  0.4322 -0.2047
  791MPD2    C211658   2.679   3.827  12.671 -0.2522  0.2865  0.3685
  791MPD2    C311659   2.565   3.872  12.606  0.1031  1.2274 -0.2175
  791MPD2    C411660   2.512   3.993  12.646  0.4222 -0.1003 -0.5980
  791MPD2    C511661   2.580   4.075  12.733  0.7630 -0.1633  0.5120
  791MPD2     H11662   2.716   3.732  12.633 -0.6218 -0.3958  1.7208
  791MPD2    H111663   2.419   4.035  12.607  0.3231 -0.0555 -0.3174
  791MPD2    H211664   2.730   4.082  12.882 -1.9637  1.0231 -0.1569
  791MPD2    H311665   2.538   4.170  12.765  0.5830 -0.2299  0.4741
  791MPD2     N11666   2.513   3.787  12.505 -0.2481  0.0116 -0.0471
  791MPD2    H511667   2.551   3.694  12.503  1.6777  0.7613  1.3923
  791MPD2    N111668   2.852   3.851  12.844  0.0928 -0.2478 -0.0451
  791MPD2    H711669   2.898   3.909  12.914 -0.5810  1.9144 -1.3939
  792MPD2     C11670   3.827   3.466  11.070  0.7340 -0.8000 -0.5150
  792MPD2    C111671   3.759   3.550  10.981  0.0243  0.7500 -0.0107
  792MPD2    C211672   3.636   3.511  10.920  0.7533  0.5152 -0.8804
  792MPD2    C311673   3.597   3.380  10.946 -0.4022  0.2393 -0.0776
  792MPD2    C411674   3.666   3.298  11.036 -0.0894  0.0106  0.4403
  792MPD2    C511675   3.784   3.341  11.096  0.4472  0.0435 -0.4846
  792MPD2     H11676   3.586   3.565  10.841  0.1417 -0.3235 -1.0586
  792MPD2    H111677   3.638   3.195  11.052 -1.8424  0.4038 -0.0998
  792MPD2    H211678   3.916   3.502  11.121  1.8283 -2.5010 -1.2348
  792MPD2    H311679   3.846   3.272  11.152 -1.0044 -0.6113  0.3251
  792MPD2     N11680   3.485   3.336  10.875 -0.3868  0.4311  0.0861
  792MPD2    H511681   3.444   3.402  10.809 -2.6843 -1.8221 -0.7640
  792MPD2    N111682   3.815   3.670  10.951  0.2865  1.2178 -0.1148
  792MPD2    H711683   3.902   3.688  11.000  1.6183 -2.2495 -1.2641
  793MPD2     C11684   3.329   3.409  10.029 -0.2116  0.3706  0.5941
  793MPD2    C111685   3.428   3.338  10.087  0.0367  1.1406 -0.6467
  793MPD2    C211686   3.414   3.325  10.228 -0.0780  0.5894  0.2412
  793MPD2    C311687   3.295   3.353  10.291  0.3838  0.0961  0.5276
  793MPD2    C411688   3.193   3.418  10.228  0.5367 -0.2526 -0.2351
  793MPD2    C511689   3.219   3.451  10.098  0.2124  0.0293 -0.5140
  793MPD2     H11690   3.491   3.275  10.286 -1.5719 -1.0648  0.7782
  793MPD2    H111691   3.116   3.469  10.284  0.7963 -0.7243  0.5540
  793MPD2    H211692   3.338   3.440   9.925 -0.9034 -1.1787  0.0641
  793MPD2    H311693   3.145   3.514  10.049  0.5430  0.5825 -0.2933
  793MPD2     N11694   3.275   3.308  10.422  0.2975  0.0178 -0.1207
  793MPD2    H511695   3.350   3.247  10.454 -0.2609 -0.8953 -0.5437
  793MPD2    N111696   3.540   3.282  10.019 -0.2646  0.7583 -0.3436
  793MPD2    H711697   3.607   3.239  10.082  0.7340  1.4215 -0.9616
  794MPD2     C11698   2.725   3.398  16.850  0.2727  0.6854 -0.6131
  794MPD2    C111699   2.676   3.269  16.860 -0.7974  0.3955  1.0802
  794MPD2    C211700   2.579   3.219  16.777  0.3499 -0.2538  0.3539
  794MPD2    C311701   2.544   3.300  16.674 -0.4425 -0.0811  0.6022
  794MPD2    C411702   2.581   3.430  16.672 -0.1790 -0.0131 -0.8237
  794MPD2    C511703   2.675   3.477  16.755  0.5203  0.0937 -0.4896
  794MPD2     H11704   2.546   3.116  16.777 -0.6894  0.0741 -0.7198
  794MPD2    H111705   2.539   3.494  16.595  1.3023  0.8052 -0.9462
  794MPD2    H211706   2.808   3.432  16.910  0.4620  0.0937 -0.5377
  794MPD2    H311707   2.719   3.574  16.735 -1.7358  1.5093  1.3048
  794MPD2     N11708   2.457   3.261  16.576 -0.1504  0.4021  0.3719
  794MPD2    H511709   2.427   3.337  16.515  1.0654 -0.5206 -1.3769
  794MPD2    N111710   2.716   3.189  16.968 -0.0381 -0.1627 -0.1883
  794MPD2    H711711   2.659   3.108  16.988 -0.1880  0.3959  1.6688
  795MPD2     C11712   0.776   0.681  12.992 -0.5840  0.5089 -0.3199
  795MPD2    C111713   0.731   0.563  13.047 -0.3711 -0.6725  0.3766
  795MPD2    C211714   0.820   0.496  13.124  0.3623  0.3299 -0.0500
  795MPD2    C311715   0.948   0.535  13.140  1.1614  0.3246  0.2581
  795MPD2    C411716   0.995   0.646  13.076 -0.4014 -0.9725  0.4589
  795MPD2    C511717   0.907   0.718  13.000  0.0801 -0.3596 -0.3260
  795MPD2     H11718   0.791   0.406  13.178 -1.0751  0.5968 -0.3745
  795MPD2    H111719   1.096   0.684  13.076 -0.6243 -0.3700  0.8788
  795MPD2    H211720   0.714   0.744  12.929 -0.6317 -0.2252 -1.0085
  795MPD2    H311721   0.930   0.816  12.959  1.8446 -0.2597  0.9103
  795MPD2     N11722   1.034   0.453  13.217 -0.0275 -0.2175 -0.5922
  795MPD2    H511723   1.002   0.360  13.239  0.9685 -0.2100  0.8353
  795MPD2    N111724   0.598   0.515  13.037 -0.2367  0.1301 -0.5498
  795MPD2    H711725   0.565   0.446  13.104  0.9279 -0.2443 -0.3646
  796MPD2     C11726   0.617   2.131  15.352 -0.0437  0.3791  0.1563
  796MPD2    C111727   0.671   2.123  15.478 -0.2885  0.1134 -0.1578
  796MPD2    C211728   0.616   2.209  15.574  0.3197  0.7035 -0.0320
  796MPD2    C311729   0.520   2.309  15.545  0.0854 -0.5189  0.0257
  796MPD2    C411730   0.484   2.324  15.418  0.5315 -0.3490 -0.1263
  796MPD2    C511731   0.529   2.233  15.328 -0.4920  0.2608  0.4651
  796MPD2     H11732   0.637   2.202  15.680  0.9173 -2.6886 -0.3768
  796MPD2    H111733   0.418   2.407  15.395  1.4457 -0.0433 -1.6318
  796MPD2    H211734   0.641   2.071  15.266 -0.9613  2.0837 -1.2864
  796MPD2    H311735   0.488   2.241  15.228  2.7310  0.7478 -0.8180
  796MPD2     N11736   0.463   2.394  15.649  0.1226 -0.3678 -0.4241
  796MPD2    H511737   0.490   2.364  15.743 -0.0932  0.7955  0.0051
  796MPD2    N111738   0.780   2.045  15.512 -0.2166 -0.0294  0.1293
  796MPD2    H711739   0.808   2.029  15.608  0.5149 -2.1214 -0.4358
  797MPD2     C11740   0.973   1.510  16.724  0.2828  0.6953 -0.1728
  797MPD2    C111741   0.912   1.610  16.791  0.2125 -0.3780  0.0019
  797MPD2    C211742   0.850   1.717  16.728 -0.4147 -1.1189 -0.2528
  797MPD2    C311743   0.858   1.715  16.588 -0.6944  0.0806 -0.1297
  797MPD2    C411744   0.916   1.607  16.519  0.1855  0.0881 -0.0134
  797MPD2    C511745   0.964   1.502  16.590 -0.5416 -0.4461  0.3809
  797MPD2     H11746   0.803   1.787  16.796 -0.0967  1.1113 -2.3067
  797MPD2    H111747   0.896   1.591  16.414  0.8616  0.1104 -0.1454
  797MPD2    H211748   1.005   1.428  16.788 -2.2433  0.6861  1.1059
  797MPD2    H311749   1.004   1.419  16.532  0.6948  1.5399 -1.6012
  797MPD2     N11750   0.807   1.830  16.520 -0.2450 -0.4705  0.0938
  797MPD2    H511751   0.829   1.841  16.422  1.1440  2.2304  0.6951
  797MPD2    N111752   0.917   1.623  16.931  0.1008 -0.4330  0.5060
  797MPD2    H711753   0.902   1.718  16.963  2.1122 -0.2036  0.7917
  798MPD2     C11754   0.680   2.328  17.090 -0.3200 -0.4121 -0.1032
  798MPD2    C111755   0.759   2.269  17.002 -0.6361  0.7072  0.6203
  798MPD2    C211756   0.830   2.156  17.043 -0.7508  0.3612 -0.2501
  798MPD2    C311757   0.802   2.103  17.171  0.0612  0.6968 -0.3539
  798MPD2    C411758   0.726   2.170  17.263  0.1005 -0.7611  0.0423
  798MPD2    C511759   0.660   2.283  17.216 -0.1146  0.8004 -0.2023
  798MPD2     H11760   0.885   2.099  16.969 -0.4047  0.0775  0.2256
  798MPD2    H111761   0.722   2.139  17.367  0.2922  1.9036  0.8379
  798MPD2    H211762   0.623   2.417  17.065  1.0757  0.8173  1.0772
  798MPD2    H311763   0.603   2.341  17.287 -0.5994  1.5827 -1.2372
  798MPD2     N11764   0.877   1.984  17.193  0.1051 -0.2483  0.0980
  798MPD2    H511765   0.930   1.959  17.111  1.6342 -0.7676  1.2470
  798MPD2    N111766   0.763   2.310  16.867  0.3557  0.6224  0.6263
  798MPD2    H711767   0.692   2.369  16.825 -2.6592 -1.9260  2.1561
  799MPD2     C11768   0.145   3.288  14.517  0.0123 -0.3471  0.2086
  799MPD2    C111769   0.109   3.190  14.421 -0.4254 -0.1304 -0.1402
  799MPD2    C211770   0.045   3.232  14.302  0.8152  0.1161 -0.1597
  799MPD2    C311771   0.018   3.365  14.279  0.0770 -0.2600  0.2029
  799MPD2    C411772   0.052   3.458  14.373 -0.2030 -0.1594 -0.4904
  799MPD2    C511773   0.117   3.425  14.490  1.3050  0.1669 -0.1804
  799MPD2     H11774   0.016   3.167  14.220 -1.6974  0.6339  0.3210
  799MPD2    H111775   0.035   3.563  14.355 -1.2291  0.0105  1.3756
  799MPD2    H211776   0.195   3.270  14.611 -1.0850  0.9542  1.0421
  799MPD2    H311777   0.146   3.505  14.558 -0.3326 -1.4048  2.3654
  799MPD2     N11778   4.685   3.423  14.162  0.5066  0.3259 -0.8610
  799MPD2    H511779   4.671   3.523  14.167 -2.6546 -0.2668  1.8430
  799MPD2    N111780   0.135   3.054  14.446  0.4013 -0.3995  0.2951
  799MPD2    H711781   0.105   2.991  14.372  3.8698 -0.6411 -0.9134
  800MPD2     C11782   0.687   4.275  14.091 -0.4934 -0.6118 -0.1514
  800MPD2    C111783   0.808   4.306  14.031 -0.7387  0.2428  0.4864
  800MPD2    C211784   0.815   4.308  13.891  0.0846 -0.3976 -0.1284
  800MPD2    C311785   0.710   4.253  13.815 -0.0255 -0.6773  0.1803
  800MPD2    C411786   0.588   4.213  13.879 -0.6364 -0.3072  1.1743
  800MPD2    C511787   0.581   4.229  14.015 -0.3205  0.7530  0.2068
  800MPD2     H11788   0.910   4.321  13.839 -0.1824 -2.5418 -1.1485
  800MPD2    H111789   0.507   4.175  13.818 -0.6925  0.3244  0.8532
  800MPD2    H211790   0.683   4.288  14.199  1.7470  2.8448 -0.4987
  800MPD2    H311791   0.490   4.202  14.067 -0.1713 -0.8541 -0.3798
  800MPD2     N11792   0.732   4.227  13.677  0.2009  0.2595 -0.6943
  800MPD2    H511793   0.826   4.253  13.648 -0.1327  1.8989 -0.3103
  800MPD2    N111794   0.909   4.360  14.114 -0.1620 -0.2034 -0.8422
  800MPD2    H711795   0.882   4.383  14.209  0.4608  1.0126 -0.9482
  801MPD2     C11796   0.958   0.129  14.628  0.2334 -0.4375  0.4108
  801MPD2    C111797   0.901   0.039  14.534 -0.3648  0.4024  0.1763
  801MPD2    C211798   0.760   0.044  14.516 -0.1158 -0.3575  0.1585
  801MPD2    C311799   0.682   0.138  14.583 -0.9267  0.3182  0.0560
  801MPD2    C411800   0.740   0.218  14.678 -0.4988 -1.1280  0.0524
  801MPD2    C511801   0.879   0.217  14.696 -0.0501 -0.2289  0.4411
  801MPD2     H11802   0.715   4.697  14.448 -1.5553 -0.2358  0.9828
  801MPD2    H111803   0.681   0.275  14.748  0.0298  0.0848 -0.4862
  801MPD2    H211804   1.065   0.136  14.641  0.5862  0.1184 -2.7813
  801MPD2    H311805   0.927   0.290  14.760 -0.3794  1.6775 -1.4669
  801MPD2     N11806   0.541   0.151  14.585 -0.3503  0.1647  0.2094
  801MPD2    H511807   0.502   0.216  14.652 -1.0950 -0.5651  0.4925
  801MPD2    N111808   0.979   4.662  14.458  0.2433  1.0841  0.4931
  801MPD2    H711809   0.926   4.603  14.394  2.0003  1.0262 -0.8958
  802MPD2     C11810   0.044   4.382  16.723  0.1218  0.0180  0.1751
  802MPD2    C111811   0.104   4.499  16.724  0.4094 -0.4178 -0.0937
  802MPD2    C211812   0.189   4.536  16.618  0.0879 -0.5447  0.0418
  802MPD2    C311813   0.208   4.454  16.511  0.3120 -0.9945 -0.2017
  802MPD2    C411814   0.148   4.335  16.511 -0.3744 -0.6094  0.6861
  802MPD2    C511815   0.071   4.297  16.619 -0.1716 -0.2126 -0.5906
  802MPD2     H11816   0.239   4.633  16.618  1.8072 -1.4429 -0.4747
  802MPD2    H111817   0.149   4.257  16.435 -0.7189 -0.3662  0.4281
  802MPD2    H211818   4.715   4.353  16.814 -0.4156  0.3929 -0.0178
  802MPD2    H311819   0.022   4.201  16.617 -0.4157 -0.0376 -2.6851
  802MPD2     N11820   0.269   4.507  16.401 -0.3662  0.1127 -0.5723
  802MPD2    H511821   0.307   4.601  16.411  0.9884 -0.1822 -2.7866
  802MPD2    N111822   0.082   4.592  16.833  0.5011 -0.0608 -0.8172
  802MPD2    H711823   0.124   4.685  16.836 -1.1295  0.7287 -2.3690
  803MPD2     C11824   1.604   4.087  11.969  0.3856  0.1693 -0.4388
  803MPD2    C111825   1.614   4.011  12.083  0.5536 -0.6159 -0.0475
  803MPD2    C211826   1.530   3.899  12.095  0.5580  0.3954  0.2987
  803MPD2    C311827   1.466   3.847  11.992  0.6895 -0.9844  0.4515
  803MPD2    C411828   1.475   3.918  11.870 -0.7050 -0.5319 -0.0232
  803MPD2    C511829   1.535   4.037  11.858 -0.0878  0.6544  0.1898
  803MPD2     H11830   1.527   3.846  12.190  1.8968 -0.5401 -0.1866
  803MPD2    H111831   1.422   3.876  11.785 -0.1997 -0.5769 -0.3191
  803MPD2    H211832   1.640   4.189  11.959 -0.0337  0.2033 -1.5106
  803MPD2    H311833   1.526   4.099  11.770  0.5003 -0.6448 -0.7921
  803MPD2     N11834   1.380   3.737  12.000  0.1968  0.4324  0.0700
  803MPD2    H511835   1.374   3.690  11.911 -0.0208  0.6463 -0.0296
  803MPD2    N111836   1.692   4.053  12.195  0.9484  0.6081  0.4051
  803MPD2    H711837   1.697   3.994  12.278  0.7189  0.3052  0.2051
  804MPD2     C11838   0.539   0.257  16.806  0.6920 -0.8425  0.0420
  804MPD2    C111839   0.573   0.203  16.929 -0.4123  0.5810 -0.7090
  804MPD2    C211840   0.643   0.279  17.019 -0.2583 -1.0829 -0.3876
  804MPD2    C311841   0.694   0.405  16.988  0.2843 -0.0635  0.1739
  804MPD2    C411842   0.657   0.458  16.869  0.1831 -0.6181 -0.0376
  804MPD2    C511843   0.574   0.386  16.782  0.4193 -0.7626  0.6362
  804MPD2     H11844   0.651   0.240  17.120  2.4913 -2.2351 -1.0421
  804MPD2    H111845   0.698   0.551  16.833  0.6500  0.1489  2.4762
  804MPD2    H211846   0.486   0.210  16.724  1.3547 -1.4029 -0.0560
  804MPD2    H311847   0.537   0.439  16.695 -0.6319 -1.6601  0.5405
  804MPD2     N11848   0.773   0.479  17.083  0.0029 -0.4884 -0.0706
  804MPD2    H511849   0.785   0.440  17.176 -1.7875  0.2895  0.5077
  804MPD2    N111850   0.547   0.070  16.968  0.5146 -0.0653  0.0375
  804MPD2    H711851   0.578   0.041  17.061  0.5097  0.2989  0.1510
  805MPD2     C11852   0.436   2.962  15.564 -0.4315  0.5078 -0.2268
  805MPD2    C111853   0.347   3.068  15.591  0.1939 -0.0284 -0.6825
  805MPD2    C211854   0.376   3.143  15.700  0.0746  0.4438 -0.3673
  805MPD2    C311855   0.475   3.112  15.782 -0.0807 -0.5903  0.2935
  805MPD2    C411856   0.557   3.007  15.761 -0.1056  0.3658  0.0058
  805MPD2    C511857   0.540   2.936  15.648  0.6191  0.5226  0.7624
  805MPD2     H11858   0.321   3.234  15.721  1.0143  0.3138  2.7287
  805MPD2    H111859   0.643   2.985  15.824  0.0636  0.4275 -0.2050
  805MPD2    H211860   0.429   2.913  15.467 -1.9154 -2.6989  1.4954
  805MPD2    H311861   0.605   2.851  15.629 -1.4889 -1.4861  2.4952
  805MPD2     N11862   0.500   3.192  15.899 -0.0944  0.5666  0.3542
  805MPD2    H511863   0.459   3.284  15.904 -1.9098 -0.1906 -0.7105
  805MPD2    N111864   0.238   3.098  15.510  0.3093 -0.1980  0.0089
  805MPD2    H711865   0.188   3.185  15.524  0.8686 -0.1237  1.5564
  806MPD2     C11866   0.375   2.625   0.547  0.7494  0.5951  0.0025
  806MPD2    C111867   0.263   2.694   0.517 -0.2677 -0.4559 -0.6258
  806MPD2    C211868   0.261   2.792   0.415 -0.1504  0.9384 -0.5204
  806MPD2    C311869   0.375   2.828   0.352  0.6785  0.1108 -0.3429
  806MPD2    C411870   0.494   2.760   0.391  0.3990  0.8633 -1.4633
  806MPD2    C511871   0.496   2.659   0.482 -0.6757  0.6948 -0.8286
  806MPD2     H11872   0.163   2.831   0.390 -1.2812 -1.0021  0.8422
  806MPD2    H111873   0.589   2.777   0.340  0.0068 -0.3009 -2.6035
  806MPD2    H211874   0.380   2.542   0.616 -3.2420 -0.4925 -1.0213
  806MPD2    H311875   0.584   2.596   0.487 -1.1659  0.2985  2.6242
  806MPD2     N11876   0.376   2.918   0.238 -0.5432 -0.8530  0.1485
  806MPD2    H511877   0.293   2.975   0.227  0.2181  0.0560 -0.9506
  806MPD2    N111878   0.142   2.657   0.585 -0.1845 -0.1290 -0.4563
  806MPD2    H711879   0.140   2.567   0.631 -0.7769  0.1511  0.0670
  807MPD2     C11880   4.177   2.739   1.102 -0.2900  0.0437 -0.2688
  807MPD2    C111881   4.266   2.633   1.106  0.0187 -0.3471 -0.6789
  807MPD2    C211882   4.253   2.542   1.207 -0.0076 -0.2447 -0.5358
  807MPD2    C311883   4.175   2.564   1.319 -0.1996  0.7375  0.3873
  807MPD2    C411884   4.090   2.675   1.316 -0.3092  0.0693 -0.5137
  807MPD2    C511885   4.091   2.760   1.206  1.1049  0.0077  0.2629
  807MPD2     H11886   4.317   2.455   1.217 -1.1900 -0.8385  1.8848
  807MPD2    H111887   4.016   2.688   1.394  0.1259  0.7933 -0.2206
  807MPD2    H211888   4.172   2.808   1.019 -0.7750  0.3117 -0.0143
  807MPD2    H311889   4.026   2.847   1.213  0.3135 -0.5565  0.0024
  807MPD2     N11890   4.189   2.475   1.426  0.5391 -0.6595  0.4721
  807MPD2    H511891   4.257   2.400   1.413 -0.2539 -0.7895 -2.9992
  807MPD2    N111892   4.343   2.599   0.991 -0.4860 -0.2856  0.0702
  807MPD2    H711893   4.400   2.516   0.997  0.2436  0.3506  2.0861
  808MPD2     C11894   1.150   3.273   8.996  0.2851  0.3902  0.4014
  808MPD2    C111895   1.140   3.384   9.072  0.5650  0.0588 -0.3010
  808MPD2    C211896   1.210   3.499   9.033 -0.4549  0.2956  0.9531
  808MPD2    C311897   1.289   3.499   8.920  0.4660  0.3863  0.8482
  808MPD2    C411898   1.297   3.386   8.841 -0.5229 -0.4513  0.6015
  808MPD2    C511899   1.236   3.270   8.884  0.5151  0.2177  0.1988
  808MPD2     H11900   1.192   3.585   9.097  0.7770 -0.5590  2.4344
  808MPD2    H111901   1.356   3.374   8.750  0.1421  0.1844  0.9531
  808MPD2    H211902   1.087   3.187   9.017  1.2263 -0.2480  0.6090
  808MPD2    H311903   1.240   3.189   8.812  3.8163  0.3054  0.2791
  808MPD2     N11904   1.374   3.609   8.877 -0.1166 -0.1771 -0.0427
  808MPD2    H511905   1.450   3.599   8.810  0.5620 -0.8696  0.8293
  808MPD2    N111906   1.061   3.393   9.193 -0.1253  0.3215 -0.1579
  808MPD2    H711907   1.060   3.480   9.245  0.4568  0.6087 -0.6283
  809MPD2     C11908   2.340   3.783   8.917  0.3458 -0.1527  0.3854
  809MPD2    C111909   2.253   3.677   8.919  0.0145 -0.2504 -0.5414
  809MPD2    C211910   2.116   3.705   8.925 -0.2090  0.0608  0.2671
  809MPD2    C311911   2.067   3.835   8.923  0.6929  0.2526  0.3216
  809MPD2    C411912   2.155   3.934   8.916 -0.2664  0.1136 -0.0824
  809MPD2    C511913   2.286   3.908   8.920  0.2633 -0.3611  0.3576
  809MPD2     H11914   2.045   3.624   8.939  0.1992 -0.0350  1.7508
  809MPD2    H111915   2.123   4.037   8.928  3.6669  0.9824  2.8824
  809MPD2    H211916   2.449   3.779   8.919  0.3050 -1.6430 -0.4701
  809MPD2    H311917   2.353   3.992   8.936  1.4299 -1.5674  1.8864
  809MPD2     N11918   1.931   3.874   8.925 -0.1569  0.3613 -0.4969
  809MPD2    H511919   1.921   3.974   8.940 -0.7078  0.5388 -2.0114
  809MPD2    N111920   2.293   3.541   8.919 -0.0309  0.1831  0.0889
  809MPD2    H711921   2.229   3.467   8.944  1.0312 -1.0803 -0.9438
  810MPD2     C11922   0.787   3.613  10.387 -0.0840  0.3915  0.0281
  810MPD2    C111923   0.724   3.498  10.431  0.1217 -0.2699 -0.2047
  810MPD2    C211924   0.739   3.463  10.567  0.0410  0.1956  0.0380
  810MPD2    C311925   0.804   3.550  10.658 -0.5778 -0.4521 -0.8810
  810MPD2    C411926   0.857   3.669  10.615 -0.4226 -0.2405 -0.1425
  810MPD2    C511927   0.848   3.705  10.477 -0.4860  0.1760  0.3714
  810MPD2     H11928   0.693   3.370  10.601 -2.5778  1.1050 -0.9904
  810MPD2    H111929   0.902   3.733  10.690  1.1526 -1.9225  0.3475
  810MPD2    H211930   0.773   3.649  10.286 -2.3464  1.7900  0.8308
  810MPD2    H311931   0.896   3.794  10.438 -0.3828  0.6548  1.5659
  810MPD2     N11932   0.813   3.520  10.799 -0.2897  0.0986  0.4855
  810MPD2    H511933   0.855   3.595  10.854  3.6654 -1.7478 -0.0415
  810MPD2    N111934   0.662   3.414  10.337  0.3417  0.5641  0.0017
  810MPD2    H711935   0.688   3.436  10.242  0.9349 -0.0445  0.0270
  811MPD2     C11936   0.319   3.315   9.588  0.4238  0.3514 -0.6236
  811MPD2    C111937   0.363   3.393   9.693  0.0695  0.6005 -0.2273
  811MPD2    C211938   0.374   3.532   9.678 -0.0609  0.2281  0.7823
  811MPD2    C311939   0.339   3.595   9.557  0.4440  0.7567 -0.7101
  811MPD2    C411940   0.291   3.516   9.457 -0.3679  0.5430  0.3151
  811MPD2    C511941   0.291   3.379   9.469  0.0488 -0.3348  0.2944
  811MPD2     H11942   0.410   3.599   9.755 -0.3162  1.7990 -0.4573
  811MPD2    H111943   0.254   3.559   9.364 -0.9304 -2.5645 -0.9129
  811MPD2    H211944   0.301   3.209   9.604 -0.2253  0.4151 -0.9427
  811MPD2    H311945   0.259   3.325   9.380  1.4419 -0.5534 -0.0680
  811MPD2     N11946   0.369   3.734   9.537  0.0196  0.0005 -0.4697
  811MPD2    H511947   0.440   3.774   9.597 -0.7080  2.1848 -1.0767
  811MPD2    N111948   0.394   3.323   9.803  0.5982 -0.3320 -0.0839
  811MPD2    H711949   0.386   3.222   9.802 -0.4293 -0.2344 -1.2671
  812MPD2     C11950   4.231   3.216  12.160 -0.0206 -0.1339  0.8775
  812MPD2    C111951   4.163   3.311  12.236 -0.1094 -0.1214 -0.6078
  812MPD2    C211952   4.099   3.268  12.350 -0.1343  0.7051  0.0147
  812MPD2    C311953   4.106   3.132  12.386 -0.7449 -0.0759  0.1313
  812MPD2    C411954   4.186   3.045  12.313  0.3051  0.3797 -0.5780
  812MPD2    C511955   4.245   3.087  12.203  0.3314  0.8935  0.2881
  812MPD2     H11956   4.035   3.334  12.407 -1.1514  0.2440 -0.5780
  812MPD2    H111957   4.206   2.942  12.341  0.8325  0.2750 -1.3448
  812MPD2    H211958   4.277   3.251  12.068  0.3049  2.0452  1.8468
  812MPD2    H311959   4.303   3.009  12.155  0.6280  1.5264 -0.3689
  812MPD2     N11960   4.035   3.102  12.504 -0.2730  0.3434  0.3080
  812MPD2    H511961   3.994   3.178  12.558 -0.8460 -0.1079  0.5063
  812MPD2    N111962   4.158   3.443  12.182  0.0935 -0.1309  0.1448
  812MPD2    H711963   4.223   3.452  12.104  1.1253  3.4060  1.4185
  813MPD2     C11964   3.297   0.530  12.563  0.0190  0.0561  0.2815
  813MPD2    C111965   3.300   0.665  12.600 -0.2725 -0.0874  0.0145
  813MPD2    C211966   3.221   0.708  12.707  0.2107 -0.2666 -0.0239
  813MPD2    C311967   3.152   0.618  12.780  0.3649 -0.1544  0.3838
  813MPD2    C411968   3.153   0.486  12.745 -0.1434 -0.2779 -0.2716
  813MPD2    C511969   3.224   0.444  12.638 -0.5588  0.1587  0.4110
  813MPD2     H11970   3.201   0.806  12.749  0.6004  0.1657 -0.8680
  813MPD2    H111971   3.105   0.402  12.794 -1.7002 -0.6969 -2.4986
  813MPD2    H211972   3.346   0.498  12.472  1.5907 -0.0790  1.1741
  813MPD2    H311973   3.212   0.343  12.603 -1.2194  0.5757 -0.5634
  813MPD2     N11974   3.085   0.664  12.894 -0.3024 -0.2360 -0.8477
  813MPD2    H511975   3.078   0.764  12.907  4.2094 -0.0958  0.4818
  813MPD2    N111976   3.404   0.738  12.541 -0.9094  0.0880  0.0994
  813MPD2    H711977   3.480   0.689  12.495 -0.9587  0.3047 -0.2129
  814MPD2     C11978   3.493   1.946  12.038  0.2714 -0.3988  0.0565
  814MPD2    C111979   3.558   1.997  11.927 -0.9379  0.3560 -0.0497
  814MPD2    C211980   3.652   2.098  11.948 -0.3830 -0.1214  0.5799
  814MPD2    C311981   3.688   2.126  12.078 -0.4633 -1.0379 -0.3809
  814MPD2    C411982   3.620   2.073  12.184 -1.0851 -0.2468  0.3330
  814MPD2    C511983   3.518   1.983  12.169  0.2131 -0.1408 -0.4524
  814MPD2     H11984   3.697   2.142  11.860 -2.0047 -0.8347 -0.5893
  814MPD2    H111985   3.650   2.107  12.283 -2.8555  3.3432 -0.3793
  814MPD2    H211986   3.415   1.874  12.015 -1.0493  0.3701  2.1418
  814MPD2    H311987   3.462   1.943  12.253  2.7674 -0.0933  1.2916
  814MPD2     N11988   3.779   2.238  12.105 -0.0952 -0.7679 -0.2688
  814MPD2    H511989   3.808   2.244  12.202  0.3289  1.4214 -0.5313
  814MPD2    N111990   3.534   1.957  11.793 -0.6413  0.1378  0.5685
  814MPD2    H711991   3.574   2.021  11.725  2.2409 -1.8204  0.4389
  815MPD2     C11992   4.201   1.017  11.478  0.4660 -0.2522 -0.0136
  815MPD2    C111993   4.228   0.886  11.526  0.4670  0.4203 -0.1502
  815MPD2    C211994   4.150   0.836  11.628  0.0512 -0.0047  0.2481
  815MPD2    C311995   4.062   0.921  11.694  0.1137  0.9082  0.0737
  815MPD2    C411996   4.060   1.055  11.654  0.3037 -0.1852  0.2936
  815MPD2    C511997   4.112   1.095  11.538 -0.4504  0.2165  0.3257
  815MPD2     H11998   4.145   0.730  11.647 -2.1376 -0.1117 -0.8808
  815MPD2    H111999   4.020   1.125  11.727  0.9183  1.1487 -0.6417
  815MPD2    H212000   4.247   1.051  11.385  0.1350  0.9162  0.2482
  815MPD2    H312001   4.112   1.201  11.515  0.1144  0.2132  0.3192
  815MPD2     N12002   3.984   0.862  11.795 -0.1046 -0.2788 -0.0985
  815MPD2    H512003   3.978   0.761  11.790  2.0318 -0.5625  2.6767
  815MPD2    N112004   4.320   0.798  11.455  0.2527  0.0251  0.0724
  815MPD2    H712005   4.373   0.838  11.378 -0.3259  0.5255 -0.0691
  816MPD2     C12006   3.436   4.588  17.137  1.0163  0.1270 -0.4633
  816MPD2    C112007   3.525   4.646  17.047  0.5218 -0.0305 -0.2843
  816MPD2    C212008   3.645   4.586  17.024  0.3765  0.2343 -0.0188
  816MPD2    C312009   3.672   4.462  17.072  0.3281 -0.2893  0.3052
  816MPD2    C412010   3.577   4.399  17.151 -0.5974  0.1389  0.0794
  816MPD2    C512011   3.456   4.464  17.185  0.0986  0.1455 -0.1804
  816MPD2     H12012   3.724   4.633  16.967 -2.0716  3.0837 -1.0785
  816MPD2    H112013   3.592   4.304  17.201 -2.1326 -0.0660  0.1400
  816MPD2    H212014   3.342   4.632  17.168  1.5167  2.1786 -1.8279
  816MPD2    H312015   3.385   4.411  17.248 -1.5694  1.2005 -1.1562
  816MPD2     N12016   3.799   4.408  17.045 -0.4017 -0.2426 -0.3178
  816MPD2    H512017   3.855   4.451  16.972 -0.3931  1.0898  0.4898
  816MPD2    N112018   3.501   0.047  17.005 -0.4601 -0.2185  0.6784
  816MPD2    H712019   3.581   0.087  16.957 -0.5002 -1.3137 -0.3098
  817MPD2     C12020   3.503   0.980   9.668 -1.0486  0.1131  0.2785
  817MPD2    C112021   3.618   1.020   9.607 -0.1494  0.4380  0.3827
  817MPD2    C212022   3.635   1.155   9.580  0.4080  0.1100  0.4241
  817MPD2    C312023   3.538   1.248   9.618 -0.0965  0.4771  0.4653
  817MPD2    C412024   3.439   1.207   9.701 -0.6334 -1.0771  0.0523
  817MPD2    C512025   3.414   1.067   9.723 -0.5985 -0.8945  0.0238
  817MPD2     H12026   3.721   1.188   9.524 -0.8367  0.5910 -1.2121
  817MPD2    H112027   3.362   1.278   9.731 -1.6506 -1.5556 -1.3985
  817MPD2    H212028   3.473   0.877   9.677  0.9773 -0.3235  1.9783
  817MPD2    H312029   3.325   1.027   9.771  0.5673 -0.1904  2.8053
  817MPD2     N12030   3.572   1.385   9.591  0.3666  0.2169 -0.5791
  817MPD2    H512031   3.652   1.400   9.530  1.0608 -1.2492 -0.0247
  817MPD2    N112032   3.721   0.933   9.574 -0.3927 -0.1429 -0.4759
  817MPD2    H712033   3.797   0.964   9.514  1.1765 -0.3149  1.4022
  818MPD2     C12034   2.561   0.685   9.839  0.1726 -0.2834  0.0057
  818MPD2    C112035   2.577   0.615   9.957 -0.3928 -0.1889 -0.1028
  818MPD2    C212036   2.561   0.477   9.958  0.4232  0.0207  0.4593
  818MPD2    C312037   2.520   0.413   9.844 -0.8094 -0.5028 -0.2510
  818MPD2    C412038   2.489   0.488   9.731 -0.1556  0.1943  0.7121
  818MPD2    C512039   2.518   0.623   9.729  0.6204  0.0072 -0.8880
  818MPD2     H12040   2.598   0.414  10.038 -0.2748 -0.3606  0.4791
  818MPD2    H112041   2.459   0.451   9.633 -0.5142  1.0680  0.4872
  818MPD2    H212042   2.573   0.792   9.826 -1.8574 -0.0217  0.2056
  818MPD2    H312043   2.504   0.677   9.637 -0.2774  1.3427  0.0344
  818MPD2     N12044   2.521   0.270   9.837  0.2952  0.5611  0.1940
  818MPD2    H512045   2.486   0.236   9.748  1.0881  0.1305  0.0535
  818MPD2    N112046   2.642   0.673  10.071  0.2209 -0.3784 -0.0907
  818MPD2    H712047   2.645   0.616  10.155 -0.1073  0.4416  0.4710
  819MPD2     C12048   0.767   3.202  15.644 -0.3616  0.5825 -0.7903
  819MPD2    C112049   0.818   3.112  15.550  0.7681 -0.1078  0.2384
  819MPD2    C212050   0.942   3.054  15.577  0.8103 -0.2542  0.0993
  819MPD2    C312051   1.007   3.065  15.697  0.0900  0.3546 -0.4019
  819MPD2    C412052   0.954   3.160  15.788  0.4406  0.1825 -0.4352
  819MPD2    C512053   0.842   3.230  15.755 -0.5159  0.2169 -0.5148
  819MPD2     H12054   0.986   2.976  15.516  0.3856 -1.3780  1.2123
  819MPD2    H112055   1.007   3.177  15.882 -0.5550 -0.4783  0.2454
  819MPD2    H212056   0.680   3.262  15.616 -0.4116  0.1728 -1.4944
  819MPD2    H312057   0.794   3.296  15.827  1.8745  1.5062 -0.1152
  819MPD2     N12058   1.126   2.993  15.717 -0.4793  0.4835 -0.6353
  819MPD2    H512059   1.164   2.946  15.635 -4.2941 -1.1541 -1.4493
  819MPD2    N112060   0.743   3.093  15.429 -0.2112 -0.5095 -0.4318
  819MPD2    H712061   0.661   3.153  15.421  0.4835  0.6857  1.3011
  820MPD2     C12062   0.046   3.560  14.945 -0.7152 -0.7055 -0.5634
  820MPD2    C112063   0.071   3.503  15.069  0.2967 -0.3368  0.2213
  820MPD2    C212064   0.176   3.420  15.081  0.1011  0.4702  0.2149
  820MPD2    C312065   0.264   3.388  14.977 -0.0263 -0.1838 -0.4501
  820MPD2    C412066   0.235   3.443  14.852 -0.1502  0.2035 -0.6779
  820MPD2    C512067   0.126   3.525  14.840 -0.2157  0.0181  0.6234
  820MPD2     H12068   0.193   3.363  15.172  1.1065  0.3172 -0.0635
  820MPD2    H112069   0.292   3.417  14.764 -0.7645  1.9539 -1.5676
  820MPD2    H212070   4.686   3.628  14.928  0.2168  0.6715  0.3360
  820MPD2    H312071   0.101   3.571  14.745 -1.6806 -0.1197  0.9438
  820MPD2     N12072   0.372   3.298  15.002  0.0780  0.4032  0.4379
  820MPD2    H512073   0.419   3.270  14.917 -3.0228 -0.7089 -0.8967
  820MPD2    N112074   4.705   3.532  15.177 -0.0966  0.3428  0.1057
  820MPD2    H712075   4.654   3.619  15.172  0.7674  0.6512 -2.7697
  821MPD2     C12076   0.567   4.425  12.863  0.5537  0.2122  0.2258
  821MPD2    C112077   0.679   4.405  12.939  0.5479  0.5955  0.4363
  821MPD2    C212078   0.791   4.474  12.909 -0.6783 -0.4327  0.2056
  821MPD2    C312079   0.804   4.557  12.800 -0.4675 -0.7113 -0.9218
  821MPD2    C412080   0.694   4.567  12.723 -0.2851  0.4002 -0.7109
  821MPD2    C512081   0.575   4.507  12.752 -0.4681 -0.1290 -0.1187
  821MPD2     H12082   0.875   4.451  12.974 -0.9863 -1.5719  0.2082
  821MPD2    H112083   0.692   4.637  12.640 -0.0048  2.0595  0.6764
  821MPD2    H212084   0.469   4.383  12.883  0.5652  0.0497 -0.0664
  821MPD2    H312085   0.493   4.533  12.686 -0.7461  3.5358  1.7090
  821MPD2     N12086   0.931   4.620  12.771 -0.3297 -0.5082 -0.0051
  821MPD2    H512087   0.948   4.634  12.672 -0.8311 -1.7879 -0.2640
  821MPD2    N112088   0.687   4.319  13.050  0.3784  1.0372 -0.1276
  821MPD2    H712089   0.782   4.303  13.083 -0.0704 -0.9524  0.2008
  822MPD2     C12090   1.347   4.231  15.492 -0.5335 -0.0602 -0.6462
  822MPD2    C112091   1.381   4.197  15.621 -0.5368 -0.5810  0.4653
  822MPD2    C212092   1.321   4.258  15.725 -0.1043  0.3527 -0.5035
  822MPD2    C312093   1.232   4.364  15.707  0.0325 -0.1173 -0.0174
  822MPD2    C412094   1.220   4.411  15.575  0.3156  0.0538 -0.5571
  822MPD2    C512095   1.282   4.346  15.474  0.6526  0.1803 -0.7223
  822MPD2     H12096   1.339   4.204  15.817  1.7222  2.1369  0.1729
  822MPD2    H112097   1.157   4.498  15.563  0.0775 -0.2731 -1.6660
  822MPD2    H212098   1.374   4.181  15.400  1.2602 -1.7891  0.8227
  822MPD2    H312099   1.271   4.394  15.377 -0.9824  1.0154 -0.1311
  822MPD2     N12100   1.172   4.417  15.827  0.0283  0.3044  0.7488
  822MPD2    H512101   1.178   4.360  15.912 -0.6625 -0.0323  0.5659
  822MPD2    N112102   1.474   4.090  15.657 -0.5749 -0.5794  0.1830
  822MPD2    H712103   1.493   4.077  15.756 -1.6200 -2.6183  0.1162
  823MPD2     C12104   0.784   4.559  16.595 -0.0241  0.0699 -0.2423
  823MPD2    C112105   0.816   4.494  16.479 -1.1261  0.0693  0.6240
  823MPD2    C212106   0.820   4.355  16.493  0.5125 -0.1629  0.2750
  823MPD2    C312107   0.803   4.294  16.617  0.1624 -0.3095  0.5916
  823MPD2    C412108   0.782   4.368  16.725 -0.0399  0.5733 -0.1378
  823MPD2    C512109   0.773   4.503  16.717 -0.3284 -0.0072 -0.5575
  823MPD2     H12110   0.850   4.291  16.411  1.3334  1.8143 -0.9442
  823MPD2    H112111   0.770   4.320  16.821  0.9660 -2.4088 -1.5087
  823MPD2    H212112   0.785   4.667  16.598  1.6338  0.0297  1.1731
  823MPD2    H312113   0.748   4.560  16.805 -1.9950 -1.1258 -0.2987
  823MPD2     N12114   0.805   4.157  16.637 -0.0755  0.4392  0.6392
  823MPD2    H512115   0.784   4.126  16.731 -2.7233  1.9710  0.5784
  823MPD2    N112116   0.848   4.562  16.362 -0.1340 -0.0151  0.2910
  823MPD2    H712117   0.868   4.661  16.366  0.9688 -0.2299  0.0682
  824MPD2     C12118   1.634   3.274  15.538  0.5280  0.2513  0.0996
  824MPD2    C112119   1.728   3.371  15.488  0.3327 -0.0580 -0.2656
  824MPD2    C212120   1.854   3.330  15.433 -0.2640 -0.0422  0.2750
  824MPD2    C312121   1.878   3.197  15.417 -0.0484  0.1251  0.0951
  824MPD2    C412122   1.797   3.107  15.480 -0.1007 -0.4640  0.4981
  824MPD2    C512123   1.679   3.143  15.537 -0.5118 -0.1657  0.7184
  824MPD2     H12124   1.930   3.402  15.405 -2.2470  1.7962 -0.4079
  824MPD2    H112125   1.823   3.002  15.488 -1.4939 -0.8881 -0.4620
  824MPD2    H212126   1.545   3.303  15.592 -0.0753  2.4844 -2.1140
  824MPD2    H312127   1.613   3.072  15.584 -0.0318 -0.5283  0.8480
  824MPD2     N12128   2.003   3.166  15.360  0.7683 -0.5418 -0.2640
  824MPD2    H512129   2.052   3.240  15.313  0.7560 -1.4341 -1.6943
  824MPD2    N112130   1.722   3.508  15.524  0.3763  0.0294  0.2057
  824MPD2    H712131   1.809   3.558  15.509 -1.4698  3.2653  0.3683
  825MPD2     C12132   2.844   3.252  15.309 -0.6017 -0.1947 -0.5070
  825MPD2    C112133   2.723   3.297  15.263 -0.8498 -0.1343  0.0770
  825MPD2    C212134   2.716   3.424  15.208  0.0508 -0.8050 -0.2921
  825MPD2    C312135   2.833   3.505  15.205  0.0203  1.3574 -0.2292
  825MPD2    C412136   2.958   3.457  15.250 -0.6121 -0.6282 -0.1529
  825MPD2    C512137   2.960   3.334  15.312 -0.1248  0.9369  0.2760
  825MPD2     H12138   2.627   3.464  15.161 -0.0350 -1.5599 -0.7732
  825MPD2    H112139   3.054   3.507  15.246 -0.0794 -1.5507  1.0422
  825MPD2    H212140   2.839   3.158  15.363  0.3470 -0.6191 -1.1687
  825MPD2    H312141   3.048   3.281  15.346 -0.5851  0.1396  0.2354
  825MPD2     N12142   2.830   3.632  15.140  0.3702 -0.3400  0.3781
  825MPD2    H512143   2.921   3.674  15.121 -0.3486  0.1697 -1.9387
  825MPD2    N112144   2.616   3.205  15.264 -0.9207 -0.3150 -0.2973
  825MPD2    H712145   2.629   3.116  15.310  0.6180  0.1523  0.2027
  826MPD2     C12146   2.333   3.519  13.412  0.1929 -0.0670 -0.4614
  826MPD2    C112147   2.287   3.532  13.280  0.0499 -0.3419 -0.5786
  826MPD2    C212148   2.165   3.596  13.255  0.3633 -0.9307  0.1545
  826MPD2    C312149   2.088   3.645  13.359  0.4716  0.5140  0.5404
  826MPD2    C412150   2.123   3.616  13.490  0.7176 -0.0344  0.0595
  826MPD2    C512151   2.244   3.555  13.514 -0.1967  0.2436  0.5105
  826MPD2     H12152   2.125   3.607  13.155 -1.9397  0.2153  1.2024
  826MPD2    H112153   2.083   3.661  13.580 -1.1911  0.9331 -1.2855
  826MPD2    H212154   2.425   3.470  13.443 -0.8016 -0.8465  1.2746
  826MPD2    H312155   2.273   3.550  13.618 -2.2111  0.0507  1.0576
  826MPD2     N12156   1.974   3.722  13.336 -0.8457 -0.0679  0.0728
  826MPD2    H512157   1.919   3.729  13.422 -1.7968 -2.6579 -0.3411
  826MPD2    N112158   2.369   3.487  13.181 -0.2037  0.3264 -0.7431
  826MPD2    H712159   2.448   3.434  13.218  0.4766  2.1265  0.4052
  827MPD2     C12160   3.217   0.106   9.988 -0.2690 -0.3314 -0.7384
  827MPD2    C112161   3.242   4.707  10.038  0.2935 -0.7915  0.0205
  827MPD2    C212162   3.216   4.587   9.968 -0.2003 -0.5991 -1.1211
  827MPD2    C312163   3.140   4.595   9.854  0.3238 -0.2058 -0.1953
  827MPD2    C412164   3.101   4.720   9.811  0.2579  0.0243  0.1435
  827MPD2    C512165   3.148   0.106   9.872 -0.4364  0.1411 -0.0179
  827MPD2     H12166   3.230   4.486  10.004  0.3999  0.1427  0.7111
  827MPD2    H112167   3.033   0.012   9.728  0.2242 -1.3511 -0.0913
  827MPD2    H212168   3.233   0.200  10.039  0.1241 -1.4530  1.1879
  827MPD2    H312169   3.123   0.204   9.833 -1.8622  0.4509  1.6260
  827MPD2     N12170   3.116   4.480   9.774  0.4089  0.5431  0.6128
  827MPD2    H512171   3.167   4.397   9.803 -0.7534 -0.8987 -1.5586
  827MPD2    N112172   3.300   4.709  10.165 -0.1539  0.3741 -0.9107
  827MPD2    H712173   3.346   0.064  10.208 -0.2861 -0.3717  0.6052
  828MPD2     C12174   1.216   4.472  12.550 -0.0594  0.0729  0.4555
  828MPD2    C112175   1.238   4.535  12.426  0.6577 -0.0902  0.3704
  828MPD2    C212176   1.365   4.560  12.381 -0.2262 -0.3924 -0.0712
  828MPD2    C312177   1.471   4.518  12.456  0.5159  0.1012 -0.5745
  828MPD2    C412178   1.454   4.468  12.581  0.2783 -0.2289 -0.0848
  828MPD2    C512179   1.324   4.443  12.624 -0.9972 -0.3656  0.7815
  828MPD2     H12180   1.381   4.606  12.284  2.8899  1.6789  1.4174
  828MPD2    H112181   1.539   4.438  12.642 -0.5509 -3.0130 -0.3343
  828MPD2    H212182   1.121   4.439  12.592  0.0373 -1.1923 -0.3234
  828MPD2    H312183   1.312   4.389  12.718 -0.8993 -0.2500  0.8613
  828MPD2     N12184   1.609   4.526  12.417 -0.1929  0.0533  0.2839
  828MPD2    H512185   1.678   4.523  12.492  0.8124  1.5977 -0.5887
  828MPD2    N112186   1.129   4.572  12.345  0.0812  0.1263 -0.3208
  828MPD2    H712187   1.137   4.604  12.249 -0.0487  0.8893 -0.0820
  829MPD2     C12188   1.236   0.069  11.578 -0.3809 -0.8904  0.7936
  829MPD2    C112189   1.110   0.028  11.561 -0.3756  0.4018 -0.1996
  829MPD2    C212190   1.040   4.707  11.674 -0.4784  0.4288 -0.3497
  829MPD2    C312191   1.098   4.713  11.805  0.2497  0.8028 -0.0190
  829MPD2    C412192   1.228   0.028  11.809  0.5953  0.4618 -0.0457
  829MPD2    C512193   1.294   0.078  11.698 -0.2431  0.0322 -0.3942
  829MPD2     H12194   0.944   4.658  11.667  0.2827 -1.0065 -0.8049
  829MPD2    H112195   1.271   0.043  11.907  0.8224  1.0968 -0.2452
  829MPD2    H212196   1.299   0.112  11.501 -2.6919 -0.2774 -0.7546
  829MPD2    H312197   1.389   0.129  11.708 -0.5920  0.2770  1.5612
  829MPD2     N12198   1.028   4.679  11.921  0.6749  0.4964 -0.3942
  829MPD2    H512199   1.076   4.685  12.011  1.1974 -0.1529 -0.6278
  829MPD2    N112200   1.067   0.030  11.423  0.4137  0.0264 -0.6057
  829MPD2    H712201   1.137   0.070  11.362  0.5504  1.0989  0.2514
  830MPD2     C12202   1.835   2.543  15.534  0.0992  0.4819 -0.1112
  830MPD2    C112203   1.735   2.628  15.499 -0.1475  0.3168  0.2855
  830MPD2    C212204   1.735   2.692  15.374 -0.2024 -0.4181  0.3528
  830MPD2    C312205   1.841   2.683  15.286  0.3157  0.3781 -0.1889
  830MPD2    C412206   1.940   2.597  15.326  0.0765  0.2663 -0.2650
  830MPD2    C512207   1.939   2.536  15.445  0.3324  0.0748  1.0206
  830MPD2     H12208   1.657   2.763  15.349  0.5653  1.2270  2.6149
  830MPD2    H112209   2.021   2.566  15.260 -0.5642 -0.5352 -0.6803
  830MPD2    H212210   1.838   2.475  15.618  0.6418  2.8310  1.7681
  830MPD2    H312211   2.022   2.471  15.473  1.5609  1.0463 -0.3938
  830MPD2     N12212   1.859   2.767  15.174 -0.1746 -0.2693 -0.0993
  830MPD2    H512213   1.952   2.771  15.134  0.1064  1.9428  0.7375
  830MPD2    N112214   1.637   2.650  15.601 -0.7317  0.1364 -0.5750
  830MPD2    H712215   1.640   2.597  15.687 -1.2966  1.3036  0.1569
  831MPD2     C12216   1.369   4.476  16.220 -0.4011  0.4381  0.7467
  831MPD2    C112217   1.394   4.377  16.121  0.2202  0.1758 -0.0477
  831MPD2    C212218   1.310   4.274  16.105 -0.9191 -0.5736 -0.0208
  831MPD2    C312219   1.197   4.262  16.190 -0.7010 -0.3901 -0.0121
  831MPD2    C412220   1.181   4.358  16.292  0.0735 -0.7030  0.3422
  831MPD2    C512221   1.262   4.461  16.306  0.1681  0.0225 -0.3159
  831MPD2     H12222   1.333   4.204  16.026 -0.7094 -0.4640 -0.0545
  831MPD2    H112223   1.102   4.335  16.363  0.8296 -2.4996  0.5869
  831MPD2    H212224   1.442   4.555  16.230  1.9365 -1.5476 -0.6318
  831MPD2    H312225   1.243   4.531  16.387  0.3341  1.5029 -1.5338
  831MPD2     N12226   1.086   4.180  16.171 -0.0810 -0.1507  0.7009
  831MPD2    H512227   1.016   4.176  16.244  0.3637  1.8137  1.2226
  831MPD2    N112228   1.505   4.398  16.040 -0.5382  0.1293 -0.3290
  831MPD2    H712229   1.548   4.489  16.054 -0.0785 -0.0582 -0.5080
  832MPD2     C12230   4.305   1.157  17.170  0.0259  0.1015 -0.1345
  832MPD2    C112231   4.354   1.205  17.051 -0.0756 -0.2362 -0.4463
  832MPD2    C212232   4.265   1.227  16.947  0.3636  0.9205  0.6200
  832MPD2    C312233   4.131   1.201  16.955  0.6084  0.1307  0.0729
  832MPD2    C412234   4.088   1.155  17.071  0.0125  0.3727 -0.4955
  832MPD2    C512235   4.167   1.140  17.176  0.2543 -1.0632  0.9489
  832MPD2     H12236   4.307   1.248  16.850  1.4847 -0.4551  0.8064
  832MPD2    H112237   3.986   1.119  17.079  0.4793 -0.7563  0.3268
  832MPD2    H212238   4.366   1.132  17.255  0.2268  2.0099  0.2762
  832MPD2    H312239   4.125   1.111  17.271  1.1044  0.1595  1.6949
  832MPD2     N12240   4.042   1.196  16.847  0.6085 -0.1900  0.2066
  832MPD2    H512241   3.945   1.167  16.856  1.0432 -1.9657 -0.7614
  832MPD2    N112242   4.483   1.239  17.043  0.0152  0.2052  0.1367
  832MPD2    H712243   4.549   1.205  17.112  1.1619  0.4436 -0.8422
  833MPD2     C12244   2.280   2.027  12.498 -0.2829 -0.1688  0.1358
  833MPD2    C112245   2.298   2.089  12.374  0.2165 -0.4202  0.3945
  833MPD2    C212246   2.305   2.011  12.260  0.2797  0.0099  0.1915
  833MPD2    C312247   2.284   1.876  12.267 -0.9542  0.0056  0.5823
  833MPD2    C412248   2.271   1.811  12.384 -0.6379  0.7542 -0.1073
  833MPD2    C512249   2.275   1.888  12.501 -0.3421  0.0713  0.0203
  833MPD2     H12250   2.328   2.062  12.166 -1.9327 -1.4613 -1.1514
  833MPD2    H112251   2.267   1.703  12.390 -2.2473  0.6702 -2.6335
  833MPD2    H212252   2.254   2.090  12.582 -1.9418  0.9108 -1.1900
  833MPD2    H312253   2.271   1.843  12.600  0.1219 -0.4241 -0.1926
  833MPD2     N12254   2.292   1.787  12.162 -0.7587  0.0373 -0.0912
  833MPD2    H512255   2.277   1.689  12.186  1.4580 -0.8957 -2.5539
  833MPD2    N112256   2.296   2.231  12.366  0.2282 -0.4903  0.7550
  833MPD2    H712257   2.267   2.279  12.451  0.0819 -0.3464  0.6252
  834MPD2     C12258   1.686   1.370  11.410  0.1947 -0.0493  0.4204
  834MPD2    C112259   1.815   1.342  11.373 -0.2061  0.2427  0.5556
  834MPD2    C212260   1.913   1.393  11.453 -0.0069  0.0148 -0.2266
  834MPD2    C312261   1.889   1.464  11.570 -1.6712  0.3486  0.4302
  834MPD2    C412262   1.758   1.477  11.619 -0.4014  0.0488 -0.6437
  834MPD2    C512263   1.659   1.430  11.537  0.5321 -0.5849 -0.7370
  834MPD2     H12264   2.018   1.389  11.428 -0.7271 -0.7731 -3.0916
  834MPD2    H112265   1.727   1.526  11.711 -0.9222 -2.3187  0.4459
  834MPD2    H212266   1.596   1.331  11.365  0.6542 -1.1971  0.4958
  834MPD2    H312267   1.556   1.430  11.571  0.1414 -3.2858 -1.8471
  834MPD2     N12268   2.002   1.528  11.633 -0.1756 -0.3781 -0.2892
  834MPD2    H512269   2.089   1.537  11.582 -0.3124  1.8144 -0.1483
  834MPD2    N112270   1.840   1.257  11.265 -0.2206 -0.4177 -0.7240
  834MPD2    H712271   1.762   1.204  11.228  0.2941 -1.9882  0.4587
  835MPD2     C12272   1.837   0.565  10.563  0.0597 -0.0221  0.4114
  835MPD2    C112273   1.784   0.448  10.506  0.4896  0.2298  0.2344
  835MPD2    C212274   1.719   0.356  10.590  0.1147  0.2792 -0.3390
  835MPD2    C312275   1.702   0.384  10.721 -0.7426  0.3812 -0.1299
  835MPD2    C412276   1.733   0.504  10.771 -0.0372 -0.3843 -0.0964
  835MPD2    C512277   1.814   0.588  10.694 -0.7727  0.1689  0.3467
  835MPD2     H12278   1.678   0.263  10.554 -2.4937  0.1207  3.0317
  835MPD2    H112279   1.717   0.539  10.872 -0.7565  1.4705 -0.8576
  835MPD2    H212280   1.888   0.651  10.519  0.9379 -0.3114  0.8543
  835MPD2    H312281   1.860   0.672  10.745 -0.0917 -0.2388  0.4166
  835MPD2     N12282   1.634   0.294  10.809 -0.2256 -0.1054  0.1422
  835MPD2    H512283   1.618   0.329  10.903 -0.7079  0.4645 -0.1538
  835MPD2    N112284   1.798   0.411  10.370  0.5183  0.0635  0.0843
  835MPD2    H712285   1.743   0.333  10.336 -0.4421  0.2848  1.1526
  836MPD2     C12286   1.009   0.412  11.062  0.3168  0.0051 -0.2308
  836MPD2    C112287   1.108   0.364  11.146 -0.4943  0.1229  0.0545
  836MPD2    C212288   1.094   0.383  11.281 -0.0741  0.3803 -0.2597
  836MPD2    C312289   0.987   0.448  11.337 -0.5648  0.5495 -1.0989
  836MPD2    C412290   0.886   0.498  11.253 -0.3107 -0.2301 -0.1523
  836MPD2    C512291   0.897   0.475  11.119 -0.0731 -0.1377 -0.1672
  836MPD2     H12292   1.178   0.354  11.344  1.1129  0.4018 -1.8231
  836MPD2    H112293   0.801   0.558  11.283  0.9011  0.4203  1.9910
  836MPD2    H212294   1.018   0.401  10.954  1.2318 -0.4996 -0.1016
  836MPD2    H312295   0.822   0.520  11.056 -1.8818 -1.3857  1.0794
  836MPD2     N12296   0.985   0.474  11.475 -0.4503  0.4904  0.0959
  836MPD2    H512297   0.902   0.519  11.511 -1.7619 -2.3829  0.6392
  836MPD2    N112298   1.215   0.300  11.088 -0.1913  0.4113 -0.2098
  836MPD2    H712299   1.229   0.323  10.990 -1.0578 -2.1689 -0.9131
  837MPD2     C12300   0.706   4.395   9.850 -0.9676  0.2885  0.1343
  837MPD2    C112301   0.593   4.412   9.770 -0.3406 -0.1138 -0.1878
  837MPD2    C212302   0.547   4.541   9.745  0.7476 -0.1407  0.7858
  837MPD2    C312303   0.610   4.660   9.797 -0.6187 -0.1784  0.1775
  837MPD2    C412304   0.713   4.638   9.889 -0.1056  0.5393 -0.0701
  837MPD2    C512305   0.763   4.506   9.905 -0.2984  0.0189  0.3864
  837MPD2     H12306   0.469   4.562   9.672  2.0148 -0.1883 -0.6003
  837MPD2    H112307   0.770   4.723   9.925  1.8341 -0.5702 -0.5079
  837MPD2    H212308   0.743   4.301   9.889  0.5115  1.1656  0.8397
  837MPD2    H312309   0.842   4.484   9.976 -0.1878 -1.7064 -0.2584
  837MPD2     N12310   0.564   0.059   9.750 -0.1863  0.2709  0.1544
  837MPD2    H512311   0.470   0.058   9.712  0.2314  0.0842 -0.8682
  837MPD2    N112312   0.536   4.309   9.696 -0.7019 -0.5765 -0.4361
  837MPD2    H712313   0.453   4.332   9.643  0.0973  0.3483 -1.2781
  838MPD2     C12314   3.118   2.190  10.952 -0.7033 -0.6108 -0.6209
  838MPD2    C112315   3.089   2.287  11.051  0.6584  0.4567  0.1444
  838MPD2    C212316   2.980   2.266  11.136  0.3129  0.1326  0.3395
  838MPD2    C312317   2.903   2.150  11.118 -0.1819  0.5433  0.5192
  838MPD2    C412318   2.948   2.047  11.033 -0.2488  0.0164  0.5450
  838MPD2    C512319   3.049   2.074  10.948  0.3411 -0.2305  0.0049
  838MPD2     H12320   2.950   2.346  11.203  0.7844  1.6736 -1.2769
  838MPD2    H112321   2.901   1.950  11.020 -1.0970  0.3972  0.7759
  838MPD2    H212322   3.205   2.199  10.888  0.1720  0.6224  0.7387
  838MPD2    H312323   3.075   2.001  10.873 -0.9375  0.8381 -1.4728
  838MPD2     N12324   2.800   2.144  11.211  0.5438 -0.2554 -0.3901
  838MPD2    H512325   2.800   2.223  11.274  0.0122  0.4684 -1.3048
  838MPD2    N112326   3.166   2.404  11.070 -0.0970 -0.1657  0.2457
  838MPD2    H712327   3.142   2.478  11.135 -2.3721 -1.7788  1.2521
  839MPD2     C12328   3.160   2.021  11.551 -0.3356  0.6349  0.1149
  839MPD2    C112329   3.164   2.028  11.414  0.0278  0.3802  0.4391
  839MPD2    C212330   3.238   2.132  11.360  0.1121  0.1306  0.7452
  839MPD2    C312331   3.306   2.224  11.433  0.3636 -0.0826  0.2859
  839MPD2    C412332   3.302   2.217  11.570 -0.4233 -0.3785 -0.4152
  839MPD2    C512333   3.230   2.114  11.623  0.5425 -0.3083 -0.3093
  839MPD2     H12334   3.230   2.148  11.253 -1.2808 -2.8696  0.3747
  839MPD2    H112335   3.350   2.284  11.639  0.7275 -0.0738 -1.5197
  839MPD2    H212336   3.108   1.951  11.615  0.0323 -0.4512 -0.7768
  839MPD2    H312337   3.218   2.120  11.730  0.5912 -0.9048 -0.2695
  839MPD2     N12338   3.379   2.316  11.352  0.1771  0.6404 -0.4759
  839MPD2    H512339   3.353   2.311  11.254 -3.0349 -1.1413  0.4695
  839MPD2    N112340   3.109   1.935  11.324 -0.2377 -0.8055  0.8817
  839MPD2    H712341   3.104   1.959  11.226  4.1136 -0.9471  0.6466
  840MPD2     C12342   3.914   0.203  10.200 -0.1136 -0.2677 -0.9286
  840MPD2    C112343   3.846   0.202  10.319 -0.1395  0.0118 -0.2798
  840MPD2    C212344   3.896   0.280  10.424 -0.0295  0.1454  0.0037
  840MPD2    C312345   4.006   0.365  10.399 -0.1217  0.1922 -0.6400
  840MPD2    C412346   4.064   0.376  10.270 -0.3126  0.7902 -0.0792
  840MPD2    C512347   4.023   0.286  10.176 -0.3582  0.9471  0.5130
  840MPD2     H12348   3.837   0.273  10.515 -0.9583  1.0517 -0.5303
  840MPD2    H112349   4.149   0.443  10.262 -1.2359  2.3320  2.7666
  840MPD2    H212350   3.893   0.141  10.113  0.6568 -0.8944 -0.6730
  840MPD2    H312351   4.066   0.278  10.076  0.9138  0.5836  1.0936
  840MPD2     N12352   4.045   0.468  10.488 -0.2054  0.7738  0.5321
  840MPD2    H512353   4.113   0.534  10.452  0.7657 -0.9333 -0.7403
  840MPD2    N112354   3.737   0.112  10.328 -0.2349 -0.5151 -0.5649
  840MPD2    H712355   3.691   0.097  10.239 -1.9337 -1.3511  0.4503
  841MPD2     C12356   2.837   4.647  14.694 -0.4508  0.0497  0.1121
  841MPD2    C112357   2.923   4.616  14.586  0.0136  0.5474  0.0672
  841MPD2    C212358   2.955   4.719  14.495 -0.9457  0.9930 -0.1977
  841MPD2    C312359   2.905   0.126  14.516  1.0498  0.2347 -0.2441
  841MPD2    C412360   2.817   0.155  14.618 -0.0036  0.2906  0.2983
  841MPD2    C512361   2.788   0.052  14.702 -0.2474 -0.0692  0.0796
  841MPD2     H12362   3.005   4.700  14.401 -0.1990 -0.2595  0.4540
  841MPD2    H112363   2.768   0.251  14.629 -0.0589  0.6819 -3.5806
  841MPD2    H212364   2.806   4.574  14.768  0.5798 -1.2546 -0.7534
  841MPD2    H312365   2.717   0.052  14.784 -0.0346 -0.0535  0.2638
  841MPD2     N12366   2.944   0.216  14.418 -0.1007  0.3996 -0.4447
  841MPD2    H512367   2.995   0.172  14.342  0.1283 -1.0448  0.5462
  841MPD2    N112368   2.987   4.495  14.560 -0.3060 -0.0624 -0.2259
  841MPD2    H712369   3.057   4.492  14.487 -1.1548 -0.7857 -1.0151
  842MPD2     C12370   3.634   1.342  16.444  0.9279 -0.1530 -0.1726
  842MPD2    C112371   3.597   1.253  16.533 -0.2232  0.0253 -0.0852
  842MPD2    C212372   3.621   1.273  16.670 -0.2964 -0.0364  0.3941
  842MPD2    C312373   3.695   1.383  16.714  0.1581  0.4160  0.1042
  842MPD2    C412374   3.728   1.482  16.623 -0.3720 -0.1146  0.1238
  842MPD2    C512375   3.697   1.461  16.490  1.4213  0.2096 -0.3472
  842MPD2     H12376   3.562   1.215  16.741 -2.0283  1.3033  0.0376
  842MPD2    H112377   3.782   1.572  16.652  0.4328 -1.3036  2.3639
  842MPD2    H212378   3.613   1.334  16.338  1.7232  0.7964 -0.4109
  842MPD2    H312379   3.726   1.532  16.414 -2.0434  0.8552 -1.0708
  842MPD2     N12380   3.723   1.404  16.850  0.2527  0.1226 -0.6888
  842MPD2    H512381   3.731   1.502  16.874 -0.1380 -0.2956  1.1342
  842MPD2    N112382   3.527   1.145  16.479  0.0819  0.5674  0.2674
  842MPD2    H712383   3.486   1.153  16.387 -1.5036  0.9041  1.0000
  843MPD2     C12384   0.475   1.599  17.654 -0.4211 -0.0039 -0.6285
  843MPD2    C112385   0.549   1.593   0.078  0.1785 -0.1391  0.4133
  843MPD2    C212386   0.665   1.662   0.093 -0.7467  0.4110 -0.3765
  843MPD2    C312387   0.702   1.752  17.690 -0.2855 -1.1963 -0.1678
  843MPD2    C412388   0.618   1.762  17.579 -0.3815  0.2911 -0.3933
  843MPD2    C512389   0.510   1.686  17.561  0.2416  0.5131  0.3204
  843MPD2     H12390   0.725   1.656   0.183  0.4580 -0.2326 -1.2360
  843MPD2    H112391   0.629   1.827  17.493  0.7117  0.6637  0.0234
  843MPD2    H212392   0.390   1.533  17.641 -1.8943  1.8194 -0.1638
  843MPD2    H312393   0.446   1.693  17.474  1.1125 -0.1481 -0.3760
  843MPD2     N12394   0.815   1.830  17.690  0.5691 -0.0784 -0.8034
  843MPD2    H512395   0.827   1.881  17.603 -3.9868 -4.1604 -3.8246
  843MPD2    N112396   0.488   1.525   0.186  0.5294 -0.3607  0.2666
  843MPD2    H712397   0.397   1.482   0.171 -0.4526  2.0940 -0.7301
  844MPD2     C12398   3.942   0.338  16.355  0.0988  0.8659  0.2348
  844MPD2    C112399   4.051   0.266  16.342  1.0418  0.4801 -0.4507
  844MPD2    C212400   4.170   0.322  16.389 -0.0064 -0.2209  0.5018
  844MPD2    C312401   4.171   0.446  16.446  0.5801  0.5967 -0.2206
  844MPD2    C412402   4.052   0.506  16.476 -0.2176 -0.1344  0.0374
  844MPD2    C512403   3.938   0.455  16.428 -0.5419 -0.0940 -0.0199
  844MPD2     H12404   4.263   0.271  16.368  0.3039 -0.4197  2.3090
  844MPD2    H112405   4.047   0.607  16.514  1.9012 -0.4425  1.1634
  844MPD2    H212406   3.848   0.310  16.310  0.2230  0.9730 -0.0910
  844MPD2    H312407   3.839   0.499  16.436 -0.1077  0.9306 -0.3453
  844MPD2     N12408   4.296   0.498  16.482  0.2900 -0.2173  0.1402
  844MPD2    H512409   4.375   0.443  16.450 -1.6060 -2.0380 -1.4530
  844MPD2    N112410   4.056   0.146  16.267  0.3781 -0.2622 -0.0830
  844MPD2    H712411   4.142   0.092  16.270 -0.4723 -1.6156 -0.1883
  845MPD2     C12412   4.588   1.444  16.451 -0.0373 -0.1945  0.5547
  845MPD2    C112413   4.476   1.396  16.518 -0.1484 -0.5185  0.1269
  845MPD2    C212414   4.482   1.270  16.586  0.0606 -0.0044  0.5985
  845MPD2    C312415   4.582   1.183  16.554 -0.0686  0.0673  0.1476
  845MPD2    C412416   4.693   1.232  16.480  0.6994  0.1514 -0.9385
  845MPD2    C512417   4.693   1.362  16.435  0.3527  0.0466  0.4748
  845MPD2     H12418   4.393   1.240  16.642 -0.2360  1.1370  0.7356
  845MPD2    H112419   0.047   1.161  16.453 -0.9266 -1.1949 -2.1186
  845MPD2    H212420   4.591   1.547  16.414 -2.5835 -1.0654 -2.1169
  845MPD2    H312421   0.053   1.402  16.380  0.5366 -1.0480 -0.0277
  845MPD2     N12422   4.565   1.043  16.590 -0.2723 -0.4260  0.3740
  845MPD2    H512423   4.475   1.014  16.625 -0.6188 -1.4737 -1.3902
  845MPD2    N112424   4.363   1.468  16.538 -0.1611 -0.3681  0.0029
  845MPD2    H712425   4.301   1.426  16.606 -0.6994 -2.1840 -1.6036
  846MPD2     C12426   1.591   1.979  13.539 -0.5794 -0.4403 -0.4058
  846MPD2    C112427   1.483   2.053  13.516  0.1021  0.2316 -0.5265
  846MPD2    C212428   1.404   2.085  13.619 -0.6473  0.3941  0.0136
  846MPD2    C312429   1.436   2.051  13.752  0.1012  0.5722 -0.4240
  846MPD2    C412430   1.558   1.987  13.772 -0.0901  0.4468  0.0507
  846MPD2    C512431   1.629   1.947  13.662 -0.0026 -0.6121  0.8828
  846MPD2     H12432   1.319   2.146  13.590 -0.7967  0.3446  0.3465
  846MPD2    H112433   1.599   1.959  13.869 -0.8866 -0.0058  0.2550
  846MPD2    H212434   1.657   1.943  13.460 -2.6932 -2.0657 -1.4394
  846MPD2    H312435   1.728   1.904  13.675  0.0590 -0.7463 -0.0420
  846MPD2     N12436   1.355   2.093  13.868  0.3737 -0.0658 -0.5385
  846MPD2    H512437   1.266   2.135  13.844 -1.3121 -2.7169  1.1077
  846MPD2    N112438   1.460   2.109  13.389 -0.2889 -0.0178  0.3567
  846MPD2    H712439   1.383   2.174  13.383 -0.2963 -0.0087  0.5745
  847MPD2     C12440   1.471   2.857  13.788  0.2551 -0.5334  0.0385
  847MPD2    C112441   1.581   2.937  13.790 -0.0280 -0.1127  0.7437
  847MPD2    C212442   1.686   2.888  13.860  0.2604  0.8632  0.0572
  847MPD2    C312443   1.698   2.765  13.924 -0.0853  0.2656  0.8789
  847MPD2    C412444   1.586   2.686  13.896  1.0108  0.3542 -0.7146
  847MPD2    C512445   1.470   2.725  13.832  0.6183  0.8407 -0.0407
  847MPD2     H12446   1.770   2.953  13.886  0.8891  0.1784 -0.2602
  847MPD2    H112447   1.584   2.585  13.935 -0.2539  1.3186  1.6788
  847MPD2    H212448   1.379   2.899  13.750  0.5302 -4.1657 -4.5743
  847MPD2    H312449   1.387   2.655  13.835  1.3793 -0.0327  0.5230
  847MPD2     N12450   1.806   2.738  14.010  0.3902  0.0142  0.3840
  847MPD2    H512451   1.862   2.820  14.031  0.9739  0.1888 -1.8667
  847MPD2    N112452   1.588   3.076  13.748  0.3965  0.2256  0.2936
  847MPD2    H712453   1.676   3.127  13.749  0.2560  0.4576  0.9645
  848MPD2     C12454   4.195   1.581  16.139  0.4809  0.5442 -0.2376
  848MPD2    C112455   4.080   1.513  16.155  0.3677 -0.0625 -0.5185
  848MPD2    C212456   3.974   1.543  16.063 -0.8665 -0.1820  0.9289
  848MPD2    C312457   3.980   1.643  15.970 -0.4999  0.4627  0.8169
  848MPD2    C412458   4.088   1.725  15.967  0.1378 -0.4359  0.2388
  848MPD2    C512459   4.191   1.688  16.052  0.0604  0.3052  0.3356
  848MPD2     H12460   3.882   1.486  16.067 -2.1192  1.9026  1.2290
  848MPD2    H112461   4.094   1.811  15.901 -2.7695  0.8477  1.6575
  848MPD2    H212462   4.283   1.568  16.202  0.5164  1.1664 -0.1591
  848MPD2    H312463   4.281   1.748  16.050  1.3837 -1.6688  1.0790
  848MPD2     N12464   3.870   1.671  15.892 -0.8229  0.3328  0.4644
  848MPD2    H512465   3.877   1.753  15.833 -1.5516  0.8519  1.1007
  848MPD2    N112466   4.084   1.399  16.244  0.8899 -0.0628 -0.5839
  848MPD2    H712467   4.172   1.378  16.290  0.7257  0.3626 -0.0660
  849MPD2     C12468   3.281   1.119  14.119  0.9166  0.4200  0.2026
  849MPD2    C112469   3.384   1.060  14.059 -0.1079  0.8437  0.1949
  849MPD2    C212470   3.459   0.968  14.123  0.3142 -0.2442  0.8221
  849MPD2    C312471   3.429   0.931  14.252 -0.0679 -0.0188  0.7309
  849MPD2    C412472   3.317   0.985  14.316  1.1558 -0.2497 -0.8722
  849MPD2    C512473   3.247   1.085  14.247  0.5266  0.3454 -0.3825
  849MPD2     H12474   3.542   0.924  14.069 -0.4240  0.6114 -1.0062
  849MPD2    H112475   3.293   0.948  14.415  0.0004 -0.6523 -1.3022
  849MPD2    H212476   3.206   1.173  14.061  2.6211  0.3350 -2.0567
  849MPD2    H312477   3.164   1.133  14.297  0.6317  0.2027 -0.0754
  849MPD2     N12478   3.493   0.825  14.315  0.6155 -0.5133  0.5094
  849MPD2    H512479   3.450   0.785  14.397 -2.9276 -0.9434 -1.5400
  849MPD2    N112480   3.430   1.092  13.934  0.0559  0.2700 -0.3414
  849MPD2    H712481   3.514   1.052  13.894 -0.1029  0.4833 -0.8929
  850MPD2     C12482   1.475   3.773  14.328  0.1405 -0.6970 -0.2682
  850MPD2    C112483   1.416   3.841  14.433  0.1094  0.2117 -0.3926
  850MPD2    C212484   1.500   3.905  14.523  0.2295  0.4451 -0.3565
  850MPD2    C312485   1.643   3.893  14.509 -0.2244  1.1784 -0.5770
  850MPD2    C412486   1.690   3.817  14.410 -0.0436  0.1241 -0.1153
  850MPD2    C512487   1.611   3.752  14.320  0.6052 -0.3091  0.5709
  850MPD2     H12488   1.466   3.966  14.606 -0.5569 -0.1764 -0.2282
  850MPD2    H112489   1.796   3.806  14.395 -0.2217 -2.1816  0.2933
  850MPD2    H212490   1.412   3.723  14.255 -2.3137 -0.2603  1.5673
  850MPD2    H312491   1.663   3.696  14.243 -0.6450 -1.7310  0.7663
  850MPD2     N12492   1.742   3.952  14.590 -0.1571  0.5179 -0.3639
  850MPD2    H512493   1.832   3.910  14.571 -2.3371 -4.2909 -0.2141
  850MPD2    N112494   1.273   3.821  14.446 -0.3621  0.3265  0.0358
  850MPD2    H712495   1.235   3.773  14.365  0.4870  0.2260 -0.2994
  851MPD2     C12496   1.774   3.689  15.104 -0.1769 -0.0509 -0.9023
  851MPD2    C112497   1.692   3.634  15.010 -0.7032  0.0215  0.1003
  851MPD2    C212498   1.712   3.505  14.969 -0.8590  0.5931  0.2488
  851MPD2    C312499   1.818   3.431  15.030 -0.5533  0.7203  0.0704
  851MPD2    C412500   1.910   3.492  15.110  0.3528  0.1082  0.1288
  851MPD2    C512501   1.890   3.624  15.136 -0.4103 -0.3477  0.1164
  851MPD2     H12502   1.650   3.452  14.898  1.6421  2.6768 -3.5511
  851MPD2    H112503   1.988   3.436  15.161  0.7715 -0.4766 -1.1487
  851MPD2    H212504   1.771   3.794  15.132 -0.5960 -0.3997  0.3565
  851MPD2    H312505   1.957   3.681  15.200 -2.0578 -0.9040  2.3485
  851MPD2     N12506   1.841   3.301  14.978  0.1603 -0.0615 -0.1586
  851MPD2    H512507   1.774   3.263  14.912 -0.6236  2.0115 -0.5547
  851MPD2    N112508   1.590   3.713  14.964  0.0007 -0.4723 -0.1493
  851MPD2    H712509   1.584   3.803  15.011 -0.3355 -0.4500 -0.2388
  852MPD2     C12510   1.004   1.547  10.228 -0.3364 -0.1982  0.3686
  852MPD2    C112511   1.026   1.654  10.307 -0.4451 -0.0075 -0.3053
  852MPD2    C212512   1.021   1.789  10.256  0.3438 -0.1484  0.6323
  852MPD2    C312513   0.994   1.808  10.123 -0.4323  0.3214 -0.0836
  852MPD2    C412514   0.948   1.701  10.052 -0.3199  0.6286  0.1419
  852MPD2    C512515   0.956   1.570  10.104  0.4473  0.3730  0.5912
  852MPD2     H12516   1.040   1.874  10.322  2.3639  1.4456 -2.0135
  852MPD2    H112517   0.914   1.702   9.949 -0.2423  0.8102  0.1181
  852MPD2    H212518   1.029   1.444  10.253 -0.7070  0.4147  3.2422
  852MPD2    H312519   0.938   1.488  10.035  0.2163  1.6279 -0.8446
  852MPD2     N12520   1.003   1.937  10.072 -0.1169  0.4091  0.0961
  852MPD2    H512521   1.032   2.004  10.143  1.7928  0.9388 -1.1779
  852MPD2    N112522   1.073   1.648  10.440  0.0480 -0.2991  0.0335
  852MPD2    H712523   1.072   1.737  10.489 -3.5401 -0.5142  0.2858
  853MPD2     C12524   3.590   1.389  12.244  0.3132  0.0133 -0.2487
  853MPD2    C112525   3.474   1.348  12.189  0.4889  0.5132  0.5459
  853MPD2    C212526   3.473   1.287  12.064 -0.7520  0.0828  0.2892
  853MPD2    C312527   3.590   1.258  11.995  0.5314  0.0210  0.3238
  853MPD2    C412528   3.707   1.304  12.055 -0.2808  0.3387 -0.4043
  853MPD2    C512529   3.707   1.367  12.179 -0.0444 -0.3321  0.1487
  853MPD2     H12530   3.375   1.255  12.029 -0.8087  0.1665  0.3717
  853MPD2    H112531   3.803   1.273  12.017 -0.3449  0.7929 -0.9313
  853MPD2    H212532   3.605   1.428  12.344 -2.5123 -0.6812  0.4564
  853MPD2    H312533   3.800   1.395  12.226  0.4480 -1.5839 -0.0689
  853MPD2     N12534   3.596   1.191  11.869 -0.2384 -0.0125  0.2147
  853MPD2    H512535   3.686   1.185  11.822  0.2013 -1.7896  1.2775
  853MPD2    N112536   3.355   1.366  12.264 -0.2047 -0.4720 -0.6387
  853MPD2    H712537   3.370   1.391  12.361  2.3434  0.1261 -1.1815
  854MPD2     C12538   4.317   1.064  12.568 -0.4096 -0.2714  0.5105
  854MPD2    C112539   4.421   1.124  12.505 -0.4859  0.1811  0.1301
  854MPD2    C212540   4.545   1.064  12.510  0.3819 -0.1539 -0.1796
  854MPD2    C312541   4.569   0.957  12.586  0.0376 -0.1817 -0.1452
  854MPD2    C412542   4.466   0.898  12.658 -0.5029  0.0452  0.4472
  854MPD2    C512543   4.337   0.951  12.644 -0.0694 -0.1054  0.7144
  854MPD2     H12544   4.631   1.107  12.460  0.0169  1.7861  0.8922
  854MPD2    H112545   4.482   0.816  12.728  3.5965 -1.9853 -2.8921
  854MPD2    H212546   4.217   1.106  12.569  0.1039  0.9169  1.5001
  854MPD2    H312547   4.264   0.910  12.713  0.4538 -2.8239 -0.3200
  854MPD2     N12548   4.694   0.906  12.612 -0.6780 -0.4662 -0.0917
  854MPD2    H512549   4.708   0.844  12.691 -1.4374  0.0143  0.4156
  854MPD2    N112550   4.400   1.253  12.448 -0.0096 -0.6978  0.2635
  854MPD2    H712551   4.308   1.297  12.447  0.1415 -0.3922 -0.6735
  855MPD2     C12552   0.763   1.129  13.198  0.0542  0.1523  0.1871
  855MPD2    C112553   0.648   1.064  13.223  0.4680 -0.0953  0.2944
  855MPD2    C212554   0.583   1.008  13.111 -0.0656 -0.6001 -0.0314
  855MPD2    C312555   0.630   1.022  12.980 -0.4573  0.4886 -0.4119
  855MPD2    C412556   0.750   1.085  12.960  0.6109 -0.3152  0.2500
  855MPD2    C512557   0.815   1.144  13.071  0.3888 -0.2436 -0.1241
  855MPD2     H12558   0.492   0.951  13.128 -0.4555 -0.2710 -1.0113
  855MPD2    H112559   0.790   1.094  12.860 -1.0664 -1.4221 -0.5152
  855MPD2    H212560   0.812   1.179  13.280 -1.3657  1.5315  0.2058
  855MPD2    H312561   0.907   1.202  13.069 -0.0709  0.4894 -0.2509
  855MPD2     N12562   0.560   0.962  12.873 -0.1846 -0.2024 -0.0750
  855MPD2    H512563   0.597   0.986  12.781  0.5473  2.1815  0.8495
  855MPD2    N112564   0.592   1.045  13.352  0.1479 -0.3410  0.2486
  855MPD2    H712565   0.505   0.992  13.356  0.1868 -0.5449 -1.5503
  856MPD2     C12566   2.492   2.198  13.778 -0.0840 -0.0190 -0.1091
  856MPD2    C112567   2.590   2.276  13.735 -0.1111 -0.2647  0.3537
  856MPD2    C212568   2.542   2.395  13.690  0.3565  0.1130 -0.4053
  856MPD2    C312569   2.411   2.438  13.685  0.3403 -0.0850 -0.4010
  856MPD2    C412570   2.314   2.342  13.713 -0.2335  0.3239 -0.5173
  856MPD2    C512571   2.355   2.226  13.770 -0.0290 -0.0587 -0.1876
  856MPD2     H12572   2.628   2.455  13.660 -1.5935  2.8598 -0.4889
  856MPD2    H112573   2.210   2.372  13.716 -1.4161 -3.8133 -0.0024
  856MPD2    H212574   2.528   2.109  13.828  0.3825 -0.8971 -2.0361
  856MPD2    H312575   2.284   2.148  13.798  1.6360 -1.4069  0.2667
  856MPD2     N12576   2.363   2.568  13.638  0.3155  1.0264 -0.6329
  856MPD2    H512577   2.262   2.576  13.629  0.2104 -0.2326 -0.4985
  856MPD2    N112578   2.733   2.259  13.756  0.5249 -0.1431  0.2209
  856MPD2    H712579   2.805   2.328  13.734 -0.0709 -0.1619 -1.8076
  857MPD2     C12580   3.746   4.079  12.753  0.0190  0.2860  0.2184
  857MPD2    C112581   3.884   4.076  12.773 -0.5584  0.1483 -0.3070
  857MPD2    C212582   3.934   4.188  12.834 -0.1936  0.6294 -0.0083
  857MPD2    C312583   3.845   4.292  12.876 -0.0857  0.0588 -0.4133
  857MPD2    C412584   3.709   4.294  12.843 -0.0577 -0.1705  0.6617
  857MPD2    C512585   3.664   4.183  12.777  0.3552 -0.9203 -0.0371
  857MPD2     H12586   4.040   4.200  12.852 -0.4249 -0.0409  1.8066
  857MPD2    H112587   3.643   4.377  12.864  0.9580  0.0955  2.9132
  857MPD2    H212588   3.697   3.989  12.716 -0.7900  0.2265  1.4457
  857MPD2    H312589   3.562   4.183  12.742  0.9431 -0.8867 -1.7880
  857MPD2     N12590   3.908   4.405  12.927 -0.1152  0.1975  0.5328
  857MPD2    H512591   4.010   4.408  12.931 -0.1073 -2.1777  1.6706
  857MPD2    N112592   3.949   3.958  12.740  0.0834  0.1405  0.1687
  857MPD2    H712593   3.886   3.886  12.707  0.9683 -0.4466 -0.2467
  858MPD2     C12594   4.391   3.043  16.841 -0.1213  0.1954 -0.2869
  858MPD2    C112595   4.526   3.018  16.876  0.0958 -0.0228  1.3855
  858MPD2    C212596   4.556   3.020  17.010 -0.2973  0.1242 -0.6366
  858MPD2    C312597   4.466   3.069  17.100  0.8022 -0.0111 -0.7717
  858MPD2    C412598   4.340   3.096  17.066  0.4479  0.0943  0.2657
  858MPD2    C512599   4.298   3.085  16.937  0.3619  0.5018  0.0927
  858MPD2     H12600   4.653   2.984  17.043 -0.2750  1.4860  0.8131
  858MPD2    H112601   4.265   3.136  17.133  0.3475  1.2074 -0.5023
  858MPD2    H212602   4.354   3.050  16.740 -2.2256  1.5299  0.5638
  858MPD2    H312603   4.200   3.118  16.902 -0.0738  0.6068  1.4233
  858MPD2     N12604   4.496   3.090  17.237 -0.7234  0.7589 -0.2984
  858MPD2    H512605   4.416   3.107  17.298 -0.1775 -0.3760  0.7247
  858MPD2    N112606   4.606   2.989  16.770  0.1876 -0.5185  0.3472
  858MPD2    H712607   4.569   3.020  16.680  1.2934  0.1860  0.1249
  859MPD2     C12608   3.066   0.730  14.801 -0.1715 -0.0634  0.3781
  859MPD2    C112609   3.202   0.716  14.810  0.3620  0.3269  0.1824
  859MPD2    C212610   3.255   0.587  14.832  0.0817  0.3612 -0.3614
  859MPD2    C312611   3.173   0.485  14.868 -1.1012 -0.1479 -0.1950
  859MPD2    C412612   3.036   0.502  14.880  0.2001 -0.3263 -0.4089
  859MPD2    C512613   2.980   0.628  14.847  0.8810  0.3474  0.0305
  859MPD2     H12614   3.362   0.575  14.830 -0.1901 -2.1943 -0.5390
  859MPD2    H112615   2.967   0.426  14.914 -0.8312  0.5438 -0.5856
  859MPD2    H212616   3.017   0.813  14.753  0.1535 -0.0491  0.0722
  859MPD2    H312617   2.873   0.648  14.851  0.5016 -1.3933 -1.6350
  859MPD2     N12618   3.216   0.354  14.905  0.0808 -0.1163  0.4938
  859MPD2    H512619   3.137   0.296  14.930  1.2972 -1.2676  1.6010
  859MPD2    N112620   3.275   0.826  14.763 -0.5585 -0.5391  0.8345
  859MPD2    H712621   3.222   0.909  14.738 -0.5886 -0.4950  1.0446
  860MPD2     C12622   1.288   0.927  11.225 -0.5978 -0.5904  0.9104
  860MPD2    C112623   1.272   0.984  11.354  0.1828  0.0117 -0.0241
  860MPD2    C212624   1.150   0.991  11.410 -0.3996  0.5439 -0.3301
  860MPD2    C312625   1.041   0.932  11.348  0.4116 -0.4856 -0.0382
  860MPD2    C412626   1.054   0.870  11.223  0.0357  0.0149  0.1488
  860MPD2    C512627   1.177   0.873  11.162  0.0656  0.6427 -0.4569
  860MPD2     H12628   1.139   1.042  11.506 -1.3876 -1.7011  0.7482
  860MPD2    H112629   0.972   0.822  11.170 -0.6513  0.5072  0.7571
  860MPD2    H212630   1.382   0.903  11.177 -1.4429 -1.2246 -0.4373
  860MPD2    H312631   1.183   0.817  11.069  1.4855  2.4542 -1.4487
  860MPD2     N12632   0.918   0.942  11.418 -1.0103 -0.1059 -0.1686
  860MPD2    H512633   0.916   1.000  11.502 -2.4291 -1.4441  0.7281
  860MPD2    N112634   1.373   1.033  11.433  0.1013  0.6108  0.3947
  860MPD2    H712635   1.341   1.040  11.529  0.4331  0.8767  0.4833
  861MPD2     C12636   0.203   4.258  10.803  0.5446  0.7504  0.3270
  861MPD2    C112637   0.089   4.285  10.877  0.1759  0.1849 -0.5045
  861MPD2    C212638   4.711   4.341  10.814 -0.5933 -0.2317 -0.8256
  861MPD2    C312639   4.709   4.372  10.679 -0.5622  0.5855  0.8262
  861MPD2    C412640   0.102   4.347  10.606  0.5574  0.7033 -0.0768
  861MPD2    C512641   0.208   4.290  10.672 -0.4896  0.2292 -0.2457
  861MPD2     H12642   4.628   4.370  10.878 -0.8890  0.5833 -1.5676
  861MPD2    H112643   0.117   4.380  10.504  1.8686 -0.5557 -0.2839
  861MPD2    H212644   0.295   4.219  10.845  0.4425 -0.2269 -0.3394
  861MPD2    H312645   0.299   4.268  10.619  1.1313  0.6846  2.3568
  861MPD2     N12646   4.594   4.424  10.609  0.2991  0.0932  0.3675
  861MPD2    H512647   4.605   4.441  10.509  0.9482  0.1476  0.4509
  861MPD2    N112648   0.077   4.262  11.012 -0.0157 -0.1391  0.7287
  861MPD2    H712649   4.713   4.288  11.055  0.1728 -2.2994  2.3910
  862MPD2     C12650   4.304   4.447   9.969  0.4087  1.1790 -0.0659
  862MPD2    C112651   4.412   4.427  10.054 -0.0949 -0.9729 -0.0890
  862MPD2    C212652   4.489   4.312  10.040 -0.2365  0.3965  0.0477
  862MPD2    C312653   4.482   4.231   9.932  0.3823  0.1039 -0.1061
  862MPD2    C412654   4.369   4.248   9.851  0.0782  0.5851  0.1929
  862MPD2    C512655   4.284   4.356   9.863  0.4570 -0.1784  0.4491
  862MPD2     H12656   4.556   4.288  10.122  0.9408  1.5440 -0.5734
  862MPD2    H112657   4.337   4.165   9.789 -3.7430  2.5177 -0.4939
  862MPD2    H212658   4.228   4.522   9.988  2.2735  3.1943 -0.5633
  862MPD2    H312659   4.192   4.358   9.806  1.4372 -1.1387 -1.1716
  862MPD2     N12660   4.549   4.105   9.919  0.0350  0.4110 -0.4399
  862MPD2    H512661   4.513   4.036   9.854 -0.3278  0.8612 -0.7264
  862MPD2    N112662   4.430   4.502  10.170 -0.1394 -0.2061  0.2182
  862MPD2    H712663   4.488   4.457  10.240  2.0609  0.8930 -0.9102
  863MPD2     C12664   2.904   2.243  16.192 -0.2827 -0.5044 -0.6923
  863MPD2    C112665   2.834   2.344  16.252 -0.9619  0.0147 -0.0735
  863MPD2    C212666   2.880   2.379  16.380  0.3005 -0.0183 -0.2171
  863MPD2    C312667   2.988   2.320  16.446 -0.3659 -0.1663  0.4671
  863MPD2    C412668   3.062   2.227  16.374  0.2145  0.3414  0.2972
  863MPD2    C512669   3.018   2.192  16.247  0.3148  0.3016  0.7363
  863MPD2     H12670   2.824   2.455  16.433 -0.6336 -0.2120 -0.9397
  863MPD2    H112671   3.154   2.181  16.410  1.1735  0.7048 -1.6422
  863MPD2    H212672   2.870   2.206  16.095  1.2962 -0.0060 -1.4293
  863MPD2    H312673   3.066   2.111  16.195 -0.7052 -1.0806  1.9352
  863MPD2     N12674   3.032   2.354  16.573 -0.0258  0.5552 -0.5388
  863MPD2    H512675   3.113   2.304  16.608 -0.3850 -0.7386 -1.5380
  863MPD2    N112676   2.705   2.378  16.197  0.0459  0.1657 -0.1830
  863MPD2    H712677   2.670   2.338  16.110 -0.4337  0.0131  0.0759
  864MPD2     C12678   3.387   3.871  17.229 -0.5614  0.0591 -0.0704
  864MPD2    C112679   3.447   3.768  17.156 -0.0464  0.0425  0.1884
  864MPD2    C212680   3.502   3.815  17.041  0.4864 -0.1349  0.3630
  864MPD2    C312681   3.507   3.947  17.002  0.4275 -0.3879  0.2936
  864MPD2    C412682   3.446   4.048  17.080 -0.7391  0.0634  0.0939
  864MPD2    C512683   3.385   4.001  17.193 -0.1703 -0.1454 -0.5718
  864MPD2     H12684   3.543   3.736  16.978 -0.4975 -0.8385  0.6062
  864MPD2    H112685   3.444   4.152  17.049 -3.2841 -0.2532 -0.8111
  864MPD2    H212686   3.344   3.844  17.325 -0.3237 -1.1100 -0.2949
  864MPD2    H312687   3.325   4.065  17.256  0.6002 -1.5465  1.5617
  864MPD2     N12688   3.584   3.987  16.893  0.6370 -0.1464  0.2562
  864MPD2    H512689   3.613   4.084  16.881 -0.7662 -0.1727 -3.3589
  864MPD2    N112690   3.441   3.636  17.203 -1.0232 -0.4331  0.5600
  864MPD2    H712691   3.401   3.629  17.296  1.4082  2.3022  1.7936
  865MPD2     C12692   3.968   3.982  16.088 -0.8487  0.6648  0.4739
  865MPD2    C112693   3.913   3.933  16.207 -0.8828 -0.0952 -0.1380
  865MPD2    C212694   3.865   4.021  16.303  0.1177 -0.1822  0.4184
  865MPD2    C312695   3.885   4.156  16.288 -0.1037 -0.2986 -0.3655
  865MPD2    C412696   3.944   4.204  16.170  0.4528  0.3142 -0.7721
  865MPD2    C512697   3.984   4.118  16.074  0.3640  0.5933  0.0994
  865MPD2     H12698   3.810   3.981  16.388 -1.0071  2.0483  0.7530
  865MPD2    H112699   3.967   4.309  16.160  0.7280  0.4448  1.1163
  865MPD2    H212700   3.998   3.921  16.004 -1.9731 -1.8217  1.9008
  865MPD2    H312701   4.028   4.150  15.980  3.5723 -0.4209  1.2780
  865MPD2     N12702   3.853   4.259  16.389  0.3985 -0.0869  0.0695
  865MPD2    H512703   3.853   4.353  16.352  0.5819  0.2057  0.8153
  865MPD2    N112704   3.924   3.793  16.223  0.1731 -0.4509  0.2220
  865MPD2    H712705   3.932   3.729  16.145  2.0148 -1.9132  1.5939
  866MPD2     C12706   0.632   4.470  11.223  0.0945  0.4279 -0.3954
  866MPD2    C112707   0.630   4.485  11.084 -0.6516 -0.0249 -0.5404
  866MPD2    C212708   0.515   4.554  11.035 -0.4255 -0.6765  0.2125
  866MPD2    C312709   0.414   4.603  11.120  0.4715  0.3914 -0.0316
  866MPD2    C412710   0.418   4.575  11.251 -0.0610  0.7258 -0.2379
  866MPD2    C512711   0.517   4.499  11.301  0.1519 -0.2950  0.2082
  866MPD2     H12712   0.523   4.579  10.930 -0.9182  0.8321  0.5382
  866MPD2    H112713   0.341   4.596  11.324 -1.3781  0.8880 -1.6691
  866MPD2    H212714   0.714   4.417  11.270 -0.3656 -1.3583 -1.6338
  866MPD2    H312715   0.504   4.474  11.406  0.1960  2.1352  0.7783
  866MPD2     N12716   0.306   4.686  11.087 -1.2428  0.3936 -0.0945
  866MPD2    H512717   0.248   4.719  11.164 -1.1577  1.0634 -0.3120
  866MPD2    N112718   0.742   4.445  11.012 -0.0476  0.0636  0.5127
  866MPD2    H712719   0.826   4.418  11.063  0.6265  2.7841  0.8416
  867MPD2     C12720   2.417   3.692  16.014  0.0166 -0.2981  0.1084
  867MPD2    C112721   2.424   3.624  16.137  0.0712  0.1010 -0.6375
  867MPD2    C212722   2.496   3.678  16.246 -0.1072  0.2147  0.4139
  867MPD2    C312723   2.550   3.799  16.230  0.4365  0.3973 -0.0986
  867MPD2    C412724   2.533   3.875  16.115 -0.3511  0.0296  0.5560
  867MPD2    C512725   2.473   3.820  16.007 -0.4121 -0.1669 -0.4729
  867MPD2     H12726   2.529   3.612  16.326 -0.1871 -0.6628 -0.2691
  867MPD2    H112727   2.573   3.975  16.105 -0.6383  0.1449  0.5574
  867MPD2    H212728   2.365   3.650  15.929 -0.9663  1.9201 -0.3739
  867MPD2    H312729   2.486   3.874  15.914 -3.3503  2.6383  0.7030
  867MPD2     N12730   2.623   3.856  16.333 -0.0246  0.3753  0.2376
  867MPD2    H512731   2.681   3.937  16.311  1.2142 -1.6475 -3.8892
  867MPD2    N112732   2.364   3.502  16.144 -0.4819 -0.3099  0.3564
  867MPD2    H712733   2.324   3.463  16.059 -1.0449  1.8639 -0.3904
  868MPD2     C12734   4.340   1.360  12.751 -0.5190 -0.0881 -0.4644
  868MPD2    C112735   4.388   1.483  12.728  0.0321 -0.4048 -0.3521
  868MPD2    C212736   4.305   1.594  12.746 -0.1487 -0.0506 -0.0041
  868MPD2    C312737   4.176   1.575  12.786 -0.3157  0.4432 -0.8804
  868MPD2    C412738   4.126   1.451  12.801 -0.6339  0.3971  0.2203
  868MPD2    C512739   4.204   1.341  12.784 -0.1876  0.8024  0.3786
  868MPD2     H12740   4.347   1.694  12.749  0.7217 -0.4489  1.4426
  868MPD2    H112741   4.022   1.435  12.826 -0.1258 -2.2335  0.6993
  868MPD2    H212742   4.401   1.271  12.750 -3.4126 -2.0687 -1.2558
  868MPD2    H312743   4.167   1.242  12.807 -0.0449  1.0391  1.6360
  868MPD2     N12744   4.098   1.689  12.800  0.5148 -0.0711  0.3901
  868MPD2    H512745   4.151   1.775  12.806  0.2652  0.0902  0.2912
  868MPD2    N112746   4.521   1.482  12.694 -0.6192  0.0867  0.3879
  868MPD2    H712747   4.578   1.399  12.690 -0.4250  0.1259  1.9945
  869MPD2     C12748   0.256   4.495   1.242 -0.4250  0.6889  0.1477
  869MPD2    C112749   0.159   4.583   1.281  0.1754  0.1279  0.3669
  869MPD2    C212750   0.174   4.716   1.248  0.2068  0.3933 -0.1056
  869MPD2    C312751   0.287   0.036   1.183 -0.0812  0.5817 -0.7417
  869MPD2    C412752   0.385   4.672   1.138 -0.5336 -0.3162 -0.2842
  869MPD2    C512753   0.366   4.540   1.171  0.0248 -0.0744  0.1383
  869MPD2     H12754   0.087   0.056   1.259 -0.2035 -0.0759 -0.5966
  869MPD2    H112755   0.470   4.690   1.073  0.0462 -3.2098 -0.3116
  869MPD2    H212756   0.245   4.388   1.248 -0.0517  0.5080 -2.4029
  869MPD2    H312757   0.442   4.466   1.147 -0.1642 -0.2417  0.0595
  869MPD2     N12758   0.302   0.175   1.150 -0.8698  0.6896  0.3494
  869MPD2    H512759   0.389   0.202   1.105 -0.1531  0.2004  1.4309
  869MPD2    N112760   0.045   4.525   1.337  0.1832  0.1789 -0.4959
  869MPD2    H712761   0.059   4.429   1.369  0.2645  0.5115  0.4651
  870MPD2     C12762   3.559   0.319   0.876  0.1885  0.2922  0.1174
  870MPD2    C112763   3.670   0.245   0.909 -0.0323  0.4371  0.2009
  870MPD2    C212764   3.785   0.268   0.834 -0.1744  0.1361  0.3710
  870MPD2    C312765   3.785   0.358   0.730  0.1002 -0.0418  0.6681
  870MPD2    C412766   3.672   0.431   0.694 -0.3432 -0.5975 -0.1161
  870MPD2    C512767   3.558   0.411   0.772 -0.2809  0.2869  0.0364
  870MPD2     H12768   3.868   0.197   0.833 -0.4410 -0.1854  1.0696
  870MPD2    H112769   3.670   0.499   0.610  1.4871  0.8123  0.9580
  870MPD2    H212770   3.460   0.304   0.917  0.4550 -3.0004 -0.4929
  870MPD2    H312771   3.470   0.471   0.753 -0.6874 -0.6373 -1.0031
  870MPD2     N12772   3.904   0.363   0.654  0.4598  0.3702  0.1791
  870MPD2    H512773   3.978   0.298   0.679  0.3705 -0.5102 -1.8412
  870MPD2    N112774   3.663   0.143   1.008 -0.2483  0.4339 -0.0711
  870MPD2    H712775   3.578   0.127   1.061 -0.2549  0.9413  0.0775
  871MPD2     C12776   0.835   3.570  16.106  0.2593  0.5559 -0.5035
  871MPD2    C112777   0.917   3.549  16.215  0.0080 -0.5789  0.6905
  871MPD2    C212778   1.040   3.482  16.202  0.2502 -0.1867  0.1926
  871MPD2    C312779   1.080   3.441  16.080 -0.2037 -0.2468  1.1002
  871MPD2    C412780   1.004   3.470  15.967  1.3315 -0.2070  0.7270
  871MPD2    C512781   0.881   3.531  15.983 -0.0180  0.2245  0.4742
  871MPD2     H12782   1.105   3.473  16.288  0.0233  1.1944  0.5203
  871MPD2    H112783   1.038   3.439  15.869 -1.0848  1.2146 -0.5567
  871MPD2    H212784   0.743   3.623  16.123  0.3716 -0.0443  1.9711
  871MPD2    H312785   0.821   3.543  15.894 -1.6821 -1.6177  1.3571
  871MPD2     N12786   1.207   3.381  16.078  0.4998 -0.1692  0.2099
  871MPD2    H512787   1.248   3.361  16.168 -0.6093  1.2919  1.0223
  871MPD2    N112788   0.870   3.607  16.332 -0.5817  0.7016 -0.0752
  871MPD2    H712789   0.778   3.649  16.339 -0.5357  1.1559 -2.1232
  872MPD2     C12790   2.360   1.389  13.762  0.6512 -0.4039 -0.2335
  872MPD2    C112791   2.325   1.520  13.728  0.3099  0.6532  0.8673
  872MPD2    C212792   2.195   1.565  13.749 -0.6204 -0.1234 -0.2590
  872MPD2    C312793   2.103   1.486  13.825 -0.7582 -0.6366  0.1571
  872MPD2    C412794   2.144   1.360  13.867  1.0901 -0.4922 -0.0161
  872MPD2    C512795   2.266   1.310  13.831 -0.0213  0.2965  0.7211
  872MPD2     H12796   2.180   1.671  13.733  1.5572  0.2615  0.3048
  872MPD2    H112797   2.081   1.310  13.940 -0.3992 -0.4528 -1.2521
  872MPD2    H212798   2.461   1.351  13.749 -0.4394 -3.0376 -0.9530
  872MPD2    H312799   2.290   1.212  13.871  1.6246  1.5019  2.6503
  872MPD2     N12800   1.980   1.530  13.887  0.3569 -0.7583  0.5340
  872MPD2    H512801   1.951   1.489  13.975  0.5328  0.1353  1.0145
  872MPD2    N112802   2.422   1.615  13.673 -0.2506 -0.1366 -0.3395
  872MPD2    H712803   2.386   1.704  13.640 -0.4821  0.7840  2.3400
  873MPD2     C12804   3.509   1.975   0.585 -0.2278 -0.0843 -0.3157
  873MPD2    C112805   3.544   1.863   0.660  0.2735 -0.4012  0.0178
  873MPD2    C212806   3.643   1.778   0.599  0.3981 -0.1202  0.9542
  873MPD2    C312807   3.700   1.804   0.477 -0.5375  0.2841 -0.1977
  873MPD2    C412808   3.649   1.902   0.403  0.2738 -0.0112  0.3427
  873MPD2    C512809   3.560   1.994   0.462 -0.2684  0.4758 -0.5174
  873MPD2     H12810   3.687   1.698   0.658  0.1155  0.8797  2.5442
  873MPD2    H112811   3.697   1.932   0.310  0.0382 -2.6962 -0.6238
  873MPD2    H212812   3.449   2.053   0.631  0.8148  0.5156  0.0514
  873MPD2    H312813   3.528   2.087   0.416  2.0664  1.1336 -0.8308
  873MPD2     N12814   3.814   1.742   0.421  0.1679 -0.2281  0.4030
  873MPD2    H512815   3.857   1.799   0.349 -2.7033 -2.5288 -3.1397
  873MPD2    N112816   3.485   1.846   0.787  0.3828  0.4183  0.3270
  873MPD2    H712817   3.413   1.910   0.819  1.6748  1.8912  0.2681
  874MPD2     C12818   3.155   1.045  15.891 -0.2756  0.3651  0.1176
  874MPD2    C112819   3.221   1.105  15.998 -0.1016  0.4189  0.5476
  874MPD2    C212820   3.290   1.223  15.972  0.4223  0.8015 -0.4996
  874MPD2    C312821   3.287   1.294  15.849  0.3503  0.2480  0.5541
  874MPD2    C412822   3.227   1.226  15.742  0.4505 -0.0043 -0.8336
  874MPD2    C512823   3.158   1.106  15.771 -0.4800 -0.3592 -0.4677
  874MPD2     H12824   3.349   1.267  16.052 -1.1407  0.2846  0.9461
  874MPD2    H112825   3.222   1.270  15.643 -0.0534  2.3802  0.2569
  874MPD2    H212826   3.111   0.947  15.902  1.9163 -0.5238  1.0015
  874MPD2    H312827   3.122   1.044  15.689 -3.7385  1.4137 -0.3980
  874MPD2     N12828   3.334   1.428  15.844  0.3983  0.4389  0.2905
  874MPD2    H512829   3.382   1.468  15.923 -0.6421 -1.6743  1.9825
  874MPD2    N112830   3.238   1.041  16.124  0.4229  0.1134 -0.1026
  874MPD2    H712831   3.274   1.104  16.195  1.3553  0.1290 -0.5982
  875MPD2     C12832   0.305   4.471  14.626 -0.0938  0.4109  0.0731
  875MPD2    C112833   0.182   4.519  14.670  1.1067 -0.4507  0.5776
  875MPD2    C212834   0.168   4.577  14.797 -0.2823 -0.0726  0.3766
  875MPD2    C312835   0.287   4.604  14.870  0.6095 -0.1713  0.0195
  875MPD2    C412836   0.410   4.564  14.819  0.5883  0.0943  0.0217
  875MPD2    C512837   0.421   4.512  14.698  0.0448  0.0841 -0.0546
  875MPD2     H12838   0.077   4.615  14.843 -1.7480 -0.5950 -2.0321
  875MPD2    H112839   0.500   4.590  14.873  0.0422 -2.3633  2.1490
  875MPD2    H212840   0.316   4.417  14.533 -2.8064 -0.9425  0.5487
  875MPD2    H312841   0.519   4.476  14.671  1.4197  1.8397  2.6355
  875MPD2     N12842   0.294   4.675  14.995 -0.2346  0.5587  0.1506
  875MPD2    H512843   0.386   4.686  15.037 -0.2402  0.0089  0.3079
  875MPD2    N112844   0.060   4.494  14.610 -0.0522  0.4106  0.5520
  875MPD2    H712845   4.702   4.509  14.668  0.6966  1.2986  1.3709
  876MPD2     C12846   3.582   1.127  15.637  0.1005  0.8418  0.1114
  876MPD2    C112847   3.661   1.062  15.537 -0.1146 -0.1241 -0.5522
  876MPD2    C212848   3.679   0.926  15.540  0.1277 -0.0464  0.3528
  876MPD2    C312849   3.613   0.851  15.643  0.4014  0.2617  0.2217
  876MPD2    C412850   3.528   0.919  15.732  0.1976 -0.7844 -0.1653
  876MPD2    C512851   3.513   1.050  15.723 -0.2286  0.0582  0.4821
  876MPD2     H12852   3.751   0.879  15.474  0.8613  1.7076 -0.0768
  876MPD2    H112853   3.476   0.871  15.814  0.8407 -0.4927  0.4116
  876MPD2    H212854   3.578   1.236  15.637 -1.5274  0.7721 -0.1073
  876MPD2    H312855   3.466   1.104  15.805 -3.0928 -1.7585  0.0308
  876MPD2     N12856   3.621   0.708  15.646  0.0765  0.0003 -0.5213
  876MPD2    H512857   3.685   0.661  15.582  0.0913  0.7187 -1.0216
  876MPD2    N112858   3.717   1.131  15.430 -0.3192  0.6684 -0.1083
  876MPD2    H712859   3.776   1.085  15.361  0.6945 -0.3904  1.4564
  877MPD2     C12860   3.578   1.658  14.766 -0.7307 -0.6098 -0.1255
  877MPD2    C112861   3.714   1.614  14.784  0.1014  0.1893 -0.1485
  877MPD2    C212862   3.808   1.642  14.686 -0.0835  0.3648 -0.1517
  877MPD2    C312863   3.769   1.715  14.576 -0.3286 -0.3539  0.1718
  877MPD2    C412864   3.644   1.757  14.560 -0.2826  0.3885 -0.1633
  877MPD2    C512865   3.552   1.735  14.653  0.4840  0.4630 -0.1848
  877MPD2     H12866   3.909   1.604  14.694  0.1444  0.8843 -0.5807
  877MPD2    H112867   3.617   1.821  14.477 -1.0969 -2.1436 -1.8322
  877MPD2    H212868   3.496   1.638  14.834 -1.6047 -1.5448 -1.4485
  877MPD2    H312869   3.451   1.774  14.653  0.7562  1.1641 -1.8680
  877MPD2     N12870   3.850   1.745  14.460  0.4481  0.3448 -0.5165
  877MPD2    H512871   3.794   1.775  14.381  0.6855  0.5722 -0.5983
  877MPD2    N112872   3.760   1.540  14.895  0.3304  0.0807  0.0359
  877MPD2    H712873   3.856   1.508  14.889  1.1811  2.4299  0.7314
  878MPD2     C12874   3.445   0.660  13.004  0.0086 -0.1370 -0.5381
  878MPD2    C112875   3.530   0.769  13.002 -0.2512  0.7150  0.4922
  878MPD2    C212876   3.536   0.852  13.118  0.7139  1.0542  0.1687
  878MPD2    C312877   3.447   0.836  13.217 -0.3857 -0.6098  0.5156
  878MPD2    C412878   3.356   0.734  13.221 -0.1487 -0.5369 -0.6927
  878MPD2    C512879   3.364   0.641  13.115  0.4703  0.1848 -0.4293
  878MPD2     H12880   3.589   0.946  13.118  1.5426  0.5829  0.3722
  878MPD2    H112881   3.296   0.713  13.309 -0.0628  0.8836 -0.3062
  878MPD2    H212882   3.433   0.591  12.921  1.8593  0.5237 -1.3458
  878MPD2    H312883   3.292   0.559  13.115  1.9411 -1.1015 -1.2311
  878MPD2     N12884   3.470   0.919  13.328 -0.3753 -0.0926  0.4255
  878MPD2    H512885   3.545   0.986  13.324 -0.1989 -0.1525  2.5129
  878MPD2    N112886   3.608   0.785  12.882 -0.6707  0.9001 -0.2342
  878MPD2    H712887   3.580   0.725  12.805  0.1198 -1.2273  1.1071
  879MPD2     C12888   4.353   2.103  16.578  0.2981  0.6063 -0.0648
  879MPD2    C112889   4.255   2.081  16.681  0.3533 -0.0693 -0.1354
  879MPD2    C212890   4.118   2.108  16.648  0.5046 -0.2920 -0.2190
  879MPD2    C312891   4.081   2.162  16.521  0.5906  0.0959  0.4287
  879MPD2    C412892   4.178   2.167  16.419 -0.1250  0.1424 -0.3713
  879MPD2    C512893   4.307   2.137  16.449  0.5259  0.5688  0.4474
  879MPD2     H12894   4.044   2.089  16.726  0.0028 -0.4562 -0.7321
  879MPD2    H112895   4.156   2.198  16.318 -0.4172 -1.8769 -0.9365
  879MPD2    H212896   4.461   2.108  16.585  0.4458 -0.4410 -1.6048
  879MPD2    H312897   4.375   2.142  16.365 -0.5059  1.5089 -0.3312
  879MPD2     N12898   3.950   2.193  16.490  0.4668  0.5039 -0.4399
  879MPD2    H512899   3.928   2.208  16.393 -1.0303  0.4956 -0.1019
  879MPD2    N112900   4.284   2.038  16.813  0.7230 -0.2857  0.4061
  879MPD2    H712901   4.198   2.024  16.864  1.1143 -0.0660  1.1282
  880MPD2     C12902   0.078   3.631   0.350  0.1531  0.2674 -0.5962
  880MPD2    C112903   4.702   3.727   0.380 -0.3528  0.2554  0.1593
  880MPD2    C212904   4.592   3.689   0.460  0.1734 -0.5606  0.3578
  880MPD2    C312905   4.574   3.554   0.502  0.9090 -0.7122  0.0669
  880MPD2    C412906   4.677   3.467   0.472  1.0114 -1.1302  0.1326
  880MPD2    C512907   0.063   3.505   0.396  0.3284 -0.0974  0.4974
  880MPD2     H12908   4.528   3.766   0.501  0.3493 -2.2570  3.7935
  880MPD2    H112909   4.670   3.363   0.501 -0.5432 -0.9991  0.2226
  880MPD2    H212910   0.167   3.661   0.296  0.5379 -1.7007 -1.0761
  880MPD2    H312911   0.141   3.438   0.364  0.6903  1.7505 -2.5425
  880MPD2     N12912   4.458   3.516   0.574 -0.0502 -0.1192 -0.4147
  880MPD2    H512913   4.392   3.591   0.593  0.3522 -0.1756  1.2167
  880MPD2    N112914   4.714   3.855   0.325  0.7668  0.3637  0.4601
  880MPD2    H712915   0.061   3.874   0.255  1.5358 -0.2517  1.0715
  881MPD2     C12916   0.421   4.663  17.521  0.3611  1.0131  0.4907
  881MPD2    C112917   0.406   4.532  17.473  0.4130 -0.0345 -0.0220
  881MPD2    C212918   0.354   4.435  17.557 -0.1460 -0.2940  0.1080
  881MPD2    C312919   0.327   4.466  17.686  0.1629  0.0092 -0.5589
  881MPD2    C412920   0.360   4.589   0.041  0.1432  0.1295  0.3000
  881MPD2    C512921   0.406   4.687  17.655  0.2693  0.4193  0.9362
  881MPD2     H12922   0.317   4.344  17.510 -1.8321  0.2078  0.4926
  881MPD2    H112923   0.335   4.613   0.144 -0.2397  0.4671  0.1288
  881MPD2    H212924   0.446   0.029  17.466 -1.4319  0.2351 -1.6236
  881MPD2    H312925   0.414   0.064  17.693 -1.5933  1.2198 -0.8285
  881MPD2     N12926   0.235   4.395   0.059  0.5903 -0.6123  0.1745
  881MPD2    H512927   0.210   4.444   0.144  0.1234 -1.5470  0.5817
  881MPD2    N112928   0.407   4.526  17.332 -0.5818  0.1995 -0.1032
  881MPD2    H712929   0.397   4.611  17.277 -1.7031 -1.2845 -2.1956
  882MPD2     C12930   3.670   1.574  13.731 -0.1676 -0.6231  0.3277
  882MPD2    C112931   3.663   1.569  13.866  0.4433 -0.8716  0.8499
  882MPD2    C212932   3.546   1.568  13.935  0.7565 -0.2504  0.1311
  882MPD2    C312933   3.433   1.536  13.863 -0.0298  0.4569 -0.4882
  882MPD2    C412934   3.434   1.542  13.727 -0.2650 -0.5218  0.2079
  882MPD2    C512935   3.552   1.573  13.663 -0.1694 -0.5622 -0.0396
  882MPD2     H12936   3.563   1.578  14.041 -1.5765  0.1491  0.4490
  882MPD2    H112937   3.348   1.527  13.663 -0.3315 -2.8949  0.8544
  882MPD2    H212938   3.763   1.596  13.680 -1.1001  0.9782 -0.7136
  882MPD2    H312939   3.560   1.578  13.555  0.6672  1.0090  0.0964
  882MPD2     N12940   3.305   1.509  13.918  0.2101 -0.3559 -0.0087
  882MPD2    H512941   3.228   1.505  13.851 -1.2847  1.3426  1.5958
  882MPD2    N112942   3.788   1.589  13.936 -0.2682 -0.0413 -0.0669
  882MPD2    H712943   3.875   1.579  13.886  1.1441 -0.2173  2.4353
  883MPD2     C12944   0.797   1.217  15.813 -0.0350  0.3333  0.1196
  883MPD2    C112945   0.874   1.171  15.704 -0.1627  0.1905  0.1437
  883MPD2    C212946   1.009   1.149  15.714  0.1296  0.1532 -0.3636
  883MPD2    C312947   1.077   1.163  15.828 -0.0769 -0.2455  0.6412
  883MPD2    C412948   1.006   1.221  15.940  0.3216 -0.0716 -0.1855
  883MPD2    C512949   0.870   1.234  15.929 -0.0015  0.1238 -0.3720
  883MPD2     H12950   1.061   1.106  15.630 -0.6483 -0.7625 -0.3838
  883MPD2    H112951   1.042   1.252  16.038 -1.5726 -2.3030  1.2257
  883MPD2    H212952   0.690   1.237  15.811  0.0592  0.8063 -0.6935
  883MPD2    H312953   0.815   1.273  16.014  1.3143  1.2047 -0.0095
  883MPD2     N12954   1.215   1.161  15.826  0.6388  0.5353 -0.3521
  883MPD2    H512955   1.262   1.156  15.736  1.6541  0.0926  0.2117
  883MPD2    N112956   0.817   1.151  15.578 -0.1613  0.0793  0.2185
  883MPD2    H712957   0.881   1.107  15.513  1.2973  0.2666  1.5376
  884MPD2     C12958   2.667   1.978  14.814  0.6569 -0.0625 -0.8409
  884MPD2    C112959   2.670   2.102  14.749 -0.7101 -0.1159 -0.1300
  884MPD2    C212960   2.559   2.188  14.763  0.3092  0.3683 -0.0427
  884MPD2    C312961   2.456   2.164  14.845 -0.3969 -0.8603 -0.1355
  884MPD2    C412962   2.461   2.046  14.915  0.5511  0.7684 -0.5320
  884MPD2    C512963   2.554   1.951  14.889 -0.2306 -0.0545 -0.0358
  884MPD2     H12964   2.559   2.281  14.707  1.7667  0.0596 -0.5477
  884MPD2    H112965   2.386   2.012  14.985  0.1203 -0.8270 -1.7647
  884MPD2    H212966   2.754   1.914  14.815  0.1838 -0.6729  0.7819
  884MPD2    H312967   2.553   1.852  14.932  1.3159 -0.2667 -0.4760
  884MPD2     N12968   2.361   2.262  14.863  0.0408  0.1356 -0.2676
  884MPD2    H512969   2.364   2.349  14.811 -1.3514 -0.4883 -1.3792
  884MPD2    N112970   2.774   2.142  14.661  0.5460  0.8098 -1.2110
  884MPD2    H712971   2.781   2.242  14.644 -1.2874  1.0069 -0.8089
  885MPD2     C12972   0.538   2.440   0.222  0.6548 -0.3116  0.0200
  885MPD2    C112973   0.628   2.348   0.188  0.5446 -0.0283 -0.1979
  885MPD2    C212974   0.710   2.361   0.073  0.3696 -0.1556 -0.1761
  885MPD2    C312975   0.683   2.464  17.678  0.5806  0.6420 -0.3004
  885MPD2    C412976   0.590   2.561   0.017 -0.2326 -0.2546 -0.2064
  885MPD2    C512977   0.522   2.553   0.136 -0.0553  0.4663  0.1645
  885MPD2     H12978   0.782   2.284   0.045 -0.4242 -1.5790  1.6819
  885MPD2    H112979   0.567   2.645  17.651 -0.3654  0.7224  1.1292
  885MPD2    H212980   0.484   2.444   0.315 -0.7323 -1.3127 -0.7491
  885MPD2    H312981   0.461   2.638   0.163  0.5152  0.6314  0.9443
  885MPD2     N12982   0.743   2.461  17.545  0.0113 -0.0757  0.0316
  885MPD2    H512983   0.814   2.391  17.523  1.3191  1.5246 -0.8225
  885MPD2    N112984   0.634   2.235   0.278 -0.1467 -0.3476 -0.3795
  885MPD2    H712985   0.567   2.226   0.355 -1.0391 -2.6515 -1.4214
  886MPD2     C12986   2.185   0.939  15.010  0.7448 -0.4063  0.9128
  886MPD2    C112987   2.315   0.910  14.982  0.2213  0.7125 -0.4355
  886MPD2    C212988   2.382   0.955  14.868  0.1571 -0.1297 -0.0430
  886MPD2    C312989   2.305   1.021  14.769 -0.4640  0.4266  0.3546
  886MPD2    C412990   2.173   1.041  14.789  0.1062 -0.1331 -0.2839
  886MPD2    C512991   2.119   0.995  14.906  0.0064 -0.5840  0.0333
  886MPD2     H12992   2.487   0.938  14.847  0.0247  0.4445 -1.1920
  886MPD2    H112993   2.107   1.099  14.726 -0.5247 -1.7528 -1.1373
  886MPD2    H212994   2.130   0.907  15.098  1.5836 -2.1820  0.7932
  886MPD2    H312995   2.011   1.005  14.919 -0.0261 -0.1513 -0.5428
  886MPD2     N12996   2.370   1.076  14.656 -0.2580 -0.3466 -0.5154
  886MPD2    H512997   2.469   1.056  14.658 -1.0143 -3.9961 -0.0264
  886MPD2    N112998   2.398   0.837  15.070  0.2287 -0.0375  0.1332
  886MPD2    H712999   2.485   0.807  15.028 -1.4390 -0.4079 -3.0022
  887MPD2     C13000   3.107   0.736  15.141 -0.3464  0.2410 -0.8893
  887MPD2    C113001   3.000   0.822  15.151  0.5244  0.0675  0.2836
  887MPD2    C213002   3.029   0.959  15.109  0.1844  0.8572 -0.0863
  887MPD2    C313003   3.157   1.003  15.083 -0.1436  0.2835 -0.2723
  887MPD2    C413004   3.259   0.913  15.080  0.1097  0.9539  0.4214
  887MPD2    C513005   3.234   0.781  15.112 -0.3512 -0.6690  0.2054
  887MPD2     H13006   2.949   1.032  15.102 -2.0660 -1.6665 -0.6789
  887MPD2    H113007   3.359   0.951  15.065  0.4546 -0.1234 -0.0356
  887MPD2    H213008   3.092   0.630  15.159  0.1605  0.2384 -0.5002
  887MPD2    H313009   3.317   0.712  15.102 -0.8442 -1.2682  0.2104
  887MPD2     N13010   3.173   1.148  15.050  0.5528  0.2756  0.3873
  887MPD2    H513011   3.093   1.209  15.060  1.4984  1.3296  1.4129
  887MPD2    N113012   2.866   0.779  15.194 -0.6960 -0.5106  0.0340
  887MPD2    H713013   2.795   0.850  15.202  1.1156  1.5376 -2.2194
  888MPD2     C13014   0.184   1.142  14.760 -0.5740 -0.0536 -0.3253
  888MPD2    C113015   0.188   1.208  14.884 -0.3308 -0.6211 -0.4137
  888MPD2    C213016   0.259   1.323  14.894  0.1485 -0.0567  0.1126
  888MPD2    C313017   0.316   1.382  14.785  0.2301  0.0502 -0.4387
  888MPD2    C413018   0.304   1.313  14.665  0.3981  0.2411 -0.1265
  888MPD2    C513019   0.251   1.188  14.656  0.1081 -0.9724 -0.1010
  888MPD2     H13020   0.255   1.378  14.987  1.5164 -2.4734  1.6233
  888MPD2    H113021   0.344   1.354  14.573 -1.9339 -0.9155 -1.6370
  888MPD2    H213022   0.148   1.040  14.751 -1.3769  0.1382  0.6904
  888MPD2    H313023   0.256   1.141  14.558 -0.4620  0.0778 -0.6398
  888MPD2     N13024   0.363   1.512  14.808  0.2204  0.3298 -0.3719
  888MPD2    H513025   0.367   1.557  14.899  0.8646 -1.1011  0.2988
  888MPD2    N113026   0.128   1.151  15.005  0.8798  0.2518 -0.2164
  888MPD2    H713027   0.155   1.197  15.092 -0.8593  1.0856 -0.1185
  889MPD2     C13028   3.900   0.552  13.075 -0.4972 -0.5044 -0.0210
  889MPD2    C113029   4.021   0.495  13.028  0.4354 -0.2051 -0.0910
  889MPD2    C213030   4.140   0.567  13.023 -0.1116 -0.0662 -0.0912
  889MPD2    C313031   4.136   0.703  13.038 -0.0932 -0.2018 -0.4177
  889MPD2    C413032   4.016   0.764  13.063 -0.1870 -0.4455 -1.0433
  889MPD2    C513033   3.899   0.693  13.072 -0.0317 -0.4719 -0.6153
  889MPD2     H13034   4.231   0.513  13.000  0.9247  0.4397  2.7581
  889MPD2    H113035   4.018   0.872  13.070 -0.2338 -0.5522  0.7003
  889MPD2    H213036   3.804   0.501  13.084 -1.5114  1.6472  1.3153
  889MPD2    H313037   3.811   0.755  13.088  0.9890  1.1569 -1.3502
  889MPD2     N13038   4.256   0.772  13.027 -0.2092  0.4337 -0.2285
  889MPD2    H513039   4.340   0.716  13.022  0.4493  1.1390  2.8156
  889MPD2    N113040   4.032   0.351  13.028  0.0512 -0.2831  0.1423
  889MPD2    H713041   4.124   0.310  13.012  0.2175 -1.1790  3.3709
  890MPD2     C13042   4.055   2.196  14.353  0.4181  0.4944 -0.5351
  890MPD2    C113043   4.136   2.286  14.430  0.1545 -0.3528  0.1734
  890MPD2    C213044   4.143   2.251  14.558  0.1447 -0.6204 -0.1974
  890MPD2    C313045   4.070   2.149  14.618  0.1567 -0.9263  0.6180
  890MPD2    C413046   3.987   2.070  14.536  0.1280  0.8823 -0.0179
  890MPD2    C513047   3.979   2.095  14.402  0.7517  0.0345 -0.3637
  890MPD2     H13048   4.199   2.319  14.621  2.4812 -1.8151 -0.9854
  890MPD2    H113049   3.933   1.987  14.579 -1.4064  0.9720 -1.8113
  890MPD2    H213050   4.043   2.217  14.247 -0.3435  1.4389 -0.2654
  890MPD2    H313051   3.921   2.030  14.338 -0.2987  0.3787  0.2493
  890MPD2     N13052   4.088   2.128  14.759  0.1533 -0.2524  0.0173
  890MPD2    H513053   4.159   2.186  14.802  1.3047 -1.3700 -0.3738
  890MPD2    N113054   4.198   2.393  14.364  0.3258  0.0232  0.0321
  890MPD2    H713055   4.161   2.412  14.271  1.3816 -0.1478 -0.4164
  891MPD2     C13056   1.274   0.371  16.644  0.6890  0.1845 -0.4006
  891MPD2    C113057   1.325   0.481  16.578  0.1850 -1.1314  1.0471
  891MPD2    C213058   1.455   0.519  16.606  0.4053  0.1523  0.4293
  891MPD2    C313059   1.536   0.456  16.700  0.2087 -0.0055  0.1598
  891MPD2    C413060   1.481   0.347  16.761  0.5280  0.2537 -0.2272
  891MPD2    C513061   1.362   0.308  16.729 -0.2159 -0.2485  0.4037
  891MPD2     H13062   1.504   0.595  16.546  0.4897 -0.1077  0.1674
  891MPD2    H113063   1.536   0.282  16.828  1.9421  0.8118 -0.8362
  891MPD2    H213064   1.173   0.335  16.630 -0.1825  1.7515  1.8258
  891MPD2    H313065   1.334   0.211  16.768 -2.6348  0.1320 -0.3424
  891MPD2     N13066   1.663   0.504  16.740 -0.7003  0.0446 -0.5568
  891MPD2    H513067   1.686   0.593  16.696 -2.9866  0.3453 -1.1564
  891MPD2    N113068   1.248   0.549  16.488  0.1583  0.1551 -0.5048
  891MPD2    H713069   1.163   0.499  16.462 -0.5524 -0.2131  2.5921
  892MPD2     C13070   2.846   2.117  14.244 -0.7883 -0.4546 -0.9358
  892MPD2    C113071   2.752   2.020  14.223  0.0095  0.3319  0.3632
  892MPD2    C213072   2.784   1.887  14.222  0.8015 -0.1438 -0.0511
  892MPD2    C313073   2.919   1.853  14.232 -0.5099 -0.2248  0.5186
  892MPD2    C413074   3.018   1.948  14.243 -0.1014  0.3953  0.2657
  892MPD2    C513075   2.985   2.076  14.251 -0.0502  0.0189  0.1887
  892MPD2     H13076   2.709   1.809  14.213  0.0767  0.6530 -0.7882
  892MPD2    H113077   3.124   1.926  14.244 -0.3797 -1.0148 -1.1194
  892MPD2    H213078   2.820   2.221  14.256 -1.0857 -0.5944 -0.3892
  892MPD2    H313079   3.062   2.151  14.265 -0.4573  0.1437  1.7474
  892MPD2     N13080   2.972   1.721  14.228  0.2261  0.5241  0.1232
  892MPD2    H513081   3.070   1.696  14.237 -0.0040 -0.6202 -0.5089
  892MPD2    N113082   2.616   2.043  14.203  0.0854  0.1302 -0.3805
  892MPD2    H713083   2.549   1.967  14.203 -0.1183  0.2996  0.7966
  893MPD2     C13084   3.318   0.639   1.148  0.0746 -0.8394 -0.2590
  893MPD2    C113085   3.424   0.632   1.239 -0.2090  1.4565 -0.3911
  893MPD2    C213086   3.384   0.629   1.369 -0.5752 -0.0781 -0.0070
  893MPD2    C313087   3.266   0.673   1.408 -0.3318  0.3810  0.6157
  893MPD2    C413088   3.171   0.700   1.319 -0.4099 -0.3766  0.3293
  893MPD2    C513089   3.192   0.673   1.190 -0.1858  0.2097  0.1457
  893MPD2     H13090   3.459   0.620   1.447  1.6590  1.0632 -2.0316
  893MPD2    H113091   3.073   0.729   1.356 -0.6816  1.4142 -1.8058
  893MPD2    H213092   3.329   0.620   1.041 -1.2699 -1.3298 -0.3087
  893MPD2    H313093   3.114   0.671   1.114 -0.0833 -0.1851  0.0507
  893MPD2     N13094   3.224   0.667   1.541  0.3086  0.2196 -0.6819
  893MPD2    H513095   3.128   0.698   1.550  0.1605 -0.0621 -1.3083
  893MPD2    N113096   3.556   0.596   1.211  0.2736  0.0945 -0.3864
  893MPD2    H713097   3.609   0.561   1.290  2.2105  0.7330 -1.4199
  894MPD2     C13098   1.833   2.028   0.781  0.0684 -0.1370 -0.0570
  894MPD2    C113099   1.768   2.145   0.738 -0.5730 -0.1364 -0.0282
  894MPD2    C213100   1.838   2.236   0.656  0.5683 -0.0431 -0.2117
  894MPD2    C313101   1.973   2.218   0.633  0.2206  0.4618 -0.3957
  894MPD2    C413102   2.036   2.101   0.673  0.0981 -0.6909 -0.1780
  894MPD2    C513103   1.963   2.007   0.739  0.0376  0.0311  0.8752
  894MPD2     H13104   1.785   2.328   0.633  1.1990  0.4305  0.1949
  894MPD2    H113105   2.140   2.084   0.646  0.3270 -0.4939  0.5771
  894MPD2    H213106   1.785   1.950   0.839  0.0764  0.8185  1.2214
  894MPD2    H313107   2.023   1.928   0.782 -0.9691  1.1120  4.2648
  894MPD2     N13108   2.033   2.324   0.559  0.2309  0.6377  0.0562
  894MPD2    H513109   1.977   2.407   0.540 -0.0532  0.4417  0.0307
  894MPD2    N113110   1.623   2.168   0.761 -0.5332 -0.0341 -0.1634
  894MPD2    H713111   1.593   2.252   0.712  0.0697  1.3124  1.7774
  895MPD2     C13112   1.674   1.373  13.966 -0.3301 -0.0571 -0.0026
  895MPD2    C113113   1.684   1.300  13.847  0.2990  0.4563 -0.4551
  895MPD2    C213114   1.763   1.185  13.853 -0.6315 -0.7645 -0.1436
  895MPD2    C313115   1.828   1.148  13.970 -0.5821 -0.0181 -0.0570
  895MPD2    C413116   1.811   1.225  14.082  0.0292 -0.0368  0.3068
  895MPD2    C513117   1.741   1.340  14.079 -0.0629 -1.0236  0.1532
  895MPD2     H13118   1.754   1.112  13.774 -1.9878 -0.4080 -0.3066
  895MPD2    H113119   1.853   1.191  14.176  0.5262 -3.2206 -1.0564
  895MPD2    H213120   1.604   1.456  13.972  0.0207  0.2370  0.0031
  895MPD2    H313121   1.733   1.409  14.162 -0.2168 -0.7907 -0.0526
  895MPD2     N13122   1.901   1.023  13.981  0.0062  0.2737 -1.0626
  895MPD2    H513123   1.939   0.995  14.071  0.0071  0.6523 -0.9489
  895MPD2    N113124   1.629   1.338  13.724 -0.6860  0.1017 -0.6247
  895MPD2    H713125   1.645   1.286  13.639 -1.6750 -0.8608 -0.2170
  896MPD2     C13126   3.135   3.529   1.128  0.1412  0.0644 -0.5546
  896MPD2    C113127   3.140   3.556   0.991  0.2300 -0.2455 -0.5315
  896MPD2    C213128   3.044   3.500   0.901 -0.6761  0.1203  0.7754
  896MPD2    C313129   2.936   3.428   0.951 -0.3348  0.1203 -0.2215
  896MPD2    C413130   2.937   3.400   1.093  1.1705  0.8516 -0.9331
  896MPD2    C513131   3.026   3.455   1.181  0.2791 -0.3797 -0.8423
  896MPD2     H13132   3.052   3.519   0.795 -2.2548  2.5646  1.0927
  896MPD2    H113133   2.852   3.356   1.144  1.4490  1.3291 -0.0454
  896MPD2    H213134   3.215   3.565   1.190 -1.8458  3.3034  0.1041
  896MPD2    H313135   3.007   3.441   1.286  1.5924 -0.8894 -0.6717
  896MPD2     N13136   2.830   3.387   0.863  0.1666  0.2815  0.0250
  896MPD2    H513137   2.848   3.412   0.766 -0.1711  1.0309  0.1599
  896MPD2    N113138   3.237   3.647   0.952 -0.2075 -0.7003  0.4752
  896MPD2    H713139   3.276   3.711   1.021  3.8474 -1.0608 -1.5513
  897MPD2     C13140   0.542   0.154  10.170 -0.3837 -0.3140  0.3346
  897MPD2    C113141   0.589   0.240  10.268  0.3276  0.2628  0.4126
  897MPD2    C213142   0.493   0.303  10.342 -0.4023 -0.3549  0.5378
  897MPD2    C313143   0.358   0.284  10.310 -0.0289 -0.0858 -0.0692
  897MPD2    C413144   0.312   0.204  10.210  0.2412 -0.4605 -0.7373
  897MPD2    C513145   0.410   0.135  10.143  0.1980  0.0196  0.3800
  897MPD2     H13146   0.521   0.370  10.423  0.0017  1.1747 -0.8698
  897MPD2    H113147   0.207   0.185  10.195 -0.1728  0.5448  0.8414
  897MPD2    H213148   0.618   0.114  10.104 -1.8413 -0.0150 -1.5346
  897MPD2    H313149   0.377   0.061  10.070  0.2430 -0.2287  0.6080
  897MPD2     N13150   0.270   0.357  10.395 -0.4080 -0.0863  0.1131
  897MPD2    H513151   0.312   0.404  10.475 -2.0405 -1.5084  1.8082
  897MPD2    N113152   0.726   0.254  10.287 -0.6651  0.6273 -0.3480
  897MPD2    H713153   0.783   0.197  10.225 -1.7490 -1.2632  0.4017
  898MPD2     C13154   1.980   1.605  17.570  0.3571 -0.2301  0.8586
  898MPD2    C113155   2.101   1.609  17.507 -0.9476 -0.8287  0.6993
  898MPD2    C213156   2.113   1.700  17.399  0.1241  0.1458 -0.3138
  898MPD2    C313157   2.000   1.764  17.353 -0.0168 -0.6107  0.0033
  898MPD2    C413158   1.881   1.755  17.410 -0.0017  1.3171 -0.4166
  898MPD2    C513159   1.876   1.685  17.528 -0.6411 -0.1813 -0.1158
  898MPD2     H13160   2.207   1.727  17.353  1.2648 -1.5558  1.0132
  898MPD2    H113161   1.796   1.819  17.388  0.3348  1.5810 -0.9468
  898MPD2    H213162   1.959   1.545  17.658 -0.6254 -0.5319  0.4117
  898MPD2    H313163   1.785   1.695  17.585 -0.1214  3.1795  0.1015
  898MPD2     N13164   2.020   1.841  17.236 -0.4025  0.2113 -0.0500
  898MPD2    H513165   2.116   1.863  17.212 -0.2041  0.7235  1.1941
  898MPD2    N113166   2.215   1.544  17.565  0.1644 -0.7760  0.5682
  898MPD2    H713167   2.287   1.542  17.494 -0.5643 -0.9005 -0.1786
  899MPD2     C13168   2.635   2.335  17.227 -0.6599 -0.2235  0.0737
  899MPD2    C113169   2.768   2.322  17.250 -0.0270  0.2750 -0.3366
  899MPD2    C213170   2.810   2.289  17.384  0.0195 -0.0916  0.4845
  899MPD2    C313171   2.716   2.277  17.480 -0.7160 -0.2774 -0.9522
  899MPD2    C413172   2.586   2.300  17.457  0.3899 -0.3710 -0.2377
  899MPD2    C513173   2.547   2.333  17.332 -0.8937 -0.2570 -0.5495
  899MPD2     H13174   2.915   2.277  17.408 -0.0651 -1.2793  0.3077
  899MPD2    H113175   2.519   2.298  17.542 -0.6401 -0.9178 -1.0678
  899MPD2    H213176   2.592   2.367  17.134 -1.3071  0.8975  0.7643
  899MPD2    H313177   2.440   2.348  17.320 -0.7949 -0.3688 -1.6019
  899MPD2     N13178   2.741   2.249  17.622 -0.4472  0.3566  0.6575
  899MPD2    H513179   2.655   2.248  17.676 -0.2385 -0.0447  0.9844
  899MPD2    N113180   2.846   2.330  17.134 -0.2090 -0.6910  0.1887
  899MPD2    H713181   2.795   2.350  17.048 -0.3561  1.0094  0.6631
  900MPD2     C13182   3.275   3.668  12.656 -0.1786  1.0461 -0.6255
  900MPD2    C113183   3.166   3.601  12.601  0.6287 -0.3772  0.3284
  900MPD2    C213184   3.052   3.677  12.562  0.8884  0.1997 -0.0728
  900MPD2    C313185   3.057   3.816  12.558 -0.0958  0.2040 -0.0626
  900MPD2    C413186   3.163   3.879  12.617  0.2600  0.6719  0.0956
  900MPD2    C513187   3.266   3.807  12.668  0.2700 -0.1867 -0.0148
  900MPD2     H13188   2.962   3.630  12.524  0.6105  1.8040 -1.3930
  900MPD2    H113189   3.173   3.986  12.631  0.3600  0.5352  1.0751
  900MPD2    H213190   3.363   3.622  12.700 -0.6421 -0.6639 -1.4882
  900MPD2    H313191   3.348   3.860  12.715 -1.1648 -0.2133  2.5137
  900MPD2     N13192   2.954   3.889  12.490 -0.2431  0.1391 -0.3657
  900MPD2    H513193   2.880   3.837  12.445 -0.0545  0.0858 -0.6141
  900MPD2    N113194   3.171   3.466  12.594 -0.0048  0.2302  0.0757
  900MPD2    H713195   3.264   3.428  12.606  0.0101  0.8568  1.9287
  901MPD2     C13196   2.846   2.439  12.326 -0.2570  0.5012 -0.2145
  901MPD2    C113197   2.973   2.431  12.377  0.0884 -0.7008 -0.1625
  901MPD2    C213198   3.035   2.559  12.416 -0.3936  0.3264  0.5491
  901MPD2    C313199   2.963   2.679  12.410 -0.4239 -0.6185  0.0422
  901MPD2    C413200   2.830   2.665  12.376 -0.2031  0.1881 -0.4518
  901MPD2    C513201   2.774   2.551  12.338  0.1044 -0.6237 -1.1210
  901MPD2     H13202   3.134   2.548  12.459  0.6579 -1.3597 -2.3792
  901MPD2    H113203   2.762   2.749  12.381 -0.7621 -0.4710  2.8454
  901MPD2    H213204   2.788   2.354  12.293  1.5847 -0.5926 -0.6105
  901MPD2    H313205   2.669   2.560  12.314  0.1624 -1.3626 -1.6333
  901MPD2     N13206   3.032   2.799  12.434  0.8737  0.3567 -0.2725
  901MPD2    H513207   3.124   2.798  12.477 -0.1047  3.4130  1.9792
  901MPD2    N113208   3.047   2.309  12.367 -0.8993 -0.6781  0.4439
  901MPD2    H713209   2.998   2.233  12.321 -0.9967  0.4598 -1.3240
  902MPD2     C13210   1.998   1.578  12.915 -0.2596  0.0300 -0.3581
  902MPD2    C113211   1.996   1.566  12.776  0.3671  0.3878  0.7310
  902MPD2    C213212   2.032   1.439  12.708  1.0585  0.5394 -0.6119
  902MPD2    C313213   2.077   1.330  12.788 -0.2434 -0.2407  0.4962
  902MPD2    C413214   2.079   1.346  12.926 -0.0249  0.3117 -0.0975
  902MPD2    C513215   2.040   1.463  12.983 -0.3194 -0.5846 -0.2275
  902MPD2     H13216   2.032   1.433  12.600 -0.0866 -0.3675 -0.5699
  902MPD2    H113217   2.125   1.272  12.991 -2.0663 -1.1864 -0.3658
  902MPD2    H213218   1.955   1.669  12.957  1.5625  1.6670 -2.0376
  902MPD2    H313219   2.046   1.480  13.090 -0.3395 -0.0560 -0.3094
  902MPD2     N13220   2.090   1.198  12.739 -0.0383 -0.0440  0.1515
  902MPD2    H513221   2.084   1.119  12.802 -0.6818  0.9082  1.2788
  902MPD2    N113222   1.970   1.687  12.712 -0.6387 -0.7570 -0.2679
  902MPD2    H713223   1.941   1.760  12.776  0.2324 -1.4879  0.9776
  903MPD2     C13224   2.320   0.947  11.965  0.3393 -0.6649 -0.1067
  903MPD2    C113225   2.204   0.932  12.043  0.0042 -0.0237  0.2938
  903MPD2    C213226   2.076   0.947  11.987  0.3149  0.8762 -0.2310
  903MPD2    C313227   2.061   0.962  11.851  0.4555  0.4861  0.4034
  903MPD2    C413228   2.178   0.963  11.773  0.4995 -0.4333  0.4056
  903MPD2    C513229   2.304   0.966  11.829  0.3422  0.2519  0.7749
  903MPD2     H13230   1.985   0.959  12.045  0.5682  2.8606 -0.2423
  903MPD2    H113231   2.179   0.977  11.666  1.5855  0.2701  0.5061
  903MPD2    H213232   2.417   0.937  12.012  0.7077 -1.3023 -1.0016
  903MPD2    H313233   2.393   0.968  11.766  1.5345  1.0475  2.4684
  903MPD2     N13234   1.934   0.979  11.798 -0.0417  0.1798 -0.4304
  903MPD2    H513235   1.855   0.978  11.861 -0.5134 -0.4340 -1.0325
  903MPD2    N113236   2.211   0.915  12.180  0.0592  0.2340  0.4917
  903MPD2    H713237   2.300   0.930  12.225  1.2202 -1.1326 -1.3784
  904MPD2     C13238   2.077   0.083  13.734 -0.5418  0.1459 -0.5605
  904MPD2    C113239   2.030   0.163  13.832 -0.0523  0.3234  0.4859
  904MPD2    C213240   2.122   0.217  13.918  0.8662  0.0023  0.0452
  904MPD2    C313241   2.258   0.199  13.896 -0.7990  0.1510 -0.4904
  904MPD2    C413242   2.303   0.124  13.788  0.3288 -0.1621 -0.2807
  904MPD2    C513243   2.214   0.064  13.705  0.0825 -0.1735 -0.5355
  904MPD2     H13244   2.097   0.275  14.006  3.5331  0.9070  0.2021
  904MPD2    H113245   2.407   0.111  13.763 -0.3006 -1.2112 -2.3208
  904MPD2    H213246   2.013   0.033  13.663  1.1226 -1.4324 -0.9478
  904MPD2    H313247   2.235   4.720  13.623  1.7590 -2.5925  1.9081
  904MPD2     N13248   2.347   0.260  13.989 -0.3602 -0.7525  0.0691
  904MPD2    H513249   2.302   0.311  14.065 -0.8088  1.1400 -1.4673
  904MPD2    N113250   1.895   0.174  13.858 -0.9218  0.2373 -0.1096
  904MPD2    H713251   1.881   0.215  13.950  0.0186  0.2896  0.0117
  905MPD2     C13252   1.211   0.565  13.780  0.3493 -0.1216 -0.0525
  905MPD2    C113253   1.303   0.462  13.792 -0.3963 -0.6769 -0.2289
  905MPD2    C213254   1.439   0.486  13.831  0.6632  0.7571  0.0705
  905MPD2    C313255   1.473   0.611  13.889 -0.0368  0.5234 -0.3800
  905MPD2    C413256   1.377   0.710  13.896 -0.4834 -0.8527 -0.0972
  905MPD2    C513257   1.250   0.687  13.839 -0.0676 -0.7170 -0.3802
  905MPD2     H13258   1.515   0.413  13.808  1.9245  2.0324  0.1554
  905MPD2    H113259   1.394   0.806  13.942  1.2194 -0.1635 -2.1432
  905MPD2    H213260   1.112   0.551  13.738 -0.6218  0.2054  2.1727
  905MPD2    H313261   1.186   0.774  13.829  2.1181  0.8841 -0.4385
  905MPD2     N13262   1.605   0.642  13.939 -0.0567  0.0138 -0.4467
  905MPD2    H513263   1.614   0.733  13.981 -1.1071  0.8070 -1.9277
  905MPD2    N113264   1.255   0.332  13.762 -0.1646 -0.1571 -0.2785
  905MPD2    H713265   1.158   0.326  13.733 -0.4407 -1.8646  0.9609
  906MPD2     C13266   4.055   0.582  11.319 -0.3781  0.1867  0.3968
  906MPD2    C113267   4.101   0.500  11.217  0.4591 -0.0300 -0.3045
  906MPD2    C213268   4.114   0.364  11.246 -0.3341 -0.3219 -0.5686
  906MPD2    C313269   4.084   0.314  11.371 -0.8860 -0.2043  0.0434
  906MPD2    C413270   4.046   0.398  11.473 -0.5410 -0.2976  0.0676
  906MPD2    C513271   4.034   0.529  11.443  0.0887  0.8118 -0.1629
  906MPD2     H13272   4.161   0.291  11.180 -0.7896  0.7754 -2.1061
  906MPD2    H113273   4.025   0.363  11.574  2.0831 -0.4416  0.5569
  906MPD2    H213274   4.028   0.684  11.296 -0.0979  0.3277  0.7056
  906MPD2    H313275   3.998   0.598  11.518  1.6256  1.5756 -0.1202
  906MPD2     N13276   4.094   0.176  11.396 -0.1441  0.2273 -0.2485
  906MPD2    H513277   4.050   0.148  11.483  2.6280 -1.3782  0.6338
  906MPD2    N113278   4.110   0.535  11.087  0.7674 -0.3790  0.2332
  906MPD2    H713279   4.139   0.457  11.028  0.7169 -2.0899  2.4741
  907MPD2     C13280   2.975   4.301  15.379 -0.2723  0.5923  0.2012
  907MPD2    C113281   2.945   4.168  15.385 -0.5220 -0.2462 -0.6539
  907MPD2    C213282   2.954   4.101  15.511  0.0747  0.2586  0.1820
  907MPD2    C313283   3.010   4.171  15.621  0.5333 -0.0105 -0.0981
  907MPD2    C413284   3.019   4.308  15.613  0.3235 -0.1548  0.1667
  907MPD2    C513285   3.008   4.369  15.490  0.5392  0.4922  0.5711
  907MPD2     H13286   2.934   3.996  15.527  0.1920  0.2337  0.1600
  907MPD2    H113287   3.056   4.370  15.694  0.0687  0.8249 -0.4667
  907MPD2    H213288   2.969   4.357  15.287  1.1800 -1.5431 -1.1894
  907MPD2    H313289   3.037   4.473  15.498 -1.2636  1.1700 -1.7470
  907MPD2     N13290   3.033   4.093  15.736 -0.5665  1.0046  0.2398
  907MPD2    H513291   3.021   3.993  15.721  0.9115  0.7694  0.6527
  907MPD2    N113292   2.899   4.091  15.277 -0.4054 -0.0269 -0.7956
  907MPD2    H713293   2.895   3.992  15.298 -0.0192  0.4780  1.6726
  908MPD2     C13294   1.294   4.466   9.956  0.0974 -0.1015  0.5159
  908MPD2    C113295   1.177   4.519   9.908 -0.7479 -1.1251  0.1757
  908MPD2    C213296   1.138   4.636   9.975  0.4188 -0.8160 -0.2506
  908MPD2    C313297   1.208   4.701  10.080  0.9126  0.4318 -0.4146
  908MPD2    C413298   1.333   4.647  10.111  0.8822 -0.0339 -0.1208
  908MPD2    C513299   1.374   4.527  10.050  0.3012 -0.0983  0.2234
  908MPD2     H13300   1.039   4.672   9.954  0.5709  1.1687  2.4141
  908MPD2    H113301   1.391   4.683  10.194  0.9959  1.1048 -0.6999
  908MPD2    H213302   1.334   4.377   9.909 -2.2049  0.8368 -3.3064
  908MPD2    H313303   1.469   4.483  10.074  1.7801  2.6042 -0.6796
  908MPD2     N13304   1.153   0.100  10.134 -0.5203 -0.8924 -0.2318
  908MPD2    H513305   1.058   0.131  10.112 -0.1062  1.3084  1.0416
  908MPD2    N113306   1.106   4.470   9.804 -0.4000 -0.7022  0.4286
  908MPD2    H713307   1.046   4.535   9.754  2.0342  0.4929 -0.9728
  909MPD2     C13308   1.099   3.952  11.842 -0.1512 -0.3769 -0.5849
  909MPD2    C113309   1.052   3.856  11.756  0.1123 -0.1378  1.0929
  909MPD2    C213310   0.973   3.749  11.796  0.3744  0.5343  0.1893
  909MPD2    C313311   0.929   3.737  11.925  0.7708  0.0658  0.1210
  909MPD2    C413312   0.956   3.842  12.006 -0.2082  0.6932 -0.5865
  909MPD2    C513313   1.049   3.938  11.967 -0.0888  0.1087  0.4219
  909MPD2     H13314   0.947   3.676  11.721 -1.7905  1.1186  0.3929
  909MPD2    H113315   0.918   3.857  12.106  0.9127  0.8363 -0.1851
  909MPD2    H213316   1.175   4.027  11.823 -1.9969  1.6705  0.1124
  909MPD2    H313317   1.082   4.012  12.039  1.5445 -0.7933  0.5913
  909MPD2     N13318   0.854   3.620  11.964  0.2313  0.6579  0.1021
  909MPD2    H513319   0.846   3.550  11.891 -1.4963  0.8088  0.1259
  909MPD2    N113320   1.091   3.843  11.622 -0.6548  0.2781  0.9342
  909MPD2    H713321   1.049   3.767  11.569  2.6412 -0.6379 -0.3590
  910MPD2     C13322   2.101   4.448  15.863 -0.8675  0.0381 -0.2638
  910MPD2    C113323   2.165   4.459  15.750  0.0045 -0.2068  0.8292
  910MPD2    C213324   2.133   4.561  15.664 -0.5235  0.2202  0.5561
  910MPD2    C313325   2.044   4.662  15.697  0.2016  0.5518  0.2933
  910MPD2    C413326   1.976   4.651  15.810  0.1061 -0.2872  0.7652
  910MPD2    C513327   2.010   4.546  15.893  0.3619 -0.4474  0.8464
  910MPD2     H13328   2.183   4.557  15.568 -0.1655 -1.5748  0.8101
  910MPD2    H113329   1.902   4.721  15.848 -0.3146  0.3536 -1.2856
  910MPD2    H213330   2.116   4.370  15.936  0.6454  1.0814  0.5263
  910MPD2    H313331   1.949   4.536  15.983  1.8456 -0.3712  1.8611
  910MPD2     N13332   2.025   0.052  15.612  0.2700  0.6520  0.3278
  910MPD2    H513333   1.958   0.119  15.650  0.2262  0.7421  0.0930
  910MPD2    N113334   2.283   4.376  15.712  0.2559  0.3359  0.2602
  910MPD2    H713335   2.313   4.389  15.616  0.7466  0.8526  0.4780
  911MPD2     C13336   4.460   0.451  16.048 -0.2039 -0.1451 -0.1909
  911MPD2    C113337   4.480   0.553  16.133  0.2482 -0.3948  0.0371
  911MPD2    C213338   4.370   0.620  16.189  0.3382  0.4445  0.6706
  911MPD2    C313339   4.239   0.584  16.151 -0.2091 -0.2519 -0.1902
  911MPD2    C413340   4.228   0.474  16.074  0.2248  0.7037  0.6039
  911MPD2    C513341   4.332   0.405  16.023 -0.9292  0.1778  0.0661
  911MPD2     H13342   4.385   0.704  16.255  0.3902  0.1118  1.0770
  911MPD2    H113343   4.126   0.442  16.059  0.9968 -1.6585  0.3247
  911MPD2    H213344   4.539   0.398  15.996 -0.7767 -0.4308 -0.7662
  911MPD2    H313345   4.331   0.329  15.946  0.5421  1.4910 -1.2443
  911MPD2     N13346   4.119   0.655  16.182  0.1083  0.4357 -0.2514
  911MPD2    H513347   4.035   0.615  16.140  0.0847  0.9404 -0.6818
  911MPD2    N113348   4.615   0.586  16.162 -0.1567 -0.4204 -0.0832
  911MPD2    H713349   4.688   0.527  16.121 -0.5953  0.5557 -2.2221
  912MPD2     C13350   4.048   0.513  15.695 -0.4377  0.1489 -0.1476
  912MPD2    C113351   3.955   0.494  15.793  0.5258 -0.2825  0.8766
  912MPD2    C213352   3.931   0.358  15.826 -0.1469 -0.5965 -0.1839
  912MPD2    C313353   4.000   0.247  15.773  0.9871  0.0905 -0.3658
  912MPD2    C413354   4.100   0.276  15.679 -0.0419  0.0196  0.1585
  912MPD2    C513355   4.116   0.407  15.649  0.3473 -0.5223 -0.1096
  912MPD2     H13356   3.865   0.333  15.908  0.9330  2.4529  1.6305
  912MPD2    H113357   4.150   0.199  15.621 -0.3866  2.6467 -3.6839
  912MPD2    H213358   4.073   0.610  15.654 -1.7386  1.7416  2.8203
  912MPD2    H313359   4.195   0.436  15.581 -0.1497 -3.5104 -1.9743
  912MPD2     N13360   3.980   0.121  15.834  0.6830 -0.0637 -0.2312
  912MPD2    H513361   3.915   0.120  15.913  0.1853  2.3902 -0.6086
  912MPD2    N113362   3.900   0.605  15.861 -0.7549 -0.0770 -0.3340
  912MPD2    H713363   3.925   0.695  15.821 -2.5998  0.2550 -0.7232
  913MPD2     C13364   0.769   1.424  10.796 -0.1590  0.8870 -0.2510
  913MPD2    C113365   0.746   1.561  10.795 -0.6104  0.0343 -0.1845
  913MPD2    C213366   0.731   1.624  10.673  0.6310  0.2179  0.4054
  913MPD2    C313367   0.739   1.557  10.556 -0.0594 -0.6946 -0.2270
  913MPD2    C413368   0.757   1.421  10.563 -0.1110  0.6747  0.5781
  913MPD2    C513369   0.771   1.356  10.682  0.0194 -0.0242  0.5154
  913MPD2     H13370   0.705   1.729  10.675 -1.6478 -0.3364  0.1908
  913MPD2    H113371   0.769   1.358  10.476 -0.1199 -0.7400  1.6144
  913MPD2    H213372   0.776   1.366  10.887  0.9500  0.4394 -0.6133
  913MPD2    H313373   0.794   1.250  10.687  2.1300  0.5165  2.4646
  913MPD2     N13374   0.712   1.614  10.426 -0.0112  0.1426 -0.7095
  913MPD2    H513375   0.709   1.552  10.345 -1.9378  1.8899 -1.9787
  913MPD2    N113376   0.736   1.621  10.923  0.1915 -0.1532 -0.3137
  913MPD2    H713377   0.705   1.555  10.993  2.8930  1.3803  2.3390
  914MPD2     C13378   2.958   1.711  11.759 -0.6722  0.5310  0.6643
  914MPD2    C113379   2.915   1.834  11.794 -0.7727  0.0956 -0.2762
  914MPD2    C213380   2.962   1.891  11.915 -0.6029  0.2022  0.6865
  914MPD2    C313381   3.046   1.818  11.999  0.2026  0.5002  0.0711
  914MPD2    C413382   3.081   1.694  11.964 -0.3931  0.4365  0.4839
  914MPD2    C513383   3.034   1.637  11.846 -0.1967  0.4314 -0.3186
  914MPD2     H13384   2.936   1.993  11.941  0.6561  0.3267  1.4380
  914MPD2    H113385   3.147   1.636  12.026 -0.4768 -0.3021 -0.1131
  914MPD2    H213386   2.937   1.666  11.663  0.1054 -1.8418  1.6098
  914MPD2    H313387   3.086   1.548  11.812  0.3982  1.1013 -1.1538
  914MPD2     N13388   3.088   1.881  12.114  0.5077 -0.7737  0.2666
  914MPD2    H513389   3.044   1.970  12.133  2.2436 -0.5489  3.2508
  914MPD2    N113390   2.832   1.903  11.701 -0.5545 -0.0223  0.1640
  914MPD2    H713391   2.822   1.856  11.612 -1.5351 -0.7570  0.6543
  915MPD2     C13392   1.389   2.228  15.336 -0.0243  0.3620  0.0719
  915MPD2    C113393   1.257   2.243  15.317  0.9234 -0.8774  0.2379
  915MPD2    C213394   1.185   2.290  15.425 -0.1903  0.0007 -0.3123
  915MPD2    C313395   1.245   2.336  15.537  0.0484  0.1679 -0.2305
  915MPD2    C413396   1.381   2.322  15.550  0.5783  0.5434 -0.2010
  915MPD2    C513397   1.449   2.272  15.451 -0.0093  0.0180  0.3345
  915MPD2     H13398   1.077   2.297  15.415 -0.2317 -1.5610 -0.8441
  915MPD2    H113399   1.427   2.327  15.649 -0.3817 -0.7704  0.3085
  915MPD2    H213400   1.451   2.171  15.268 -0.2507 -0.7677  0.8097
  915MPD2    H313401   1.556   2.258  15.460  0.4287  2.0186 -1.8176
  915MPD2     N13402   1.157   2.388  15.642 -0.0920  0.3715 -0.3756
  915MPD2    H513403   1.056   2.385  15.629 -0.3722 -0.3434  1.8990
  915MPD2    N113404   1.196   2.198  15.199 -0.8651  0.5725 -0.6671
  915MPD2    H713405   1.256   2.158  15.127 -0.3540 -2.0984  1.2653
  916MPD2     C13406   3.940   0.414  15.197 -0.7434 -1.0305 -0.1686
  916MPD2    C113407   3.908   0.311  15.280 -0.0685  0.1587 -0.2260
  916MPD2    C213408   3.945   0.183  15.246  0.3852  0.7125 -0.1880
  916MPD2    C313409   4.003   0.155  15.122 -0.5117  0.0734 -0.9069
  916MPD2    C413410   4.041   0.261  15.042 -0.5081 -0.0472 -0.9560
  916MPD2    C513411   4.021   0.388  15.088 -0.1354  0.1337  0.0459
  916MPD2     H13412   3.913   0.097  15.302 -0.2190  1.6070  0.8367
  916MPD2    H113413   4.081   0.249  14.941  0.1615 -0.1069 -0.6868
  916MPD2    H213414   3.908   0.515  15.218  2.9679  0.0297  0.2298
  916MPD2    H313415   4.052   0.469  15.023 -1.5505 -0.8305 -1.8148
  916MPD2     N13416   4.037   0.019  15.103  0.1681 -0.2663  0.4920
  916MPD2    H513417   4.020   4.674  15.176  0.8859 -0.0211  0.8880
  916MPD2    N113418   3.824   0.341  15.397 -0.2993  0.1727  0.2156
  916MPD2    H713419   3.816   0.440  15.420 -1.5808 -0.4351  2.3979
  917MPD2     C13420   4.358   2.746  10.922  0.1691  0.2119  0.0021
  917MPD2    C113421   4.369   2.802  11.048  0.7357 -1.3052 -0.4952
  917MPD2    C213422   4.441   2.924  11.059  0.0459 -0.1348 -0.0051
  917MPD2    C313423   4.514   2.975  10.956  0.4025 -0.1853 -0.1291
  917MPD2    C413424   4.503   2.915  10.834 -0.1676  0.0012 -0.0167
  917MPD2    C513425   4.428   2.801  10.816 -0.1374  0.0910 -0.3505
  917MPD2     H13426   4.437   2.973  11.156 -1.1233 -1.6126  0.6977
  917MPD2    H113427   4.566   2.958  10.756 -0.2882  2.6863  1.3749
  917MPD2    H213428   4.300   2.655  10.904 -2.5581  1.9967 -0.2165
  917MPD2    H313429   4.431   2.757  10.717 -1.6584  0.3336 -0.5000
  917MPD2     N13430   4.589   3.093  10.968  0.0423  0.0141  0.3906
  917MPD2    H513431   4.633   3.131  10.884 -0.8576 -0.7904 -0.4478
  917MPD2    N113432   4.307   2.732  11.153  0.3367 -0.2529 -0.6806
  917MPD2    H713433   4.277   2.639  11.125  0.9881  0.0936 -2.4954
  918MPD2     C13434   4.369   2.687  12.175  0.2888  0.2325 -0.2882
  918MPD2    C113435   4.459   2.629  12.085 -0.1270 -0.5186  0.2657
  918MPD2    C213436   4.425   2.631  11.953  0.1205 -0.2808  0.0134
  918MPD2    C313437   4.306   2.681  11.911  0.4590 -0.2632  0.3516
  918MPD2    C413438   4.217   2.729  12.001  0.0760  0.8648 -0.8742
  918MPD2    C513439   4.246   2.736  12.132 -0.5476  0.1605  0.3010
  918MPD2     H13440   4.493   2.598  11.874 -1.0675 -0.1735 -1.0559
  918MPD2    H113441   4.123   2.768  11.965 -0.1056  0.6842 -0.5948
  918MPD2    H213442   4.390   2.700  12.280 -0.8480 -0.4152  0.0253
  918MPD2    H313443   4.171   2.781  12.196 -0.2055 -0.9777  1.4993
  918MPD2     N13444   4.276   2.675  11.770 -0.2870  0.0593  0.1823
  918MPD2    H513445   4.348   2.638  11.708  2.4881  1.2298  2.6888
  918MPD2    N113446   4.593   2.610  12.115  0.3042  0.4311  0.2075
  918MPD2    H713447   4.646   2.577  12.035 -0.2312  0.2280 -0.0627
  919MPD2     C13448   0.273   2.013  11.350 -0.3381  0.3656  0.1955
  919MPD2    C113449   0.282   1.880  11.326  0.0515 -0.3187  0.0428
  919MPD2    C213450   0.304   1.835  11.197 -1.0780  0.5014 -0.1483
  919MPD2    C313451   0.325   1.926  11.094 -0.2482 -0.2649 -0.1255
  919MPD2    C413452   0.322   2.060  11.116  0.2195 -0.0641 -0.0280
  919MPD2    C513453   0.293   2.093  11.246  0.2224 -0.2327 -0.0200
  919MPD2     H13454   0.314   1.729  11.179  1.2754  0.9980 -1.6970
  919MPD2    H113455   0.344   2.133  11.040  1.3257 -2.4610 -2.0120
  919MPD2    H213456   0.264   2.053  11.451 -1.4132 -2.6260  1.3005
  919MPD2    H313457   0.303   2.199  11.269  0.3877 -0.3828  0.5825
  919MPD2     N13458   0.353   1.885  10.964 -0.1107  0.1453  0.3373
  919MPD2    H513459   0.384   1.953  10.895  1.0876 -0.7632 -0.0254
  919MPD2    N113460   0.277   1.781  11.425  0.7749  0.0735  0.3365
  919MPD2    H713461   0.302   1.686  11.401  1.8460  0.5789 -0.5773
  920MPD2     C13462   0.163   2.119  10.014  0.0038  0.7220  0.3992
  920MPD2    C113463   0.075   2.011  10.047 -0.0365 -0.5356  0.9236
  920MPD2    C213464   0.077   1.953  10.172 -0.7234  0.0215  0.2335
  920MPD2    C313465   0.176   1.994  10.266  0.1660 -0.6207  0.4184
  920MPD2    C413466   0.260   2.105  10.232  0.0817 -0.0094  0.3132
  920MPD2    C513467   0.257   2.152  10.107 -0.4096  0.1480  0.2170
  920MPD2     H13468   0.010   1.872  10.199 -1.7114  1.5400  2.3566
  920MPD2    H113469   0.325   2.157  10.301 -0.1253 -0.5875  0.9329
  920MPD2    H213470   0.172   2.166   9.917  1.1337  1.5718  0.9083
  920MPD2    H313471   0.332   2.224  10.077 -0.8443 -0.1312 -1.5321
  920MPD2     N13472   0.182   1.931  10.395 -0.1550  0.2300 -0.6152
  920MPD2    H513473   0.133   1.842  10.399  0.1092  0.1750  1.3324
  920MPD2    N113474   4.705   1.957   9.956  1.0096 -0.6051  0.2877
  920MPD2    H713475   4.644   1.881   9.986  1.8011 -1.7105 -0.8680
  921MPD2     C13476   0.643   0.881  16.649 -0.2185  0.1682 -0.1016
  921MPD2    C113477   0.667   0.882  16.513  0.2142 -0.3111 -0.0205
  921MPD2    C213478   0.562   0.913  16.427  0.0363 -0.6579  0.3401
  921MPD2    C313479   0.431   0.929  16.477  0.4076 -0.5917 -0.7193
  921MPD2    C413480   0.407   0.917  16.613 -0.5199  0.1049  0.7606
  921MPD2    C513481   0.517   0.893  16.698  0.3243 -0.6934  0.9136
  921MPD2     H13482   0.594   0.940  16.327 -1.3288 -1.5691 -0.3490
  921MPD2    H113483   0.309   0.936  16.654 -0.9455 -0.5060  0.0025
  921MPD2    H213484   0.720   0.863  16.723 -1.7075  1.0392  1.6382
  921MPD2    H313485   0.507   0.898  16.806  3.1285 -0.6290  1.1745
  921MPD2     N13486   0.317   0.953  16.394 -0.2203  0.1509 -0.2587
  921MPD2    H513487   0.222   0.955  16.428 -0.4753 -1.5224 -0.8663
  921MPD2    N113488   0.806   0.859  16.477  0.2618  0.0427 -0.1719
  921MPD2    H713489   0.865   0.829  16.554  0.4970 -0.7639 -0.6612
  922MPD2     C13490   2.049   4.304  16.705 -0.1312  0.5256 -0.0318
  922MPD2    C113491   2.048   4.269  16.846  0.6703  0.1152 -0.4088
  922MPD2    C213492   2.026   4.137  16.887  0.5877 -0.3966  0.6664
  922MPD2    C313493   2.005   4.038  16.794  0.4276  0.2314  0.3332
  922MPD2    C413494   2.008   4.070  16.653 -0.6507 -0.4070 -0.2349
  922MPD2    C513495   2.021   4.198  16.619  0.4404 -0.2005  0.3892
  922MPD2     H13496   2.023   4.109  16.992 -0.2303  1.3920  1.1191
  922MPD2    H113497   1.997   3.998  16.572 -1.1558 -0.8873  0.2671
  922MPD2    H213498   2.061   4.407  16.675  1.3214  0.7833  1.4238
  922MPD2    H313499   2.005   4.217  16.513 -2.8867  2.1671  1.3138
  922MPD2     N13500   1.963   3.904  16.841  0.3416 -0.0822  0.6289
  922MPD2    H513501   1.967   3.889  16.942  0.9333  2.9863  1.0494
  922MPD2    N113502   2.077   4.360  16.953  0.1606  0.2655 -0.4634
  922MPD2    H713503   2.086   4.324  17.048  2.7942  2.5417  0.1572
  923MPD2     C13504   3.138   4.694   8.813  0.4132  0.2273 -0.1394
  923MPD2    C113505   3.062   0.080   8.837 -0.2097  1.3442 -0.1510
  923MPD2    C213506   3.121   0.187   8.908  0.5055  0.3719  0.2671
  923MPD2    C313507   3.256   0.181   8.950 -0.4416  0.4692 -0.5590
  923MPD2    C413508   3.329   0.071   8.914  0.1269  0.2164 -0.0364
  923MPD2    C513509   3.274   4.688   8.843 -0.4485 -0.1055 -0.4438
  923MPD2     H13510   3.057   0.271   8.934 -0.9262 -0.9126  0.8714
  923MPD2    H113511   3.434   0.067   8.944  0.3773 -0.7202 -1.0498
  923MPD2    H213512   3.087   4.617   8.756  1.7312 -0.0961 -0.8808
  923MPD2    H313513   3.329   4.599   8.816 -1.1462 -0.2402 -1.4202
  923MPD2     N13514   3.325   0.283   9.013 -0.1146  0.1158 -0.0055
  923MPD2    H513515   3.422   0.267   9.037 -0.2437 -0.6495 -0.0020
  923MPD2    N113516   2.932   0.076   8.790  0.1862  0.1364 -0.0487
  923MPD2    H713517   2.895   4.710   8.762  0.7162  0.4662 -1.8651
  924MPD2     C13518   3.152   3.296  15.647 -0.2996 -0.5898  0.2330
  924MPD2    C113519   3.101   3.330  15.769 -0.1655  0.0190  0.6315
  924MPD2    C213520   3.129   3.449  15.830 -0.5871 -0.0717 -0.4441
  924MPD2    C313521   3.208   3.541  15.771  0.6102 -0.2256  0.2223
  924MPD2    C413522   3.268   3.511  15.646 -0.7487  0.1800 -0.8345
  924MPD2    C513523   3.233   3.386  15.589 -0.3990  1.0451  0.4643
  924MPD2     H13524   3.094   3.477  15.929  1.1890  1.2181 -0.1681
  924MPD2    H113525   3.339   3.575  15.594  1.6699 -0.5114  1.6282
  924MPD2    H213526   3.138   3.194  15.614 -0.4363 -0.2931 -0.6255
  924MPD2    H313527   3.284   3.354  15.498  0.5992  0.2398  1.3150
  924MPD2     N13528   3.240   3.666  15.832 -0.2882  0.6142 -0.7488
  924MPD2    H513529   3.283   3.740  15.777 -2.5144  1.1629 -1.7548
  924MPD2    N113530   3.006   3.242  15.827 -0.4262 -0.1069  0.0707
  924MPD2    H713531   2.951   3.182  15.765  0.4298  0.2209 -1.0098
  925MPD2     C13532   2.109   1.678  14.536 -0.1006  0.0143 -0.4972
  925MPD2    C113533   1.981   1.622  14.534  0.1173 -0.0242 -0.6947
  925MPD2    C213534   1.934   1.556  14.649 -0.3984 -0.1611  0.2204
  925MPD2    C313535   2.016   1.552  14.763  0.0234 -0.3322 -0.1318
  925MPD2    C413536   2.148   1.588  14.753 -0.2622  0.1701  0.4371
  925MPD2    C513537   2.189   1.653  14.643 -0.6734 -0.6131 -0.0878
  925MPD2     H13538   1.830   1.523  14.652 -0.5490  0.3547  0.6293
  925MPD2    H113539   2.220   1.590  14.834 -1.8542 -1.7968  1.8969
  925MPD2    H213540   2.140   1.739  14.452 -0.8205  0.7097 -0.2617
  925MPD2    H313541   2.293   1.680  14.651 -0.4830 -1.6938  1.2106
  925MPD2     N13542   1.972   1.507  14.890  0.1845  0.2761 -0.0640
  925MPD2    H513543   2.048   1.496  14.956  0.5248  0.7598 -0.3718
  925MPD2    N113544   1.899   1.629  14.419  0.3778 -0.3793 -0.3143
  925MPD2    H713545   1.814   1.574  14.413 -0.1832  0.6213 -1.7095
  926MPD2     C13546   0.629   4.565  13.367 -1.4123  0.6665 -0.0250
  926MPD2    C113547   0.545   4.665  13.313 -0.8613  0.2642 -0.0914
  926MPD2    C213548   0.600   0.017  13.215  0.9054 -0.7864 -0.3371
  926MPD2    C313549   0.727   4.724  13.176 -0.3534 -0.1879 -0.4024
  926MPD2    C413550   0.812   4.640  13.238 -0.6114  0.0401  0.1187
  926MPD2    C513551   0.758   4.556  13.333 -0.6775 -0.1899  0.2975
  926MPD2     H13552   0.542   0.097  13.171  0.2692 -0.2523  1.4717
  926MPD2    H113553   0.917   4.632  13.211 -0.2195 -2.0439  2.2238
  926MPD2    H213554   0.591   4.508  13.451 -0.7629  0.1526 -0.0779
  926MPD2    H313555   0.822   4.478  13.374  0.0182  0.4502  0.4194
  926MPD2     N13556   0.788   0.072  13.066  0.4851 -1.0120  0.1753
  926MPD2    H513557   0.882   0.046  13.038  2.1196  2.9306  2.1496
  926MPD2    N113558   0.404   4.672  13.341  0.4975 -0.0017 -0.2612
  926MPD2    H713559   0.354   0.025  13.297  0.6474 -0.1054 -0.6128
  927MPD2     C13560   0.269   1.891   0.250  0.4991 -0.2567  0.0804
  927MPD2    C113561   0.175   1.985   0.215 -0.3157 -0.0481  0.1212
  927MPD2    C213562   0.198   2.073   0.112  0.4639 -0.1586 -0.4294
  927MPD2    C313563   0.316   2.078   0.045  0.2112 -0.3764 -0.0087
  927MPD2    C413564   0.414   1.985   0.079  0.0484 -0.2180  0.4658
  927MPD2    C513565   0.384   1.885   0.177  0.3266 -0.0658  0.4355
  927MPD2     H13566   0.125   2.147   0.083  2.1278  0.3953 -3.1798
  927MPD2    H113567   0.514   2.000   0.040 -0.8314 -0.3975 -1.8071
  927MPD2    H213568   0.256   1.824   0.335 -2.7875 -0.7985 -0.8267
  927MPD2    H313569   0.459   1.810   0.199 -0.3860 -0.8147  0.3068
  927MPD2     N13570   0.333   2.182  17.644 -0.2901  0.4783 -0.1011
  927MPD2    H513571   0.263   2.255  17.637  1.0315  1.8258  0.7085
  927MPD2    N113572   0.057   1.984   0.292 -0.5696 -0.5518  0.5103
  927MPD2    H713573   0.042   1.907   0.357 -1.7442  0.1363  1.0461
  928MPD2     C13574   3.437   0.737   0.721 -0.6437 -0.8840 -0.3304
  928MPD2    C113575   3.342   0.813   0.787 -0.1357  0.5707  0.0826
  928MPD2    C213576   3.237   0.866   0.711  0.9895  0.8130  0.1500
  928MPD2    C313577   3.222   0.828   0.579 -0.3236 -0.1184  0.6691
  928MPD2    C413578   3.304   0.738   0.527 -0.4717 -0.3290 -0.0825
  928MPD2    C513579   3.420   0.701   0.589  0.2887  0.9312 -0.0260
  928MPD2     H13580   3.166   0.931   0.761  0.9720  1.7790 -1.1221
  928MPD2    H113581   3.275   0.712   0.426  0.9991  0.0129 -0.6066
  928MPD2    H213582   3.534   0.718   0.766  0.2108  1.0716 -1.3664
  928MPD2    H313583   3.492   0.633   0.543  1.3013  0.6185  2.0414
  928MPD2     N13584   3.152   0.902   0.481  0.3267  0.5304 -0.0555
  928MPD2    H513585   3.142   0.863   0.388 -2.2425  1.8683 -0.3626
  928MPD2    N113586   3.378   0.859   0.917 -0.0001 -0.3462  0.1911
  928MPD2    H713587   3.471   0.848   0.954  1.8049  4.3954 -2.8250
  929MPD2     C13588   2.536   0.335   9.387 -1.1100  0.1914  0.2925
  929MPD2    C113589   2.614   0.268   9.470  0.1941  0.1993  0.0479
  929MPD2    C213590   2.593   0.135   9.493  0.0922  0.4060  0.8394
  929MPD2    C313591   2.478   0.076   9.453 -0.4627  0.3994 -0.0308
  929MPD2    C413592   2.379   0.154   9.392  0.4272 -0.1282 -0.5856
  929MPD2    C513593   2.415   0.282   9.355 -0.3055  0.3346 -0.0087
  929MPD2     H13594   2.669   0.069   9.533 -1.9632 -2.8197 -0.6273
  929MPD2    H113595   2.287   0.111   9.355 -0.4824 -0.4814  2.1417
  929MPD2    H213596   2.553   0.440   9.365 -0.1609 -0.2133 -0.8773
  929MPD2    H313597   2.353   0.347   9.295  0.8043 -0.3751 -1.9284
  929MPD2     N13598   2.438   4.663   9.486 -0.0610 -0.1184  0.1577
  929MPD2    H513599   2.358   4.626   9.437 -1.4127  0.9818  1.5021
  929MPD2    N113600   2.730   0.338   9.527  0.5020  0.2983 -0.0466
  929MPD2    H713601   2.734   0.438   9.507 -0.0193  0.2894 -0.1917
  930MPD2     C13602   0.000   2.710  14.027 -0.5386 -0.0787  0.1037
  930MPD2    C113603   0.025   2.818  13.936 -0.1691 -0.3890  0.2159
  930MPD2    C213604   4.713   2.794  13.809  0.1722 -0.2979  0.3912
  930MPD2    C313605   4.654   2.676  13.756 -0.2040 -0.1049  0.6033
  930MPD2    C413606   4.633   2.577  13.848 -0.3632 -0.0451  0.0155
  930MPD2    C513607   4.667   2.598  13.983 -0.2310  0.2287  0.0938
  930MPD2     H13608   0.001   2.863  13.726 -1.4300  0.6512  0.9514
  930MPD2    H113609   4.595   2.478  13.826 -0.5138  0.0481 -0.1486
  930MPD2    H213610   0.049   2.723  14.123 -0.3887  1.0608 -0.1270
  930MPD2    H313611   4.653   2.513  14.049 -0.6672  1.7710  1.9756
  930MPD2     N13612   4.621   2.656  13.611  0.0810 -0.4045 -0.2213
  930MPD2    H513613   4.644   2.732  13.548  0.6041 -0.1467  0.2856
  930MPD2    N113614   0.095   2.936  13.965 -0.2767  0.2235  0.2049
  930MPD2    H713615   0.094   2.998  13.885  0.8010  0.8225  0.6661
  931MPD2     C13616   4.047   1.763   0.662  0.4671 -0.2671 -0.0550
  931MPD2    C113617   4.182   1.741   0.663 -0.3670  0.1658 -0.0207
  931MPD2    C213618   4.242   1.667   0.772 -0.0749 -0.2933 -0.2854
  931MPD2    C313619   4.154   1.592   0.856  0.1414  0.3476  1.0762
  931MPD2    C413620   4.016   1.615   0.851  0.3056 -0.9197 -0.8036
  931MPD2    C513621   3.970   1.701   0.752  0.2076 -0.1484 -0.0628
  931MPD2     H13622   4.349   1.650   0.773  0.2566  1.9066  1.0324
  931MPD2    H113623   3.945   1.572   0.921  1.6556  1.8656  2.2750
  931MPD2    H213624   4.003   1.831   0.589  0.7258  1.1639  1.1111
  931MPD2    H313625   3.866   1.733   0.757 -0.5994 -2.8576  0.5273
  931MPD2     N13626   4.199   1.515   0.965  0.3659 -0.8863 -0.4253
  931MPD2    H513627   4.128   1.481   1.029 -0.8654  2.3614 -0.0790
  931MPD2    N113628   4.250   1.814   0.565 -0.1357 -0.7287 -0.0540
  931MPD2    H713629   4.206   1.889   0.513 -2.0631 -1.3736  0.6625
  932MPD2     C13630   1.552   0.668  11.042 -0.7742  0.9343 -0.4725
  932MPD2    C113631   1.637   0.736  11.125 -0.7409  0.2701  0.5409
  932MPD2    C213632   1.633   0.700  11.258  0.5602 -0.3826  0.0062
  932MPD2    C313633   1.528   0.635  11.307  0.1399 -0.4883 -0.3610
  932MPD2    C413634   1.445   0.564  11.221  0.2071 -0.0559 -0.1947
  932MPD2    C513635   1.453   0.578  11.090  0.4372  0.5892 -0.6471
  932MPD2     H13636   1.683   0.766  11.328 -1.1480  1.4464 -0.4773
  932MPD2    H113637   1.366   0.498  11.256  1.5906 -2.3939 -1.4729
  932MPD2    H213638   1.539   0.688  10.936  1.0853  3.0768 -0.3021
  932MPD2    H313639   1.381   0.527  11.027  0.6881 -1.3452  0.6220
  932MPD2     N13640   1.497   0.621  11.445  0.4879  0.8205  0.7832
  932MPD2    H513641   1.404   0.590  11.471  0.8905 -1.4006 -0.4537
  932MPD2    N113642   1.732   0.834  11.085  0.3875  0.4296 -0.4881
  932MPD2    H713643   1.808   0.853  11.150  0.6852 -1.3075 -0.3295
  933MPD2     C13644   3.425   0.935   1.824 -0.7303  0.0894 -0.0343
  933MPD2    C113645   3.346   0.987   1.721 -0.3635 -0.8404  0.0996
  933MPD2    C213646   3.233   1.050   1.771 -0.1630  0.1836  0.8936
  933MPD2    C313647   3.186   1.050   1.903  0.1674 -0.5767  0.0216
  933MPD2    C413648   3.274   1.000   1.997 -0.2958  0.1949 -0.2878
  933MPD2    C513649   3.387   0.944   1.952 -0.1026  0.5595 -0.0500
  933MPD2     H13650   3.161   1.101   1.708 -0.4095 -1.9900 -0.6056
  933MPD2    H113651   3.261   1.014   2.103 -0.3446 -3.0243  0.1252
  933MPD2    H213652   3.518   0.885   1.803  0.5402  1.0782  3.1727
  933MPD2    H313653   3.462   0.915   2.024  0.7902 -1.0242 -1.6338
  933MPD2     N13654   3.069   1.121   1.932  0.0148 -0.7050  0.2291
  933MPD2    H513655   3.030   1.175   1.855  1.2394  2.7929  2.0483
  933MPD2    N113656   3.389   0.990   1.587 -0.0028 -0.5177  0.1573
  933MPD2    H713657   3.487   0.971   1.573 -0.1714 -0.2480 -1.3700
  934MPD2     C13658   2.760   2.479   1.898 -0.0167 -0.4382 -0.2303
  934MPD2    C113659   2.878   2.407   1.873 -0.2345  0.1413 -0.1260
  934MPD2    C213660   2.916   2.395   1.743  0.6448  0.0438 -0.4586
  934MPD2    C313661   2.849   2.457   1.640  0.8904  0.3952 -0.3617
  934MPD2    C413662   2.736   2.533   1.663 -0.7839 -0.1546 -0.4973
  934MPD2    C513663   2.697   2.543   1.792 -0.8636 -0.8628 -0.3981
  934MPD2     H13664   3.003   2.334   1.727 -1.2839 -2.0515 -2.7989
  934MPD2    H113665   2.699   2.605   1.592 -1.8823 -1.8569 -1.6451
  934MPD2    H213666   2.720   2.494   1.998 -0.3821  2.1819 -0.7520
  934MPD2    H313667   2.607   2.601   1.806 -1.0502 -1.1739 -0.3072
  934MPD2     N13668   2.895   2.458   1.510  0.0948  0.8884 -0.0355
  934MPD2    H513669   2.850   2.524   1.447 -0.8074  2.1313  1.9221
  934MPD2    N113670   2.951   2.337   1.972  0.3444  0.1366  0.7753
  934MPD2    H713671   3.034   2.293   1.934  0.0118 -0.9997  1.3845
  935MPD2     C13672   3.716   2.062   1.039  0.2692  0.0337  0.6021
  935MPD2    C113673   3.649   2.142   0.945 -0.6448 -0.1307 -0.0640
  935MPD2    C213674   3.527   2.191   0.980 -0.6365  0.0169 -0.1893
  935MPD2    C313675   3.469   2.183   1.108  0.0208  0.4024  0.4603
  935MPD2    C413676   3.537   2.099   1.197 -0.3821 -0.5654 -0.1295
  935MPD2    C513677   3.663   2.043   1.164  0.2222 -0.4050 -0.5176
  935MPD2     H13678   3.470   2.251   0.909 -0.1507  0.2730 -0.3578
  935MPD2    H113679   3.500   2.077   1.296 -2.8623 -0.4821 -1.0221
  935MPD2    H213680   3.819   2.034   1.017  0.0324 -0.0699 -0.3854
  935MPD2    H313681   3.712   1.987   1.243  0.3905  0.9201  0.3218
  935MPD2     N13682   3.342   2.239   1.142 -0.3465  0.0371 -0.3797
  935MPD2    H513683   3.296   2.210   1.228  1.2037 -0.3011  0.3341
  935MPD2    N113684   3.702   2.175   0.824 -1.0097  0.1585  0.0226
  935MPD2    H713685   3.638   2.212   0.754 -1.1522 -0.3934 -0.1417
  936MPD2     C13686   2.518   4.682  12.419 -0.3579  0.2390 -0.7735
  936MPD2    C113687   2.453   0.071  12.460 -0.6400  0.3972  0.8424
  936MPD2    C213688   2.455   0.181  12.381 -0.3334  0.0347 -0.5848
  936MPD2    C313689   2.521   0.181  12.262 -0.2099  0.0388 -0.0815
  936MPD2    C413690   2.572   0.063  12.213 -0.0534 -0.3875  0.0405
  936MPD2    C513691   2.576   4.676  12.294 -0.0621  0.5884 -0.7564
  936MPD2     H13692   2.410   0.271  12.423  0.3557 -0.3265  0.9234
  936MPD2    H113693   2.614   0.049  12.114 -0.2085  0.2526 -0.1155
  936MPD2    H213694   2.537   4.597  12.484 -0.3852  0.5813 -0.3144
  936MPD2    H313695   2.604   4.576  12.261 -0.1298 -0.4128  2.2114
  936MPD2     N13696   2.519   0.301  12.191 -0.0994  0.1902  0.2777
  936MPD2    H513697   2.470   0.380  12.233  1.1036  0.6783  0.7645
  936MPD2    N113698   2.387   0.089  12.592 -0.3794 -0.4815  0.0614
  936MPD2    H713699   2.335   0.175  12.600  0.6436  0.2048 -0.6156
  937MPD2     C13700   0.413   1.151  11.388 -0.7218 -0.0726  0.2734
  937MPD2    C113701   0.480   1.269  11.418  0.1959 -0.3029 -0.6076
  937MPD2    C213702   0.607   1.284  11.363 -0.3154 -0.3799 -0.0202
  937MPD2    C313703   0.649   1.209  11.252 -0.3671 -0.6885  0.1822
  937MPD2    C413704   0.577   1.095  11.217  0.8621 -0.4069 -0.2018
  937MPD2    C513705   0.454   1.073  11.279  0.1137 -0.6247  0.1232
  937MPD2     H13706   0.676   1.361  11.395 -1.8897  0.6183  0.9745
  937MPD2    H113707   0.616   1.025  11.145  0.6020 -2.1615  1.3766
  937MPD2    H213708   0.327   1.114  11.442 -0.4414 -1.2088 -0.0563
  937MPD2    H313709   0.392   0.990  11.248  1.4031 -1.0168 -1.4261
  937MPD2     N13710   0.784   1.233  11.201 -0.2271 -0.2771  0.8034
  937MPD2    H513711   0.835   1.309  11.246  1.7016  0.3836 -2.4761
  937MPD2    N113712   0.443   1.357  11.525  0.3689  0.7913  0.6218
  937MPD2    H713713   0.504   1.433  11.553 -0.4875  2.1848 -1.3199
  938MPD2     C13714   2.905   2.195   0.673  0.1026  0.3178  0.4231
  938MPD2    C113715   2.857   2.316   0.707 -0.4620  0.3444 -0.0232
  938MPD2    C213716   2.728   2.324   0.748 -0.5002 -1.0303 -0.1725
  938MPD2    C313717   2.648   2.210   0.772 -0.4296 -0.1397 -0.8690
  938MPD2    C413718   2.704   2.090   0.729  0.4636 -0.2548 -0.2956
  938MPD2    C513719   2.830   2.082   0.685  0.1501  0.1865  0.0888
  938MPD2     H13720   2.686   2.417   0.786  2.1808 -1.0140  2.8150
  938MPD2    H113721   2.643   2.001   0.733 -0.5589  0.6185  2.9887
  938MPD2    H213722   3.008   2.187   0.640  0.6773  0.1914  2.2648
  938MPD2    H313723   2.876   1.987   0.662  1.4708  0.8961 -0.2392
  938MPD2     N13724   2.519   2.207   0.826 -0.2750 -0.3182  0.2451
  938MPD2    H513725   2.478   2.118   0.855 -0.3240  0.4488  2.5603
  938MPD2    N113726   2.939   2.432   0.703 -0.1009 -0.3309 -0.0382
  938MPD2    H713727   2.892   2.516   0.736 -1.3979 -1.5100  1.0890
  939MPD2     C13728   2.982   3.888   0.423  0.0050 -0.3184  0.6309
  939MPD2    C113729   3.004   3.882   0.292  0.5150  0.0187 -0.2419
  939MPD2    C213730   3.110   3.810   0.250 -0.4373 -0.5073  0.0530
  939MPD2    C313731   3.200   3.739   0.329 -0.3252 -0.0163 -0.7649
  939MPD2    C413732   3.172   3.737   0.459 -1.1811 -0.2800  0.4537
  939MPD2    C513733   3.066   3.816   0.501 -0.3888 -0.1117  0.1158
  939MPD2     H13734   3.142   3.821   0.147  3.1006 -1.2491  1.0518
  939MPD2    H113735   3.231   3.683   0.533 -4.1460 -1.2804  2.1081
  939MPD2    H213736   2.899   3.944   0.463 -0.2698 -0.0439 -0.3197
  939MPD2    H313737   3.044   3.812   0.607 -4.9760  0.4783 -0.8373
  939MPD2     N13738   3.325   3.683   0.280 -0.0814 -0.5327  0.3718
  939MPD2    H513739   3.363   3.712   0.191 -3.3647 -0.5476 -1.0508
  939MPD2    N113740   2.903   3.957   0.227  0.3468  0.4491  0.4310
  939MPD2    H713741   2.833   4.005   0.283 -2.3248 -3.6485  0.6045
  940MPD2     C13742   2.716   4.293  12.990  0.4615  0.5276 -0.5186
  940MPD2    C113743   2.853   4.329  12.999  0.1626  0.8061  0.6339
  940MPD2    C213744   2.911   4.403  12.894  0.2485 -0.0370  0.9089
  940MPD2    C313745   2.829   4.447  12.791  0.1289  0.1244  0.0604
  940MPD2    C413746   2.693   4.428  12.789 -0.2591  0.3129  0.0760
  940MPD2    C513747   2.644   4.342  12.885  0.7772 -0.3029  0.7213
  940MPD2     H13748   3.018   4.407  12.876 -0.3499  1.7870 -2.2021
  940MPD2    H113749   2.624   4.460  12.712  0.4261  1.0488 -0.2424
  940MPD2    H213750   2.668   4.227  13.061 -0.1298 -1.1298 -2.4880
  940MPD2    H313751   2.537   4.328  12.900  0.3493  0.6105 -1.4012
  940MPD2     N13752   2.878   4.509  12.675 -0.1896  0.2503  0.4522
  940MPD2    H513753   2.811   4.510  12.598  0.9039 -0.4582 -0.5210
  940MPD2    N113754   2.936   4.288  13.108  0.2626 -0.4537 -1.0046
  940MPD2    H713755   3.027   4.332  13.101  1.5031 -2.4919  2.1057
  941MPD2     C13756   3.275   3.243   9.381  0.0138 -0.2471 -0.4712
  941MPD2    C113757   3.313   3.268   9.508  0.3637  0.0331  0.4128
  941MPD2    C213758   3.272   3.184   9.606  0.3934 -0.7131 -0.1190
  941MPD2    C313759   3.214   3.059   9.574 -0.5453 -0.4233  0.1824
  941MPD2    C413760   3.177   3.040   9.446  0.7618 -0.1598  0.4392
  941MPD2    C513761   3.200   3.134   9.349  0.3577  0.2818 -0.9669
  941MPD2     H13762   3.293   3.209   9.710 -1.4201  1.3586 -0.2537
  941MPD2    H113763   3.135   2.943   9.422  0.8794 -0.4367  1.3630
  941MPD2    H213764   3.308   3.312   9.304 -0.1936 -0.0637 -0.3981
  941MPD2    H313765   3.175   3.119   9.245 -1.0217 -0.5732 -0.5076
  941MPD2     N13766   3.177   2.962   9.670 -0.6951  0.3454 -0.3211
  941MPD2    H513767   3.140   2.873   9.638 -0.6451  0.0685  0.4006
  941MPD2    N113768   3.399   3.371   9.543  0.1022  0.4573  0.0603
  941MPD2    H713769   3.430   3.365   9.640 -0.4851 -1.0804  0.1580
  942MPD2     C13770   2.584   4.551   9.169 -0.2190 -0.5162 -0.4302
  942MPD2    C113771   2.503   4.645   9.101  0.5769 -0.8948  0.3775
  942MPD2    C213772   2.540   0.054   9.091 -0.6535  0.5479 -0.7117
  942MPD2    C313773   2.663   0.095   9.143 -0.8960  0.0976  0.2439
  942MPD2    C413774   2.731   0.000   9.221 -0.4699  0.4182  0.2835
  942MPD2    C513775   2.699   4.592   9.225 -0.2915  0.1198 -0.0505
  942MPD2     H13776   2.470   0.124   9.046 -1.4122  0.6156  0.5735
  942MPD2    H113777   2.819   0.041   9.270  0.1216 -1.3968  0.7531
  942MPD2    H213778   2.560   4.445   9.159  0.4495 -0.8396  1.4430
  942MPD2    H313779   2.786   4.531   9.247 -0.7674  0.2227  2.0554
  942MPD2     N13780   2.722   0.221   9.125 -0.2088  0.6720  0.0005
  942MPD2    H513781   2.803   0.243   9.181 -1.0360  0.9976  1.0748
  942MPD2    N113782   2.385   4.606   9.033  0.0503 -0.7447 -0.1561
  942MPD2    H713783   2.328   4.681   8.994  0.2999 -0.3612  0.2194
  943MPD2     C13784   1.195   3.041   9.321  0.3070 -0.3971 -0.4984
  943MPD2    C113785   1.121   3.029   9.434  0.9224 -0.7091  0.5492
  943MPD2    C213786   1.139   3.109   9.543 -0.4245  0.0590  0.0438
  943MPD2    C313787   1.237   3.208   9.543  0.4604 -0.1332 -1.1269
  943MPD2    C413788   1.309   3.222   9.424  0.0707 -0.0041  0.0137
  943MPD2    C513789   1.286   3.146   9.312 -0.3515  0.3258  0.1192
  943MPD2     H13790   1.073   3.107   9.629 -0.0717  3.6777  0.3638
  943MPD2    H113791   1.381   3.302   9.409 -0.6934  0.8906  1.1237
  943MPD2    H213792   1.183   2.968   9.242 -0.3430 -1.8800  0.9836
  943MPD2    H313793   1.335   3.170   9.218 -0.0947  1.6470  0.5967
  943MPD2     N13794   1.261   3.299   9.642 -0.1273  0.2551  0.3469
  943MPD2    H513795   1.322   3.379   9.624  0.9977 -1.5605 -3.8298
  943MPD2    N113796   1.014   2.932   9.424  0.5500 -0.9554 -0.1264
  943MPD2    H713797   0.991   2.888   9.336  1.0367 -2.0650  0.2984
  944MPD2     C13798   1.121   3.133  10.905  0.1882  0.1635 -0.2443
  944MPD2    C113799   1.167   3.010  10.949  0.1044  0.1596 -0.4374
  944MPD2    C213800   1.139   2.976  11.077  0.1748  0.0712  0.3102
  944MPD2    C313801   1.060   3.062  11.155  0.1541 -0.1632 -1.5097
  944MPD2    C413802   1.002   3.178  11.104 -0.2667 -0.3504  0.9761
  944MPD2    C513803   1.047   3.220  10.985 -0.4069  0.1520 -0.0716
  944MPD2     H13804   1.187   2.891  11.126  1.2551  0.8266  0.5419
  944MPD2    H113805   0.934   3.242  11.159  0.4025  0.2846  1.0714
  944MPD2    H213806   1.152   3.171  10.808  0.5913 -0.6933 -0.4446
  944MPD2    H313807   1.019   3.315  10.941  1.5107  0.0229 -1.6056
  944MPD2     N13808   1.059   3.031  11.295 -0.4868  0.0132  0.3997
  944MPD2    H513809   1.102   2.942  11.316  0.7622  0.2089 -1.3676
  944MPD2    N113810   1.254   2.944  10.852  0.3908 -0.3785  0.2677
  944MPD2    H713811   1.265   2.978  10.757  2.1569 -1.2525  0.1756
    1TCq1    O113812   3.489   3.784  15.733  0.0490  0.4878  0.1672
    1TCq1    C113813   3.566   3.793  15.843  0.7097  0.1395 -0.1368
    1TCq1    O213814   3.540   3.830  15.958  0.1662  0.5563 -0.0173
    1TCq1    C213815   3.707   3.799  15.791  0.1396 -0.5311 -0.1699
    1TCq1    C313816   3.745   3.720  15.690 -0.9542  0.9443 -0.1838
    1TCq1    C413817   3.828   3.773  15.600  0.3497 -0.6686  0.0128
    1TCq1    C513818   3.883   3.897  15.613 -0.6492  0.2406  0.3885
    1TCq1    C613819   3.850   3.969  15.722  0.0400 -0.7943  0.8019
    1TCq1    C713820   3.749   3.928  15.797 -0.0346  0.7596 -0.1051
    1TCq1    C813821   3.832   4.119  15.710  0.0135 -0.3239  0.4754
    1TCq1    O413822   3.789   4.186  15.804 -0.1970 -0.0694  0.3088
    1TCq1    C913823   3.841   3.691  15.477 -0.3477 -0.2964 -0.1504
    1TCq1    O513824   3.769   3.589  15.458  0.2318 -0.1432 -0.1032
    1TCq1    O613825   3.900   3.748  15.382 -0.1335 -0.1851  0.0770
    1TCq1    H113826   3.538   3.783  15.648  0.5095  1.0282  0.4286
    1TCq1    H213827   3.697   3.624  15.674 -0.3593  0.9014 -1.7374
    1TCq1    H313828   3.947   3.941  15.536  1.6758 -2.1080  0.9862
    1TCq1    H413829   3.706   3.995  15.870  0.9138 -1.6308  2.6528
    2MPD2     C13830   3.796   4.535  15.411  0.0971 -0.0994 -0.7177
    2MPD2    C113831   3.786   4.424  15.334 -0.0543 -0.7630  0.4132
    2MPD2    C213832   3.795   4.300  15.395  0.5898  0.4400 -0.0518
    2MPD2    C313833   3.819   4.283  15.531 -0.1402  0.4298 -0.2702
    2MPD2    C413834   3.826   4.403  15.607 -1.2672 -0.2711  0.0529
    2MPD2    C513835   3.817   4.528  15.548 -0.2703 -0.2920  0.1446
    2MPD2     H13836   3.791   4.208  15.338 -2.3030  0.3411  0.3035
    2MPD2    H113837   3.846   4.404  15.714 -1.0350  1.9154 -0.0197
    2MPD2    H213838   3.793   4.631  15.361  0.5900  2.3396  3.9318
    2MPD2    H313839   3.813   4.620  15.605  2.0369  0.3793 -0.8187
    2MPD2     N13840   3.838   4.157  15.582 -0.2559 -0.2971  0.1722
    2MPD2    H513841   3.840   4.081  15.514 -2.8322 -0.5390  0.3848
    2MPD2    N113842   3.761   4.445  15.193 -0.3989  0.4034 -0.4160
    2MPD2    H713843   3.765   4.544  15.170  0.3067 -0.0713 -2.3203
    3TMC2    C113844   3.695   4.405  14.977  0.2362  0.3293 -0.2281
    3TMC2    C213845   3.745   4.531  14.950 -1.0351  0.0497 -0.2268
    3TMC2    C313846   3.741   4.573  14.820  0.0716 -0.0267  0.4279
    3TMC2    C413847   3.643   4.327  14.874  0.6032  0.2561 -0.0330
    3TMC2    C513848   3.645   4.372  14.742 -1.0033 -0.4724 -0.5382
    3TMC2    C613849   3.692   4.495  14.716  0.0509 -0.1804  0.5980
    3TMC2     C13850   3.720   4.350  15.105 -0.3404  0.4491 -0.8416
    3TMC2     O13851   3.719   4.227  15.118 -0.0296  0.8487  0.0654
    3TMC2     H13852   3.783   4.603  15.021  0.1708 -2.2805  1.4548
    3TMC2    H113853   3.597   4.234  14.905  2.4899  0.3202  2.9557
    3TMC2    H213854   3.685   4.544  14.619  1.0797  0.3139  0.7688
    3TMC2    C713855   3.590   4.284  14.643  0.4181  0.0377  0.2838
    3TMC2    C813856   3.784   4.712  14.799 -0.1535  0.0593 -0.2691
    3TMC2    O113857   3.523   4.190  14.687  0.6353 -0.0106 -0.0554
    3TMC2    O213858   3.760   0.075  14.883 -0.0597  0.2165  0.6279
    3TMC2    O513859   3.807   0.004  14.670  0.1935  0.5080 -0.0615
    3TMC2    H513860   3.825   4.642  14.627  0.9896 -0.5106  2.3044
    4MPD2     C13861   2.670   0.089  13.548 -0.2037 -0.6750 -0.0081
    4MPD2    C113862   2.767   0.139  13.473 -0.2081 -0.3042  0.4251
    4MPD2    C213863   2.904   0.117  13.509 -0.7039  0.5759  0.7508
    4MPD2    C313864   2.939   0.051  13.623  0.1301  0.0640  0.6640
    4MPD2    C413865   2.839   4.717  13.687 -0.1857  0.3142 -0.4290
    4MPD2    C513866   2.705   0.014  13.658 -0.3639  0.2656 -0.6179
    4MPD2     H13867   2.974   0.153  13.434 -0.4939  0.6063  0.9638
    4MPD2    H113868   2.857   4.650  13.770 -2.6356 -0.0403 -0.1825
    4MPD2    H213869   2.566   0.116  13.531 -0.0672 -0.8265 -1.0864
    4MPD2    H313870   2.628   4.693  13.719  0.0887 -0.1549 -0.3549
    4MPD2     N13871   3.078   0.038  13.662  0.4720 -0.4080 -0.2004
    4MPD2    H513872   3.149   0.058  13.592  1.0836  0.4993  0.6799
    4MPD2    N113873   2.730   0.233  13.371 -0.5128  0.5651  0.1247
    4MPD2    H713874   2.632   0.258  13.366 -1.3698 -2.0766  3.1302
    5TCq2    C113875   3.121   4.717  13.785 -0.2900  0.0296 -0.7185
    5TCq2    O213876   3.056   4.687  13.886  0.6577 -0.4366 -0.2951
    5TCq2    C213877   3.267   4.699  13.793 -0.4469  0.4168 -0.7112
    5TCq2    C313878   3.352   0.069  13.732  0.9419  0.0058  0.1105
    5TCq2    C413879   3.485   0.075  13.770 -0.4748 -0.3372 -0.2958
    5TCq2    C513880   3.535   4.721  13.871 -0.3649  0.1719 -0.0426
    5TCq2    C613881   3.446   4.633  13.930  0.3594  1.9630 -0.4647
    5TCq2    C713882   3.316   4.611  13.887 -0.5931  0.2608 -0.7244
    5TCq2    C813883   3.497   4.555  14.043 -0.1072  0.2043 -0.1370
    5TCq2    O413884   3.581   4.611  14.111  0.1951  0.2597  0.3116
    5TCq2    C913885   3.570   0.174  13.708 -0.7980 -0.9791  0.3574
    5TCq2    O513886   3.682   0.189  13.763  0.7800 -0.0363 -0.0164
    5TCq2    O613887   3.532   0.235  13.598  0.7616  0.6022 -0.4162
    5TCq2    H213888   3.325   0.126  13.644  1.1471  0.9982  0.6893
    5TCq2    H313889   3.638   4.722  13.905 -0.5970  0.0717  0.6690
    5TCq2    H413890   3.250   4.544  13.941  0.3501 -0.1895 -0.1178
    6MPD1     C13891   2.395   2.048  12.878 -0.0673 -0.0956  0.2316
    6MPD1    C113892   2.508   2.035  12.802  0.6016  0.3076  0.4490
    6MPD1    C213893   2.578   1.912  12.792  0.5606  0.0407 -0.5992
    6MPD1    C313894   2.515   1.799  12.841 -0.1581  0.8533 -0.1021
    6MPD1    C413895   2.387   1.806  12.895 -0.6006  0.5757 -0.0014
    6MPD1    C513896   2.328   1.932  12.917  0.6146 -0.5272  0.6093
    6MPD1     H13897   2.684   1.913  12.767  0.2320  2.0084 -1.9823
    6MPD1    H113898   2.342   1.720  12.942  0.7777 -1.2428 -2.0344
    6MPD1    H213899   2.344   2.141  12.900  1.2703  0.6803 -0.0131
    6MPD1    H313900   2.229   1.940  12.960 -0.1282  0.6837 -1.3116
    6MPD1     N13901   2.587   1.683  12.860 -0.1682 -0.5741 -0.2271
    6MPD1    H513902   2.540   1.621  12.926 -0.0851  2.5614  2.8231
    6MPD1    N113903   2.567   2.156  12.763  0.6671 -0.0129 -0.0039
    6MPD1    H613904   2.509   2.237  12.743  0.3550 -0.2305  0.0108
    6MPD1    H713905   2.624   2.154  12.679  0.2673 -1.7544 -0.2438
    7MPD2     C13906   2.741   1.115  13.355 -0.2804 -0.1350  1.2083
    7MPD2    C113907   2.711   1.084  13.226  0.1979 -0.4458 -0.0090
    7MPD2    C213908   2.658   0.962  13.205  0.4078 -0.1606  0.1593
    7MPD2    C313909   2.649   0.867  13.313  0.1972 -0.3625 -0.3439
    7MPD2    C413910   2.671   0.906  13.443 -0.0723  0.4574  0.8990
    7MPD2    C513911   2.721   1.026  13.462 -0.3710 -0.0302  0.3345
    7MPD2     H13912   2.639   0.934  13.102 -0.2040  0.0607  0.2111
    7MPD2    H113913   2.664   0.837  13.527 -0.1182  1.1050  1.4270
    7MPD2    H213914   2.787   1.210  13.380  0.5721 -0.5025  1.0419
    7MPD2    H313915   2.736   1.056  13.565 -0.1766  0.0997  0.2684
    7MPD2     N13916   2.608   0.728  13.292 -0.4062 -0.6836 -0.2481
    7MPD2    H513917   2.605   0.667  13.373  2.5716  0.3222  0.6179
    7MPD2    N113918   2.723   1.169  13.111  0.6469 -0.6197 -0.0279
    7MPD2    H713919   2.683   1.137  13.024  0.3702  0.8769 -0.4524
    8TMC3    C113920   2.577   0.534  13.152  0.1045 -0.5779 -0.2863
    8TMC3    C213921   2.655   0.463  13.234  0.1720 -0.0555 -0.8223
    8TMC3    C313922   2.738   0.367  13.175 -0.2964 -0.1370 -0.1487
    8TMC3    C413923   2.577   0.507  13.017 -0.3252  0.0750  0.0543
    8TMC3    C513924   2.673   0.427  12.962  0.2521 -0.1858  0.0732
    8TMC3    C613925   2.755   0.342  13.039 -0.5366  0.3998 -0.4413
    8TMC3     C13926   2.564   0.678  13.167 -1.1435  0.2530  0.0594
    8TMC3     O13927   2.522   0.741  13.076 -0.1095 -0.1526 -0.2099
    8TMC3     H13928   2.668   0.482  13.340  2.2583 -0.6506 -0.9646
    8TMC3    H113929   2.499   0.549  12.955 -0.7853  0.4575  0.8848
    8TMC3    H213930   2.826   0.275  12.992 -1.6968  0.0896 -1.7548
    8TMC3    C713931   2.728   0.480  12.841  0.6381 -0.2029  0.7527
    8TMC3    C813932   2.800   0.263  13.257 -0.4386  0.1590  0.7222
    8TMC3    O113933   2.810   0.414  12.776  0.0769  0.3982 -0.4046
    8TMC3    O213934   2.897   0.206  13.205 -0.2247 -0.4060  0.0907
    9TMC3    C113935   2.723   1.501  12.816  0.4211 -0.0093 -0.1685
    9TMC3    C213936   2.755   1.414  12.715 -0.1175 -0.3479  0.4502
    9TMC3    C313937   2.792   1.288  12.747 -0.3849  0.0462  0.1085
    9TMC3    C413938   2.728   1.462  12.944  0.2347 -0.1216  0.1101
    9TMC3    C513939   2.777   1.337  12.967 -0.1560  0.4050 -0.3173
    9TMC3    C613940   2.807   1.246  12.872 -0.0302  0.1424 -0.2416
    9TMC3     C13941   2.691   1.640  12.781  0.0189 -0.8814 -0.5944
    9TMC3     O13942   2.740   1.683  12.678  0.0691  0.1228 -0.4188
    9TMC3     H13943   2.719   1.435  12.615  1.6277  0.3904 -0.0094
    9TMC3    H113944   2.694   1.532  13.019 -1.2907 -0.8529  0.1000
    9TMC3    H213945   2.852   1.150  12.898 -0.2907 -0.1147 -0.7461
    9TMC3    C713946   2.770   1.298  13.101  0.4297  0.8503  0.0441
    9TMC3    C813947   2.791   1.188  12.644 -0.7483  0.5245 -0.9955
    9TMC3    O113948   2.763   1.381  13.190  0.8550 -0.4963 -1.0029
    9TMC3    O213949   2.865   1.203  12.550 -0.2110  0.0868 -0.3160
   10MPD2     C13950   2.852   0.678  12.652 -0.7655 -0.5112  0.1152
   10MPD2    C113951   2.760   0.710  12.751  0.0470 -0.1140 -0.5119
   10MPD2    C213952   2.717   0.839  12.748  0.3128  0.7226 -0.4116
   10MPD2    C313953   2.768   0.942  12.663 -0.3831 -0.1734  0.0725
   10MPD2    C413954   2.864   0.908  12.573 -0.5235  0.3356  0.1379
   10MPD2    C513955   2.899   0.774  12.561 -0.2321  0.0240  0.0297
   10MPD2     H13956   2.654   0.880  12.826  1.5118 -0.2134  1.0305
   10MPD2    H113957   2.917   0.973  12.503  1.4980 -0.3867  0.9924
   10MPD2    H213958   2.909   0.586  12.651 -3.1295 -1.9736  0.8308
   10MPD2    H313959   2.989   0.752  12.504 -0.4751 -0.9259  0.0217
   10MPD2     N13960   2.736   1.075  12.696  0.1053 -0.5925 -0.3870
   10MPD2    H513961   2.674   1.091  12.775 -0.5402 -2.7599 -0.4755
   10MPD2    N113962   2.715   0.612  12.841 -0.7654 -0.9050  0.1344
   10MPD2    H713963   2.647   0.646  12.909  1.2794  1.2708  1.0987
   11MPD2     C13964   3.466   4.171  14.383  0.3190  0.1816 -0.3441
   11MPD2    C113965   3.528   4.294  14.400  0.0714  0.3279  0.0771
   11MPD2    C213966   3.523   4.382  14.290 -0.3611 -0.2295  0.0009
   11MPD2    C313967   3.453   4.351  14.179  0.5317  0.6583 -0.0404
   11MPD2    C413968   3.386   4.234  14.169  0.3475  0.0113 -0.0593
   11MPD2    C513969   3.399   4.144  14.273  0.0456 -1.0742  0.0428
   11MPD2     H13970   3.562   4.483  14.296 -0.7076 -0.0702 -0.4889
   11MPD2    H113971   3.322   4.205  14.087  1.1990  0.8029 -1.0139
   11MPD2    H213972   3.475   4.094  14.459  1.7275  0.2219 -0.4681
   11MPD2    H313973   3.342   4.052  14.272 -1.1335 -0.3365 -1.0931
   11MPD2     N13974   3.433   4.437  14.063 -0.3302  0.5174  0.3573
   11MPD2    H513975   3.375   4.401  13.989  0.7860 -0.3406 -0.1099
   11MPD2    N113976   3.595   4.336  14.515  0.1919  0.4553 -0.0198
   11MPD2    H713977   3.652   4.420  14.508  0.9479 -0.0801 -0.2481
    1MPD1     C13978   0.504   1.897  17.121 -0.1116  0.3108  0.3298
    1MPD1    C113979   0.532   1.883  16.988  0.1269 -0.9537  0.5937
    1MPD1    C213980   0.536   1.750  16.950 -0.2033  0.2200  0.1258
    1MPD1    C313981   0.560   1.645  17.038 -0.2878 -0.2750 -0.0890
    1MPD1    C413982   0.549   1.670  17.172  0.1759 -0.0599 -0.0833
    1MPD1    C513983   0.521   1.798  17.218  0.1827 -0.0552  0.2724
    1MPD1     H13984   0.556   1.726  16.846  2.6707 -2.3020  1.2560
    1MPD1    H113985   0.548   1.601  17.255 -1.7440  2.7746  2.2168
    1MPD1    H213986   0.483   1.998  17.154  2.0690  0.9138 -0.1260
    1MPD1    H313987   0.492   1.827  17.319 -0.9158 -0.3251  0.0414
    1MPD1     N13988   0.597   1.515  17.000 -0.0464  0.2725  0.1330
    1MPD1    H513989   0.624   1.446  17.069 -1.6993 -0.9031 -0.3916
    1MPD1    N113990   0.519   1.988  16.890 -0.2080  0.7036  0.1416
    1MPD1    H613991   0.575   2.066  16.923 -1.6131  2.0499 -0.6486
    1MPD1    H713992   0.558   1.961  16.800  0.7112  0.1351  0.7046
    2MPD1     C13993   0.682   0.876  17.543  0.0909  0.2840 -0.7850
    2MPD1    C113994   0.727   1.000  17.547  0.1549 -0.5336  0.1592
    2MPD1    C213995   0.727   1.074  17.431  0.1930 -0.2023 -0.6169
    2MPD1    C313996   0.689   1.020  17.312  0.1303  1.0346  0.1589
    2MPD1    C413997   0.650   0.891  17.313  0.0478 -0.6213 -1.0812
    2MPD1    C513998   0.645   0.821  17.425  0.0640  0.3220  0.3162
    2MPD1     H13999   0.753   1.179  17.430  0.1785 -0.2189 -1.8962
    2MPD1    H114000   0.615   0.840  17.225 -1.0514 -2.4462  0.4050
    2MPD1    H214001   0.668   0.814  17.630 -0.5788  2.0307  0.3480
    2MPD1    H314002   0.594   0.727  17.409 -2.3258  1.8449 -0.9670
    2MPD1     N14003   0.697   1.096  17.191  0.4629 -0.1147  0.0136
    2MPD1    H514004   0.723   1.194  17.201 -1.3058  0.2525  1.0225
    2MPD1    N114005   0.754   1.057  17.672 -0.6009  0.5750  0.3011
    2MPD1    H614006   0.833   1.120  17.661  1.0902 -1.2607  2.0438
    2MPD1    H714007   0.777   0.999   0.055  0.9467 -0.2033 -0.7053
    3TMC3    C114008   0.716   1.138  16.966  0.6412  0.4058 -0.2444
    3TMC3    C214009   0.783   1.093  16.860 -1.0266 -0.5547 -0.8068
    3TMC3    C314010   0.791   1.180  16.751 -0.1401 -0.3686 -0.3795
    3TMC3    C414011   0.664   1.267  16.979 -0.0459 -0.5080  0.1827
    3TMC3    C514012   0.659   1.343  16.864  0.2249  0.1342 -0.1500
    3TMC3    C614013   0.721   1.300  16.747  0.7110  0.5657  0.0737
    3TMC3     C14014   0.678   1.043  17.064 -0.1800  0.2262  0.0992
    3TMC3     O14015   0.672   0.925  17.033 -0.9376 -0.1459 -0.1471
    3TMC3     H14016   0.821   0.992  16.846  0.3496  0.0796 -1.6150
    3TMC3    H114017   0.616   1.298  17.070 -0.2241  0.0852 -0.1184
    3TMC3    H214018   0.724   1.368  16.663  0.2862  1.1091  0.4973
    3TMC3    C714019   0.596   1.470  16.870  0.0305  0.3279  0.1673
    3TMC3    C814020   0.885   1.150  16.643  0.5663  0.3623 -0.2870
    3TMC3    O114021   0.535   1.511  16.770 -0.5655  0.1805 -0.4627
    3TMC3    O214022   0.879   1.190  16.533  0.7682 -0.1795 -0.2729
    4MPD1     C14023   1.357   1.014  16.517  0.1766 -0.6488 -0.0781
    4MPD1    C114024   1.337   0.969  16.649  0.1141  0.1282 -0.1901
    4MPD1    C214025   1.218   1.007  16.707  0.0397  0.5397  0.4239
    4MPD1    C314026   1.122   1.067  16.634  0.9174 -0.4549 -0.7907
    4MPD1    C414027   1.141   1.107  16.505  0.4124 -0.1261 -0.1779
    4MPD1    C514028   1.259   1.076  16.449  0.1880 -0.2333  0.0992
    4MPD1     H14029   1.190   0.978  16.808 -1.1131  2.4954  0.6586
    4MPD1    H114030   1.082   1.167  16.437  1.2011 -0.2358 -0.9478
    4MPD1    H214031   1.455   1.010  16.470 -0.8054 -1.1213 -2.0932
    4MPD1    H314032   1.281   1.104  16.347 -0.0399  0.4308  0.2331
    4MPD1     N14033   0.994   1.094  16.705 -0.0669  0.3418  0.4118
    4MPD1    H514034   0.989   1.092  16.806  0.4663  0.6539  0.4468
    4MPD1    N114035   1.437   0.912  16.725  0.0439 -0.1588 -0.0989
    4MPD1    H614036   1.498   0.864  16.659  0.3841  2.6812 -1.8667
    4MPD1    H714037   1.393   0.845  16.787  0.3076  1.7365  2.1851
    1TCq1    O114038   3.008   0.726  10.819 -0.1480  0.7216 -0.2028
    1TCq1    C114039   2.904   0.749  10.909  0.5244  0.3560 -0.5501
    1TCq1    O214040   2.791   0.783  10.883 -0.2533 -0.8673 -0.2755
    1TCq1    C214041   2.938   0.667  11.023  0.0134  0.0309  0.0651
    1TCq1    C314042   2.842   0.601  11.091 -0.0159  0.2715  0.0018
    1TCq1    C414043   2.862   0.541  11.218 -0.3448  0.4270  0.7049
    1TCq1    C514044   2.967   0.586  11.289 -0.6142 -0.4008  0.2323
    1TCq1    C614045   3.056   0.666  11.227  0.9296 -0.6368 -0.0921
    1TCq1    C714046   3.047   0.703  11.093 -0.3381 -0.0264 -0.0662
    1TCq1    C814047   3.162   0.720  11.295  0.4651  0.5970  0.0705
    1TCq1    O414048   3.257   0.754  11.229 -0.2196 -0.3694  0.0827
    1TCq1    C914049   2.758   0.486  11.294 -0.0347  0.2815 -0.5429
    1TCq1    O514050   2.760   0.507  11.418  0.0848  0.0402 -0.6841
    1TCq1    O614051   2.656   0.452  11.233  0.2817  0.3312  0.1981
    1TCq1    H114052   3.092   0.689  10.853 -0.7108  0.9557  1.4072
    1TCq1    H214053   2.741   0.613  11.054 -0.4776 -1.1929  0.8082
    1TCq1    H314054   2.987   0.549  11.389 -1.1296  1.3989  1.0127
    1TCq1    H414055   3.115   0.775  11.051  2.8098 -1.2883  2.8456
    2MPD1     C14056   3.356   0.839  11.742  0.0833  0.2731  0.6594
    2MPD1    C114057   3.221   0.847  11.755  0.6470  0.6307  0.4463
    2MPD1    C214058   3.141   0.817  11.648  0.2497 -0.1261  0.5708
    2MPD1    C314059   3.197   0.782  11.529 -0.0270  0.4343  0.5196
    2MPD1    C414060   3.335   0.784  11.518  0.3753 -1.0759 -0.6452
    2MPD1    C514061   3.415   0.807  11.625  0.1593 -0.1314  1.0152
    2MPD1     H14062   3.034   0.832  11.650  0.0944 -1.2567  0.5772
    2MPD1    H114063   3.384   0.757  11.425 -1.0915  0.9754 -2.0218
    2MPD1    H214064   3.413   0.870  11.829  3.5454 -1.0591 -1.1287
    2MPD1    H314065   3.522   0.794  11.626  0.0285 -1.3088 -2.5107
    2MPD1     N14066   3.112   0.760  11.417 -0.0709 -0.3214  0.7885
    2MPD1    H514067   3.013   0.743  11.433 -0.2959 -3.3579 -3.9432
    2MPD1    N114068   3.163   0.858  11.884  0.0890 -0.1937  0.2291
    2MPD1    H614069   3.064   0.880  11.884 -0.2313 -1.5826 -0.3494
    2MPD1    H714070   3.219   0.903  11.956 -0.8096 -0.2013  0.9289
    1TCq1    O114071   1.053   2.695   0.417 -0.3417 -1.1731 -0.6928
    1TCq1    C114072   0.925   2.651   0.425  0.4501 -0.5353 -0.5837
    1TCq1    O214073   0.835   2.730   0.452 -0.1747  0.1347 -0.9733
    1TCq1    C214074   0.914   2.512   0.462 -0.6029  0.0300  0.6600
    1TCq1    C314075   1.008   2.426   0.417  0.3949 -0.6104  0.1853
    1TCq1    C414076   0.988   2.293   0.441  1.0148  0.7717  0.9489
    1TCq1    C514077   0.882   2.252   0.519 -0.3021  0.0162  0.1341
    1TCq1    C614078   0.804   2.350   0.575 -0.7621  0.1562  0.1629
    1TCq1    C714079   0.811   2.480   0.544 -0.0324  0.1597  0.0152
    1TCq1    C814080   0.692   2.305   0.656  0.4406 -0.8996 -0.1906
    1TCq1    O414081   0.588   2.370   0.648 -0.0903  0.2490  0.0450
    1TCq1    C914082   1.104   2.214   0.434 -0.4631  0.4913 -0.4576
    1TCq1    O514083   1.094   2.106   0.497  0.1872  0.1779 -0.4663
    1TCq1    O614084   1.210   2.272   0.409  0.2441  0.2407 -0.4230
    1TCq1    H114085   1.119   2.626   0.396  1.1935  0.2919 -0.6775
    1TCq1    H214086   1.073   2.455   0.335 -2.3187 -1.2082 -2.1685
    1TCq1    H314087   0.863   2.149   0.549  2.5030  0.3773  3.1527
    1TCq1    H414088   0.749   2.558   0.586  0.8542  0.4203  0.8424
    2MPD1     C14089   0.455   1.950   0.931  0.8296  0.5478 -0.2338
    2MPD1    C114090   0.579   1.897   0.905 -0.3294  0.4707 -0.5508
    2MPD1    C214091   0.662   1.982   0.831  0.1676 -0.1165  0.4156
    2MPD1    C314092   0.623   2.105   0.789 -0.1252  0.7282  0.2110
    2MPD1    C414093   0.499   2.149   0.807 -0.0779 -0.2516 -0.0080
    2MPD1    C514094   0.410   2.070   0.873 -0.3872 -0.2198  0.3350
    2MPD1     H14095   0.766   1.956   0.814  0.3870  2.0033 -1.4058
    2MPD1    H114096   0.452   2.233   0.757 -0.1010  0.0030  0.4403
    2MPD1    H214097   0.376   1.907   0.991  2.0867 -1.7993 -0.2866
    2MPD1    H314098   0.306   2.094   0.891 -0.5508 -0.1365 -0.7479
    2MPD1     N14099   0.714   2.186   0.722 -0.3438  0.5541 -0.4943
    2MPD1    H514100   0.803   2.139   0.719 -0.2631  0.6357  0.5254
    2MPD1    N114101   0.623   1.780   0.971  0.2268 -0.4487  0.0173
    2MPD1    H614102   0.551   1.708   0.975  1.2262 -1.3778  1.4627
    2MPD1    H714103   0.708   1.735   0.936  0.1955 -0.8711  0.4788
    1MPD1     C14104   4.331   0.608  12.109 -0.4112 -0.4523 -0.3756
    1MPD1    C114105   4.256   0.722  12.120 -0.4167 -0.2159  0.8929
    1MPD1    C214106   4.272   0.815  12.019 -0.5294 -0.3311  0.2901
    1MPD1    C314107   4.365   0.806  11.918  0.0323 -0.0762  0.5430
    1MPD1    C414108   4.445   0.694  11.918  0.1684  0.7641 -0.0045
    1MPD1    C514109   4.427   0.599  12.016 -0.3304 -0.2811  0.9600
    1MPD1     H14110   4.211   0.905  12.021  0.9684  0.6719  0.8425
    1MPD1    H114111   4.510   0.664  11.836 -0.7746  0.1760 -0.5341
    1MPD1    H214112   4.337   0.539  12.192  1.7433 -0.6927 -0.7143
    1MPD1    H314113   4.480   0.505  12.011 -0.6011 -0.4267  0.8487
    1MPD1     N14114   4.395   0.922  11.833 -0.4377 -0.6950 -0.0230
    1MPD1    H514115   4.349   1.010  11.850 -1.0566 -0.9285 -0.5074
    1MPD1    N114116   4.152   0.735  12.216  0.2407  0.5498 -0.0987
    1MPD1    H614117   4.187   0.689  12.300  2.1942  2.8463  0.3402
    1MPD1    H714118   4.131   0.834  12.224 -1.3934  0.1792  0.2300
    2MPD1     C14119   3.820   2.433  10.039 -0.5266 -0.8283  0.0391
    2MPD1    C114120   3.703   2.357  10.066 -0.1720  0.2675  0.2183
    2MPD1    C214121   3.719   2.222  10.085 -0.2024 -0.0939 -0.2964
    2MPD1    C314122   3.841   2.164  10.110 -0.0528  0.6712 -0.4004
    2MPD1    C414123   3.960   2.242  10.080  0.0081  0.2067  0.3277
    2MPD1    C514124   3.940   2.371  10.039  0.3201 -0.2897  0.0458
    2MPD1     H14125   3.628   2.163  10.082  0.2610 -0.9045  1.0991
    2MPD1    H114126   4.063   2.209  10.087 -0.0481 -0.3574 -1.4221
    2MPD1    H214127   3.826   2.539  10.018 -2.5359 -0.4302  1.4460
    2MPD1    H314128   4.025   2.433  10.012  0.1218  0.5781  1.3719
    2MPD1     N14129   3.864   2.030  10.164  0.2490  0.6733 -0.2839
    2MPD1    H514130   3.958   1.994  10.166 -0.8332 -2.1304 -0.3265
    2MPD1    N114131   3.582   2.422  10.048  0.0681  0.2712  0.3273
    2MPD1    H614132   3.594   2.521  10.069  0.6234 -0.2212  2.3637
    2MPD1    H714133   3.509   2.386  10.109 -1.1811  0.0973 -1.2905
    3MPD1     C14134   3.472   1.733  10.920  0.4575 -0.1169  0.3112
    3MPD1    C114135   3.465   1.843  10.835  0.7700  0.3949 -0.2392
    3MPD1    C214136   3.526   1.815  10.714  0.4544 -0.1334 -0.1819
    3MPD1    C314137   3.594   1.698  10.680 -0.1692  0.4875  0.2460
    3MPD1    C414138   3.595   1.593  10.774  0.4479 -0.4304 -0.1159
    3MPD1    C514139   3.541   1.618  10.898  0.4128  0.5432 -0.3818
    3MPD1     H14140   3.526   1.900  10.647  0.6504  0.1363  0.1613
    3MPD1    H114141   3.650   1.500  10.765 -0.1564 -1.1182  2.9918
    3MPD1    H214142   3.433   1.750  11.020 -2.4619  0.0246 -0.8394
    3MPD1    H314143   3.529   1.542  10.974  0.8894 -0.3289 -1.1840
    3MPD1     N14144   3.653   1.697  10.548 -0.0258 -0.6491 -0.1517
    3MPD1    H514145   3.645   1.774  10.483  2.5041 -0.0377  0.2719
    3MPD1    N114146   3.382   1.953  10.870 -0.1146  0.1805  0.4299
    3MPD1    H614147   3.377   1.964  10.971 -0.9846 -1.2022  0.5431
    3MPD1    H714148   3.428   2.035  10.832  0.4309 -0.3085  0.0350
    4MPD2     C14149   4.181   1.501  11.397  0.2279 -0.5224  0.2772
    4MPD2    C114150   4.315   1.470  11.391  0.6915  0.4250  0.0677
    4MPD2    C214151   4.391   1.505  11.279  0.0504 -0.5745 -0.0612
    4MPD2    C314152   4.337   1.585  11.176  0.2217 -0.0476  0.3820
    4MPD2    C414153   4.205   1.616  11.190  0.2148 -0.2784 -0.3931
    4MPD2    C514154   4.125   1.569  11.296 -0.1231 -0.7312 -0.0398
    4MPD2     H14155   4.495   1.475  11.279 -0.9154 -3.9471  1.1982
    4MPD2    H114156   4.156   1.681  11.119  0.0849 -1.3783 -1.3098
    4MPD2    H214157   4.126   1.462  11.482 -0.5598 -0.8960 -0.4041
    4MPD2    H314158   4.020   1.593  11.305  0.1734  0.9211 -1.0427
    4MPD2     N14159   4.421   1.653  11.081 -0.1237 -0.0674  0.1317
    4MPD2    H514160   4.372   1.716  11.018  0.6033  0.5467  0.1862
    4MPD2    N114161   4.383   1.396  11.482  0.3428 -0.0035  0.1001
    4MPD2    H714162   4.480   1.375  11.462  0.1184 -3.0443  2.2001
    5TMC3    C114163   4.444   1.283  11.679 -0.4884  0.6423 -1.1288
    5TMC3    C214164   4.413   1.153  11.708 -0.4185  0.0615  0.6253
    5TMC3    C314165   4.507   1.059  11.678 -0.1757  0.0613  0.2032
    5TMC3    C414166   4.563   1.323  11.637 -0.0596  0.4887  0.2648
    5TMC3    C514167   4.651   1.226  11.602  0.3696 -0.4207 -0.1787
    5TMC3    C614168   4.628   1.095  11.618  0.9012  0.4872  0.2022
    5TMC3     C14169   4.343   1.351  11.605  0.3333 -0.4752 -0.6777
    5TMC3     O14170   4.245   1.370  11.670 -0.0454 -0.0010 -0.2594
    5TMC3     H14171   4.313   1.131  11.743 -0.4591 -1.7667 -0.6500
    5TMC3    H114172   4.581   1.429  11.627  5.2389 -0.4799 -0.6577
    5TMC3    H214173   4.697   1.014  11.598 -1.1052 -1.5022  1.2608
    5TMC3    C714174   4.705   1.264  11.470  0.3646 -0.2559 -0.2164
    5TMC3    C814175   4.497   0.928  11.735 -0.8626 -0.4534 -0.0811
    5TMC3    O114176   4.669   1.375  11.432 -0.2506  0.2758  0.1348
    5TMC3    O214177   4.595   0.853  11.721  0.4370  0.1021 -0.0652
    6TMC3    C114178   3.813   1.821  10.246  0.1418 -0.2062  0.5194
    6TMC3    C214179   3.721   1.731  10.300 -0.0956 -0.2382 -0.3080
    6TMC3    C314180   3.772   1.625  10.363  0.6792  0.6362 -0.0428
    6TMC3    C414181   3.940   1.787  10.215 -0.6951  0.8167  0.6961
    6TMC3    C514182   3.977   1.663  10.255 -0.0621  0.6247 -0.3644
    6TMC3    C614183   3.900   1.578  10.332 -0.1804 -0.2337  0.2214
    6TMC3     C14184   3.758   1.950  10.204 -0.0391  0.0836 -0.7912
    6TMC3     O14185   3.639   1.985  10.219  0.1021  0.5135  0.3899
    6TMC3     H14186   3.620   1.770  10.307 -0.3095 -0.9252  0.4748
    6TMC3    H114187   4.010   1.849  10.159 -0.6961 -0.2256 -0.4513
    6TMC3    H214188   3.930   1.489  10.386  0.9973  0.6201  0.9668
    6TMC3    C714189   4.116   1.640  10.230  0.1273 -0.0090 -0.5708
    6TMC3    C814190   3.723   1.593  10.498 -0.0027  0.1812  0.4012
    6TMC3    O114191   4.201   1.731  10.242  0.0852  0.3525 -0.2996
    6TMC3    O214192   3.749   1.484  10.553  0.0157 -0.5959  0.1885
    7MPD2     C14193   0.176   1.171  11.011  0.0250 -0.0441 -0.0493
    7MPD2    C114194   0.130   1.282  11.068  0.0251  0.4889  0.4281
    7MPD2    C214195   0.095   1.290  11.203 -0.2900 -0.4418  0.1940
    7MPD2    C314196   0.092   1.175  11.274  0.0370 -0.6212  1.2285
    7MPD2    C414197   0.138   1.062  11.214  0.1178 -0.2376  0.6083
    7MPD2    C514198   0.184   1.063  11.086 -0.1847  0.1506 -0.2058
    7MPD2     H14199   0.073   1.389  11.242 -1.2294 -0.9216  0.8999
    7MPD2    H114200   0.158   0.968  11.265 -1.4561 -0.7631  0.2441
    7MPD2    H214201   0.239   1.171  10.922  0.8337 -0.3709  0.5239
    7MPD2    H314202   0.235   0.973  11.052  1.0019  0.3933  0.9263
    7MPD2     N14203   0.040   1.160  11.403  1.0154 -0.0292  0.0368
    7MPD2    H514204   0.056   1.069  11.445 -0.7454  0.1344  1.0325
    7MPD2    N114205   0.114   1.410  11.005  0.5402  0.4294  0.6045
    7MPD2    H714206   0.078   1.490  11.057 -3.8307 -0.2420 -1.3831
    8TMC3    C114207   0.052   1.551  10.831 -0.4587 -0.2934  0.7391
    8TMC3    C214208   4.693   1.530  10.722  0.1566 -0.1153 -0.5441
    8TMC3    C314209   4.571   1.589  10.718 -0.5112 -0.5610  0.3773
    8TMC3    C414210   0.012   1.622  10.942  0.2532  0.5790  0.4750
    8TMC3    C514211   4.610   1.667  10.936 -0.0375 -0.2209 -0.0109
    8TMC3    C614212   4.526   1.659  10.830  0.3154  1.1272  0.3190
    8TMC3     C14213   0.136   1.435  10.878  0.0236  0.3852 -0.3686
    8TMC3     O14214   0.169   1.351  10.794 -0.2183 -0.1205  0.5851
    8TMC3     H14215   0.006   1.464  10.645  0.1442  0.3880 -0.9811
    8TMC3    H114216   0.079   1.666  11.016  0.7056 -0.2593  0.5673
    8TMC3    H214217   4.422   1.688  10.836 -0.6038 -2.3859  1.5391
    8TMC3    C714218   4.557   1.631  11.069 -0.0061  0.3187 -0.0586
    8TMC3    C814219   4.478   1.577  10.606  0.1657 -0.0528 -0.9485
    8TMC3    O114220   4.629   1.586  11.155 -0.2242 -0.3161 -0.3011
    8TMC3    O214221   4.369   1.636  10.618 -0.2288  0.5175  1.0778
    9MPD2     C14222   4.463   1.298  10.383  0.7248  0.2345  0.2523
    9MPD2    C114223   4.434   1.427  10.417  0.1715 -0.2193  0.0626
    9MPD2    C214224   4.337   1.509  10.360 -0.3945  0.1157  0.0281
    9MPD2    C314225   4.257   1.438  10.272 -0.5061 -0.3224  0.0732
    9MPD2    C414226   4.278   1.301  10.247  0.0137  0.6622  0.1374
    9MPD2    C514227   4.387   1.238  10.283  0.6278  0.0611 -0.1370
    9MPD2     H14228   4.322   1.614  10.382 -0.2269  0.3680 -1.0652
    9MPD2    H114229   4.212   1.248  10.179  0.7403 -1.9048  1.4556
    9MPD2    H214230   4.551   1.254  10.428  0.2756  0.2343  1.1281
    9MPD2    H314231   4.403   1.131  10.268 -0.4622 -0.3913  1.7844
    9MPD2     N14232   4.137   1.497  10.219 -0.2443 -0.2759 -0.1088
    9MPD2    H514233   4.061   1.435  10.197  1.2281 -1.8358 -0.8094
    9MPD2    N114234   4.521   1.483  10.514 -0.3657 -0.4453  0.5208
    9MPD2    H714235   4.610   1.437  10.530  0.1954 -0.5377 -2.8148
    1MPD1     C14236   0.201   0.330  16.879  0.2538 -0.0481  0.0741
    1MPD1    C114237   0.116   0.258  16.799  0.6122  0.2136 -0.0016
    1MPD1    C214238   4.705   0.286  16.816 -0.1675  0.1533 -0.1405
    1MPD1    C314239   4.658   0.393  16.894 -0.6025  0.4173  0.6724
    1MPD1    C414240   0.030   0.478  16.944  0.4246 -1.1671  0.5179
    1MPD1    C514241   0.162   0.446  16.946  0.0191 -0.0232  0.1936
    1MPD1     H14242   4.638   0.227  16.754  0.0327  0.5846 -0.7777
    1MPD1    H114243   0.008   0.571  16.996  0.4198 -1.3351  0.8211
    1MPD1    H214244   0.309   0.321  16.873  0.1103 -1.7813 -0.0377
    1MPD1    H314245   0.236   0.503  17.001  1.5578 -1.0755 -0.7861
    1MPD1     N14246   4.531   0.435  16.899  0.2223 -0.0769  0.5542
    1MPD1    H514247   4.513   0.500  16.975  0.4005  0.6315 -0.0150
    1MPD1    N114248   0.155   0.136  16.739 -0.4460 -0.1574 -0.5105
    1MPD1    H614249   0.097   0.118  16.657  1.8368 -1.2322 -1.9016
    1MPD1    H714250   0.252   0.137  16.707 -1.3888  1.7579 -3.2846
    2MPD1     C14251   3.702   4.663  16.660 -0.3801  0.4776 -0.9182
    2MPD1    C114252   3.818   4.624  16.716 -0.0272 -0.6872 -0.1905
    2MPD1    C214253   3.903   0.001  16.762 -0.0402 -0.1828 -0.3024
    2MPD1    C314254   3.874   0.139  16.742 -0.1914 -0.7280 -0.0465
    2MPD1    C414255   3.763   0.170  16.673 -0.3226 -0.1322  0.3688
    2MPD1    C514256   3.680   0.066  16.633 -0.9991  0.2635  0.0289
    2MPD1     H14257   4.002   4.709  16.804 -0.8832 -0.6081  1.5053
    2MPD1    H114258   3.745   0.271  16.638  0.1902 -0.1507  0.0684
    2MPD1    H214259   3.620   4.599  16.628 -0.5217  0.4444 -0.4960
    2MPD1    H314260   3.592   0.090  16.575 -1.1388 -0.9488 -0.2559
    2MPD1     N14261   3.965   0.232  16.788  0.1840 -0.0604 -0.4625
    2MPD1    H514262   4.056   0.200  16.821 -1.2514 -3.9264 -0.2079
    2MPD1    N114263   3.851   4.493  16.734 -0.2864  0.4592  0.2506
    2MPD1    H614264   3.807   4.424  16.674  0.2900 -0.1122  0.4821
    2MPD1    H714265   3.947   4.465  16.752 -0.9057 -0.9760  1.3063
    3TCq2    C114266   3.947   0.372  16.803  0.5412 -0.0868 -0.0020
    3TCq2    O214267   3.839   0.421  16.834  0.0048 -0.5036 -0.0422
    3TCq2    C214268   4.072   0.438  16.848 -0.3163 -0.4968  0.0892
    3TCq2    C314269   4.063   0.530  16.953  0.1522  0.2889  0.1437
    3TCq2    C414270   4.172   0.572  17.022  0.1811 -0.1832 -0.1568
    3TCq2    C514271   4.295   0.518  16.988  0.3574 -0.3917  0.4739
    3TCq2    C614272   4.301   0.435  16.883 -0.7178  0.4580  0.6732
    3TCq2    C714273   4.195   0.382  16.815 -0.3554 -0.1340 -0.2266
    3TCq2    C814274   4.427   0.383  16.829  0.0433  0.5323 -0.3024
    3TCq2    O414275   4.422   0.308  16.733  0.1487  0.1318  0.6165
    3TCq2    C914276   4.174   0.680  17.129 -0.9031 -0.0478 -1.0354
    3TCq2    O514277   4.289   0.731  17.149 -0.1049 -0.0617 -0.3902
    3TCq2    O614278   4.060   0.737  17.148 -0.1998  0.2923  0.4997
    3TCq2    H214279   3.965   0.570  16.972 -0.1352  0.3532 -1.4217
    3TCq2    H314280   4.385   0.565  17.026 -1.3347  2.8165  0.5443
    3TCq2    H414281   4.213   0.324  16.724  2.9874 -0.1014  0.3999
    1TCq1    O114282   1.789   2.946  12.611  0.2169  0.5313  0.6078
    1TCq1    C114283   1.844   3.065  12.648 -0.0418  0.5033  0.0261
    1TCq1    O214284   1.948   3.087  12.712 -0.3514 -0.7397 -0.0236
    1TCq1    C214285   1.751   3.172  12.610 -0.0273 -0.1907 -0.5092
    1TCq1    C314286   1.617   3.152  12.596  0.6599  0.3771  0.1221
    1TCq1    C414287   1.550   3.255  12.535 -0.2465 -0.3682 -0.7286
    1TCq1    C514288   1.600   3.379  12.517 -0.0725  0.2582  0.5307
    1TCq1    C614289   1.730   3.395  12.555 -0.5595 -0.1305 -0.5495
    1TCq1    C714290   1.810   3.297  12.599  0.4121  0.0205 -0.4896
    1TCq1    C814291   1.792   3.529  12.543  0.6679  0.4412  0.0500
    1TCq1    O414292   1.739   3.611  12.469 -0.1661  0.1121  0.1872
    1TCq1    C914293   1.411   3.239  12.523  0.1080 -0.5330 -1.0408
    1TCq1    O514294   1.361   3.129  12.550  0.0727 -0.7830 -0.3083
    1TCq1    O614295   1.345   3.339  12.535 -0.3152  0.0276 -0.0060
    1TCq1    H114296   1.726   2.950  12.536  0.1764  0.4935  0.6398
    1TCq1    H214297   1.570   3.054  12.606 -3.0618  2.2688  1.0742
    1TCq1    H314298   1.545   3.472  12.504  0.5792  0.4483 -0.8479
    1TCq1    H414299   1.917   3.306  12.614  0.1964 -0.8134  1.5501
    2MPD2     C14300   1.958   3.771  12.536  0.2343 -0.3786  0.0116
    2MPD2    C114301   1.982   3.670  12.631  0.3246 -0.4024  0.5040
    2MPD2    C214302   2.083   3.685  12.726  0.1396 -0.2706 -0.0817
    2MPD2    C314303   2.151   3.804  12.743  0.0278 -0.6091 -0.3056
    2MPD2    C414304   2.116   3.906  12.655 -0.5966  0.7294 -0.1019
    2MPD2    C514305   2.029   3.886  12.551 -0.1863 -0.2282 -0.0613
    2MPD2     H14306   2.094   3.615  12.808 -1.2378  0.7832  1.0128
    2MPD2    H114307   2.163   4.004  12.659 -0.7835  0.7993  0.5296
    2MPD2    H214308   1.904   3.765  12.442 -0.2256 -0.9977  0.3178
    2MPD2    H314309   2.008   3.967  12.482 -1.3887  1.6478  2.5175
    2MPD2     N14310   2.236   3.831  12.856 -0.1847 -0.4808 -0.0571
    2MPD2    H514311   2.258   3.754  12.918 -1.0069 -0.5111  0.2031
    2MPD2    N114312   1.902   3.552  12.625 -0.0587  0.5981 -0.4543
    2MPD2    H714313   1.914   3.479  12.694  1.2314 -0.4599 -1.7836
    3TCq1    O114314   2.770   3.891  13.155  0.1809 -0.1357  0.3354
    3TCq1    C114315   2.665   3.805  13.151 -0.1048 -0.2331 -0.0440
    3TCq1    O214316   2.665   3.690  13.108  0.3955  0.0257  0.2255
    3TCq1    C214317   2.543   3.894  13.144  0.9872 -0.1329  0.6941
    3TCq1    C314318   2.531   3.998  13.228 -0.3833 -0.0972 -0.6459
    3TCq1    C414319   2.437   4.095  13.207  0.5333  0.7573  0.5848
    3TCq1    C514320   2.348   4.080  13.106 -0.3044 -1.0284 -0.7106
    3TCq1    C614321   2.362   3.967  13.019  0.3604 -0.6916 -0.2727
    3TCq1    C714322   2.463   3.870  13.039 -0.3146  0.2915  0.2816
    3TCq1    C814323   2.268   3.961  12.905 -0.3786  0.3309  0.6587
    3TCq1    O414324   2.213   4.069  12.874 -0.2547 -0.5644  0.0862
    3TCq1    C914325   2.439   4.217  13.281  0.4891 -0.1979 -0.1664
    3TCq1    O514326   2.484   4.213  13.401  0.4876 -0.0147 -0.6911
    3TCq1    O614327   2.401   4.326  13.231 -0.1681  0.1564  0.4503
    3TCq1    H114328   2.740   3.982  13.174  1.2414  0.1821  0.4977
    3TCq1    H214329   2.597   4.021  13.311  0.9730  0.9943 -2.0035
    3TCq1    H314330   2.275   4.159  13.090  0.6977  0.1905  0.7111
    3TCq1    H414331   2.489   3.801  12.960 -0.2976  0.6926 -0.0633
    1MPD2     C14332   1.883   4.364  14.980 -0.1366  0.0327  0.1972
    1MPD2    C114333   1.801   4.381  14.875 -0.4280 -1.2079 -0.8714
    1MPD2    C214334   1.861   4.380  14.751 -0.2757 -0.0079 -0.3165
    1MPD2    C314335   1.996   4.377  14.730  0.6844  0.1080 -0.3287
    1MPD2    C414336   2.074   4.364  14.839  0.2850 -0.1914 -0.4478
    1MPD2    C514337   2.018   4.364  14.964 -0.1158 -0.0308  0.2052
    1MPD2     H14338   1.803   4.378  14.659 -1.4354 -2.3860  0.4518
    1MPD2    H114339   2.183   4.362  14.843  0.2528 -2.1944 -0.6690
    1MPD2    H214340   1.849   4.358  15.083  0.5115  1.5861  0.4910
    1MPD2    H314341   2.078   4.341  15.051 -1.8578  0.1377  1.4390
    1MPD2     N14342   2.045   4.373  14.596  1.0088 -0.1000  0.3228
    1MPD2    H514343   1.975   4.375  14.523  0.5055 -0.7482  0.7835
    1MPD2    N114344   1.665   4.372  14.896  0.3939  0.0440  0.4602
    1MPD2    H714345   1.628   4.365  14.990  1.2060 -0.0578  0.7751
    2TMC3    C114346   1.440   4.330  14.841 -0.0490  0.1799  0.1453
    2TMC3    C214347   1.382   4.263  14.746 -0.5843 -0.5987 -0.1704
    2TMC3    C314348   1.268   4.300  14.679  0.0537 -0.1289  1.4087
    2TMC3    C414349   1.372   4.441  14.882 -0.4564 -0.1775 -0.2345
    2TMC3    C514350   1.241   4.468  14.830 -0.1461  0.1248 -0.3198
    2TMC3    C614351   1.191   4.402  14.725  0.1875 -0.3320  0.1609
    2TMC3     C14352   1.574   4.356  14.799  0.0332  0.3084 -0.1404
    2TMC3     O14353   1.587   4.365  14.678 -0.0385  0.1152 -0.0919
    2TMC3     H14354   1.450   4.185  14.714 -1.8548 -1.2169 -1.3851
    2TMC3    H114355   1.415   4.508  14.956 -0.5303  0.4773 -0.7866
    2TMC3    H214356   1.099   4.436  14.678 -0.2599 -1.5282  0.1798
    2TMC3    C714357   1.160   4.583  14.881  1.1503 -0.9232  0.2946
    2TMC3    C814358   1.274   4.278  14.537 -0.4616 -0.6831 -0.6791
    2TMC3    O114359   1.038   4.577  14.882  0.2525 -0.1517 -0.0772
    2TMC3    O214360   1.170   4.288  14.477  0.0508 -0.0391  0.8667
    3TCq1    O114361   1.492   1.040  14.672 -0.1446 -0.1816 -0.4822
    3TCq1    C114362   1.402   0.937  14.649  0.6622 -0.9069  0.1716
    3TCq1    O214363   1.322   0.932  14.555 -0.2601  0.6626 -0.2488
    3TCq1    C214364   1.434   0.830  14.745  0.0584 -0.1909  0.9735
    3TCq1    C314365   1.562   0.797  14.763 -0.1425 -0.2988  0.2944
    3TCq1    C414366   1.588   0.681  14.821  0.0786 -0.6109  0.2629
    3TCq1    C514367   1.489   0.592  14.841  0.0159  0.3711  0.7415
    3TCq1    C614368   1.355   0.627  14.815 -0.5344  0.0380  0.0159
    3TCq1    C714369   1.324   0.753  14.766 -0.9701  1.0088 -0.0502
    3TCq1    C814370   1.249   0.557  14.894 -0.9011  0.1266 -0.0856
    3TCq1    O414371   1.158   0.626  14.936  0.1347 -0.3066  0.2440
    3TCq1    C914372   1.725   0.640  14.848  0.6024  0.3288  0.1363
    3TCq1    O514373   1.755   0.563  14.939 -0.9394 -0.4979  0.4712
    3TCq1    O614374   1.819   0.700  14.796  0.0480  0.1123  0.5407
    3TCq1    H114375   1.539   1.034  14.758  0.9670 -5.4490 -1.4413
    3TCq1    H214376   1.652   0.845  14.725 -0.0939 -0.2678  0.4464
    3TCq1    H314377   1.522   0.496  14.878  0.6463 -0.2980 -1.5574
    3TCq1    H414378   1.227   0.786  14.729 -0.5768  0.3527 -1.6437
    4MPD2     C14379   1.085   0.335  15.015 -0.3477  0.6928 -0.1353
    4MPD2    C114380   1.211   0.325  14.964 -0.3861  0.5374  0.0336
    4MPD2    C214381   1.259   0.204  14.934  0.3009 -0.2808  0.7931
    4MPD2    C314382   1.189   0.092  14.963 -0.0495 -0.6244  0.3167
    4MPD2    C414383   1.074   0.097  15.032 -0.0498 -0.3109 -0.2479
    4MPD2    C514384   1.021   0.223  15.062  0.2886 -0.5847  0.0262
    4MPD2     H14385   1.362   0.196  14.900  0.6906 -1.3864  2.1962
    4MPD2    H114386   1.032   0.002  15.065  1.3081 -0.0958  2.0660
    4MPD2    H214387   1.030   0.428  15.023  1.2173  1.5417  0.8647
    4MPD2    H314388   0.920   0.229  15.103 -0.1248  1.2253 -1.2986
    4MPD2     N14389   1.241   4.690  14.924 -0.0192  0.1436  0.0804
    4MPD2    H514390   1.333   4.690  14.882 -0.4532  1.5274 -0.8505
    4MPD2    N114391   1.285   0.430  14.910 -0.0256  0.5990 -0.7429
    4MPD2    H714392   1.355   0.397  14.845  2.0572  0.8752  1.3737
    5TMC2    C114393   1.995   4.291  14.253  0.0848  0.6487 -0.5487
    5TMC2    C214394   2.047   4.171  14.217  0.5297  0.0357 -0.1131
    5TMC2    C314395   2.172   4.147  14.265  0.8659 -0.0613 -0.6758
    5TMC2    C414396   2.059   4.377  14.336  0.4883  0.2228  0.7972
    5TMC2    C514397   2.176   4.335  14.405  0.5990 -0.7840 -0.1312
    5TMC2    C614398   2.242   4.224  14.353 -0.0920  0.0339  0.0590
    5TMC2     C14399   1.856   4.291  14.294 -0.0774  0.7115  0.3687
    5TMC2     O14400   1.838   4.320  14.410 -0.5416 -0.6932  0.2919
    5TMC2     H14401   2.000   4.110  14.141  0.8590 -0.7139  0.2852
    5TMC2    H114402   2.001   4.465  14.364  0.6761  0.3582  0.7648
    5TMC2    H214403   2.337   4.191  14.394  0.3117  0.4856 -0.5254
    5TMC2    C714404   2.171   4.360  14.549  0.9588 -0.3590  0.3225
    5TMC2    C814405   2.241   4.046  14.202 -0.2991  0.3331 -0.1035
    5TMC2    O114406   2.277   4.368  14.612 -0.0881  0.3436 -0.2842
    5TMC2    O214407   2.243   3.931  14.246 -0.1341 -0.6517  0.4464
    5TMC2    O514408   2.358   4.106  14.171  0.5712 -0.0180 -0.3135
    5TMC2    H514409   2.352   4.193  14.125  0.6961  1.0000  1.5671
    6MPD2     C14410   1.361   4.184  14.269  0.0073  0.1578  0.2050
    6MPD2    C114411   1.445   4.220  14.369  0.5778  0.0506  0.0330
    6MPD2    C214412   1.578   4.213  14.352 -0.0491 -0.6946 -1.0064
    6MPD2    C314413   1.635   4.197  14.230 -0.9638  0.0549  0.0263
    6MPD2    C414414   1.557   4.150  14.126  0.1476  0.9881 -0.4075
    6MPD2    C514415   1.421   4.147  14.148  0.3730 -0.4784  0.4121
    6MPD2     H14416   1.646   4.240  14.432 -0.9822  0.3375 -0.5567
    6MPD2    H114417   1.602   4.129  14.029 -0.5164  1.3399 -0.7878
    6MPD2    H214418   1.254   4.183  14.286 -0.4114  0.7177 -2.4029
    6MPD2    H314419   1.352   4.109  14.073 -0.4163  1.2626  0.2465
    6MPD2     N14420   1.773   4.230  14.205 -0.0055  0.0492 -0.3939
    6MPD2    H514421   1.801   4.217  14.109  3.0328 -0.3783  0.5255
    6MPD2    N114422   1.401   4.264  14.495  0.0466  0.1595  0.8068
    6MPD2    H714423   1.473   4.272  14.565 -0.7376  2.3279  1.3610
  945NH3     N114424   2.374   3.805   2.280  0.7966  0.6605  0.4463
  945NH3     H214425   2.415   3.892   2.310 -0.2630  2.3570 -3.0036
  945NH3     H314426   2.281   3.820   2.242  1.3209  0.2140 -1.0036
  945NH3     H414427   2.380   3.738   2.356  2.8631 -0.2357 -0.5034
  946SOD     NA14428   1.760   0.350  14.930  0.6825 -0.0702 -0.0790
  947SOD     NA14429   3.973   4.067  14.663  0.2273 -0.4319 -0.0720
  948SOD     NA14430   4.660   0.908   0.090 -0.4493 -0.3360  0.0188
  949SOD     NA14431   2.073   3.343  10.471  0.4747  0.2979 -0.4495
  950SOD     NA14432   1.743   2.505  10.999  0.1784  0.2883  0.0550
  951SOD     NA14433   3.716   0.794  17.002  0.3907 -0.0516 -0.3280
  952SOD     NA14434   1.159   3.209  12.618 -0.0504  0.3757  0.3205
  953SOD     NA14435   4.666   4.102   1.920 -0.0173 -0.4030  0.1565
  954SOD     NA14436   2.420   3.249  11.719 -0.3257 -0.2632  0.0215
  955SOD     NA14437   3.649   2.570  14.390  0.6656 -0.3890 -0.3868
  956SOD     NA14438   3.704   2.311  17.532  0.0861  0.3181  0.4913
  957SOD     NA14439   2.968   3.239  11.927  0.1907 -0.0016 -0.2506
  958SOD     NA14440   2.097   1.645   7.441 -0.2517 -0.3784 -0.2540
  959SOD     NA14441   3.882   3.725  14.718  0.3216 -0.6445 -0.0143
  960SOD     NA14442   3.106   3.673  14.465  0.5331  0.3325  0.3010
  961SOD     NA14443   2.747   0.207   6.744  0.3528 -0.3783 -0.0720
  962SOD     NA14444   2.313   4.312  12.196  0.6303 -0.4115  0.2242
  963SOD     NA14445   0.270   3.061   1.298 -0.5948 -0.4256  0.6365
  964SOD     NA14446   4.650   2.953  11.652 -0.2996 -0.7412  0.3101
  965SOD     NA14447   3.143   2.768   1.805 -0.7675  0.2086  0.0966
  966SOD     NA14448   2.677   1.370  10.151 -0.4268 -0.2686 -0.4420
  967SOD     NA14449   3.850   4.057  10.110  0.5160 -0.4199 -0.4713
  968SOD     NA14450   1.026   3.869   9.695  0.0056  0.1627  0.3562
  969SOD     NA14451   4.379   0.504   9.184 -0.3152  0.0680 -0.0950
  970SOD     NA14452   0.518   3.895  10.122 -0.2240  0.4553  0.2985
  971SOD     NA14453   3.080   0.128  15.329 -0.3948 -0.1421  0.9757
  972SOD     NA14454   4.668   2.061   5.569  0.5084 -0.3583  0.2800
  973SOD     NA14455   2.612   3.742  10.979 -0.0431  0.0360  0.4745
  974SOD     NA14456   2.048   2.644   1.325  0.0076  0.4508  0.7002
  975SOD     NA14457   2.032   1.327   0.485 -0.4839 -0.1388 -0.1383
  976SOD     NA14458   2.734   0.366  11.571  0.0146  0.1565  0.0752
  977SOD     NA14459   2.500   0.525  11.364 -0.1468  0.2007 -0.1313
  978SOD     NA14460   2.998   4.000   2.946  0.1108  0.7651 -0.5831
  979SOD     NA14461   0.833   2.797  13.021 -0.0999 -0.1583  0.1532
  980SOD     NA14462   3.957   3.942  14.968  0.3290  0.1908 -0.3883
  981SOD     NA14463   3.242   1.779   2.165  0.2885  0.3279 -0.3409
  982SOD     NA14464   4.054   2.247  10.578 -0.0950  0.0729 -0.4972
  983SOD     NA14465   1.444   0.401  15.399 -0.3466 -0.1469 -0.5488
  984SOD     NA14466   0.095   2.305  12.693 -0.5920  0.4039  0.2026
  985SOD     NA14467   4.715   2.269   1.763 -0.3574  0.1805  0.0142
  986SOD     NA14468   2.750   1.110  16.061 -0.1446  0.5218  0.0030
  987SOD     NA14469   1.840   1.502   9.166 -0.2467  0.2482 -0.0031
  988SOD     NA14470   1.984   3.245   9.715  0.3512 -0.1068  0.1713
  989SOD     NA14471   1.751   2.451   1.667 -0.1101 -0.0702 -0.6042
  990SOD     NA14472   2.422   3.415  10.562  0.0885 -0.1442  0.1662
  991SOD     NA14473   2.925   4.426  14.979  0.0211  0.0559 -0.2591
  992SOD     NA14474   1.977   0.624  14.917  0.6502  0.6879 -0.1026
  993SOD     NA14475   1.617   2.827   5.175 -0.1351  0.2761 -0.1027
  994SOD     NA14476   2.378   4.429  12.546 -0.1195 -0.2434  0.1557
  995SOD     NA14477   0.454   0.950  14.197  0.3514  0.4872  0.3978
  996SOD     NA14478   1.762   2.274  10.480  0.0974 -0.0484  0.1655
  997SOD     NA14479   1.341   3.981   4.455 -0.0166  0.8341 -0.0800
  998SOD     NA14480   3.216   4.294  11.252  0.1872 -0.2698  0.1224
  999SOD     NA14481   1.933   0.632   2.487  0.0652 -0.2824  0.3621
 1000SOD     NA14482   1.943   0.596   0.031  0.6534 -0.1103  0.1033
 1001SOD     NA14483   3.068   4.722  12.860 -0.2049  0.1713 -0.0496
 1002SOD     NA14484   0.918   3.955  14.336 -0.4410 -0.2644 -0.2386
 1003SOD     NA14485   3.878   1.130  14.036  0.0234  0.1846  0.6761
 1004SOD     NA14486   0.378   3.750  11.366 -0.1628  0.1499 -0.1597
 1005SOD     NA14487   1.157   2.908  14.610  0.0350  0.1973  0.2247
 1006SOD     NA14488   0.808   1.229   3.516 -0.1398  0.0288  0.4753
 1007SOD     NA14489   3.602   2.473  12.785 -0.0587  0.2573 -0.3657
 1008SOD     NA14490   3.380   3.770  14.580  0.0415  0.3649  0.0626
 1009SOD     NA14491   3.316   3.400   0.613  0.4913 -0.6208 -0.0024
 1010SOD     NA14492   3.335   2.879  16.960  0.0148  0.5123  0.0880
 1011SOD     NA14493   3.346   2.569   3.227  0.4886  0.5103 -0.1668
 1012SOL     OW14494   0.126   2.059   1.315  0.1377 -0.3061  0.5827
 1012SOL    HW114495   0.051   2.110   1.286  1.6607  0.9841 -1.0658
 1012SOL    HW214496   0.096   1.973   1.285  0.8432  0.4101 -2.1805
 1013SOL     OW14497   4.232   4.414   3.139 -0.0877  0.3952  0.2093
 1013SOL    HW114498   4.243   4.319   3.145  0.3432  0.4890  0.9205
 1013SOL    HW214499   4.284   4.430   3.060 -0.6483  0.9179 -0.0566
 1014SOL     OW14500   3.849   1.946  10.809 -0.1313  0.2645  0.0424
 1014SOL    HW114501   3.785   1.931  10.739  1.0303 -1.5928 -0.6058
 1014SOL    HW214502   3.821   1.889  10.880  1.2601  0.1204  0.4623
 1015SOL     OW14503   4.000   1.860   3.221 -0.2168 -0.0242 -0.1381
 1015SOL    HW114504   4.027   1.862   3.129  0.7569  1.7228  0.1706
 1015SOL    HW214505   4.082   1.848   3.270 -0.7979 -0.8988  0.6174
 1016SOL     OW14506   1.651   2.270   1.802 -0.1739  0.6887 -0.4660
 1016SOL    HW114507   1.694   2.191   1.832  2.4754  2.3538  0.1178
 1016SOL    HW214508   1.560   2.259   1.830 -0.3050 -0.6866 -1.4394
 1017SOL     OW14509   4.163   1.029   5.791  0.3236 -0.3606  0.1894
 1017SOL    HW114510   4.122   1.094   5.847 -0.9546  1.3334 -2.7326
 1017SOL    HW214511   4.244   1.071   5.762  1.4581 -0.7814  2.7511
 1018SOL     OW14512   2.033   2.226   5.975  0.1744 -0.2733 -0.4770
 1018SOL    HW114513   2.047   2.233   6.069  2.0499  2.3430 -0.9779
 1018SOL    HW214514   2.044   2.318   5.953 -0.2282 -0.5552 -1.8368
 1019SOL     OW14515   0.685   1.417   2.911  0.0483  0.4520  0.0029
 1019SOL    HW114516   0.697   1.508   2.938  0.6123 -0.2211  1.9474
 1019SOL    HW214517   0.732   1.427   2.827  1.6841  1.7880  1.0729
 1020SOL     OW14518   2.246   0.594  11.675 -0.3815 -0.3323  0.3527
 1020SOL    HW114519   2.209   0.666  11.625 -1.8940  0.0603  2.0339
 1020SOL    HW214520   2.166   0.582  11.725 -1.0994  1.7479 -0.3035
 1021SOL     OW14521   1.141   0.481   9.188  0.2006  0.3819  0.5679
 1021SOL    HW114522   1.099   0.527   9.116  0.9208 -1.1621 -0.8351
 1021SOL    HW214523   1.137   0.394   9.148  0.6340  0.9945 -0.7873
 1022SOL     OW14524   3.714   0.853   7.145  0.4408  0.1896  0.0381
 1022SOL    HW114525   3.664   0.935   7.152  0.4871  0.0649  1.9926
 1022SOL    HW214526   3.641   0.792   7.145  1.4689 -1.0310  0.9018
 1023SOL     OW14527   3.897   4.177   7.534  0.1084  0.0877  0.1794
 1023SOL    HW114528   3.963   4.215   7.593 -0.5237  0.7290  0.4857
 1023SOL    HW214529   3.898   4.086   7.562  1.8572  1.2246  3.9898
 1024SOL     OW14530   2.873   2.757   5.665 -0.2187 -0.1399  0.6305
 1024SOL    HW114531   2.960   2.794   5.646  0.7162 -0.7506  3.7112
 1024SOL    HW214532   2.898   2.667   5.686  0.5266  0.2416  1.3844
 1025SOL     OW14533   1.761   4.206   2.646 -0.0518 -0.2954  0.2713
 1025SOL    HW114534   1.819   4.278   2.621 -0.5562  0.0877  0.2004
 1025SOL    HW214535   1.808   4.125   2.624 -2.0393 -0.7661 -2.2190
 1026SOL     OW14536   3.355   3.244   6.036  0.3643 -0.2007 -0.1313
 1026SOL    HW114537   3.289   3.176   6.051  0.0891  0.4087  1.4694
 1026SOL    HW214538   3.392   3.234   6.124 -0.4922 -1.9370  0.0258
 1027SOL     OW14539   4.250   3.257   2.336  0.1299 -0.4031  0.5803
 1027SOL    HW114540   4.284   3.198   2.404 -0.2440 -0.3502  0.8118
 1027SOL    HW214541   4.211   3.329   2.386  1.6601  1.4131 -0.8430
 1028SOL     OW14542   0.964   1.284   2.885 -0.6205  0.2359 -0.5320
 1028SOL    HW114543   0.873   1.309   2.869  0.1131  1.8568 -2.2637
 1028SOL    HW214544   1.003   1.372   2.885 -3.3096  1.4208 -1.4394
 1029SOL     OW14545   2.692   2.007   7.027  0.2802  0.0617  0.1239
 1029SOL    HW114546   2.719   2.085   6.978  1.2035 -0.1750  0.2422
 1029SOL    HW214547   2.611   2.042   7.064  0.1068  0.8777 -1.0385
 1030SOL     OW14548   2.482   0.979  12.283  0.1929 -0.1589  0.1459
 1030SOL    HW114549   2.558   0.995  12.227  0.1718 -0.1195  0.1284
 1030SOL    HW214550   2.460   1.066  12.317 -0.9420 -0.1567 -0.5914
 1031SOL     OW14551   1.153   0.454   2.086  0.6428  0.0925  0.5194
 1031SOL    HW114552   1.191   0.525   2.034 -1.1529  0.4611 -0.2765
 1031SOL    HW214553   1.075   0.493   2.124  0.4862 -1.4545  1.8139
 1032SOL     OW14554   1.793   2.326   2.228  0.3136  0.3508 -0.1611
 1032SOL    HW114555   1.710   2.280   2.213 -0.9088  2.5968 -0.2950
 1032SOL    HW214556   1.846   2.259   2.273 -1.9086 -0.9219  0.5912
 1033SOL     OW14557   4.318   2.378  17.127  0.1428 -0.0885 -0.1616
 1033SOL    HW114558   4.335   2.435  17.052  2.1850  1.5785  1.5914
 1033SOL    HW214559   4.400   2.360  17.172 -1.4585 -3.9379  1.2580
 1034SOL     OW14560   1.914   2.049   8.666 -0.0184  0.3787 -0.1229
 1034SOL    HW114561   1.901   2.027   8.574 -0.6406 -0.6723  0.2178
 1034SOL    HW214562   1.821   2.051   8.692  0.7063 -1.6453  2.6793
 1035SOL     OW14563   3.303   4.008   8.986 -0.1155 -0.3897  0.2383
 1035SOL    HW114564   3.340   3.970   9.065 -2.0279  0.6349  1.6147
 1035SOL    HW214565   3.367   3.996   8.915  0.3511 -0.3968  0.6626
 1036SOL     OW14566   2.729   4.534  15.894  0.0018  0.0806 -0.0340
 1036SOL    HW114567   2.792   4.599  15.926 -3.0739  2.3335  1.4156
 1036SOL    HW214568   2.646   4.554  15.936 -0.5801 -2.0119 -0.2056
 1037SOL     OW14569   2.430   2.230   2.684  0.2429 -0.6560 -0.3159
 1037SOL    HW114570   2.476   2.281   2.618  0.8831 -2.3487 -1.1858
 1037SOL    HW214571   2.415   2.140   2.653  1.7891 -1.0147 -0.0250
 1038SOL     OW14572   0.897   1.531   2.039 -0.3859  0.1705  0.6838
 1038SOL    HW114573   0.846   1.507   1.962  0.4476 -1.4387  0.6533
 1038SOL    HW214574   0.875   1.623   2.054  1.3809  0.2992  2.5210
 1039SOL     OW14575   0.454   1.354   1.220 -0.9001 -0.1426  0.4101
 1039SOL    HW114576   0.417   1.328   1.136 -1.2829 -1.4435  0.9827
 1039SOL    HW214577   0.382   1.337   1.281 -2.0557  1.8306 -0.4029
 1040SOL     OW14578   0.914   4.506   6.179 -0.3467  0.1096  0.0658
 1040SOL    HW114579   0.984   4.569   6.159 -0.1248 -0.2874 -0.4277
 1040SOL    HW214580   0.855   4.569   6.219 -0.2825  1.5491 -2.0939
 1041SOL     OW14581   2.383   2.625   6.039 -0.3585  0.8822 -0.3586
 1041SOL    HW114582   2.391   2.720   6.034  0.7563  0.8212  0.4818
 1041SOL    HW214583   2.458   2.591   5.991 -0.7533  0.3565 -0.6062
 1042SOL     OW14584   1.590   2.791   0.582 -0.0778  0.2490  0.1036
 1042SOL    HW114585   1.524   2.793   0.513 -1.3295 -0.2905  1.2890
 1042SOL    HW214586   1.656   2.732   0.545  0.9498  1.4723 -0.0170
 1043SOL     OW14587   1.376   1.747   9.009  0.1558 -0.1932  0.7994
 1043SOL    HW114588   1.390   1.742   9.104 -0.5644 -0.9648  0.8688
 1043SOL    HW214589   1.285   1.770   9.023 -0.6105 -3.1709  0.7404
 1044SOL     OW14590   0.948   3.512   5.317  0.7904 -0.0357  0.2897
 1044SOL    HW114591   0.999   3.495   5.396  1.5745  1.6486  0.1649
 1044SOL    HW214592   0.892   3.434   5.318  2.6326 -1.3499  1.0074
 1045SOL     OW14593   3.864   3.285   5.759 -0.1744  0.4623 -0.1294
 1045SOL    HW114594   3.837   3.195   5.780 -0.3761  0.4436 -0.4615
 1045SOL    HW214595   3.933   3.288   5.825 -1.3889  0.5838  1.1402
 1046SOL     OW14596   2.010   2.992  10.541  0.1723  0.5692 -0.3446
 1046SOL    HW114597   1.932   3.045  10.522 -2.0480 -2.0810  1.3932
 1046SOL    HW214598   2.068   3.059  10.575  0.0675  1.8545 -2.6701
 1047SOL     OW14599   1.289   2.134   3.008 -0.5363  0.1135  0.1630
 1047SOL    HW114600   1.276   2.083   2.929 -0.3731  1.6110 -0.8341
 1047SOL    HW214601   1.200   2.127   3.043 -1.4032 -0.7590 -2.2532
 1048SOL     OW14602   3.478   3.188   3.870 -0.2152  0.1757  0.1120
 1048SOL    HW114603   3.420   3.245   3.819 -0.8526 -1.2535 -0.7617
 1048SOL    HW214604   3.527   3.253   3.921 -0.6542  0.4563  0.1779
 1049SOL     OW14605   2.270   2.779   5.738 -0.2021  0.3001 -0.2742
 1049SOL    HW114606   2.219   2.788   5.818  2.9326 -0.5087  1.8096
 1049SOL    HW214607   2.242   2.691   5.714  1.3636 -0.6678  1.4941
 1050SOL     OW14608   4.210   2.469   8.617  0.3641 -0.0866  0.3522
 1050SOL    HW114609   4.206   2.413   8.695 -1.0481  0.9087  0.9941
 1050SOL    HW214610   4.178   2.549   8.658 -2.6697 -1.4482  0.5981
 1051SOL     OW14611   3.641   3.287  10.532  0.4762  0.2809 -0.1049
 1051SOL    HW114612   3.667   3.365  10.483  0.9093  0.5636  0.5779
 1051SOL    HW214613   3.715   3.293  10.593  0.0077  1.1566  0.3673
 1052SOL     OW14614   4.331   2.390   7.021 -0.1355 -0.4812 -0.2991
 1052SOL    HW114615   4.351   2.350   7.105 -0.7827 -1.4895 -0.6231
 1052SOL    HW214616   4.239   2.406   7.042 -0.3401  0.4422 -1.8498
 1053SOL     OW14617   2.750   0.137   7.928  0.3112 -0.3805  0.1751
 1053SOL    HW114618   2.708   0.199   7.986  0.6870 -0.7120  0.8007
 1053SOL    HW214619   2.814   0.097   7.988  0.3779 -1.6980 -0.7580
 1054SOL     OW14620   4.369   3.776   9.476 -0.3702  0.2033  0.5904
 1054SOL    HW114621   4.312   3.703   9.450 -2.4263  1.8277  0.4819
 1054SOL    HW214622   4.442   3.722   9.503 -1.2705 -1.7349 -0.8897
 1055SOL     OW14623   3.744   0.774   3.136 -0.1412  0.2136  0.6966
 1055SOL    HW114624   3.731   0.801   3.226  1.1451  1.9861  0.3600
 1055SOL    HW214625   3.727   0.857   3.090  1.3259  0.5064  0.6787
 1056SOL     OW14626   2.879   1.129  14.329 -0.6668 -0.1761  0.0001
 1056SOL    HW114627   2.917   1.041  14.326  1.3525  0.6134  1.9801
 1056SOL    HW214628   2.876   1.159  14.420  1.3343  0.7320 -0.2184
 1057SOL     OW14629   3.362   1.241   6.184  0.3736 -0.1400 -0.5838
 1057SOL    HW114630   3.337   1.153   6.213  0.0788  1.0735  2.8041
 1057SOL    HW214631   3.412   1.273   6.259 -0.0172  0.9070 -0.7703
 1058SOL     OW14632   0.695   1.255   9.561 -0.0076  0.0165 -0.0636
 1058SOL    HW114633   0.621   1.247   9.622 -1.2696 -1.2938 -1.7787
 1058SOL    HW214634   0.730   1.166   9.550  1.5233  0.3597  1.8965
 1059SOL     OW14635   2.120   3.051   4.532 -0.4477 -0.3322 -1.2348
 1059SOL    HW114636   2.187   3.010   4.477  0.1351 -0.5647 -0.3486
 1059SOL    HW214637   2.155   3.136   4.557  1.4361 -1.4800  0.0576
 1060SOL     OW14638   2.111   1.998   5.786 -0.5311  0.7811 -0.0573
 1060SOL    HW114639   2.080   2.037   5.868  0.2720  2.0810 -0.3717
 1060SOL    HW214640   2.051   1.924   5.775  1.3390 -0.7441 -0.1006
 1061SOL     OW14641   1.879   1.683   6.292 -0.3558  0.5648  0.1839
 1061SOL    HW114642   1.813   1.716   6.353 -1.0234 -1.5979  0.6260
 1061SOL    HW214643   1.888   1.592   6.322  1.5831  0.3884 -0.9562
 1062SOL     OW14644   2.797   0.811   7.372  0.5215 -0.1554 -0.0868
 1062SOL    HW114645   2.721   0.783   7.423  0.1911 -0.0817 -0.5406
 1062SOL    HW214646   2.863   0.743   7.377  0.0322 -0.5265  1.2714
 1063SOL     OW14647   1.175   1.098   6.871 -0.1778 -0.0239 -0.0937
 1063SOL    HW114648   1.172   1.095   6.775  3.7056 -2.1323 -0.1615
 1063SOL    HW214649   1.245   1.161   6.888  0.9808 -0.8791 -1.6543
 1064SOL     OW14650   0.285   3.364   3.530 -0.5691 -0.5324 -0.8240
 1064SOL    HW114651   0.298   3.458   3.539  1.3710 -0.7354 -1.4779
 1064SOL    HW214652   0.369   3.336   3.569 -0.9358  1.4746  1.4466
 1065SOL     OW14653   1.904   4.407   2.517  0.4092  0.4927  0.2545
 1065SOL    HW114654   1.896   4.363   2.432 -3.0246 -0.6231  1.1642
 1065SOL    HW214655   1.989   4.376   2.549  0.9603  2.6463  0.8507
 1066SOL     OW14656   1.497   4.492   1.258  0.4276 -0.3942 -0.5016
 1066SOL    HW114657   1.408   4.466   1.235 -0.7726  0.1766  3.6248
 1066SOL    HW214658   1.487   4.587   1.257 -0.2620 -0.4470  1.0026
 1067SOL     OW14659   4.359   1.673   7.089  0.0977 -0.3998  0.0478
 1067SOL    HW114660   4.421   1.642   7.155  0.9787 -2.7815 -1.9325
 1067SOL    HW214661   4.409   1.729   7.030  2.4512 -0.1109  2.3406
 1068SOL     OW14662   4.323   3.355  12.753 -0.1900  0.2999  0.0863
 1068SOL    HW114663   4.417   3.367  12.767  0.4174 -0.8887 -3.0578
 1068SOL    HW214664   4.287   3.388  12.836 -1.8111 -0.3239 -0.3863
 1069SOL     OW14665   1.500   0.028  15.877  0.2389  0.5357  0.5205
 1069SOL    HW114666   1.536   0.096  15.821 -0.7137  0.6694  0.0594
 1069SOL    HW214667   1.533   0.034  15.967 -0.1133 -2.3516  0.8383
 1070SOL     OW14668   1.293   0.199   2.555 -0.2094 -0.4159 -0.1935
 1070SOL    HW114669   1.384   0.170   2.562 -0.3747 -0.9474 -0.2118
 1070SOL    HW214670   1.254   0.113   2.573  1.5957 -1.9613 -3.5514
 1071SOL     OW14671   0.298   4.702  13.819  0.0639 -0.0585 -0.1646
 1071SOL    HW114672   0.346   4.621  13.803  0.7478  0.4813 -0.8313
 1071SOL    HW214673   0.242   4.669  13.890  0.7380 -0.2601  0.2649
 1072SOL     OW14674   1.146   0.126  10.582 -0.3644  0.1513  0.4612
 1072SOL    HW114675   1.226   0.174  10.558 -0.3344  0.1155  0.4883
 1072SOL    HW214676   1.159   0.094  10.671  1.1768 -0.2960  0.0791
 1073SOL     OW14677   0.817   4.397  14.731  0.0975 -0.0855  0.0898
 1073SOL    HW114678   0.774   4.342  14.796  1.7241 -1.1922  0.2152
 1073SOL    HW214679   0.830   4.474  14.787 -1.7661  0.4753 -0.2293
 1074SOL     OW14680   2.050   1.950   4.126  0.2054 -0.2556 -0.4193
 1074SOL    HW114681   2.047   1.864   4.084 -0.6305 -0.3481 -0.1753
 1074SOL    HW214682   2.030   2.009   4.053  0.2370  0.4538  0.1478
 1075SOL     OW14683   4.051   1.917   7.021  0.4452  0.8224  0.2850
 1075SOL    HW114684   4.076   1.991   6.966 -1.6547  0.6836 -0.8480
 1075SOL    HW214685   3.962   1.949   7.033  0.1734 -0.0442  0.5724
 1076SOL     OW14686   1.875   0.840   5.850 -0.1230  0.5781 -0.0542
 1076SOL    HW114687   1.893   0.757   5.893  0.4913  0.4385 -0.5872
 1076SOL    HW214688   1.957   0.890   5.852  0.0306  0.2672  1.1576
 1077SOL     OW14689   2.778   4.659   4.569  0.6020 -0.4007  0.3805
 1077SOL    HW114690   2.862   4.619   4.591  0.7440 -1.0048 -1.3116
 1077SOL    HW214691   2.729   4.577   4.570  1.4009 -0.8739  0.8511
 1078SOL     OW14692   3.491   0.327  12.814  0.5487  0.4749  0.2303
 1078SOL    HW114693   3.485   0.399  12.752 -0.1068 -0.3732 -0.6896
 1078SOL    HW214694   3.586   0.315  12.811  0.7022  1.3260  1.7521
 1079SOL     OW14695   0.166   0.549   0.141 -0.6718 -0.3691  0.5043
 1079SOL    HW114696   0.180   0.476   0.082 -2.1095 -0.0901 -0.1983
 1079SOL    HW214697   0.231   0.536   0.210  1.2310  0.7391 -1.0969
 1080SOL     OW14698   4.565   3.005  11.433  0.0087  0.1614  0.6569
 1080SOL    HW114699   4.493   2.958  11.392 -0.2319 -1.0380  2.4610
 1080SOL    HW214700   4.586   3.057  11.355 -0.9377  0.8478  0.8641
 1081SOL     OW14701   3.332   3.333   7.164  0.0395 -0.1007 -0.2485
 1081SOL    HW114702   3.306   3.310   7.253  2.2941 -1.4521  0.0363
 1081SOL    HW214703   3.425   3.317   7.154 -0.2539 -0.5324 -2.2191
 1082SOL     OW14704   4.380   0.163   5.251  0.0871 -0.8209  0.3092
 1082SOL    HW114705   4.416   0.231   5.194 -2.0130  1.0327  1.1885
 1082SOL    HW214706   4.406   0.190   5.339  0.3245 -1.8904  0.5690
 1083SOL     OW14707   4.340   2.739   6.096 -0.3536 -0.3383  0.1826
 1083SOL    HW114708   4.360   2.832   6.100  0.4381 -0.4198 -1.6469
 1083SOL    HW214709   4.332   2.726   6.190  1.1584  1.6577  0.5698
 1084SOL     OW14710   3.302   4.717   7.895  0.1510  0.3847  0.1964
 1084SOL    HW114711   3.347   0.024   7.817 -1.5947  0.5314 -0.7546
 1084SOL    HW214712   3.315   4.623   7.884 -3.3456 -0.1996  0.9293
 1085SOL     OW14713   3.631   2.761   5.345  0.2330 -0.2608  0.3157
 1085SOL    HW114714   3.563   2.817   5.307 -0.0693 -1.2452 -0.5779
 1085SOL    HW214715   3.691   2.821   5.388 -0.6441  0.8735 -0.0395
 1086SOL     OW14716   4.489   1.626   3.600 -0.1441 -0.3753  0.1680
 1086SOL    HW114717   4.429   1.636   3.674 -0.7042  0.9181 -0.4589
 1086SOL    HW214718   4.537   1.543   3.610 -0.6661 -0.7662 -0.5244
 1087SOL     OW14719   3.308   3.616   4.075  0.1453 -0.4770  0.8725
 1087SOL    HW114720   3.326   3.613   4.169 -1.1634 -1.4039  1.0941
 1087SOL    HW214721   3.291   3.707   4.054  0.5205 -0.4242  0.7961
 1088SOL     OW14722   1.151   1.675   8.487  0.0127 -0.2032  0.1913
 1088SOL    HW114723   1.191   1.659   8.573 -0.0783  0.2500  0.3216
 1088SOL    HW214724   1.219   1.645   8.427 -0.3965 -0.8650  0.0644
 1089SOL     OW14725   1.137   2.858  15.121  0.4638 -0.1843 -0.3982
 1089SOL    HW114726   1.100   2.946  15.113  1.8497  0.5048  0.6020
 1089SOL    HW214727   1.220   2.882  15.164  0.6146 -1.6627  0.1427
 1090SOL     OW14728   4.598   0.154   4.008 -0.3000  0.4848  0.4902
 1090SOL    HW114729   4.603   0.088   3.940 -0.9421  2.4913 -1.4919
 1090SOL    HW214730   4.512   0.125   4.037 -0.2130 -0.2915 -0.0277
 1091SOL     OW14731   2.373   1.644   9.511  0.5361  0.2026 -0.2360
 1091SOL    HW114732   2.423   1.607   9.583 -0.9742 -1.1970  0.0937
 1091SOL    HW214733   2.442   1.647   9.445 -1.1201  2.7074 -1.8544
 1092SOL     OW14734   1.447   0.398   7.147  0.3375 -0.0265 -0.5966
 1092SOL    HW114735   1.534   0.386   7.185  0.4362  1.3153 -0.3972
 1092SOL    HW214736   1.436   0.334   7.077  0.7287  0.0709 -0.7501
 1093SOL     OW14737   0.367   3.075   7.321 -0.3673 -0.6053 -0.3900
 1093SOL    HW114738   0.376   3.042   7.232 -0.5355 -2.2959  0.2107
 1093SOL    HW214739   0.272   3.088   7.316 -0.3698  0.2778  1.9098
 1094SOL     OW14740   2.565   1.497  11.818 -0.8599 -0.0640  0.1908
 1094SOL    HW114741   2.636   1.541  11.866 -0.7822 -0.1750  0.1764
 1094SOL    HW214742   2.552   1.425  11.878 -1.0558 -1.2130 -1.2318
 1095SOL     OW14743   3.423   0.982   8.540 -0.3423 -0.1896 -0.1642
 1095SOL    HW114744   3.415   1.070   8.504  0.4979  0.3675  0.9995
 1095SOL    HW214745   3.331   0.970   8.562 -1.1780  1.0240 -2.9749
 1096SOL     OW14746   2.499   4.522  14.795 -0.5419  0.3937  0.4218
 1096SOL    HW114747   2.514   4.526  14.701  0.2607  0.6718  0.5605
 1096SOL    HW214748   2.413   4.565  14.795 -0.5934  0.2756 -0.4005
 1097SOL     OW14749   3.600   3.299   8.968  0.2369 -0.3118  0.0664
 1097SOL    HW114750   3.641   3.371   9.017  0.1839 -1.7397  2.1896
 1097SOL    HW214751   3.644   3.312   8.884  0.2270 -1.7915 -0.1689
 1098SOL     OW14752   3.911   0.117   8.711  0.0567 -0.0411 -0.4407
 1098SOL    HW114753   3.887   0.052   8.646 -0.1400  1.4444 -1.8331
 1098SOL    HW214754   3.856   0.089   8.784 -1.8645  0.4555 -1.7072
 1099SOL     OW14755   0.707   1.323   9.957  0.2536 -0.4252 -0.0820
 1099SOL    HW114756   0.625   1.281   9.930  0.6467 -1.2917  0.0685
 1099SOL    HW214757   0.767   1.290   9.891 -0.1208  0.0542 -0.6528
 1100SOL     OW14758   3.985   2.608   2.595 -0.2304 -0.1035 -0.2373
 1100SOL    HW114759   3.977   2.544   2.523  2.3581  1.1296 -1.6259
 1100SOL    HW214760   3.937   2.688   2.576  0.6949 -0.0509 -2.4093
 1101SOL     OW14761   1.674   0.016   5.386  0.1925  0.3245 -0.0888
 1101SOL    HW114762   1.646   0.102   5.354 -1.5372  0.2745  1.3166
 1101SOL    HW214763   1.757   0.003   5.340 -0.9060 -2.0463 -1.4330
 1102SOL     OW14764   3.118   0.067   8.400  0.1177 -0.2305  0.1772
 1102SOL    HW114765   3.141   0.077   8.307 -1.4638  0.1070 -0.1770
 1102SOL    HW214766   3.203   0.035   8.429  1.6895  1.1283 -2.8665
 1103SOL     OW14767   2.456   3.656   4.657 -0.0205  0.2758  0.4436
 1103SOL    HW114768   2.368   3.626   4.677  0.6186 -1.3541  0.8286
 1103SOL    HW214769   2.469   3.705   4.738 -0.8421  1.3316 -0.0561
 1104SOL     OW14770   0.472   1.114   8.574 -0.2145 -0.0548  0.5309
 1104SOL    HW114771   0.394   1.079   8.532  1.2580 -0.6292 -1.7321
 1104SOL    HW214772   0.428   1.167   8.641 -0.2936  0.6702 -0.0957
 1105SOL     OW14773   0.438   4.293   0.385  0.1854 -0.1690 -0.1854
 1105SOL    HW114774   0.367   4.345   0.422 -0.8293 -1.3270 -0.5075
 1105SOL    HW214775   0.489   4.369   0.356  0.5779 -0.4441 -0.2227
 1106SOL     OW14776   3.381   3.605   2.975  0.1513  0.1006 -0.0143
 1106SOL    HW114777   3.386   3.695   3.006  1.1142 -0.6977  2.1753
 1106SOL    HW214778   3.472   3.582   2.992  0.3670  0.8794 -0.1102
 1107SOL     OW14779   2.361   0.905   0.063 -0.3822  0.3143 -0.5098
 1107SOL    HW114780   2.456   0.910   0.053 -0.3042 -0.2034  0.0049
 1107SOL    HW214781   2.329   0.941  17.677  0.8701 -0.4424 -1.3185
 1108SOL     OW14782   2.013   1.040   1.477  0.0290 -0.2091  0.2588
 1108SOL    HW114783   1.972   1.111   1.428  1.6594 -0.2325 -1.1191
 1108SOL    HW214784   1.974   1.056   1.563 -0.4810  0.8479 -0.1706
 1109SOL     OW14785   1.531   0.061  17.129  0.2430  0.4397  0.0526
 1109SOL    HW114786   1.536   0.156  17.120  0.9184  0.2427 -1.6900
 1109SOL    HW214787   1.514   0.065  17.223  0.2513 -0.0580  0.0733
 1110SOL     OW14788   2.636   1.468   5.541  0.0694 -0.2361 -0.8872
 1110SOL    HW114789   2.654   1.423   5.458  3.2357  1.8859 -1.3708
 1110SOL    HW214790   2.650   1.394   5.600 -1.4796  0.3979  0.2708
 1111SOL     OW14791   3.384   3.541  11.111 -0.0543  0.5051  0.4707
 1111SOL    HW114792   3.387   3.446  11.108  0.4711  0.6228 -3.0031
 1111SOL    HW214793   3.391   3.565  11.203 -0.7069 -0.2447  0.7156
 1112SOL     OW14794   4.678   3.981   3.948  0.2859  0.6357  0.4553
 1112SOL    HW114795   0.035   4.009   3.905  0.3249  0.9061  0.7023
 1112SOL    HW214796   4.704   3.991   4.040  2.5507 -0.5815 -0.0409
 1113SOL     OW14797   4.657   1.832   5.871  0.8154 -0.0640  0.0628
 1113SOL    HW114798   4.715   1.860   5.942  1.9448 -0.3581 -0.7470
 1113SOL    HW214799   4.643   1.914   5.824 -0.9055  0.0444  0.7706
 1114SOL     OW14800   0.072   1.263   5.217  0.0632 -0.3388 -0.0124
 1114SOL    HW114801   0.101   1.257   5.126  0.4161 -0.8907  0.1403
 1114SOL    HW214802   0.087   1.357   5.229 -1.9846 -0.2260  1.6192
 1115SOL     OW14803   1.850   0.121   3.662  0.4269 -0.0309  0.3852
 1115SOL    HW114804   1.860   0.028   3.684 -1.8458  0.0612  1.8422
 1115SOL    HW214805   1.943   0.133   3.645  0.5262  0.8216  1.5166
 1116SOL     OW14806   3.844   0.763  12.364  0.0191  0.2135 -0.2783
 1116SOL    HW114807   3.883   0.831  12.310  0.2230  0.9759  0.8176
 1116SOL    HW214808   3.915   0.699  12.361 -1.1658 -1.0090 -1.9677
 1117SOL     OW14809   3.030   1.883  14.832 -0.3039 -0.3377 -0.0335
 1117SOL    HW114810   2.993   1.828  14.762 -1.8777  0.8190 -0.1082
 1117SOL    HW214811   2.991   1.839  14.907  3.1754 -0.4283  1.6952
 1118SOL     OW14812   1.626   0.067   7.934  0.2594 -0.0053  0.3570
 1118SOL    HW114813   1.648   0.110   8.016  3.6470 -1.3185  0.1703
 1118SOL    HW214814   1.629   0.143   7.876 -0.0259 -1.2367 -1.2802
 1119SOL     OW14815   0.307   0.830  13.218  0.0387 -0.4452  0.0454
 1119SOL    HW114816   0.305   0.860  13.128  0.8009  0.3524  0.2972
 1119SOL    HW214817   0.388   0.781  13.232 -0.6464 -1.8493 -0.8767
 1120SOL     OW14818   0.505   1.013   9.208 -0.0214  0.2351 -0.5707
 1120SOL    HW114819   0.471   0.971   9.128 -1.4880 -1.0362  0.7146
 1120SOL    HW214820   0.494   0.943   9.272  1.6058 -0.0719 -0.6132
 1121SOL     OW14821   3.875   3.140   1.114 -0.2557 -0.0615 -0.1422
 1121SOL    HW114822   3.923   3.109   1.037 -1.0566 -0.4308 -0.4858
 1121SOL    HW214823   3.805   3.075   1.120 -0.1318  0.0985  2.8254
 1122SOL     OW14824   2.654   0.846  16.481  0.3710 -0.0253  0.1595
 1122SOL    HW114825   2.619   0.782  16.419 -0.0912  0.3061  0.0848
 1122SOL    HW214826   2.591   0.916  16.471 -1.9047 -1.6334  3.0728
 1123SOL     OW14827   0.957   2.933   4.923  0.6239  0.3308  0.0536
 1123SOL    HW114828   0.978   2.844   4.896  0.6419  0.4821 -0.4206
 1123SOL    HW214829   0.915   2.916   5.008  0.9514  1.3478  0.4192
 1124SOL     OW14830   2.535   3.544   3.674  0.0212  0.0130 -0.7390
 1124SOL    HW114831   2.441   3.529   3.675  0.0007  0.2142  1.7650
 1124SOL    HW214832   2.571   3.457   3.657 -0.4223 -0.1888 -0.6273
 1125SOL     OW14833   2.869   3.819  15.989 -0.0357  0.4271 -0.3919
 1125SOL    HW114834   2.872   3.867  16.072  0.5943 -1.3464  0.6222
 1125SOL    HW214835   2.853   3.727  16.013  0.9820 -0.0405 -1.5051
 1126SOL     OW14836   2.500   0.589   0.498 -0.3239  0.4001  0.3063
 1126SOL    HW114837   2.479   0.524   0.564  1.9995 -0.2209  0.4562
 1126SOL    HW214838   2.553   0.532   0.441  0.5594  1.6647 -0.1449
 1127SOL     OW14839   1.028   4.501   5.685  0.4064 -0.2192 -0.0127
 1127SOL    HW114840   1.098   4.436   5.678  0.1438 -0.5426  0.4000
 1127SOL    HW214841   1.038   4.537   5.773 -0.8228  1.3122 -0.5032
 1128SOL     OW14842   3.588   4.642   2.682 -0.1778 -0.2919  0.6463
 1128SOL    HW114843   3.548   4.556   2.696 -0.5605 -0.0883  0.8006
 1128SOL    HW214844   3.681   4.617   2.676  0.3965  1.7153  1.4294
 1129SOL     OW14845   3.777   0.176   2.040 -0.4131 -0.0838 -1.0535
 1129SOL    HW114846   3.865   0.137   2.032 -0.3844 -0.1819 -0.2819
 1129SOL    HW214847   3.799   0.254   2.091  0.0659 -1.0250  0.2020
 1130SOL     OW14848   2.915   1.142   1.678  0.3845 -0.0372  0.5536
 1130SOL    HW114849   2.971   1.156   1.602  2.1366  2.3329  2.2776
 1130SOL    HW214850   2.908   1.047   1.675  0.0747  0.0454 -1.5532
 1131SOL     OW14851   4.249   2.445  15.705  0.2306  0.6355 -0.6441
 1131SOL    HW114852   4.243   2.477  15.794  0.9704  0.1305 -0.4071
 1131SOL    HW214853   4.188   2.506  15.666 -1.2359 -0.7116 -0.4428
 1132SOL     OW14854   2.103   0.236  10.695  0.2149 -0.0402 -0.5943
 1132SOL    HW114855   2.010   0.255  10.682  0.0875 -0.1254  0.2141
 1132SOL    HW214856   2.147   0.321  10.688 -0.4475  0.2273 -1.5358
 1133SOL     OW14857   0.903   3.498  15.573 -0.8237  0.5738 -0.0344
 1133SOL    HW114858   0.940   3.423  15.620 -2.7806 -0.5825 -0.3413
 1133SOL    HW214859   0.982   3.527  15.528  1.0135 -0.3147  2.6192
 1134SOL     OW14860   2.055   1.847  13.149  0.3890 -0.1168  0.5744
 1134SOL    HW114861   1.961   1.844  13.132  0.3514  1.8282  0.4920
 1134SOL    HW214862   2.053   1.909  13.222 -1.1250 -2.5180  2.5877
 1135SOL     OW14863   1.494   3.271   7.946  0.0117  0.0226  0.3334
 1135SOL    HW114864   1.401   3.293   7.944 -0.0471 -0.2357  0.2224
 1135SOL    HW214865   1.546   3.350   7.930  0.1223 -0.3787 -1.3172
 1136SOL     OW14866   3.959   0.096  12.327  0.4142 -0.0610  0.5262
 1136SOL    HW114867   4.011   0.166  12.368  0.0099 -0.5831  1.9484
 1136SOL    HW214868   3.867   0.119  12.338  0.2992 -0.7007  0.9198
 1137SOL     OW14869   2.467   0.447   1.849 -0.5735 -0.4678 -0.4259
 1137SOL    HW114870   2.385   0.398   1.854 -0.6303 -0.2266  0.9942
 1137SOL    HW214871   2.443   0.538   1.867  1.3968 -0.0055 -0.1190
 1138SOL     OW14872   2.235   4.625  12.255  0.2732  0.2469 -0.2441
 1138SOL    HW114873   2.317   4.616  12.206 -0.9268  0.8357 -2.3680
 1138SOL    HW214874   2.215   4.541  12.296  3.5595  0.0986  1.0398
 1139SOL     OW14875   2.529   2.803   5.237 -0.0778 -0.0741  0.0516
 1139SOL    HW114876   2.593   2.789   5.166  0.2850  0.0900  0.3490
 1139SOL    HW214877   2.589   2.784   5.309  2.2249  0.9385 -1.5944
 1140SOL     OW14878   2.284   1.304  13.196  0.6068 -0.1180  0.3637
 1140SOL    HW114879   2.208   1.301  13.254 -0.4579  2.8851 -0.8792
 1140SOL    HW214880   2.352   1.338  13.254  0.1476  1.6408 -0.1270
 1141SOL     OW14881   3.107   4.061   6.278 -0.1347 -0.1530 -0.2879
 1141SOL    HW114882   3.133   3.988   6.222 -1.2119 -0.4268 -0.4436
 1141SOL    HW214883   3.138   4.032   6.364  0.4460  0.4586 -0.2923
 1142SOL     OW14884   3.083   4.339   6.714  0.5307 -0.7736  0.4299
 1142SOL    HW114885   3.170   4.300   6.721  0.8989 -0.1464 -0.6862
 1142SOL    HW214886   3.038   4.295   6.786 -1.0268 -0.1661 -0.1567
 1143SOL     OW14887   3.345   1.470  11.806 -0.2312  0.6840 -0.8308
 1143SOL    HW114888   3.408   1.408  11.843 -0.4170  1.0237  0.0677
 1143SOL    HW214889   3.341   1.540  11.872  4.0569 -1.4052  1.6213
 1144SOL     OW14890   4.178   4.300   4.643 -0.2523 -0.0646  0.2592
 1144SOL    HW114891   4.088   4.271   4.631  0.2264 -1.4642  0.0083
 1144SOL    HW214892   4.168   4.360   4.718 -1.7196 -0.3821  0.3230
 1145SOL     OW14893   3.430   1.843   8.095 -0.6899 -0.2291  0.6943
 1145SOL    HW114894   3.438   1.770   8.156  0.1592 -1.5312 -0.9766
 1145SOL    HW214895   3.341   1.865   8.121 -0.7736  1.9573 -1.3851
 1146SOL     OW14896   4.384   2.965   6.526  0.4518 -0.0804  0.7145
 1146SOL    HW114897   4.448   3.025   6.487 -0.2319  0.1815 -0.0026
 1146SOL    HW214898   4.306   3.019   6.540  1.1694  1.3150 -0.7086
 1147SOL     OW14899   3.408   4.661   0.201 -0.6134  0.4795 -0.1451
 1147SOL    HW114900   3.391   4.641   0.293  0.2140 -0.0891 -0.1170
 1147SOL    HW214901   3.316   4.661   0.176 -0.9292 -0.2341  0.9714
 1148SOL     OW14902   3.930   1.336   0.088  0.2913 -0.2990  0.2039
 1148SOL    HW114903   3.957   1.261   0.141  2.9123 -0.0530 -0.8169
 1148SOL    HW214904   3.976   1.320   0.006  0.4114  2.4737 -0.2919
 1149SOL     OW14905   1.287   0.123   8.963 -0.1299  0.1083 -0.3758
 1149SOL    HW114906   1.306   0.201   8.911  2.0205 -0.6172 -0.6918
 1149SOL    HW214907   1.209   0.147   9.013 -1.0158 -0.5765 -1.4404
 1150SOL     OW14908   0.913   0.887   4.738 -0.2232 -0.0939 -0.4109
 1150SOL    HW114909   0.885   0.975   4.762 -0.6394 -0.7750  1.6704
 1150SOL    HW214910   0.920   0.917   4.648 -0.3536 -2.5315 -1.2489
 1151SOL     OW14911   2.263   0.025   1.928  0.2211  0.4544  0.3289
 1151SOL    HW114912   2.292   4.664   1.960 -2.5013 -0.4257  0.4661
 1151SOL    HW214913   2.338   0.045   1.872  0.5687 -0.2127  0.5587
 1152SOL     OW14914   4.464   1.970   8.556  0.9810 -0.1930 -0.2950
 1152SOL    HW114915   4.528   2.035   8.586  1.9367 -0.1606 -2.3835
 1152SOL    HW214916   4.402   2.029   8.513  1.9410  0.4941 -0.7390
 1153SOL     OW14917   2.313   1.870  13.276 -0.0236  0.0286  0.7387
 1153SOL    HW114918   2.240   1.854  13.216  0.5727 -0.0378  0.0302
 1153SOL    HW214919   2.344   1.953  13.241  0.5654 -0.8714 -0.8966
 1154SOL     OW14920   2.525   4.661   3.180 -0.3902 -0.1067  0.4481
 1154SOL    HW114921   2.445   4.609   3.175 -0.7506  0.5718 -0.8828
 1154SOL    HW214922   2.585   4.593   3.211 -1.4163 -0.2712  2.0432
 1155SOL     OW14923   0.206   2.464   5.693  0.3104  0.8052  0.7504
 1155SOL    HW114924   0.122   2.458   5.738 -0.2238 -1.5006 -0.5200
 1155SOL    HW214925   0.191   2.545   5.645 -1.1607 -1.4250 -2.6080
 1156SOL     OW14926   4.579   2.396  10.923 -0.1702  0.3517 -0.3024
 1156SOL    HW114927   4.625   2.313  10.912 -1.9921 -0.8623  1.1860
 1156SOL    HW214928   4.617   2.438  10.846  0.2124  1.3535  0.4338
 1157SOL     OW14929   1.034   2.287   7.507  0.6186  0.4270  0.3868
 1157SOL    HW114930   1.015   2.206   7.556  1.4866  0.6450  1.0820
 1157SOL    HW214931   0.955   2.315   7.461 -1.8852 -0.4530  4.1114
 1158SOL     OW14932   0.103   3.083   9.776 -0.1235  0.4645 -0.0334
 1158SOL    HW114933   0.078   3.173   9.801 -1.0131  0.0527  0.5757
 1158SOL    HW214934   0.136   3.055   9.862  1.7593  1.2380 -0.5036
 1159SOL     OW14935   1.162   2.619  12.067 -0.0213 -0.1100 -0.1005
 1159SOL    HW114936   1.102   2.686  12.101 -0.5994 -1.1015  0.8405
 1159SOL    HW214937   1.182   2.658  11.982  0.7509 -2.4819 -1.0200
 1160SOL     OW14938   4.212   2.795   2.979  0.3965 -0.3935  0.0992
 1160SOL    HW114939   4.288   2.738   2.987 -0.6497 -1.7334  0.4910
 1160SOL    HW214940   4.153   2.771   3.051  0.9013  0.2777  0.7395
 1161SOL     OW14941   0.649   0.397  10.783  0.1619  0.6443  0.0918
 1161SOL    HW114942   0.671   0.312  10.745  2.9426  1.1064  0.6972
 1161SOL    HW214943   0.604   0.365  10.861 -0.7234  0.6073 -0.4306
 1162SOL     OW14944   1.935   0.234   8.572 -0.0383  0.2004 -0.0403
 1162SOL    HW114945   1.848   0.215   8.539 -0.4509 -0.6111  1.4883
 1162SOL    HW214946   1.932   0.329   8.585  0.7607  0.1148  0.7988
 1163SOL     OW14947   0.707   3.787   4.366 -0.1243  0.7262  0.7799
 1163SOL    HW114948   0.655   3.761   4.442  1.3054 -1.0210  1.1560
 1163SOL    HW214949   0.668   3.722   4.308  1.4436 -1.2926  2.0006
 1164SOL     OW14950   3.230   2.438   7.484 -0.6080  0.2892 -0.0298
 1164SOL    HW114951   3.218   2.344   7.498 -1.0358  0.0499 -2.0237
 1164SOL    HW214952   3.323   2.444   7.460 -1.5948  1.8101 -3.4187
 1165SOL     OW14953   4.540   3.372   3.484  0.2685  0.8590 -0.4383
 1165SOL    HW114954   4.504   3.459   3.471  0.1511  0.9749  0.6654
 1165SOL    HW214955   4.632   3.391   3.496  0.0076  1.9564 -0.2399
 1166SOL     OW14956   4.520   4.189  11.092 -0.3468  0.1165 -0.1921
 1166SOL    HW114957   4.470   4.263  11.127 -0.5973 -1.1850  2.1952
 1166SOL    HW214958   4.522   4.134  11.170 -1.4820 -1.9319 -1.6389
 1167SOL     OW14959   3.670   4.718   7.180  0.2967 -0.2593 -0.0192
 1167SOL    HW114960   3.676   4.623   7.171 -1.7149 -0.2604 -1.5736
 1167SOL    HW214961   3.760   0.009   7.208  1.6014 -2.3541 -3.1525
 1168SOL     OW14962   4.534   3.405  10.389  0.0804 -0.3023  0.2733
 1168SOL    HW114963   4.533   3.365  10.476 -1.6831  1.8987  1.2755
 1168SOL    HW214964   4.572   3.490  10.412 -1.2424  0.3662 -0.0404
 1169SOL     OW14965   1.840   1.615  10.407 -0.0875  0.4225 -0.1755
 1169SOL    HW114966   1.900   1.628  10.334  0.8966 -0.3665  0.4725
 1169SOL    HW214967   1.835   1.520  10.418 -3.2222  0.5102 -0.9930
 1170SOL     OW14968   4.200   4.431   6.948 -0.1159 -0.8503  0.0137
 1170SOL    HW114969   4.116   4.445   6.991  0.5170  2.9969 -0.0080
 1170SOL    HW214970   4.189   4.449   6.855 -1.1471 -0.4915  0.2162
 1171SOL     OW14971   3.436   4.304   3.863 -0.1959 -0.0600 -0.4776
 1171SOL    HW114972   3.412   4.383   3.912 -0.2343 -0.1034 -0.4268
 1171SOL    HW214973   3.392   4.230   3.905 -0.1856  0.5977  0.6932
 1172SOL     OW14974   2.590   4.425   1.767  0.5031 -0.6069  0.1780
 1172SOL    HW114975   2.616   4.452   1.679  0.0456  1.5501  0.6958
 1172SOL    HW214976   2.562   4.335   1.750 -1.4173  0.0358 -0.1465
 1173SOL     OW14977   3.191   4.574   6.469  0.1143 -0.7600  0.2024
 1173SOL    HW114978   3.186   4.479   6.476  1.5065 -0.7232  1.6898
 1173SOL    HW214979   3.239   4.600   6.390 -2.1980  1.3070 -0.5610
 1174SOL     OW14980   0.234   2.514   2.961 -0.0741 -0.9833 -0.7170
 1174SOL    HW114981   0.181   2.564   3.024  2.9733  1.1562  0.1548
 1174SOL    HW214982   0.319   2.558   2.959  0.9091 -2.8477  0.0280
 1175SOL     OW14983   4.402   0.840  10.143 -0.0660  0.1492 -0.4594
 1175SOL    HW114984   4.462   0.904  10.180  1.2388 -0.7296 -1.0369
 1175SOL    HW214985   4.461   0.772  10.108 -0.3343 -0.6150  0.5572
 1176SOL     OW14986   1.123   2.239   5.994  0.0065 -0.3970 -0.3971
 1176SOL    HW114987   1.109   2.219   6.087 -0.3246  1.8291  0.0234
 1176SOL    HW214988   1.067   2.174   5.951 -0.1887 -0.3514 -0.2138
 1177SOL     OW14989   0.036   2.758   9.914  0.3318  0.5294 -0.4068
 1177SOL    HW114990   0.097   2.710   9.858 -0.4975  0.5187 -1.3182
 1177SOL    HW214991   0.090   2.826   9.954 -1.6360  2.8518 -1.6644
 1178SOL     OW14992   1.429   1.381   3.776 -0.0943  0.1024 -0.1438
 1178SOL    HW114993   1.425   1.338   3.861 -0.1978  0.4421  0.0246
 1178SOL    HW214994   1.508   1.341   3.739  0.0807  0.5928 -0.2984
 1179SOL     OW14995   3.935   3.739   7.285 -0.1300 -0.7954  0.2553
 1179SOL    HW114996   3.900   3.778   7.365 -0.0074  1.2066 -0.6434
 1179SOL    HW214997   3.923   3.801   7.213  0.5037  0.2051  1.0072
 1180SOL     OW14998   2.212   1.040   5.745  0.2561 -0.4967 -0.6231
 1180SOL    HW114999   2.280   1.106   5.733  1.0734 -1.1616  0.3875
 1180SOL    HW215000   2.190   1.029   5.653 -1.1660  0.3117 -0.3815
 1181SOL     OW15001   2.349   3.924   7.834 -0.2793 -0.1004 -0.6486
 1181SOL    HW115002   2.338   4.019   7.839  0.3737 -0.1250  1.4441
 1181SOL    HW215003   2.273   3.912   7.891 -0.0890 -0.4960 -0.4790
 1182SOL     OW15004   2.836   0.539  16.503 -0.1530  0.6869 -0.6904
 1182SOL    HW115005   2.884   0.621  16.514 -1.4676  1.3361  0.1788
 1182SOL    HW215006   2.762   0.564  16.449  1.1948  0.1766 -2.7718
 1183SOL     OW15007   1.794   0.497   7.786 -0.1385 -0.2184  0.0074
 1183SOL    HW115008   1.748   0.495   7.702  0.2192  3.5662 -0.2603
 1183SOL    HW215009   1.866   0.434   7.790  2.2580  2.4872 -0.3504
 1184SOL     OW15010   1.355   0.753  13.543  0.1766  0.4968 -0.0227
 1184SOL    HW115011   1.352   0.737  13.638  2.4529 -0.4185 -0.1265
 1184SOL    HW215012   1.446   0.727  13.536 -0.3452 -0.9854 -1.2576
 1185SOL     OW15013   2.504   0.194  10.562  0.3568  0.3895  0.2346
 1185SOL    HW115014   2.428   0.137  10.555  0.0147  1.0964 -1.7522
 1185SOL    HW215015   2.563   0.128  10.599  0.2117 -0.3663 -0.9007
 1186SOL     OW15016   3.097   3.451  13.594 -0.3802 -0.7887  0.6105
 1186SOL    HW115017   3.033   3.384  13.616 -0.8634 -0.1349  1.1833
 1186SOL    HW215018   3.171   3.428  13.650  0.4182  0.2265 -0.0276
 1187SOL     OW15019   0.593   3.472   6.814 -0.1688  0.1069  0.1169
 1187SOL    HW115020   0.662   3.416   6.850 -0.3850 -1.4658 -1.9229
 1187SOL    HW215021   0.570   3.518   6.895  0.4300 -0.7362  0.7582
 1188SOL     OW15022   3.043   1.821   6.856  0.1926 -0.3899 -0.5719
 1188SOL    HW115023   2.974   1.755   6.866 -0.4408 -0.0446 -2.4953
 1188SOL    HW215024   3.112   1.766   6.820  1.7581 -0.8045  3.0740
 1189SOL     OW15025   1.445   4.347   3.170  0.2639 -0.4457  0.1279
 1189SOL    HW115026   1.462   4.388   3.254  0.4512  2.2674 -1.2469
 1189SOL    HW215027   1.359   4.310   3.189  0.5608 -1.6003 -0.7767
 1190SOL     OW15028   1.167   3.938   9.850  0.0881  0.0999  0.2514
 1190SOL    HW115029   1.250   3.893   9.860 -0.2973 -0.2422  1.9008
 1190SOL    HW215030   1.173   4.007   9.916  0.8134  1.6264 -1.4141
 1191SOL     OW15031   1.096   4.694   0.033  0.0880  0.6624  0.2043
 1191SOL    HW115032   1.148   4.683  17.651 -0.3884 -0.1879  0.0070
 1191SOL    HW215033   1.083   4.602   0.056 -1.8304  0.7629 -0.3899
 1192SOL     OW15034   1.590   1.809   3.116 -0.2938  0.4177 -0.3486
 1192SOL    HW115035   1.524   1.786   3.182  1.4563  0.1631  1.3166
 1192SOL    HW215036   1.562   1.900   3.104  0.0265  0.7343  1.3911
 1193SOL     OW15037   2.035   2.027   0.073  0.2313 -0.0846  0.4880
 1193SOL    HW115038   1.961   2.074   0.034  0.4989 -0.8627 -0.9614
 1193SOL    HW215039   2.108   2.086   0.054  0.4319 -0.2488  0.7430
 1194SOL     OW15040   4.220   2.555  15.944  0.0820  0.3313  0.5704
 1194SOL    HW115041   4.141   2.605  15.965  0.0873  0.3516  0.5433
 1194SOL    HW215042   4.288   2.592  16.001 -0.4429  2.0488  0.0810
 1195SOL     OW15043   2.854   1.361   6.829  0.1056 -0.1436 -0.3249
 1195SOL    HW115044   2.891   1.377   6.742 -0.7121 -0.0483 -0.6531
 1195SOL    HW215045   2.795   1.287   6.813 -0.6296  0.5100 -0.6053
 1196SOL     OW15046   3.898   3.081   5.919 -0.0354 -0.0601 -0.3569
 1196SOL    HW115047   3.953   3.004   5.925  1.1533  0.8843  0.7864
 1196SOL    HW215048   3.905   3.116   6.008 -1.7091  0.9981 -0.6341
 1197SOL     OW15049   3.014   1.717   5.099  0.3191  0.1699 -0.0530
 1197SOL    HW115050   2.949   1.671   5.046 -0.3159  0.3686  0.5600
 1197SOL    HW215051   3.068   1.758   5.032 -0.1809  1.8620  0.5796
 1198SOL     OW15052   3.141   2.661   0.995 -0.2192  0.2625 -0.1765
 1198SOL    HW115053   3.218   2.611   1.021 -0.8710 -0.8976 -0.4972
 1198SOL    HW215054   3.183   2.739   0.959  1.7494 -0.7743 -0.0896
 1199SOL     OW15055   3.746   3.963   5.484  0.0099  1.1822  0.0209
 1199SOL    HW115056   3.768   3.907   5.559 -0.0924 -1.6301 -2.0270
 1199SOL    HW215057   3.832   3.995   5.457  1.0966 -1.2331  0.5676
 1200SOL     OW15058   4.036   2.427  15.158 -0.3706  0.1236  0.9471
 1200SOL    HW115059   4.125   2.454  15.183 -0.2070 -1.1498  1.7831
 1200SOL    HW215060   4.050   2.370  15.082 -0.6302 -0.8235  1.6097
 1201SOL     OW15061   0.956   2.109  10.423  0.4157 -0.5564  0.5564
 1201SOL    HW115062   0.949   2.192  10.469  0.8474  0.3467 -1.0032
 1201SOL    HW215063   0.909   2.050  10.481  2.0070 -0.7903  1.6071
 1202SOL     OW15064   0.704   1.812   3.408  1.0268 -0.2144  0.2813
 1202SOL    HW115065   0.643   1.872   3.367  1.0186 -0.8101 -0.5784
 1202SOL    HW215066   0.762   1.809   3.331  0.9887 -0.5771  0.2675
 1203SOL     OW15067   4.522   1.900   7.501 -0.0055 -0.2312  0.5802
 1203SOL    HW115068   4.478   1.925   7.582  1.3054 -0.4904  1.3892
 1203SOL    HW215069   4.533   1.805   7.509 -2.1553 -0.5576 -0.3323
 1204SOL     OW15070   0.901   0.972   1.331  0.5470  0.1090 -0.0300
 1204SOL    HW115071   0.934   1.039   1.272  0.4039  0.4480  0.2773
 1204SOL    HW215072   0.961   0.899   1.316  0.3525 -0.5472  2.2817
 1205SOL     OW15073   4.467   1.459   1.644  0.2333 -0.3099 -0.5986
 1205SOL    HW115074   4.398   1.519   1.670  1.2535  0.5605  0.1101
 1205SOL    HW215075   4.467   1.400   1.719  1.3467 -0.5380 -0.7673
 1206SOL     OW15076   0.595   4.388   6.139  0.0946 -0.1430 -0.0564
 1206SOL    HW115077   0.506   4.357   6.156  0.7607 -2.4814 -0.9009
 1206SOL    HW215078   0.640   4.314   6.099 -0.7724  0.4648 -2.1190
 1207SOL     OW15079   1.871   4.274   4.421 -0.1202  0.0282 -0.7446
 1207SOL    HW115080   1.825   4.311   4.497  1.4047  1.8237 -0.6902
 1207SOL    HW215081   1.934   4.340   4.391  1.2424 -1.4751 -1.1863
 1208SOL     OW15082   1.584   2.037   7.397  0.1144 -0.1298  0.1183
 1208SOL    HW115083   1.579   2.102   7.327 -0.8989 -0.3684 -0.0212
 1208SOL    HW215084   1.680   2.040   7.405  0.1212 -1.2244  0.4291
 1209SOL     OW15085   0.727   1.066   6.219  0.1563 -0.1748 -0.0870
 1209SOL    HW115086   0.719   1.017   6.301 -0.5637  3.1289  1.7971
 1209SOL    HW215087   0.641   1.108   6.211  0.9261  1.2436 -0.8676
 1210SOL     OW15088   2.437   2.282   3.614  0.4881 -0.0433  0.2295
 1210SOL    HW115089   2.430   2.271   3.519  0.3121 -1.7800  0.4340
 1210SOL    HW215090   2.344   2.269   3.633  0.6060 -1.8229 -0.3607
 1211SOL     OW15091   2.869   2.270   5.385  0.0877 -0.0356 -0.8258
 1211SOL    HW115092   2.872   2.258   5.290  0.4286 -3.3160 -0.3958
 1211SOL    HW215093   2.829   2.357   5.385 -2.1637 -1.0757 -1.5082
 1212SOL     OW15094   3.730   0.514   6.648  0.1878  0.5242 -0.0829
 1212SOL    HW115095   3.678   0.573   6.702 -1.0761  1.1636 -1.9825
 1212SOL    HW215096   3.774   0.584   6.599 -0.2627  1.7214  1.2522
 1213SOL     OW15097   3.060   1.802   2.669  0.3842  0.2724 -0.4014
 1213SOL    HW115098   2.969   1.833   2.672  0.0524 -0.7985  0.2909
 1213SOL    HW215099   3.106   1.886   2.665  1.2168 -0.2630 -2.6179
 1214SOL     OW15100   3.867   4.583   0.633  0.3069 -0.1435 -0.0271
 1214SOL    HW115101   3.943   4.552   0.584 -0.5120  0.6353 -1.7498
 1214SOL    HW215102   3.855   4.672   0.602 -2.2139 -0.2190  0.7394
 1215SOL     OW15103   3.218   2.924   8.539  0.5014  0.3112 -0.1415
 1215SOL    HW115104   3.257   2.869   8.471 -1.7231 -1.7868  0.3109
 1215SOL    HW215105   3.210   3.012   8.502  2.0437  1.1031  1.4064
 1216SOL     OW15106   4.350   3.477   8.758 -0.0590  0.2272 -0.0980
 1216SOL    HW115107   4.331   3.548   8.697  1.5027  0.1785 -0.6324
 1216SOL    HW215108   4.383   3.529   8.832 -0.6265 -0.3901  0.5866
 1217SOL     OW15109   4.415   0.727   3.246 -0.4207 -0.2173  0.2974
 1217SOL    HW115110   4.320   0.728   3.246 -0.4185  1.2101 -3.0964
 1217SOL    HW215111   4.429   0.633   3.242 -1.8514 -0.4604  0.9544
 1218SOL     OW15112   0.221   4.701   5.705  0.0083  0.4068 -0.3845
 1218SOL    HW115113   0.150   0.024   5.662  0.2584  0.1463 -1.0998
 1218SOL    HW215114   0.282   4.685   5.632  1.1822 -0.5298  0.8023
 1219SOL     OW15115   4.092   1.914   4.325 -0.4496 -0.2954 -0.3068
 1219SOL    HW115116   4.043   1.858   4.386 -0.0502  1.3079  1.5007
 1219SOL    HW215117   4.163   1.939   4.385  1.3124  1.7487 -3.2546
 1220SOL     OW15118   4.564   2.481   4.780 -0.0776  0.2587 -0.0048
 1220SOL    HW115119   4.519   2.480   4.696  0.8325  1.6953 -0.5014
 1220SOL    HW215120   4.620   2.404   4.774  1.0300  1.0483  0.3538
 1221SOL     OW15121   2.193   1.682  11.232 -0.4094  0.2190  0.3736
 1221SOL    HW115122   2.240   1.604  11.260  0.0797  1.0607  1.9281
 1221SOL    HW215123   2.157   1.656  11.147 -0.3910  3.8519 -0.7790
 1222SOL     OW15124   3.711   3.759  12.671 -0.1436 -0.0392 -0.0768
 1222SOL    HW115125   3.630   3.806  12.650 -0.2822  0.5295  1.7850
 1222SOL    HW215126   3.727   3.705  12.593 -0.4558  1.2345 -1.0346
 1223SOL     OW15127   2.383   2.330   1.517  0.1764 -0.3142  0.4200
 1223SOL    HW115128   2.301   2.280   1.505 -0.3026  0.5402  0.1604
 1223SOL    HW215129   2.392   2.341   1.612  3.3533  0.0152  0.0788
 1224SOL     OW15130   1.219   1.134   9.409 -0.0165  0.4498 -0.5284
 1224SOL    HW115131   1.198   1.089   9.328  0.0619  0.5299 -0.5936
 1224SOL    HW215132   1.307   1.155   9.379 -0.0903  0.3880 -0.7872
 1225SOL     OW15133   0.966   3.200   0.399 -0.1397  0.5071 -0.1722
 1225SOL    HW115134   1.019   3.120   0.397  1.8043  1.7867 -0.9462
 1225SOL    HW215135   0.878   3.164   0.396  0.5610 -1.1728 -0.4558
 1226SOL     OW15136   2.216   4.336   1.921 -0.6569 -0.2144 -0.2747
 1226SOL    HW115137   2.241   4.311   1.833 -1.1202 -1.7507  0.0296
 1226SOL    HW215138   2.149   4.271   1.941 -0.3937  0.0177  1.4277
 1227SOL     OW15139   0.219   0.720   6.873  0.4248  0.4018 -0.3736
 1227SOL    HW115140   0.294   0.759   6.919  1.1222 -1.0441 -0.2665
 1227SOL    HW215141   0.278   0.652   6.839 -2.1573 -0.8549 -2.3109
 1228SOL     OW15142   3.441   2.752  13.875 -0.5124 -0.1126 -0.1907
 1228SOL    HW115143   3.440   2.777  13.783 -2.4537 -0.3149 -0.2295
 1228SOL    HW215144   3.484   2.667  13.867 -2.5663 -1.0320 -1.3362
 1229SOL     OW15145   1.465   1.130   2.576  0.2866  1.3112 -0.3703
 1229SOL    HW115146   1.494   1.202   2.519  3.1188 -0.8711 -1.6473
 1229SOL    HW215147   1.372   1.150   2.565  0.2717  1.7433  0.4725
 1230SOL     OW15148   2.810   3.263   8.227 -0.4567 -0.1812 -0.0891
 1230SOL    HW115149   2.859   3.309   8.159  0.3157  2.0585  2.0070
 1230SOL    HW215150   2.733   3.245   8.172 -0.6029  0.3332 -0.0535
 1231SOL     OW15151   1.069   0.663  12.323  0.4201  0.2423 -0.0840
 1231SOL    HW115152   1.104   0.726  12.259  1.4423  0.3252  0.5502
 1231SOL    HW215153   1.075   0.578  12.280 -0.6894  0.5256 -0.7903
 1232SOL     OW15154   3.827   1.351   7.092 -0.1695  0.1170  0.2838
 1232SOL    HW115155   3.798   1.382   7.178 -0.3388  0.7206  0.0090
 1232SOL    HW215156   3.743   1.332   7.051  0.7084 -1.2671 -0.8485
 1233SOL     OW15157   1.519   1.087   7.097 -0.2159  0.0278  0.9092
 1233SOL    HW115158   1.523   0.991   7.093  0.9591  0.1613 -0.9392
 1233SOL    HW215159   1.460   1.106   7.024  1.8079 -0.0715 -0.7457
 1234SOL     OW15160   2.072   2.525   6.373 -0.3327  0.3161  0.0443
 1234SOL    HW115161   2.009   2.592   6.346 -0.8239 -0.5546 -0.9966
 1234SOL    HW215162   2.141   2.590   6.385  0.4603 -0.1888 -1.6599
 1235SOL     OW15163   0.836   0.794   5.025 -0.4175  0.5261  0.1363
 1235SOL    HW115164   0.786   0.859   5.073 -1.4274  0.0706 -0.3131
 1235SOL    HW215165   0.848   0.839   4.941  0.3801  0.8102  0.4008
 1236SOL     OW15166   0.534   3.164   4.671 -0.3775  0.0984  0.4067
 1236SOL    HW115167   0.545   3.071   4.690 -1.5692 -1.2471 -5.4944
 1236SOL    HW215168   0.526   3.158   4.576 -1.3133  0.3280  0.4712
 1237SOL     OW15169   2.433   0.548   5.623  0.1192  0.0582  0.3810
 1237SOL    HW115170   2.475   0.464   5.641 -0.6581 -0.3549  0.2627
 1237SOL    HW215171   2.493   0.587   5.560 -0.5443  0.1963 -0.1670
 1238SOL     OW15172   4.385   2.825   4.726  0.0064 -0.1051 -0.4569
 1238SOL    HW115173   4.294   2.843   4.751 -0.2503  0.9843 -2.1677
 1238SOL    HW215174   4.427   2.804   4.809  0.0654  0.3284 -0.3733
 1239SOL     OW15175   3.089   3.607  14.864  0.2968  0.0537 -0.4973
 1239SOL    HW115176   3.145   3.666  14.813 -1.5871  0.7235 -1.7528
 1239SOL    HW215177   3.091   3.645  14.952  1.6472 -1.3102  0.0796
 1240SOL     OW15178   1.920   4.162   1.311 -0.0339  0.3393  0.8885
 1240SOL    HW115179   1.979   4.208   1.370 -1.9371  2.4078  1.1799
 1240SOL    HW215180   1.840   4.213   1.321 -0.1246  0.2609  0.5579
 1241SOL     OW15181   3.150   4.720   9.193  0.4943  0.2115 -0.4732
 1241SOL    HW115182   3.206   4.656   9.149 -0.1200 -0.4676 -0.2721
 1241SOL    HW215183   3.069   4.710   9.144  1.4345 -0.2001 -1.9401
 1242SOL     OW15184   4.434   4.675   3.846  0.3638 -0.0593 -0.0446
 1242SOL    HW115185   4.471   4.717   3.769 -0.0409 -1.8365 -1.1917
 1242SOL    HW215186   4.343   4.707   3.844  1.2339  2.3464 -1.4949
 1243SOL     OW15187   0.000   0.962   0.480  0.0869  0.8621 -0.5868
 1243SOL    HW115188   4.702   0.938   0.390  1.3571  0.4738 -0.8007
 1243SOL    HW215189   4.720   1.058   0.479 -0.9755  0.8207  0.2042
 1244SOL     OW15190   3.641   0.203   3.227 -0.7867 -0.3029  0.1242
 1244SOL    HW115191   3.645   0.108   3.218  2.6225  0.0827 -2.4476
 1244SOL    HW215192   3.555   0.224   3.191 -1.1116 -1.7492  0.0591
 1245SOL     OW15193   0.522   4.110   2.257  0.4831 -0.2301 -0.0017
 1245SOL    HW115194   0.577   4.049   2.207  0.1850  0.8526 -1.6232
 1245SOL    HW215195   0.473   4.152   2.187 -1.9084  0.6085  2.1670
 1246SOL     OW15196   0.666   0.090   6.775  0.6240  0.1526  1.0496
 1246SOL    HW115197   0.638   0.168   6.727 -1.1592 -0.0448  1.7900
 1246SOL    HW215198   0.637   0.116   6.863 -1.2882 -0.8543  0.7212
 1247SOL     OW15199   1.407   3.792   7.832 -0.3735 -0.3080 -0.0017
 1247SOL    HW115200   1.368   3.869   7.873 -0.2815 -0.0596 -0.3776
 1247SOL    HW215201   1.368   3.782   7.745 -1.9846  2.8441  0.3587
 1248SOL     OW15202   3.094   4.047   3.546  0.2789  0.0646 -0.4042
 1248SOL    HW115203   3.062   4.137   3.556  0.3009  0.0999 -0.6506
 1248SOL    HW215204   3.186   4.057   3.521  0.3174  0.4383 -0.1190
 1249SOL     OW15205   2.968   0.550   6.644 -0.1648  0.0909  0.0477
 1249SOL    HW115206   3.016   0.526   6.723 -0.7967 -1.5616 -0.0540
 1249SOL    HW215207   2.968   0.465   6.599 -0.9456 -1.7682  3.5337
 1250SOL     OW15208   3.951   1.715   4.458  0.3464  0.6257 -0.3905
 1250SOL    HW115209   3.861   1.687   4.445  0.3751 -0.5294  1.9142
 1250SOL    HW215210   4.001   1.652   4.405  0.8204  0.7629 -0.1131
 1251SOL     OW15211   4.497   3.697   6.916  0.2748 -0.1695 -0.3252
 1251SOL    HW115212   4.429   3.755   6.949  0.1648  0.1875 -1.1834
 1251SOL    HW215213   4.573   3.754   6.904  0.9631 -1.0596 -0.1650
 1252SOL     OW15214   0.778   4.082   5.392 -0.2284 -0.1747  0.1195
 1252SOL    HW115215   0.818   4.053   5.310 -0.7429  2.6167 -1.0882
 1252SOL    HW215216   0.842   4.049   5.456  0.2918 -0.3722 -0.4966
 1253SOL     OW15217   1.901   1.982  16.065  0.3091 -0.7381 -0.2052
 1253SOL    HW115218   1.823   1.935  16.094  1.6138 -3.1116 -0.5297
 1253SOL    HW215219   1.968   1.916  16.084  0.4912 -0.8373 -1.1836
 1254SOL     OW15220   1.980   0.200   1.406  0.4044 -0.2204  0.1483
 1254SOL    HW115221   1.927   0.173   1.331  0.7431 -1.9314  0.5128
 1254SOL    HW215222   2.066   0.224   1.372  0.4446  1.3599  1.3632
 1255SOL     OW15223   4.608   0.206   9.177 -0.0573  0.2040 -0.3643
 1255SOL    HW115224   4.520   0.237   9.198 -1.8702 -2.8177 -3.6057
 1255SOL    HW215225   4.618   0.230   9.085 -0.0274 -1.0279 -0.6743
 1256SOL     OW15226   1.359   0.755   2.144 -0.6433 -0.4085  0.6205
 1256SOL    HW115227   1.312   0.821   2.093 -0.0144 -1.9772 -2.0072
 1256SOL    HW215228   1.429   0.739   2.080  2.4906  2.8633  3.2011
 1257SOL     OW15229   1.453   2.859   2.123 -0.7349  0.1594  0.4957
 1257SOL    HW115230   1.430   2.950   2.139  0.5884  0.8109 -1.3730
 1257SOL    HW215231   1.515   2.872   2.051 -0.6453 -1.1812  0.3352
 1258SOL     OW15232   1.503   2.171   7.736  0.0037  0.0831  0.4166
 1258SOL    HW115233   1.595   2.169   7.711 -0.1647 -1.7114 -0.0114
 1258SOL    HW215234   1.469   2.249   7.692  0.9692  1.4595  2.1166
 1259SOL     OW15235   2.163   1.314   6.078 -0.1401 -0.4496 -0.5237
 1259SOL    HW115236   2.109   1.247   6.037 -0.2825 -0.2938 -0.5910
 1259SOL    HW215237   2.247   1.289   6.039  0.4594  1.1994 -0.3103
 1260SOL     OW15238   2.409   2.551  12.530 -0.1583 -0.0118  0.8131
 1260SOL    HW115239   2.429   2.490  12.601  0.2415 -0.7262  0.0841
 1260SOL    HW215240   2.321   2.577  12.556  0.3927  2.7397 -0.0654
 1261SOL     OW15241   1.420   2.384   7.578  0.3929 -0.1705  0.2115
 1261SOL    HW115242   1.332   2.404   7.610  0.2091 -1.4135  0.4802
 1261SOL    HW215243   1.413   2.392   7.483  0.6509 -2.6923 -0.0223
 1262SOL     OW15244   1.042   2.575   5.453  0.2400 -0.4852 -0.8710
 1262SOL    HW115245   0.950   2.592   5.473  1.0794  0.0482  2.5746
 1262SOL    HW215246   1.051   2.484   5.480  0.1786 -0.6593 -1.4312
 1263SOL     OW15247   0.904   1.437   0.410  0.0070 -0.2477  0.0277
 1263SOL    HW115248   0.821   1.474   0.382 -1.1190 -2.5324  0.2793
 1263SOL    HW215249   0.918   1.503   0.478 -1.3370  0.8934 -0.8126
 1264SOL     OW15250   0.426   1.619   2.296 -0.0548  0.2032 -0.4919
 1264SOL    HW115251   0.369   1.611   2.220 -0.0803 -1.0072 -0.3350
 1264SOL    HW215252   0.517   1.606   2.268 -0.3777  0.0401 -1.4510
 1265SOL     OW15253   0.502   2.604   4.163 -0.1896 -0.4245 -0.0372
 1265SOL    HW115254   0.574   2.542   4.155  0.6129  0.5527 -0.4363
 1265SOL    HW215255   0.469   2.572   4.247  1.7456 -1.1849  0.4335
 1266SOL     OW15256   3.554   0.326   3.624  0.4190  0.5785 -0.2608
 1266SOL    HW115257   3.590   0.376   3.697 -0.2074 -0.4330  0.7540
 1266SOL    HW215258   3.594   0.368   3.547 -0.0335  0.0749 -0.7732
 1267SOL     OW15259   4.410   1.962  13.150 -0.2751 -0.1800 -0.7415
 1267SOL    HW115260   4.498   1.924  13.157  0.0751  0.7369 -0.1141
 1267SOL    HW215261   4.381   1.965  13.241  1.1915  0.5318 -0.3011
 1268SOL     OW15262   0.533   3.696   4.542 -0.0892  0.6492  0.0700
 1268SOL    HW115263   0.464   3.693   4.477  1.3498 -0.2067 -1.4074
 1268SOL    HW215264   0.482   3.685   4.622  1.8392  0.4081  1.2887
 1269SOL     OW15265   0.044   1.341   9.915 -0.3846 -0.4248  0.5216
 1269SOL    HW115266   4.676   1.320   9.931 -0.1325  0.1187  2.6474
 1269SOL    HW215267   0.062   1.395   9.992 -0.7252 -0.8901  0.9251
 1270SOL     OW15268   4.631   1.030   4.064 -0.5027 -0.0593  0.4553
 1270SOL    HW115269   4.690   1.100   4.037 -0.9381  0.0418 -0.2298
 1270SOL    HW215270   4.690   0.957   4.084 -1.1318 -0.1525  1.9671
 1271SOL     OW15271   2.981   4.566   8.066  0.1443 -0.1394 -0.3364
 1271SOL    HW115272   2.900   4.515   8.076  0.1336 -0.4781 -2.1372
 1271SOL    HW215273   3.024   4.501   8.011  3.5764 -0.0608  2.2830
 1272SOL     OW15274   3.426   2.423   6.165  0.0062 -1.0727 -0.4122
 1272SOL    HW115275   3.483   2.353   6.196 -0.3395 -1.2882 -0.2549
 1272SOL    HW215276   3.369   2.383   6.099 -1.1098  0.3305 -0.3163
 1273SOL     OW15277   1.607   2.867   1.553 -0.1511 -0.2280 -0.7781
 1273SOL    HW115278   1.514   2.883   1.569 -0.4596 -1.7860 -1.0702
 1273SOL    HW215279   1.625   2.937   1.489 -0.8718 -0.3125 -1.0796
 1274SOL     OW15280   0.968   3.245   2.677 -0.2432  0.1627 -0.3032
 1274SOL    HW115281   0.923   3.163   2.697 -1.8178  0.9305 -0.7467
 1274SOL    HW215282   0.933   3.297   2.749 -1.3663 -0.4755 -0.3855
 1275SOL     OW15283   3.153   4.613   0.107  0.3919 -0.8014 -0.3604
 1275SOL    HW115284   3.110   4.678   0.161  0.2528 -0.3487 -1.0127
 1275SOL    HW215285   3.127   4.647   0.021  1.4693 -1.3926 -0.9221
 1276SOL     OW15286   2.263   1.964   8.840  0.0655 -0.3996  0.2298
 1276SOL    HW115287   2.271   1.925   8.753  1.3489  1.6483 -0.5669
 1276SOL    HW215288   2.174   1.936   8.860 -0.0780  2.2880  3.3762
 1277SOL     OW15289   3.051   4.613   7.230 -0.2921 -0.0693  0.0882
 1277SOL    HW115290   3.110   4.678   7.191  0.0216 -1.2136 -1.3558
 1277SOL    HW215291   3.017   4.669   7.300  0.3175  0.6475 -0.1827
 1278SOL     OW15292   1.711   4.558   8.677  0.0748  0.7709 -0.0988
 1278SOL    HW115293   1.618   4.541   8.687 -0.2419  2.7120  0.2440
 1278SOL    HW215294   1.721   4.594   8.589  1.5729  1.2304  0.2649
 1279SOL     OW15295   3.523   3.185   1.671 -0.4454 -0.0919 -0.0278
 1279SOL    HW115296   3.591   3.186   1.739  0.3204  2.6568 -0.8626
 1279SOL    HW215297   3.569   3.165   1.589 -1.2068 -0.1464 -0.4409
 1280SOL     OW15298   2.924   0.396   2.342  0.0199 -0.5797 -0.1728
 1280SOL    HW115299   2.980   0.400   2.265 -0.0748 -0.9418 -0.2654
 1280SOL    HW215300   2.947   0.465   2.403 -1.7988  1.6183 -1.9850
 1281SOL     OW15301   1.845   1.966   2.749 -0.7295  0.4627 -0.9381
 1281SOL    HW115302   1.902   1.949   2.674 -1.0340 -0.0632 -1.0465
 1281SOL    HW215303   1.800   1.882   2.754  1.8779 -0.7194  2.1693
 1282SOL     OW15304   1.034   1.458  13.294  0.3922 -0.0271 -0.8121
 1282SOL    HW115305   1.110   1.435  13.241  1.9330 -0.0405  1.3763
 1282SOL    HW215306   1.034   1.390  13.362 -0.5604  1.5188  0.7448
 1283SOL     OW15307   1.064   0.526   6.160 -0.0134  0.0012 -0.8912
 1283SOL    HW115308   1.047   0.618   6.138  0.7454 -0.0989 -1.9270
 1283SOL    HW215309   0.998   0.487   6.103  0.8178 -0.8882 -1.2505
 1284SOL     OW15310   4.633   0.163   6.741 -0.1112  0.3070 -0.3674
 1284SOL    HW115311   4.572   0.214   6.794  1.5224  0.4687  1.3758
 1284SOL    HW215312   4.655   0.225   6.672 -0.6230  1.8463  0.8516
 1285SOL     OW15313   1.697   0.733   1.650  0.0957 -0.2389  0.9598
 1285SOL    HW115314   1.790   0.755   1.640 -0.6637  1.8676 -1.4629
 1285SOL    HW215315   1.658   0.817   1.626 -0.2099 -0.6991 -0.1379
 1286SOL     OW15316   4.321   3.322   4.347  0.2713 -0.6894 -0.1270
 1286SOL    HW115317   4.247   3.382   4.359  3.0620  2.3082  2.1033
 1286SOL    HW215318   4.395   3.381   4.355  0.3941 -0.6779 -1.3396
 1287SOL     OW15319   0.335   4.342   5.228 -0.1913 -0.4213  0.2633
 1287SOL    HW115320   0.379   4.263   5.196 -0.9602  0.0737 -1.9593
 1287SOL    HW215321   0.416   4.380   5.263  0.7999  0.0062 -2.5248
 1288SOL     OW15322   2.744   1.688   1.909  0.7422  0.0149  0.8421
 1288SOL    HW115323   2.653   1.717   1.916  0.6039 -0.4298  0.8990
 1288SOL    HW215324   2.735   1.642   1.992  0.1703  0.3969  0.9948
 1289SOL     OW15325   1.654   4.708   1.474 -0.2904 -0.0448 -0.2044
 1289SOL    HW115326   1.607   0.020   1.400  0.2239 -1.2901 -1.1415
 1289SOL    HW215327   1.733   4.668   1.437  0.5066  1.8131 -0.5310
 1290SOL     OW15328   2.446   3.459  14.345  0.6743 -0.3069 -0.1139
 1290SOL    HW115329   2.364   3.477  14.391 -0.4036  0.8831 -2.5023
 1290SOL    HW215330   2.489   3.416  14.418 -0.2494 -1.4020 -0.2102
 1291SOL     OW15331   0.648   3.885  10.904  0.3374 -0.5274 -0.5079
 1291SOL    HW115332   0.691   3.916  10.824  2.5044  0.3758  1.0001
 1291SOL    HW215333   0.590   3.960  10.918 -0.0598 -1.1881  1.3381
 1292SOL     OW15334   1.610   2.126   3.342 -0.1017  0.3742 -0.1636
 1292SOL    HW115335   1.587   2.100   3.252  0.9295  1.2255 -0.6681
 1292SOL    HW215336   1.623   2.041   3.383  0.7182  0.0885 -1.0030
 1293SOL     OW15337   2.954   3.288  11.681 -0.3795  0.1623  0.4233
 1293SOL    HW115338   3.050   3.287  11.670 -0.7641  0.6719 -3.0679
 1293SOL    HW215339   2.939   3.205  11.637 -0.0833  0.0457  0.5421
 1294SOL     OW15340   0.054   2.489   8.837  0.0213 -0.1001 -0.6174
 1294SOL    HW115341   0.145   2.517   8.833 -1.0255  3.3435 -0.3270
 1294SOL    HW215342   0.058   2.393   8.839 -1.0144 -0.1209  0.5453
 1295SOL     OW15343   1.203   3.279  14.853 -0.2354  0.0057 -0.4075
 1295SOL    HW115344   1.242   3.208  14.904 -0.5158 -0.9230 -1.5116
 1295SOL    HW215345   1.118   3.238  14.839  1.5195 -3.6446 -0.3974
 1296SOL     OW15346   0.865   1.461  13.066 -0.2687 -0.0115  0.5346
 1296SOL    HW115347   0.791   1.476  13.126 -0.6105 -2.0219  0.5866
 1296SOL    HW215348   0.942   1.460  13.124  1.2661  1.6716 -1.4514
 1297SOL     OW15349   2.081   4.124   6.656 -0.5464  0.5847 -0.1931
 1297SOL    HW115350   2.175   4.138   6.648 -0.1640 -2.3496 -0.9438
 1297SOL    HW215351   2.057   4.107   6.565  1.2381  0.9328 -0.7102
 1298SOL     OW15352   0.047   1.169   1.606 -0.3731 -0.0157  0.5090
 1298SOL    HW115353   0.008   1.106   1.667  0.4333 -1.0085 -0.0121
 1298SOL    HW215354   0.098   1.218   1.670 -1.6343  2.0176 -0.0566
 1299SOL     OW15355   3.264   1.574   8.441  0.4943 -0.4041 -0.4206
 1299SOL    HW115356   3.315   1.583   8.360  4.0072 -1.4821  1.6321
 1299SOL    HW215357   3.285   1.660   8.477  0.1657 -0.5685  0.1623
 1300SOL     OW15358   2.228   1.977   7.077 -0.3089  0.1570 -0.1294
 1300SOL    HW115359   2.316   1.994   7.044  0.2213  0.4864  1.4411
 1300SOL    HW215360   2.212   2.047   7.141 -2.0019  0.1297 -0.5383
 1301SOL     OW15361   2.286   0.590  11.344 -0.1639  0.2933  0.0565
 1301SOL    HW115362   2.252   0.668  11.388  1.6970  2.1150 -1.7101
 1301SOL    HW215363   2.204   0.583  11.296 -0.5005 -0.8921  0.7854
 1302SOL     OW15364   3.330   4.535   7.593 -0.1652  0.3791 -0.0617
 1302SOL    HW115365   3.299   4.502   7.677 -2.4840 -0.3418 -1.2182
 1302SOL    HW215366   3.365   4.621   7.617 -0.1741 -0.0922  1.6583
 1303SOL     OW15367   4.159   3.233   3.972 -0.1562  0.1108 -0.0987
 1303SOL    HW115368   4.236   3.264   4.020 -1.8225  1.7651  1.5287
 1303SOL    HW215369   4.091   3.288   4.012  1.5445  0.9243  1.6402
 1304SOL     OW15370   0.071   4.140   6.891 -0.2851  0.0040 -0.0031
 1304SOL    HW115371   0.003   4.072   6.887 -0.3675  0.0961 -0.2067
 1304SOL    HW215372   0.095   4.139   6.983  0.7414 -2.0131 -0.2846
 1305SOL     OW15373   2.645   3.015  15.514 -0.1517 -0.0454 -0.0674
 1305SOL    HW115374   2.565   2.966  15.534 -0.0226 -0.0560  0.4250
 1305SOL    HW215375   2.655   3.071  15.590 -0.0378 -0.3669  0.1559
 1306SOL     OW15376   0.179   4.229   5.483  0.2668 -0.3585 -0.4068
 1306SOL    HW115377   0.216   4.226   5.395  0.5240  0.7916 -0.3412
 1306SOL    HW215378   0.234   4.291   5.531 -1.7354  0.0760  1.3374
 1307SOL     OW15379   3.758   0.323  17.694  0.1392  0.8720 -0.4330
 1307SOL    HW115380   3.773   0.401  17.640 -1.3155  1.6837  0.3303
 1307SOL    HW215381   3.845   0.311   0.034  0.1391 -1.8406 -1.3031
 1308SOL     OW15382   1.145   3.859   3.810  0.0859 -0.0036  0.1249
 1308SOL    HW115383   1.182   3.797   3.747 -2.2587 -0.2903 -0.9759
 1308SOL    HW215384   1.184   3.939   3.774 -0.2627  0.4485  0.7506
 1309SOL     OW15385   3.741   3.215   7.416  0.1999 -0.4855  0.0396
 1309SOL    HW115386   3.767   3.161   7.491  0.2534  0.6199  0.8341
 1309SOL    HW215387   3.792   3.294   7.436  0.3236 -0.7479  0.7686
 1310SOL     OW15388   0.248   1.300  15.500  0.8514  0.5600  0.0092
 1310SOL    HW115389   0.220   1.390  15.485 -0.0504  0.6861  2.3838
 1310SOL    HW215390   0.164   1.253  15.506  1.1977 -0.0650 -0.0048
 1311SOL     OW15391   3.959   3.704   8.293  0.0622 -0.1992  0.5823
 1311SOL    HW115392   3.955   3.681   8.386 -4.9204 -1.7173 -0.0647
 1311SOL    HW215393   3.889   3.648   8.262  1.5198 -2.4319  1.3097
 1312SOL     OW15394   2.810   1.897   4.643 -0.0072 -0.1805  0.3844
 1312SOL    HW115395   2.808   1.819   4.698  1.6331 -0.3092  0.2743
 1312SOL    HW215396   2.885   1.876   4.587 -0.4513 -0.6576 -0.0382
 1313SOL     OW15397   1.558   0.939  10.649 -0.0979 -0.1069 -0.5947
 1313SOL    HW115398   1.634   0.910  10.700 -0.2566 -1.2739 -1.0183
 1313SOL    HW215399   1.490   0.873  10.662  1.2696 -1.4065 -0.0639
 1314SOL     OW15400   2.949   3.910  11.801  0.2111  0.2189 -0.3259
 1314SOL    HW115401   3.007   3.845  11.762 -0.1217  0.7495 -1.7003
 1314SOL    HW215402   2.871   3.897  11.747  0.7504  0.9241 -1.2838
 1315SOL     OW15403   1.189   1.969   4.507  0.1157 -0.3803 -0.4216
 1315SOL    HW115404   1.203   1.877   4.530  0.3219 -0.0247  0.8905
 1315SOL    HW215405   1.167   1.965   4.414  2.2736  0.6478 -0.9553
 1316SOL     OW15406   2.363   0.842   3.685 -0.0801  0.9009  0.3094
 1316SOL    HW115407   2.417   0.766   3.668 -0.3214  0.1559  2.7793
 1316SOL    HW215408   2.278   0.814   3.653  0.7995 -0.1036 -1.1195
 1317SOL     OW15409   0.750   4.720   3.088  0.0428 -0.3927  0.1377
 1317SOL    HW115410   0.696   0.070   3.060 -0.3132 -0.0847  1.6026
 1317SOL    HW215411   0.684   4.651   3.083 -1.1434  0.8640 -1.3721
 1318SOL     OW15412   2.722   4.683   0.983 -0.0757  0.1169  0.3349
 1318SOL    HW115413   2.694   4.654   1.070 -1.0919  0.7838  0.2283
 1318SOL    HW215414   2.781   0.030   1.008 -0.7839  0.8953 -0.2275
 1319SOL     OW15415   2.784   4.529   4.944 -0.2650 -0.1669  0.4732
 1319SOL    HW115416   2.772   4.455   4.884 -0.8624 -0.4188  0.9007
 1319SOL    HW215417   2.874   4.514   4.972  0.3339  0.2090 -1.2788
 1320SOL     OW15418   0.593   1.348   7.223 -0.1365  0.5073 -0.1005
 1320SOL    HW115419   0.629   1.375   7.307 -0.3221  2.4392 -0.6377
 1320SOL    HW215420   0.602   1.255   7.241  0.9223  0.6642  0.1467
 1321SOL     OW15421   0.354   2.783  16.806 -0.1689 -0.0725 -0.7468
 1321SOL    HW115422   0.295   2.714  16.779  0.7646 -1.1567 -0.0131
 1321SOL    HW215423   0.415   2.729  16.855 -0.1817  0.1065 -0.5318
 1322SOL     OW15424   3.982   0.143   6.643 -0.7913  0.2343  0.3270
 1322SOL    HW115425   3.965   0.233   6.617  2.4435 -0.4444 -4.2183
 1322SOL    HW215426   3.909   0.096   6.603  0.5120 -0.1050 -1.6913
 1323SOL     OW15427   2.563   4.235   6.496  0.3786 -0.1628  0.7856
 1323SOL    HW115428   2.527   4.214   6.410 -0.0443  2.7679  0.2164
 1323SOL    HW215429   2.511   4.180   6.555  0.2017  0.3536  1.1145
 1324SOL     OW15430   3.193   1.844   2.970  0.1311 -0.2366  0.0718
 1324SOL    HW115431   3.264   1.878   2.916  1.6107 -0.0777  2.0851
 1324SOL    HW215432   3.127   1.822   2.905  0.1381 -0.7532  0.2392
 1325SOL     OW15433   4.171   2.747  16.680  0.4885  0.4474 -0.1052
 1325SOL    HW115434   4.167   2.675  16.743  1.4095 -0.9497 -1.6149
 1325SOL    HW215435   4.263   2.754  16.653  0.6683  1.7367  0.8807
 1326SOL     OW15436   3.758   2.813   9.080 -0.0006  0.3651 -0.1591
 1326SOL    HW115437   3.695   2.884   9.090  1.5467  1.6211  0.7184
 1326SOL    HW215438   3.718   2.732   9.111 -1.7115  1.7132  1.1186
 1327SOL     OW15439   0.012   0.981   7.175  0.2056  0.0647 -0.0260
 1327SOL    HW115440   0.042   0.952   7.089 -0.5231  0.2738 -0.3484
 1327SOL    HW215441   4.644   0.952   7.177  0.5755 -1.1272 -0.6310
 1328SOL     OW15442   0.283   1.500  16.711  0.1328 -0.6094  0.5038
 1328SOL    HW115443   0.377   1.516  16.712  0.2779 -1.3537 -0.6941
 1328SOL    HW215444   0.279   1.407  16.732  3.1266 -1.4902 -2.6779
 1329SOL     OW15445   2.985   0.347  13.881  0.4196 -0.6698  0.3146
 1329SOL    HW115446   3.053   0.412  13.866 -0.2147  0.2642  1.4075
 1329SOL    HW215447   2.916   0.377  13.822  2.3877  1.8049 -0.6920
 1330SOL     OW15448   0.297   4.165   7.889  0.3144 -0.1638  0.7552
 1330SOL    HW115449   0.331   4.254   7.884  0.0214 -0.0630  0.5635
 1330SOL    HW215450   0.357   4.112   7.836  0.7699  1.4557 -0.3579
 1331SOL     OW15451   4.113   0.682   3.210 -0.2673  0.0413  0.3849
 1331SOL    HW115452   4.050   0.661   3.279  0.6179 -0.5111  1.0221
 1331SOL    HW215453   4.080   0.764   3.173  1.8144  0.3229 -0.8330
 1332SOL     OW15454   4.422   1.100   4.865  0.2247 -0.1902 -0.0854
 1332SOL    HW115455   4.374   1.175   4.831  0.7217  0.4642  0.6453
 1332SOL    HW215456   4.393   1.109   4.956  3.1432  3.7125  0.4709
 1333SOL     OW15457   2.469   4.331   0.844 -0.0588 -0.4877 -0.2280
 1333SOL    HW115458   2.392   4.290   0.884 -0.7104  0.9816  0.0676
 1333SOL    HW215459   2.463   4.298   0.755 -1.8660 -1.2057  0.1519
 1334SOL     OW15460   1.050   2.226   6.307 -0.0389  0.3726 -0.2198
 1334SOL    HW115461   1.004   2.305   6.337  0.5423  0.5196  0.3099
 1334SOL    HW215462   1.140   2.241   6.337 -0.1982  1.4091 -0.2559
 1335SOL     OW15463   0.154   3.550  15.765 -0.3494  0.1324  0.6363
 1335SOL    HW115464   0.140   3.644  15.748 -1.6911  0.0749  1.3768
 1335SOL    HW215465   0.195   3.549  15.851  1.0395 -0.3736 -0.0297
 1336SOL     OW15466   1.202   0.428   8.391 -0.2320  0.1016  0.2677
 1336SOL    HW115467   1.167   0.513   8.363 -3.0752 -1.0753  0.2049
 1336SOL    HW215468   1.120   0.385   8.416  0.6671 -2.2257 -0.8552
 1337SOL     OW15469   4.084   3.136   5.342  0.2221  0.9279 -0.2219
 1337SOL    HW115470   4.037   3.219   5.331  2.0835  2.0408  0.2158
 1337SOL    HW215471   4.075   3.129   5.437  1.0840 -1.9045 -0.3592
 1338SOL     OW15472   3.332   2.634   5.623 -0.2641  0.8822 -0.3335
 1338SOL    HW115473   3.382   2.691   5.681 -0.9416  0.4950  0.6367
 1338SOL    HW215474   3.258   2.687   5.594  0.1396  1.1793 -0.8424
 1339SOL     OW15475   1.324   3.129   6.943  0.0416 -0.1216  0.1197
 1339SOL    HW115476   1.269   3.156   6.869  0.2536 -0.4319 -0.1491
 1339SOL    HW215477   1.342   3.217   6.976 -1.5101 -0.3847  1.6976
 1340SOL     OW15478   0.623   0.571   8.939  0.0285 -0.5154 -0.0348
 1340SOL    HW115479   0.558   0.632   8.975  0.8389  1.4888 -1.9388
 1340SOL    HW215480   0.662   0.616   8.864 -1.3547  0.0542 -0.4124
 1341SOL     OW15481   2.026   1.982  13.392  0.2207 -0.3190  0.4561
 1341SOL    HW115482   1.964   2.055  13.391 -0.0859 -0.6166 -1.9766
 1341SOL    HW215483   2.102   2.032  13.421 -1.5317  2.0501  0.9370
 1342SOL     OW15484   3.852   3.853   7.759 -0.5951  0.1843  0.7803
 1342SOL    HW115485   3.807   3.885   7.838 -1.7408  0.9979 -0.1971
 1342SOL    HW215486   3.940   3.888   7.773 -1.1665  1.9727 -0.0441
 1343SOL     OW15487   3.927   3.851   6.497 -0.2594  0.0274 -0.0114
 1343SOL    HW115488   3.884   3.793   6.435  1.9214 -3.5624  1.8664
 1343SOL    HW215489   3.863   3.848   6.567 -1.2611 -0.0549 -0.9351
 1344SOL     OW15490   2.445   0.264   4.083 -0.4555  0.3659  0.9467
 1344SOL    HW115491   2.540   0.260   4.071 -0.4997  1.0191  0.4034
 1344SOL    HW215492   2.431   0.359   4.084  0.6194  0.5379 -1.7189
 1345SOL     OW15493   0.251   2.312   2.818  0.4141 -0.2078  0.1327
 1345SOL    HW115494   0.244   2.406   2.833  1.6437  0.4369 -3.2878
 1345SOL    HW215495   0.188   2.296   2.748  0.0515 -3.0259  1.0966
 1346SOL     OW15496   3.572   2.846   2.908  0.4967 -0.3636  0.7381
 1346SOL    HW115497   3.484   2.878   2.888  0.6409  0.2337  1.0473
 1346SOL    HW215498   3.569   2.860   3.003 -2.4947 -0.2854  0.6303
 1347SOL     OW15499   1.824   3.408   3.843 -0.0377 -0.8729  0.2096
 1347SOL    HW115500   1.804   3.420   3.936  3.9406 -1.8098  1.2063
 1347SOL    HW215501   1.742   3.377   3.805  0.7514 -1.3616 -1.0925
 1348SOL     OW15502   3.046   0.595   8.517  0.5980  0.0285  0.4806
 1348SOL    HW115503   3.034   0.585   8.612 -0.6114 -0.6312  0.2536
 1348SOL    HW215504   3.029   0.504   8.493 -1.0182  0.4866 -0.1228
 1349SOL     OW15505   2.112   0.492   7.618 -0.4785  0.1677 -0.0317
 1349SOL    HW115506   2.059   0.452   7.688  0.7651  0.6879  1.2008
 1349SOL    HW215507   2.175   0.524   7.683  0.9522 -1.2338 -0.7263
 1350SOL     OW15508   1.405   4.316  12.157 -0.0157  0.2789 -0.1810
 1350SOL    HW115509   1.444   4.253  12.097 -3.9042 -0.9789 -1.3770
 1350SOL    HW215510   1.484   4.364  12.181  0.2510  0.1408 -0.8079
 1351SOL     OW15511   0.312   0.757   3.998  0.0821  0.3600 -0.1503
 1351SOL    HW115512   0.377   0.817   3.963  2.1675 -0.7002  1.9194
 1351SOL    HW215513   0.374   0.697   4.038 -1.6796 -0.5265  1.2880
 1352SOL     OW15514   1.353   3.201   0.609  0.2622  0.5679  0.8440
 1352SOL    HW115515   1.310   3.196   0.694  0.0577  0.9994  0.7684
 1352SOL    HW215516   1.402   3.120   0.624  0.2057  0.6949  1.7034
 1353SOL     OW15517   4.385   4.325   6.098  0.1348  0.3902  0.0308
 1353SOL    HW115518   4.400   4.351   6.008  3.1492  2.8348  1.2149
 1353SOL    HW215519   4.389   4.230   6.090 -2.2151  0.2668  0.4134
 1354SOL     OW15520   0.648   3.577   5.633 -0.0984 -0.0027 -0.2181
 1354SOL    HW115521   0.560   3.604   5.606 -0.8260 -2.0587  0.1179
 1354SOL    HW215522   0.620   3.563   5.724 -1.3951 -1.0147 -0.7645
 1355SOL     OW15523   0.948   3.452  11.284  0.1714 -0.5432  0.8202
 1355SOL    HW115524   1.038   3.479  11.268  0.3466 -0.8154  1.3377
 1355SOL    HW215525   0.956   3.362  11.315  0.1473 -0.0486  2.2876
 1356SOL     OW15526   3.752   1.157   5.426  0.0526  0.1089  0.5126
 1356SOL    HW115527   3.765   1.071   5.385  0.1877  0.4101 -0.0752
 1356SOL    HW215528   3.762   1.129   5.517  2.1113  1.9310  0.8499
 1357SOL     OW15529   4.670   2.868   8.655 -0.1553 -0.6147 -0.6673
 1357SOL    HW115530   4.610   2.794   8.647 -1.1688  0.3458 -1.8872
 1357SOL    HW215531   4.628   2.933   8.599 -1.5934  0.4868  1.6754
 1358SOL     OW15532   2.720   0.386   7.395  0.6901  0.4548 -1.0036
 1358SOL    HW115533   2.756   0.344   7.317  4.1414  0.5085  0.5304
 1358SOL    HW215534   2.639   0.427   7.363 -0.5177  2.2308  4.2883
 1359SOL     OW15535   0.789   0.898   8.924 -0.2886 -0.6142  0.6710
 1359SOL    HW115536   0.751   0.839   8.858 -2.1852  1.4262 -0.0586
 1359SOL    HW215537   0.812   0.970   8.865 -0.7350 -0.3206  0.8575
 1360SOL     OW15538   2.683   1.593  10.098  0.0758 -0.5625  0.2238
 1360SOL    HW115539   2.748   1.640  10.046 -0.9824  0.2145 -0.3833
 1360SOL    HW215540   2.618   1.658  10.126  1.6111  0.6274  1.0163
 1361SOL     OW15541   2.542   1.881  15.602  0.4447 -0.6516 -0.5324
 1361SOL    HW115542   2.620   1.857  15.552  1.2987  0.2550  0.3714
 1361SOL    HW215543   2.517   1.969  15.574  1.4277  0.0041  0.6461
 1362SOL     OW15544   0.172   2.622   5.474 -0.6310  0.1623 -0.3524
 1362SOL    HW115545   0.097   2.653   5.424  0.2132 -0.0318 -1.7363
 1362SOL    HW215546   0.237   2.691   5.460  0.1943 -0.3613  0.9747
 1363SOL     OW15547   3.764   1.501   8.964  0.0343  0.1698 -0.0447
 1363SOL    HW115548   3.672   1.524   8.975  0.4495  1.6168  0.4397
 1363SOL    HW215549   3.760   1.531   8.873  2.2246 -2.5579 -1.0450
 1364SOL     OW15550   1.144   3.986   6.599 -0.1162 -0.1011 -0.4828
 1364SOL    HW115551   1.167   3.935   6.523  1.0185 -0.5761  0.1840
 1364SOL    HW215552   1.222   3.959   6.647  1.2847  2.2193 -1.4521
 1365SOL     OW15553   4.489   3.203   2.908 -0.4266  0.2286 -0.5571
 1365SOL    HW115554   4.487   3.256   2.988  0.6773 -0.0453 -0.3542
 1365SOL    HW215555   4.419   3.141   2.928  0.3763 -1.2794 -2.3572
 1366SOL     OW15556   1.817   4.293  10.612 -0.1893  0.2819  0.3176
 1366SOL    HW115557   1.858   4.339  10.685  0.0941 -1.0540  0.9921
 1366SOL    HW215558   1.849   4.204  10.625  0.1413  0.4568  0.6889
 1367SOL     OW15559   0.879   0.470   2.262  0.1971 -0.0461 -0.8019
 1367SOL    HW115560   0.856   0.400   2.201 -2.3769 -0.8767  1.1022
 1367SOL    HW215561   0.924   0.417   2.328  0.6028  0.9646 -0.2645
 1368SOL     OW15562   2.851   3.427  11.984  0.9973  0.1537  0.1017
 1368SOL    HW115563   2.891   3.514  11.978  0.0185  0.6168  0.2688
 1368SOL    HW215564   2.768   3.443  12.030  1.1003 -0.8697  0.6513
 1369SOL     OW15565   4.551   0.680  17.188  0.0003 -0.3106 -0.2000
 1369SOL    HW115566   4.460   0.682  17.162 -0.4294 -1.6681  1.1506
 1369SOL    HW215567   4.553   0.748  17.255 -0.1019  1.2194 -1.7818
 1370SOL     OW15568   0.015   3.785   8.217 -0.0296  0.0729  0.0911
 1370SOL    HW115569   0.043   3.871   8.248 -0.3718  1.1158 -2.4516
 1370SOL    HW215570   0.090   3.762   8.162  0.5556  0.8813  0.5518
 1371SOL     OW15571   3.872   2.253  10.434  0.0399  0.3006 -0.0813
 1371SOL    HW115572   3.777   2.253  10.425 -0.0213 -0.8720  0.4980
 1371SOL    HW215573   3.887   2.297  10.351  0.8470  1.1869  0.5362
 1372SOL     OW15574   2.929   4.379   6.487 -0.0290 -0.1720  0.1564
 1372SOL    HW115575   2.961   4.386   6.577  1.0743  0.0646 -0.2642
 1372SOL    HW215576   2.914   4.285   6.481 -2.9823  0.2841  0.0049
 1373SOL     OW15577   2.578   3.293  11.877 -0.3585  0.4521 -0.2771
 1373SOL    HW115578   2.556   3.291  11.970  0.3466 -0.6303 -0.1321
 1373SOL    HW215579   2.672   3.274  11.871 -0.1089  1.8413 -0.9029
 1374SOL     OW15580   2.841   0.787   2.579  0.0665 -0.6066  0.2350
 1374SOL    HW115581   2.858   0.871   2.535 -2.6384  0.0087  0.4221
 1374SOL    HW215582   2.919   0.734   2.560  0.6922  1.0876 -1.9381
 1375SOL     OW15583   2.149   1.977   2.801  0.3094  0.0473 -0.2279
 1375SOL    HW115584   2.131   1.930   2.719 -1.2076  0.4277 -0.1197
 1375SOL    HW215585   2.058   1.972   2.831  0.4384  0.6065  0.2411
 1376SOL     OW15586   0.131   0.843  13.886  0.2587 -0.3481 -0.2987
 1376SOL    HW115587   0.036   0.832  13.880  0.2793 -2.6164  3.2124
 1376SOL    HW215588   0.145   0.918  13.830  2.1928  1.4266  2.5688
 1377SOL     OW15589   2.278   4.651   1.088  0.1660  0.1873  0.4189
 1377SOL    HW115590   2.330   4.662   1.168 -1.0135 -0.9712  1.3558
 1377SOL    HW215591   2.316   4.710   1.023 -0.2728  0.0032 -0.0026
 1378SOL     OW15592   2.029   1.066   0.719  0.2503 -0.0746 -0.3549
 1378SOL    HW115593   2.021   0.976   0.749  0.7467  0.0573  0.1894
 1378SOL    HW215594   2.081   1.047   0.640 -0.5346 -1.0607 -0.6260
 1379SOL     OW15595   3.271   4.435   7.835 -0.3949 -0.3373 -0.6016
 1379SOL    HW115596   3.244   4.407   7.923  4.0752  0.8574  1.1589
 1379SOL    HW215597   3.204   4.392   7.782 -0.0479 -1.2445 -0.3108
 1380SOL     OW15598   0.087   0.769  11.095 -0.0778 -0.6073  0.1522
 1380SOL    HW115599   0.071   0.693  11.039 -2.9456  1.6369 -2.0703
 1380SOL    HW215600   0.041   0.833  11.040  2.0992  0.8861  0.0736
 1381SOL     OW15601   3.597   3.723   8.460 -0.1588  0.3041  0.2220
 1381SOL    HW115602   3.615   3.684   8.375 -0.5338 -0.0155  0.2889
 1381SOL    HW215603   3.503   3.734   8.447 -0.2571 -1.5591 -0.6252
 1382SOL     OW15604   0.203   0.307   1.839 -0.0483  0.0644 -0.2934
 1382SOL    HW115605   0.134   0.245   1.816  1.5687 -1.3032 -1.3745
 1382SOL    HW215606   0.269   0.243   1.865 -1.8391 -1.4399  0.5825
 1383SOL     OW15607   0.501   0.172   5.643 -0.5710  0.8015  0.2231
 1383SOL    HW115608   0.471   0.168   5.733 -3.0634 -0.4227 -0.6779
 1383SOL    HW215609   0.416   0.193   5.604 -0.1574 -2.6907 -2.4983
 1384SOL     OW15610   3.960   2.900  17.498 -0.6783 -0.1611 -0.1005
 1384SOL    HW115611   4.043   2.853  17.509 -0.7238 -0.4840 -1.1000
 1384SOL    HW215612   3.978   2.994  17.494  1.5088 -0.4803  2.4150
 1385SOL     OW15613   3.463   0.856   5.767  0.2497 -0.4980  0.6189
 1385SOL    HW115614   3.440   0.933   5.819  0.4694 -1.0183  1.5082
 1385SOL    HW215615   3.406   0.792   5.810  0.5223 -1.1488  0.0151
 1386SOL     OW15616   1.511   0.572   1.519  1.1686  0.1427 -0.7755
 1386SOL    HW115617   1.573   0.629   1.565 -1.9792  1.8540  1.4192
 1386SOL    HW215618   1.480   0.625   1.446  0.1774  2.2903  1.2211
 1387SOL     OW15619   0.204   4.007   5.626 -0.0874 -0.3524 -0.0191
 1387SOL    HW115620   0.289   4.037   5.657 -0.4548  1.2537 -0.5780
 1387SOL    HW215621   0.165   4.082   5.581  0.4527 -0.0086  0.0840
 1388SOL     OW15622   2.473   3.903  11.058 -0.1601 -0.1711  0.4167
 1388SOL    HW115623   2.412   3.953  11.004 -1.1182 -0.4570  1.2399
 1388SOL    HW215624   2.481   3.945  11.144 -1.6345 -2.0438  1.4695
 1389SOL     OW15625   2.313   0.329   5.857  0.7969  0.3605  0.1682
 1389SOL    HW115626   2.338   0.420   5.840  0.6006  0.8614  2.4761
 1389SOL    HW215627   2.374   0.306   5.927 -0.3761  0.0371  1.1025
 1390SOL     OW15628   1.707   0.208  11.383 -0.2325  0.3695 -0.4437
 1390SOL    HW115629   1.714   0.165  11.297 -1.2258 -0.7486  0.0345
 1390SOL    HW215630   1.784   0.176  11.431 -3.1585  0.0295  3.9186
 1391SOL     OW15631   1.434   0.114  14.484 -0.5227  0.0995 -0.6640
 1391SOL    HW115632   1.441   0.142  14.393  1.2882  5.1280  1.0201
 1391SOL    HW215633   1.357   0.059  14.492  1.0915 -2.0621  0.0757
 1392SOL     OW15634   3.673   2.422   6.484  0.3589 -0.7358  0.4128
 1392SOL    HW115635   3.601   2.365   6.512 -0.3678  0.1729  0.4176
 1392SOL    HW215636   3.659   2.495   6.545  0.6553 -1.6051  1.5272
 1393SOL     OW15637   3.559   0.034   3.898 -0.3720 -0.6418 -0.3335
 1393SOL    HW115638   3.560   0.129   3.907  0.9653 -0.3997 -3.0842
 1393SOL    HW215639   3.473   0.021   3.938  0.5417  0.2931  1.9341
 1394SOL     OW15640   4.268   2.375   2.442  0.5676 -0.3158 -0.5287
 1394SOL    HW115641   4.313   2.404   2.521 -0.3991 -0.8842  0.2290
 1394SOL    HW215642   4.201   2.443   2.430  0.5993  0.1405  1.9977
 1395SOL     OW15643   1.148   3.022   1.149  0.2028  1.0269  0.0357
 1395SOL    HW115644   1.201   3.060   1.079  1.1511 -1.0770 -0.3704
 1395SOL    HW215645   1.187   3.067   1.224  2.1078  0.6455 -0.7167
 1396SOL     OW15646   0.234   2.293   1.822 -0.6273  0.3241 -1.1285
 1396SOL    HW115647   0.243   2.230   1.751  0.1750  1.9131 -2.4398
 1396SOL    HW215648   0.266   2.370   1.775 -1.7739  1.6366  0.2167
 1397SOL     OW15649   2.075   2.402   2.662 -0.4064  0.0671  0.5354
 1397SOL    HW115650   2.062   2.308   2.646  0.9664 -0.0757  0.2526
 1397SOL    HW215651   2.127   2.405   2.742 -0.6557  0.6651  0.6753
 1398SOL     OW15652   2.896   0.205   1.018  0.1801  0.1103  0.1922
 1398SOL    HW115653   2.966   0.206   0.954 -0.9508 -0.2429 -1.0543
 1398SOL    HW215654   2.926   0.272   1.080 -0.3488  1.7154 -1.2907
 1399SOL     OW15655   2.882   4.488   2.334  0.1688 -0.6042  0.1356
 1399SOL    HW115656   2.812   4.543   2.368  1.0852  1.7891 -1.8197
 1399SOL    HW215657   2.948   4.551   2.305  0.3874 -0.8302  0.1338
 1400SOL     OW15658   1.628   0.292  14.779  0.5588 -0.2648  0.0806
 1400SOL    HW115659   1.667   0.225  14.723  1.1617 -1.2212  1.6734
 1400SOL    HW215660   1.559   0.329  14.723  0.4652 -0.9297 -0.2401
 1401SOL     OW15661   0.899   1.687   8.615  0.0593  0.0728  0.1269
 1401SOL    HW115662   0.948   1.651   8.690  1.6338 -1.6540 -1.7215
 1401SOL    HW215663   0.973   1.716   8.562  0.6260  0.0597  0.9011
 1402SOL     OW15664   2.257   3.960   6.138 -0.5267  0.7525  0.4656
 1402SOL    HW115665   2.215   3.899   6.198 -2.6627  0.2467 -1.5353
 1402SOL    HW215666   2.189   3.980   6.074  2.7038  1.3148 -2.8244
 1403SOL     OW15667   4.572   1.484   8.520  0.2200  0.3259 -0.5573
 1403SOL    HW115668   4.668   1.475   8.520  0.1404 -0.4983 -0.2118
 1403SOL    HW215669   4.555   1.450   8.608 -0.7888 -0.8428 -1.2074
 1404SOL     OW15670   0.530   3.276   5.978 -0.6791 -0.2155  0.5221
 1404SOL    HW115671   0.606   3.287   5.922 -1.0838 -0.7749 -0.1391
 1404SOL    HW215672   0.497   3.190   5.953  0.3487 -0.2654 -0.6067
 1405SOL     OW15673   4.266   2.731  10.446 -0.6414  0.3475 -0.1814
 1405SOL    HW115674   4.241   2.658  10.388  1.7508 -2.1497  1.9397
 1405SOL    HW215675   4.321   2.789  10.393 -1.0618  0.1954 -0.7955
 1406SOL     OW15676   3.090   1.024  14.567 -0.0300  0.0985 -0.3069
 1406SOL    HW115677   3.045   0.963  14.508 -0.1355 -0.2394  0.1230
 1406SOL    HW215678   3.017   1.031  14.628  1.2187  0.2183  1.1930
 1407SOL     OW15679   3.296   4.459   9.096  0.2064  0.4405 -0.4537
 1407SOL    HW115680   3.204   4.434   9.096  0.3310 -0.0279  1.5535
 1407SOL    HW215681   3.331   4.410   9.021  0.6177 -2.4060  1.5891
 1408SOL     OW15682   1.728   2.791   7.995 -0.0983  1.2494  0.2585
 1408SOL    HW115683   1.803   2.780   8.052 -0.5543  0.9519  0.8034
 1408SOL    HW215684   1.669   2.728   8.036 -0.0746  1.3828  0.4999
 1409SOL     OW15685   4.538   2.224   2.904 -0.4361  0.0465 -0.1412
 1409SOL    HW115686   4.523   2.256   2.993 -0.9050 -0.3740 -0.0680
 1409SOL    HW215687   4.447   2.202   2.884 -0.3022  0.0854 -0.7931
 1410SOL     OW15688   1.472   3.698   1.344  0.6236 -0.0822 -0.8179
 1410SOL    HW115689   1.469   3.756   1.267  0.6782 -0.1449 -0.8679
 1410SOL    HW215690   1.415   3.626   1.318  2.0243 -2.0359  1.5189
 1411SOL     OW15691   4.170   2.400   8.323  0.2167 -0.3519 -0.0039
 1411SOL    HW115692   4.263   2.384   8.337  0.2953 -2.1356 -2.6179
 1411SOL    HW215693   4.153   2.413   8.416 -0.2864  0.4079 -0.2042
 1412SOL     OW15694   1.868   1.108  12.297  0.5077 -0.3385  0.2130
 1412SOL    HW115695   1.831   1.177  12.242  0.8573  0.2705  0.7431
 1412SOL    HW215696   1.916   1.056  12.233 -0.1435 -0.8271  0.1157
 1413SOL     OW15697   3.266   0.594  11.944  0.2353 -0.7212  0.2169
 1413SOL    HW115698   3.232   0.681  11.921 -5.1982 -3.0394 -0.4499
 1413SOL    HW215699   3.193   0.534  11.929 -0.9582  1.9093 -4.3232
 1414SOL     OW15700   0.637   3.509   1.170 -0.3683 -0.0477 -0.1106
 1414SOL    HW115701   0.590   3.477   1.247 -1.5628  0.3234 -0.6671
 1414SOL    HW215702   0.719   3.541   1.207  0.0467 -0.7520 -0.4171
 1415SOL     OW15703   0.486   2.763   2.566 -0.5052  0.9257 -0.5021
 1415SOL    HW115704   0.552   2.697   2.586 -1.6587  0.1025  0.5315
 1415SOL    HW215705   0.456   2.717   2.487  1.7282  0.4074 -1.0468
 1416SOL     OW15706   2.008   1.438   3.991 -0.5191 -0.2953  0.2617
 1416SOL    HW115707   2.082   1.399   3.946  1.0283  1.5911  1.1781
 1416SOL    HW215708   2.038   1.518   4.035 -1.9000  0.4287 -0.1254
 1417SOL     OW15709   1.029   2.801   1.085 -0.5874  0.1668  0.2494
 1417SOL    HW115710   1.010   2.833   0.997  0.5446 -1.2216 -0.4964
 1417SOL    HW215711   1.087   2.869   1.120  0.1002 -1.2945  1.9129
 1418SOL     OW15712   1.199   1.368   3.613 -0.5275 -0.4186 -0.1466
 1418SOL    HW115713   1.290   1.369   3.643 -1.2109  3.3269  1.6980
 1418SOL    HW215714   1.153   1.348   3.694 -1.0559 -2.8297 -1.0236
 1419SOL     OW15715   3.281   2.847  15.402  0.1681  0.0946  0.4724
 1419SOL    HW115716   3.353   2.826  15.343 -0.3923  0.8033 -0.4680
 1419SOL    HW215717   3.264   2.939  15.382  0.4534 -0.0523 -0.4542
 1420SOL     OW15718   4.364   1.978   0.864 -0.2548  0.2918  0.2855
 1420SOL    HW115719   4.426   2.041   0.828 -1.6776  1.7269  0.3473
 1420SOL    HW215720   4.342   2.012   0.951 -1.0130  0.7770 -0.0950
 1421SOL     OW15721   2.112   3.189   7.317  0.0670  0.0601 -0.1845
 1421SOL    HW115722   2.139   3.272   7.357  0.5021  0.7422 -1.9086
 1421SOL    HW215723   2.107   3.140   7.400 -0.1363 -0.1969 -0.3483
 1422SOL     OW15724   1.956   4.274  11.857  0.6515  0.5642  0.4709
 1422SOL    HW115725   1.923   4.230  11.935 -0.4474 -1.6607 -1.2657
 1422SOL    HW215726   1.882   4.261  11.798 -1.7750  1.0538  3.3788
 1423SOL     OW15727   0.405   3.678   5.597  0.4265  0.2932  0.1818
 1423SOL    HW115728   0.333   3.633   5.641  1.3869  1.5633  3.0227
 1423SOL    HW215729   0.350   3.743   5.551  0.1269  0.9180  1.4260
 1424SOL     OW15730   1.845   4.562   6.251  0.0029 -0.1525  0.4435
 1424SOL    HW115731   1.811   4.474   6.234 -1.1887  0.7982 -2.2256
 1424SOL    HW215732   1.784   4.602   6.313  0.0398  0.1937  0.2572
 1425SOL     OW15733   0.953   2.285   3.274 -0.2473 -0.0870  0.1167
 1425SOL    HW115734   0.911   2.356   3.225  0.7450  1.9252  2.1478
 1425SOL    HW215735   1.005   2.246   3.205  0.1187 -0.7127  0.7466
 1426SOL     OW15736   1.674   0.985   0.380 -0.8555 -0.1056  0.2794
 1426SOL    HW115737   1.584   1.005   0.406 -0.5111 -0.8807  2.0749
 1426SOL    HW215738   1.659   0.893   0.359 -0.4693 -0.6939  2.5477
 1427SOL     OW15739   4.440   2.213  13.486  0.3065  0.9025 -0.2645
 1427SOL    HW115740   4.456   2.278  13.555 -2.1235 -0.0023  1.1389
 1427SOL    HW215741   4.531   2.192  13.466  1.3138  2.1591  2.8779
 1428SOL     OW15742   0.973   2.926   5.635  0.3666 -0.7448  0.0822
 1428SOL    HW115743   0.881   2.918   5.610 -0.2986  1.3448  1.7408
 1428SOL    HW215744   0.989   2.845   5.683  2.8482  0.3193  1.0513
 1429SOL     OW15745   3.390   0.067   7.645 -0.0608 -0.0324 -0.0286
 1429SOL    HW115746   3.470   0.080   7.594  0.8000 -0.7409  1.1452
 1429SOL    HW215747   3.327   0.124   7.602 -1.1195 -0.0736  1.4472
 1430SOL     OW15748   3.177   3.201   8.499  0.0405  0.0971 -0.2717
 1430SOL    HW115749   3.163   3.277   8.443 -0.2471  1.2760  1.3840
 1430SOL    HW215750   3.108   3.222   8.562  0.2602 -0.2479  0.0892
 1431SOL     OW15751   3.052   4.450  11.707  0.3779 -0.2240  0.3696
 1431SOL    HW115752   2.994   4.383  11.672  0.1423  1.9412 -3.3923
 1431SOL    HW215753   3.139   4.414  11.688  1.3513  0.3329  3.7572
 1432SOL     OW15754   3.190   0.388  10.300 -0.2187  0.3360  0.2634
 1432SOL    HW115755   3.142   0.465  10.331  0.0305  1.1346 -1.2921
 1432SOL    HW215756   3.129   0.322  10.330  1.1203 -0.0121  2.2031
 1433SOL     OW15757   3.197   3.912   1.760  0.6997  0.2731  0.3062
 1433SOL    HW115758   3.278   3.954   1.730  0.8739 -0.7884 -0.7017
 1433SOL    HW215759   3.141   3.982   1.794 -2.0017 -0.8871 -1.6942
 1434SOL     OW15760   0.173   1.217  16.165 -0.2931  0.0626  0.2550
 1434SOL    HW115761   0.087   1.181  16.146 -1.1219  1.0096  2.2606
 1434SOL    HW215762   0.203   1.250  16.080 -2.0446 -1.3164 -0.8856
 1435SOL     OW15763   1.435   2.790   8.496 -0.0850 -0.2293 -0.0971
 1435SOL    HW115764   1.371   2.756   8.434  1.3928 -0.6889 -1.3731
 1435SOL    HW215765   1.385   2.856   8.544  0.7753  1.2961 -1.3014
 1436SOL     OW15766   1.596   3.805   1.863  0.5467 -0.7143  0.2323
 1436SOL    HW115767   1.572   3.808   1.770 -0.2531 -0.6993  0.4406
 1436SOL    HW215768   1.551   3.724   1.886  0.5599 -0.0209  2.6553
 1437SOL     OW15769   2.230   3.481   6.003 -0.0865  0.0112 -0.3237
 1437SOL    HW115770   2.260   3.422   5.935  2.1759  2.3987 -1.3712
 1437SOL    HW215771   2.229   3.569   5.967 -0.5900  0.1630  0.0491
 1438SOL     OW15772   3.230   4.645   4.218  0.0932  0.0895 -0.4977
 1438SOL    HW115773   3.221   0.005   4.174  2.4136  0.8382  0.4584
 1438SOL    HW215774   3.194   4.665   4.305 -0.5712 -2.9801 -0.0630
 1439SOL     OW15775   1.415   0.242   8.421 -0.2586 -0.1263 -0.2397
 1439SOL    HW115776   1.353   0.314   8.423 -0.1945  0.0048 -2.9287
 1439SOL    HW215777   1.368   0.187   8.483 -0.0141 -0.0075  0.0503
 1440SOL     OW15778   4.301   4.562   7.914  0.4003  0.2998 -0.3275
 1440SOL    HW115779   4.264   4.640   7.873 -1.6640  0.7859  2.4577
 1440SOL    HW215780   4.306   4.503   7.839 -2.4513 -0.7592  0.3218
 1441SOL     OW15781   0.642   3.904   0.230 -0.2546  0.0864 -0.0832
 1441SOL    HW115782   0.595   3.965   0.173 -1.8567  0.4645  1.6698
 1441SOL    HW215783   0.565   3.869   0.274  0.9485 -0.3910  1.6117
 1442SOL     OW15784   4.043   4.617   0.902 -0.0429  0.2270 -0.2314
 1442SOL    HW115785   3.974   4.624   0.836  0.2826  0.7166 -0.5175
 1442SOL    HW215786   4.023   4.696   0.951  0.0020 -1.3153  2.2979
 1443SOL     OW15787   3.487   3.785  12.992 -0.1857 -0.6593 -0.0578
 1443SOL    HW115788   3.460   3.877  12.992  3.5188  0.4249 -0.0382
 1443SOL    HW215789   3.563   3.800  13.048  1.5080 -1.4829 -2.0994
 1444SOL     OW15790   0.390   4.168   6.954  0.4758 -0.2069 -0.0072
 1444SOL    HW115791   0.373   4.262   6.963  1.6551 -0.0187  0.2795
 1444SOL    HW215792   0.305   4.137   6.984 -0.1553  0.7331 -0.8239
 1445SOL     OW15793   3.563   2.554   5.947  0.2589  0.2440  0.2800
 1445SOL    HW115794   3.483   2.607   5.947 -0.3179 -0.6535  2.7969
 1445SOL    HW215795   3.557   2.516   6.034  0.1812 -1.9294 -0.6664
 1446SOL     OW15796   3.395   2.533  11.992 -0.0997 -0.2048 -0.4839
 1446SOL    HW115797   3.310   2.571  12.017 -0.1037  1.2010 -2.6495
 1446SOL    HW215798   3.395   2.445  12.031  2.5183 -0.0340 -0.1013
 1447SOL     OW15799   3.908   4.562   9.176 -0.2700 -0.7958  0.0309
 1447SOL    HW115800   3.921   4.471   9.201  0.3421 -0.3250  1.4158
 1447SOL    HW215801   3.849   4.598   9.242 -1.0974  0.2904 -1.3081
 1448SOL     OW15802   3.492   0.884   8.293  0.3138 -0.5320  0.3264
 1448SOL    HW115803   3.585   0.907   8.298  0.2176  0.0843 -0.5202
 1448SOL    HW215804   3.468   0.916   8.380  0.9202  2.8109 -0.7319
 1449SOL     OW15805   0.390   1.398   5.549  0.8370  0.2030 -0.2036
 1449SOL    HW115806   0.315   1.355   5.508  0.4607  2.2309 -1.5949
 1449SOL    HW215807   0.446   1.323   5.572  1.5309  1.2615  1.5203
 1450SOL     OW15808   0.383   1.663   3.818 -0.1316 -0.1822  0.7992
 1450SOL    HW115809   0.316   1.731   3.811  0.4385  0.5110  1.9626
 1450SOL    HW215810   0.453   1.699   3.764  0.0096 -0.9182  0.5025
 1451SOL     OW15811   4.280   2.713   9.155  0.3874 -0.6155 -0.1697
 1451SOL    HW115812   4.368   2.729   9.120  1.3124 -0.3798  2.2273
 1451SOL    HW215813   4.242   2.799   9.136  2.0917 -0.3702 -2.4701
 1452SOL     OW15814   1.749   3.166   8.624  0.3821  0.2037 -0.6574
 1452SOL    HW115815   1.817   3.233   8.628 -0.6867  1.1471  1.3021
 1452SOL    HW215816   1.710   3.180   8.538 -1.9906 -0.6850  0.2707
 1453SOL     OW15817   4.668   1.811   5.047  0.1792 -0.2705 -0.1460
 1453SOL    HW115818   0.006   1.806   5.120  1.1554 -0.0878 -0.9462
 1453SOL    HW215819   4.719   1.864   4.985  0.1328 -0.1572 -0.0878
 1454SOL     OW15820   3.626   2.399  10.636  0.0113 -0.5947  0.2293
 1454SOL    HW115821   3.570   2.398  10.558  0.9689  1.2377 -0.4658
 1454SOL    HW215822   3.644   2.492  10.651 -0.6726 -0.2134 -1.2668
 1455SOL     OW15823   2.673   3.587   2.813  0.1137 -0.1130 -0.2495
 1455SOL    HW115824   2.719   3.571   2.730  0.0845  0.4184 -0.3644
 1455SOL    HW215825   2.711   3.511   2.857  1.3832 -0.9056 -2.6617
 1456SOL     OW15826   1.385   0.824   1.057  0.4062  0.4669  0.5504
 1456SOL    HW115827   1.385   0.903   1.112  0.2429  0.9203 -0.1007
 1456SOL    HW215828   1.299   0.789   1.081 -0.3262  0.0604 -2.6790
 1457SOL     OW15829   1.270   1.600   5.235 -0.7596  0.5527 -0.0457
 1457SOL    HW115830   1.304   1.685   5.262  1.1589 -0.6978  1.4229
 1457SOL    HW215831   1.178   1.614   5.256 -0.5557  0.7622  0.6989
 1458SOL     OW15832   0.697   0.813   3.629 -0.0579 -0.3342 -0.0376
 1458SOL    HW115833   0.770   0.794   3.688 -0.6169  0.8657  1.0503
 1458SOL    HW215834   0.739   0.783   3.549 -0.6460 -0.9930 -0.0973
 1459SOL     OW15835   1.337   3.797  12.575 -0.2487  0.0864  0.3699
 1459SOL    HW115836   1.328   3.706  12.604  1.4446  0.1505  1.1191
 1459SOL    HW215837   1.411   3.812  12.634  1.4100  0.2808 -1.7651
 1460SOL     OW15838   2.221   1.289  16.028 -0.1270 -0.0313 -0.4731
 1460SOL    HW115839   2.272   1.212  16.001 -0.8085  0.1525 -2.2763
 1460SOL    HW215840   2.219   1.349  15.954 -0.7331  1.1353  0.5039
 1461SOL     OW15841   0.049   3.030   5.812  0.3750  0.4255 -0.7963
 1461SOL    HW115842   4.691   3.018   5.764 -0.9265  1.8623  1.0186
 1461SOL    HW215843   0.067   3.124   5.804 -1.2935  0.8578  0.4058
 1462SOL     OW15844   1.691   0.020  10.380  0.7107  0.2837 -0.3548
 1462SOL    HW115845   1.654   4.666  10.422  0.1237  0.7518  0.0057
 1462SOL    HW215846   1.678   0.012  10.286  2.6200  2.4470 -0.7824
 1463SOL     OW15847   4.024   3.384  14.279  0.6643  0.1229  0.0786
 1463SOL    HW115848   4.106   3.368  14.325  0.2867 -0.0189  0.7058
 1463SOL    HW215849   4.044   3.452  14.215  2.7466 -1.4812 -0.9764
 1464SOL     OW15850   1.107   3.040   3.755  0.1596 -0.5029 -0.0315
 1464SOL    HW115851   1.042   3.047   3.824  1.0454  0.2808  0.7217
 1464SOL    HW215852   1.097   2.945   3.749  2.1365 -0.7539  0.6480
 1465SOL     OW15853   0.033   3.656   1.906  0.2985  0.4671 -0.1748
 1465SOL    HW115854   0.016   3.743   1.943  0.3510  0.8326 -1.0096
 1465SOL    HW215855   4.685   3.649   1.843  0.2663 -0.1498 -0.0656
 1466SOL     OW15856   2.797   3.250   7.923 -0.1350  0.9625 -0.1642
 1466SOL    HW115857   2.819   3.213   7.837  1.1652 -1.1912  1.1036
 1466SOL    HW215858   2.702   3.256   7.911 -0.1541 -0.0424 -0.5072
 1467SOL     OW15859   0.637   1.152   1.365  0.4497  0.0083 -0.0483
 1467SOL    HW115860   0.628   1.205   1.445 -0.3659 -1.0032  0.5338
 1467SOL    HW215861   0.626   1.217   1.295  0.7332  0.3656  0.2370
 1468SOL     OW15862   3.957   0.222   8.322 -0.1881 -0.3822 -0.4214
 1468SOL    HW115863   3.954   0.301   8.267  1.9572 -0.5876 -0.8346
 1468SOL    HW215864   3.865   0.198   8.337 -0.1615 -0.3418 -0.1886
 1469SOL     OW15865   2.677   2.017   9.813 -0.0076  0.0786 -0.3136
 1469SOL    HW115866   2.678   2.041   9.906 -0.2179  2.4671 -0.9234
 1469SOL    HW215867   2.676   1.922   9.825 -1.3311  0.0082 -0.9636
 1470SOL     OW15868   2.084   3.682   6.527  0.1082 -0.4092  0.1216
 1470SOL    HW115869   2.058   3.590   6.539  2.9691 -1.2560 -0.2660
 1470SOL    HW215870   2.005   3.734   6.542  0.2199 -0.9873  2.7464
 1471SOL     OW15871   2.903   4.365   3.800  0.7709  0.2710  0.0307
 1471SOL    HW115872   2.866   4.301   3.862 -1.1143 -0.5700 -1.9648
 1471SOL    HW215873   2.864   4.340   3.716 -0.6198  1.6807  0.2650
 1472SOL     OW15874   0.705   3.555   6.213 -0.4295 -0.0361 -0.0946
 1472SOL    HW115875   0.629   3.547   6.270  0.2643 -1.8145  0.5898
 1472SOL    HW215876   0.664   3.554   6.126  0.1567 -0.7568 -0.3646
 1473SOL     OW15877   2.696   2.965   2.969  0.2845  0.4317  0.3687
 1473SOL    HW115878   2.761   2.894   2.979  0.5722  0.8447  1.3645
 1473SOL    HW215879   2.750   3.040   2.993 -0.7330  0.6862  1.8345
 1474SOL     OW15880   3.834   3.642   0.554 -1.0966  0.1946  0.5479
 1474SOL    HW115881   3.764   3.620   0.493 -0.1148 -0.2822 -0.4081
 1474SOL    HW215882   3.804   3.731   0.568  4.1841  1.8376  1.3629
 1475SOL     OW15883   1.718   0.217   6.539  0.0182 -0.5149  0.2857
 1475SOL    HW115884   1.654   0.219   6.610 -1.6422 -0.6932 -1.1841
 1475SOL    HW215885   1.663   0.267   6.478  2.3098  1.2970 -0.3066
 1476SOL     OW15886   1.413   2.866   4.700  0.1811 -0.8267  0.0550
 1476SOL    HW115887   1.395   2.958   4.722  1.5419  0.0153 -2.3657
 1476SOL    HW215888   1.498   2.874   4.656  0.4668  2.1377  1.1167
 1477SOL     OW15889   4.717   3.432   2.291  0.1715  0.2299  0.0556
 1477SOL    HW115890   0.057   3.459   2.357  1.0758 -1.1371 -0.2579
 1477SOL    HW215891   0.008   3.338   2.299 -0.5693 -0.1225 -2.8415
 1478SOL     OW15892   3.766   3.330  10.224 -0.3924  0.2293 -0.1488
 1478SOL    HW115893   3.732   3.396  10.285 -0.6485 -0.2520  0.2245
 1478SOL    HW215894   3.827   3.375  10.165 -0.5367 -0.8527 -1.1241
 1479SOL     OW15895   1.843   3.856   3.832  0.0368 -0.2978 -0.7728
 1479SOL    HW115896   1.795   3.784   3.790  0.8337 -0.1294 -1.9786
 1479SOL    HW215897   1.828   3.921   3.763  1.2462  1.0459  0.2346
 1480SOL     OW15898   3.490   2.448  10.413  0.5232  0.0758  0.0651
 1480SOL    HW115899   3.481   2.487  10.326  2.9855 -1.4297 -0.8522
 1480SOL    HW215900   3.487   2.359  10.377 -2.6992  0.0302  0.4378
 1481SOL     OW15901   4.449   3.100   8.628 -0.3502  0.1921 -0.4969
 1481SOL    HW115902   4.486   3.188   8.639 -1.0090  0.5448 -1.0475
 1481SOL    HW215903   4.478   3.078   8.540  0.4129 -0.4830 -0.0723
 1482SOL     OW15904   4.023   0.869   9.150 -0.1454  0.2980 -0.6650
 1482SOL    HW115905   4.082   0.881   9.075 -1.2452 -1.7488 -1.8333
 1482SOL    HW215906   4.084   0.867   9.224 -2.6276 -1.8014  1.3023
 1483SOL     OW15907   4.490   3.564  11.187  0.1707 -0.1492 -0.1554
 1483SOL    HW115908   4.554   3.634  11.186  1.9000 -1.7169  0.2474
 1483SOL    HW215909   4.432   3.602  11.253  1.1067 -0.7509  1.0120
 1484SOL     OW15910   2.649   2.600  13.866  0.3008  0.2233 -0.1511
 1484SOL    HW115911   2.624   2.649  13.788  1.7794 -1.3541 -1.6064
 1484SOL    HW215912   2.585   2.631  13.930 -1.1518 -2.5750 -0.2406
 1485SOL     OW15913   1.677   3.232   0.529 -0.1881  0.3835 -0.3296
 1485SOL    HW115914   1.760   3.249   0.484  1.4039 -0.4260  2.3342
 1485SOL    HW215915   1.678   3.137   0.512 -1.5260  0.5906 -1.6160
 1486SOL     OW15916   3.088   4.100  10.986 -0.9010 -0.1746 -0.7055
 1486SOL    HW115917   3.108   4.109  10.893  2.3814 -0.0476  0.0150
 1486SOL    HW215918   2.996   4.120  10.999 -0.5682  0.0927  1.1853
 1487SOL     OW15919   0.828   3.261   2.008  0.4222  0.2759 -0.8974
 1487SOL    HW115920   0.871   3.221   2.084 -0.8990  1.1529  0.3120
 1487SOL    HW215921   0.812   3.347   2.047 -0.4457  0.3572 -1.4316
 1488SOL     OW15922   3.454   1.205  12.984 -0.4711  0.2179 -0.7614
 1488SOL    HW115923   3.383   1.269  12.979 -0.3645  0.2848 -1.5151
 1488SOL    HW215924   3.417   1.131  12.937 -1.0519 -0.1349  0.2523
 1489SOL     OW15925   4.628   2.359  17.003  0.3207  0.2669  0.1837
 1489SOL    HW115926   4.669   2.304  17.069  2.1984  2.5431  0.8891
 1489SOL    HW215927   4.705   2.378  16.950 -0.3286 -0.4745 -1.0449
 1490SOL     OW15928   3.857   2.258   2.581  0.0004 -0.2330 -0.0036
 1490SOL    HW115929   3.884   2.214   2.661  1.2064  1.1627  0.3439
 1490SOL    HW215930   3.766   2.274   2.606 -0.5046 -3.1915  0.0672
 1491SOL     OW15931   2.615   4.685   3.499  0.5964 -0.6779  0.0638
 1491SOL    HW115932   2.691   4.673   3.557 -1.1445 -0.0679  2.4802
 1491SOL    HW215933   2.618   4.604   3.449 -1.7119  0.2067 -1.4933
 1492SOL     OW15934   1.691   0.191   3.890  0.3818  0.3214  0.6128
 1492SOL    HW115935   1.670   0.098   3.895  2.2963 -0.1808 -0.4002
 1492SOL    HW215936   1.772   0.177   3.841 -0.4164  0.1064 -0.6339
 1493SOL     OW15937   4.692   2.860   6.570  0.0318  0.1920 -0.2783
 1493SOL    HW115938   4.698   2.791   6.636  0.8765 -1.2812 -1.8915
 1493SOL    HW215939   0.012   2.933   6.612  1.9731 -1.4911  0.6079
 1494SOL     OW15940   0.704   1.929   1.899 -0.3415  0.1834  0.3794
 1494SOL    HW115941   0.679   1.881   1.820  0.3202 -1.8471  1.4147
 1494SOL    HW215942   0.652   2.009   1.905 -0.9139  0.0058 -1.9965
 1495SOL     OW15943   2.839   3.047   5.520  0.0154 -0.2719  0.2653
 1495SOL    HW115944   2.857   2.959   5.554  1.2748 -0.1622 -0.1164
 1495SOL    HW215945   2.918   3.066   5.469 -1.1782  1.8348 -0.7830
 1496SOL     OW15946   1.088   2.532   6.834 -0.0336 -0.4409 -0.1018
 1496SOL    HW115947   1.099   2.464   6.901  0.8993  0.9171  1.1227
 1496SOL    HW215948   1.163   2.585   6.859  0.6582 -1.7634  0.6549
 1497SOL     OW15949   1.812   4.555   5.089  0.1707  0.2927  0.3091
 1497SOL    HW115950   1.887   4.496   5.080 -0.3562 -0.3114 -0.1146
 1497SOL    HW215951   1.804   4.589   5.000 -1.6071  2.3215  1.2465
 1498SOL     OW15952   3.919   0.874  16.982  0.0827 -0.2429  0.5086
 1498SOL    HW115953   3.976   0.825  17.042  3.5702  0.1214 -2.5187
 1498SOL    HW215954   3.980   0.888  16.910  1.4969  0.4784  1.8455
 1499SOL     OW15955   4.220   0.677   4.563  0.3954  0.6481  0.2361
 1499SOL    HW115956   4.283   0.606   4.552 -0.1138 -0.2363  2.9878
 1499SOL    HW215957   4.145   0.618   4.574  0.3562  0.7485  0.5037
 1500SOL     OW15958   1.449   4.424  10.371  0.0321  0.1763  0.3551
 1500SOL    HW115959   1.502   4.463  10.441 -0.6653 -1.6161  1.8780
 1500SOL    HW215960   1.375   4.484  10.377 -0.8307 -0.8435 -0.1824
 1501SOL     OW15961   4.154   1.855   5.917  0.2986  0.1194 -0.6686
 1501SOL    HW115962   4.072   1.814   5.943  0.3612  0.2760 -0.2245
 1501SOL    HW215963   4.200   1.850   6.001 -1.2139 -2.7158 -0.0148
 1502SOL     OW15964   2.109   3.624  14.876 -0.3201  0.1759 -0.6570
 1502SOL    HW115965   2.189   3.666  14.909 -0.6753  0.7108 -0.4891
 1502SOL    HW215966   2.082   3.576  14.954 -0.5461  2.2443  0.5438
 1503SOL     OW15967   2.997   0.358   4.767 -0.2646  0.1819  0.0727
 1503SOL    HW115968   2.960   0.341   4.854  0.7427 -1.6559  0.1357
 1503SOL    HW215969   3.021   0.450   4.772 -1.3620  0.4857 -0.1269
 1504SOL     OW15970   3.481   3.268   3.238  0.3777  0.3084 -0.2542
 1504SOL    HW115971   3.474   3.363   3.253  1.7286  0.6519 -1.7541
 1504SOL    HW215972   3.549   3.263   3.170 -0.9551 -2.9039 -1.3519
 1505SOL     OW15973   2.259   1.407  11.330 -0.3307 -0.4137  0.3027
 1505SOL    HW115974   2.249   1.345  11.402 -1.2370 -1.4912 -0.7598
 1505SOL    HW215975   2.185   1.394  11.270 -0.9029  0.7646  0.7483
 1506SOL     OW15976   1.447   4.477   7.790 -0.0680  0.3104 -0.2350
 1506SOL    HW115977   1.542   4.478   7.780  0.0354 -0.8927  0.5981
 1506SOL    HW215978   1.442   4.533   7.867  0.3814  0.9166 -0.6546
 1507SOL     OW15979   4.674   1.298   9.486  0.0105 -0.6020  0.8059
 1507SOL    HW115980   4.596   1.322   9.436  0.2808 -0.9472  0.2251
 1507SOL    HW215981   4.647   1.217   9.528 -1.1450  1.2606  3.6417
 1508SOL     OW15982   4.084   4.097   8.899 -0.1019  0.0303 -0.4304
 1508SOL    HW115983   4.158   4.158   8.889  0.0832  0.1451  1.4506
 1508SOL    HW215984   4.003   4.146   8.910  0.8527  1.1132  1.9767
 1509SOL     OW15985   2.878   4.009   5.178 -0.1178  0.0997  0.8652
 1509SOL    HW115986   2.853   4.050   5.261  2.8603 -0.2687  1.9628
 1509SOL    HW215987   2.839   4.071   5.117  1.5412 -0.1826 -0.4812
 1510SOL     OW15988   1.500   0.257   0.592  0.4530 -0.2136  0.4075
 1510SOL    HW115989   1.437   0.302   0.535  1.1621 -0.5794 -0.6791
 1510SOL    HW215990   1.455   0.253   0.676  1.6707 -4.1521  0.8758
 1511SOL     OW15991   3.943   2.842   8.219 -0.2894 -0.3325  0.1792
 1511SOL    HW115992   4.015   2.780   8.235 -3.3673 -3.3502  2.4509
 1511SOL    HW215993   3.878   2.803   8.276 -0.0434  0.9331  1.3257
 1512SOL     OW15994   1.671   2.382   1.464 -0.3397 -0.0665  0.0846
 1512SOL    HW115995   1.638   2.292   1.472 -2.9988  0.8512 -0.8611
 1512SOL    HW215996   1.610   2.423   1.404 -0.6644 -0.7705 -0.0618
 1513SOL     OW15997   2.127   3.335   0.493 -0.1289  0.2805 -0.8511
 1513SOL    HW115998   2.051   3.386   0.465 -0.7588 -0.0963  0.1643
 1513SOL    HW215999   2.196   3.378   0.442 -1.1712  0.1415 -2.4020
 1514SOL     OW16000   4.234   4.201   0.001  0.2844  0.2261 -0.2646
 1514SOL    HW116001   4.166   4.134   0.001 -0.0345  0.5543  0.0570
 1514SOL    HW216002   4.177   4.274  17.677  0.6587  0.5205 -0.2666
 1515SOL     OW16003   1.391   2.132  10.595  0.4893  0.2310 -0.1622
 1515SOL    HW116004   1.333   2.208  10.596  1.3840  0.9087 -0.0347
 1515SOL    HW216005   1.378   2.102  10.685  1.5767  0.0225 -0.0751
 1516SOL     OW16006   3.215   2.875  10.249 -0.8960 -0.2732 -0.1882
 1516SOL    HW116007   3.158   2.947  10.221 -0.4174  1.3162  2.8926
 1516SOL    HW216008   3.195   2.880  10.343 -2.3888 -0.8400 -0.4728
 1517SOL     OW16009   3.348   1.577   1.700 -0.2321  0.8341 -0.2549
 1517SOL    HW116010   3.386   1.602   1.616  1.7030 -1.2513  0.0073
 1517SOL    HW216011   3.354   1.482   1.688 -0.4501  1.1330 -2.7755
 1518SOL     OW16012   0.652   4.693   3.365 -0.3331 -0.0707 -0.0413
 1518SOL    HW116013   0.721   0.017   3.320  0.1773 -2.0657 -1.3998
 1518SOL    HW216014   0.585   4.673   3.300  1.5087  1.4019 -2.3753
 1519SOL     OW16015   1.128   0.675   1.051  0.4880  0.3867  0.0959
 1519SOL    HW116016   1.154   0.742   0.988  0.1875  0.1882 -0.2363
 1519SOL    HW216017   1.052   0.711   1.097 -0.0567  0.3443 -0.7662
 1520SOL     OW16018   1.533   4.235  15.155 -0.0987  0.2424  0.4911
 1520SOL    HW116019   1.576   4.154  15.127  2.7766  2.0557 -0.3468
 1520SOL    HW216020   1.444   4.204  15.140  0.5041 -1.0311 -0.4870
 1521SOL     OW16021   3.820   1.938   3.733 -0.0915 -0.6887  0.1722
 1521SOL    HW116022   3.805   1.848   3.764  0.9428 -1.5789 -1.8742
 1521SOL    HW216023   3.838   1.932   3.639  0.9781 -0.1107  0.3414
 1522SOL     OW16024   1.972   1.520  15.806 -0.1787 -0.4641  0.0246
 1522SOL    HW116025   1.921   1.599  15.822  0.2654 -0.1931  0.1046
 1522SOL    HW216026   1.905   1.466  15.764  0.0305 -0.4507 -0.3248
 1523SOL     OW16027   3.879   3.317  13.871 -0.3198  0.0079 -0.2163
 1523SOL    HW116028   3.945   3.260  13.832  1.0605  2.6278 -1.7390
 1523SOL    HW216029   3.871   3.292  13.963 -4.1658 -1.0966 -0.8726
 1524SOL     OW16030   4.541   2.697  15.914 -0.8351 -0.5741 -0.4138
 1524SOL    HW116031   4.483   2.770  15.938  0.0301  0.8188 -2.5335
 1524SOL    HW216032   4.620   2.751  15.923 -1.1035  0.3399 -3.3161
 1525SOL     OW16033   1.399   4.574  17.606  0.1413 -0.0880 -0.5940
 1525SOL    HW116034   1.460   4.545  17.539 -2.2610 -0.9648 -2.4233
 1525SOL    HW216035   1.429   4.517  17.676 -0.5948  2.4349  1.7651
 1526SOL     OW16036   1.343   3.958   5.824  0.1129  0.2062 -0.0607
 1526SOL    HW116037   1.344   4.041   5.778  1.1531 -0.0063 -0.4428
 1526SOL    HW216038   1.390   3.976   5.906  0.3645  0.0414 -0.1666
 1527SOL     OW16039   1.683   2.604   9.797  0.1386  0.2707  0.0020
 1527SOL    HW116040   1.595   2.616   9.832  1.2523  0.5094  2.7324
 1527SOL    HW216041   1.715   2.518   9.826 -0.6267  0.5389  1.6365
 1528SOL     OW16042   4.685   2.641  11.155  0.2910 -0.0483  0.2647
 1528SOL    HW116043   4.603   2.691  11.147  0.8242  0.7904 -0.0148
 1528SOL    HW216044   0.014   2.709  11.196 -0.4803  0.2087  0.8459
 1529SOL     OW16045   2.422   4.129   6.277  0.5249 -0.0460  0.2300
 1529SOL    HW116046   2.349   4.069   6.261  1.4331 -1.4332  1.2473
 1529SOL    HW216047   2.423   4.188   6.201  0.8947  0.3616  0.5489
 1530SOL     OW16048   4.147   0.018   6.431  0.2288 -0.5742  0.1276
 1530SOL    HW116049   4.194   4.663   6.455  2.0542  0.3902 -0.2799
 1530SOL    HW216050   4.103   0.053   6.509  0.5329  2.3727 -1.0315
 1531SOL     OW16051   1.189   3.451   2.436 -0.0515  0.5405 -0.0567
 1531SOL    HW116052   1.273   3.428   2.396 -0.5655 -0.1723 -0.7279
 1531SOL    HW216053   1.199   3.545   2.445 -0.3284  0.0334  5.7398
 1532SOL     OW16054   1.698   4.618  17.030  0.6463 -0.4339  0.3394
 1532SOL    HW116055   1.754   4.678  16.980  0.3348  1.4152  2.2187
 1532SOL    HW216056   1.645   4.683  17.076  1.4064 -0.1777  0.8577
 1533SOL     OW16057   2.812   3.612   5.554  0.0928  0.5630 -0.5064
 1533SOL    HW116058   2.728   3.575   5.526 -1.0829  0.8500  2.5955
 1533SOL    HW216059   2.778   3.672   5.621  0.4173 -1.7326  1.7361
 1534SOL     OW16060   2.621   4.087   4.369  0.1615 -0.6274 -0.8228
 1534SOL    HW116061   2.709   4.091   4.406 -0.5239 -0.5640  0.7931
 1534SOL    HW216062   2.575   4.148   4.426 -0.2292  0.4787 -2.3200
 1535SOL     OW16063   3.603   3.337   7.227  0.4411  0.7252  0.0063
 1535SOL    HW116064   3.673   3.322   7.165 -0.8620 -3.9639 -0.2993
 1535SOL    HW216065   3.632   3.282   7.299 -0.0750 -1.3449 -1.3897
 1536SOL     OW16066   1.431   1.459   7.505  0.2001 -0.1676 -0.4145
 1536SOL    HW116067   1.445   1.380   7.557 -1.5148  0.1751  0.5478
 1536SOL    HW216068   1.494   1.515   7.552  1.2246 -0.4642 -1.4285
 1537SOL     OW16069   4.155   1.274   3.561  0.0843  0.5565  0.3406
 1537SOL    HW116070   4.181   1.331   3.634 -0.5929  1.7962 -0.3779
 1537SOL    HW216071   4.062   1.257   3.579 -0.5928  3.2801 -0.5858
 1538SOL     OW16072   0.285   1.001   8.391 -0.2083  0.1991  0.1352
 1538SOL    HW116073   0.277   0.961   8.304 -2.3876 -1.5123  1.1337
 1538SOL    HW216074   0.248   0.931   8.445  0.7569  1.6761  2.7252
 1539SOL     OW16075   0.986   0.326  10.643 -0.9099 -0.1080  0.0590
 1539SOL    HW116076   1.035   0.248  10.614  0.8547  0.7786  0.6385
 1539SOL    HW216077   0.898   0.288  10.645 -1.7252  1.9094  1.4530
 1540SOL     OW16078   1.533   4.684   6.181  0.4258 -0.2000 -0.0753
 1540SOL    HW116079   1.578   4.671   6.264  1.2577  2.2106 -0.1604
 1540SOL    HW216080   1.604   0.010   6.140 -0.6978  0.2470 -1.4775
 1541SOL     OW16081   2.892   0.776   6.762 -0.0813  0.0123 -0.2467
 1541SOL    HW116082   2.885   0.688   6.725 -2.7158 -0.2904  0.9406
 1541SOL    HW216083   2.982   0.779   6.794  0.4986 -0.5626 -1.8157
 1542SOL     OW16084   1.308   1.849   5.324  0.5590 -0.0566 -0.4603
 1542SOL    HW116085   1.266   1.934   5.338  1.5361  0.1641  1.1655
 1542SOL    HW216086   1.324   1.817   5.413  0.9663 -0.7457 -0.7814
 1543SOL     OW16087   3.094   3.493  16.903  0.3752  0.6640 -0.2980
 1543SOL    HW116088   3.017   3.451  16.942  0.6009  1.0846  0.5957
 1543SOL    HW216089   3.136   3.418  16.862 -1.9705 -1.0997  0.5315
 1544SOL     OW16090   1.079   4.186   1.585  0.1566 -0.3903  0.4656
 1544SOL    HW116091   1.072   4.110   1.528 -0.3037  1.4286 -1.8899
 1544SOL    HW216092   1.055   4.248   1.516  1.7130  0.2683  0.5040
 1545SOL     OW16093   0.377   4.435  13.762 -0.2510 -0.1200  0.2319
 1545SOL    HW116094   0.302   4.375  13.760  0.2431 -0.7889  1.5638
 1545SOL    HW216095   0.376   4.462  13.671  3.3389 -0.2481  0.1477
 1546SOL     OW16096   0.201   2.603   4.095  0.0849  0.4749 -0.3125
 1546SOL    HW116097   0.180   2.619   4.187 -2.3387  1.2866 -0.9971
 1546SOL    HW216098   0.294   2.624   4.087  0.6304 -1.0709  1.9376
 1547SOL     OW16099   2.672   1.522  16.269  0.0863  0.2325 -0.8365
 1547SOL    HW116100   2.693   1.517  16.362 -0.2642  0.7263 -0.7336
 1547SOL    HW216101   2.758   1.549  16.237  1.1977  0.3547  2.2515
 1548SOL     OW16102   2.232   0.606   6.214  0.1918 -0.1493  0.1630
 1548SOL    HW116103   2.302   0.655   6.169 -1.2491  1.1703 -0.6526
 1548SOL    HW216104   2.199   0.547   6.146 -0.2480  1.7170 -1.2672
 1549SOL     OW16105   1.478   4.108   4.324 -0.4607 -0.0270  0.2743
 1549SOL    HW116106   1.570   4.090   4.308 -0.0004  0.8333  1.9597
 1549SOL    HW216107   1.474   4.203   4.338  0.5620 -0.0822  0.9408
 1550SOL     OW16108   4.517   3.448   1.571  0.4657  0.6153 -0.3619
 1550SOL    HW116109   4.574   3.395   1.516 -1.6009 -0.2085 -1.6702
 1550SOL    HW216110   4.499   3.522   1.514 -0.4722 -0.7364 -1.8103
 1551SOL     OW16111   4.417   0.507   2.456 -0.0969  0.0467 -0.1513
 1551SOL    HW116112   4.469   0.530   2.379 -0.4893 -0.5454 -0.5928
 1551SOL    HW216113   4.347   0.458   2.412  1.5789 -0.9220 -1.7469
 1552SOL     OW16114   1.661   2.123   2.844  0.0375 -0.4775 -0.2389
 1552SOL    HW116115   1.737   2.065   2.831  0.4430  0.2405 -1.0631
 1552SOL    HW216116   1.687   2.207   2.806 -0.9191 -0.1399 -0.1397
 1553SOL     OW16117   2.326   0.464   0.907 -0.6426 -0.1346 -0.3971
 1553SOL    HW116118   2.359   0.539   0.957 -0.2248 -0.9740  0.5666
 1553SOL    HW216119   2.394   0.465   0.839  1.2373  0.4131  1.5035
 1554SOL     OW16120   1.398   0.257   9.242 -0.1405 -0.6905 -0.3657
 1554SOL    HW116121   1.404   0.180   9.186  0.3663  0.5206 -1.9978
 1554SOL    HW216122   1.304   0.263   9.257  0.2100  1.1427  1.1493
 1555SOL     OW16123   3.918   4.458   2.026 -0.0006  0.2034  0.1578
 1555SOL    HW116124   3.892   4.450   1.935 -0.5977 -1.2691  0.4657
 1555SOL    HW216125   3.835   4.472   2.072 -0.4719 -0.7748 -0.4111
 1556SOL     OW16126   2.848   3.011   3.269  0.1900 -0.0479 -0.6814
 1556SOL    HW116127   2.873   3.072   3.339 -0.3027  0.1716 -0.6973
 1556SOL    HW216128   2.895   2.935   3.304 -0.2378 -0.4545 -0.9897
 1557SOL     OW16129   2.125   4.674   6.746  0.0984 -0.1724 -0.0624
 1557SOL    HW116130   2.120   4.622   6.826 -1.1071  0.9426  0.5963
 1557SOL    HW216131   2.077   4.614   6.688  0.9366  0.2075 -1.1373
 1558SOL     OW16132   2.711   3.560   6.281  0.3750  0.2981 -0.2065
 1558SOL    HW116133   2.737   3.623   6.348 -0.5982 -0.5808  0.9932
 1558SOL    HW216134   2.715   3.615   6.203  1.8052 -0.2491 -0.5120
 1559SOL     OW16135   4.614   0.710  10.014  0.1729  0.0533 -0.3841
 1559SOL    HW116136   4.652   0.644   9.955  2.5362 -1.3866  2.7709
 1559SOL    HW216137   4.691   0.732  10.066  0.5836 -1.6380 -0.2782
 1560SOL     OW16138   2.665   4.027  15.825  0.0928  0.1840  0.2491
 1560SOL    HW116139   2.722   3.965  15.870 -0.0194  1.8831  2.7391
 1560SOL    HW216140   2.696   4.116  15.844  2.2180 -0.6103  0.5079
 1561SOL     OW16141   2.312   3.169   5.303  0.2081  0.4640 -0.3611
 1561SOL    HW116142   2.286   3.107   5.235 -0.8553 -0.7987  1.1892
 1561SOL    HW216143   2.408   3.169   5.298  0.3853 -0.9151  2.8666
 1562SOL     OW16144   1.878   1.024  10.443  0.2081  0.1397  0.9970
 1562SOL    HW116145   1.928   1.028  10.525 -1.6624 -1.0473  2.1908
 1562SOL    HW216146   1.937   0.966  10.395  0.9768  3.2034 -1.7766
 1563SOL     OW16147   3.869   3.250   3.573 -0.1988 -0.0442  0.2375
 1563SOL    HW116148   3.783   3.284   3.598  0.8756  1.7188  1.5147
 1563SOL    HW216149   3.894   3.309   3.503 -0.8400 -0.0213  0.0271
 1564SOL     OW16150   3.775   2.796  15.354 -0.3804  0.0996 -0.0157
 1564SOL    HW116151   3.830   2.731  15.310 -0.3485 -0.4728  0.8547
 1564SOL    HW216152   3.803   2.785  15.445 -0.3436  1.7336  0.1651
 1565SOL     OW16153   0.023   4.450  15.204  0.0611 -0.0974 -0.5239
 1565SOL    HW116154   0.007   4.514  15.134 -0.7259 -1.8605 -1.9649
 1565SOL    HW216155   0.114   4.469  15.229 -0.1533  0.0734  0.1219
 1566SOL     OW16156   1.653   1.776   0.962 -0.0003  0.1232  0.7472
 1566SOL    HW116157   1.693   1.824   1.034 -0.6340 -0.7205  1.6609
 1566SOL    HW216158   1.617   1.847   0.908 -0.4106 -0.6885 -0.0491
 1567SOL     OW16159   0.126   3.191  12.620  0.0040  0.2795  0.5801
 1567SOL    HW116160   0.070   3.131  12.668  0.6584 -1.0190 -0.2732
 1567SOL    HW216161   0.091   3.278  12.638  2.0296  1.3410 -0.5217
 1568SOL     OW16162   2.104   4.057   2.297 -0.0071  0.0386 -0.2867
 1568SOL    HW116163   2.120   4.151   2.290  0.3923 -0.0948 -1.1955
 1568SOL    HW216164   2.126   4.032   2.207  0.3148  2.4534 -0.8984
 1569SOL     OW16165   0.639   3.639  14.206 -0.6749 -0.0756  0.2672
 1569SOL    HW116166   0.608   3.722  14.171  1.4205 -0.5141 -2.6396
 1569SOL    HW216167   0.680   3.660  14.290 -0.6381 -1.1379  0.5091
 1570SOL     OW16168   4.233   2.580   6.797 -0.4032 -0.3659 -0.3821
 1570SOL    HW116169   4.267   2.667   6.777 -1.3152 -0.1102 -0.8246
 1570SOL    HW216170   4.304   2.539   6.846 -0.2049 -0.8866 -1.0908
 1571SOL     OW16171   1.044   1.446   4.709  0.0181 -0.5597 -0.3995
 1571SOL    HW116172   1.097   1.426   4.632  0.4399 -1.4407  0.1211
 1571SOL    HW216173   1.084   1.396   4.780 -2.0173 -0.6552  0.6971
 1572SOL     OW16174   2.986   2.359  15.245  0.6389 -0.1493  0.8128
 1572SOL    HW116175   2.984   2.452  15.267  0.3764 -0.1355  0.7275
 1572SOL    HW216176   3.072   2.358  15.202  0.0899 -2.5962 -0.1856
 1573SOL     OW16177   4.542   0.399   2.718  0.5206  0.1161 -0.0895
 1573SOL    HW116178   4.463   0.405   2.772  1.1179  2.7633  0.4679
 1573SOL    HW216179   4.502   0.387   2.632 -1.6723  1.8253  0.7028
 1574SOL     OW16180   1.919   0.834   1.290 -0.0399  0.1552  0.3881
 1574SOL    HW116181   1.832   0.838   1.331  0.2635  0.8975  0.9738
 1574SOL    HW216182   1.978   0.856   1.362 -1.2564  1.2748  1.0292
 1575SOL     OW16183   1.025   2.206   3.741 -0.1080  0.3399  0.0831
 1575SOL    HW116184   1.095   2.261   3.706 -0.5160 -0.0794 -1.3953
 1575SOL    HW216185   1.020   2.143   3.669 -2.6030 -0.3745  0.8880
 1576SOL     OW16186   1.997   0.386   7.362  0.3370  0.1489 -0.0364
 1576SOL    HW116187   2.037   0.417   7.444  2.8990 -1.6595 -0.6082
 1576SOL    HW216188   2.025   0.295   7.367 -1.8840 -0.5348 -0.0895
 1577SOL     OW16189   4.378   4.156   4.900  0.0326 -0.1042 -0.1281
 1577SOL    HW116190   4.303   4.215   4.906 -0.7350 -1.0885 -0.1381
 1577SOL    HW216191   4.347   4.072   4.931  0.1887 -0.8692 -2.0391
 1578SOL     OW16192   2.140   1.268   4.571  0.6017  0.0452  0.4613
 1578SOL    HW116193   2.154   1.361   4.591 -1.3400 -0.0245  2.1803
 1578SOL    HW216194   2.103   1.269   4.483  1.9017 -1.8200 -0.1021
 1579SOL     OW16195   2.319   1.909   6.442 -0.7500  0.4251  0.2695
 1579SOL    HW116196   2.366   1.988   6.415 -1.9994  1.3942  0.9345
 1579SOL    HW216197   2.391   1.846   6.450 -1.1098  0.1891  1.7094
 1580SOL     OW16198   1.359   4.568   5.678 -0.7105  0.0995  0.6811
 1580SOL    HW116199   1.298   4.641   5.664 -1.9075 -0.0406  5.0554
 1580SOL    HW216200   1.315   4.530   5.754 -1.1772 -2.1173 -0.7285
 1581SOL     OW16201   3.819   2.460  17.392 -0.5327  0.6306  0.5120
 1581SOL    HW116202   3.791   2.551  17.405 -0.9385  0.3409  1.6571
 1581SOL    HW216203   3.910   2.475  17.366 -0.5254  0.6184  0.5303
 1582SOL     OW16204   1.958   2.237   4.948  0.2447 -0.1175 -0.2287
 1582SOL    HW116205   1.893   2.233   5.018  3.0541  0.4006  2.4127
 1582SOL    HW216206   1.985   2.328   4.959 -1.4361  0.0740  2.4656
 1583SOL     OW16207   1.194   2.047  10.800 -0.6489 -0.0178  0.7117
 1583SOL    HW116208   1.227   2.064  10.888 -0.7696 -1.5804  1.0590
 1583SOL    HW216209   1.110   2.001  10.810  0.9740 -3.4515 -1.2805
 1584SOL     OW16210   2.766   0.875   4.587  0.2778 -0.2769 -0.1207
 1584SOL    HW116211   2.683   0.898   4.629  0.2997  2.3612 -1.4929
 1584SOL    HW216212   2.806   0.821   4.654  0.1268  1.7591  1.5978
 1585SOL     OW16213   1.290   2.389   6.335 -1.0454 -0.6022 -0.4115
 1585SOL    HW116214   1.269   2.452   6.266 -1.1011 -1.1412 -0.8852
 1585SOL    HW216215   1.341   2.323   6.288  0.2446  0.1253 -0.0496
 1586SOL     OW16216   2.154   0.777  10.663 -0.2120  0.1162 -0.6701
 1586SOL    HW116217   2.108   0.861  10.656  2.8927  1.9156  0.5261
 1586SOL    HW216218   2.137   0.760  10.756  1.8856  0.7007 -0.1768
 1587SOL     OW16219   4.687   3.187   2.434  0.4124  0.0419 -0.1202
 1587SOL    HW116220   0.025   3.118   2.457  0.8324  0.2005 -0.7780
 1587SOL    HW216221   4.657   3.225   2.517  0.7512  1.6339 -0.7198
 1588SOL     OW16222   3.702   0.492  11.438 -0.2056  0.0639  0.0579
 1588SOL    HW116223   3.715   0.401  11.467 -1.4160 -0.9024 -2.4048
 1588SOL    HW216224   3.692   0.535  11.523 -1.2939  1.3083 -0.7131
 1589SOL     OW16225   2.203   4.092   4.359 -0.6842 -0.1611  0.1607
 1589SOL    HW116226   2.124   4.140   4.336  0.0845  0.9579 -0.1218
 1589SOL    HW216227   2.245   4.150   4.422 -1.4696  2.0969 -1.4208
 1590SOL     OW16228   0.794   4.111   3.474 -0.2545 -0.1031 -0.0158
 1590SOL    HW116229   0.763   4.116   3.383  1.2406 -2.0503 -0.6165
 1590SOL    HW216230   0.720   4.153   3.518  0.1737  0.8873 -0.2498
 1591SOL     OW16231   2.576   0.423   4.795  0.2467 -0.2299  0.3242
 1591SOL    HW116232   2.496   0.394   4.752  0.8147 -0.3966 -0.6220
 1591SOL    HW216233   2.593   0.353   4.858  0.4198 -0.8593 -0.4171
 1592SOL     OW16234   1.583   3.359   9.617  0.7847 -0.0600  0.6059
 1592SOL    HW116235   1.640   3.414   9.670  1.4264  0.1443 -0.3146
 1592SOL    HW216236   1.576   3.283   9.675 -0.1355  0.1548  0.7912
 1593SOL     OW16237   3.890   2.641   2.868 -0.0432  0.0750 -0.1544
 1593SOL    HW116238   3.895   2.628   2.774 -2.2533  1.7558 -0.5163
 1593SOL    HW216239   3.929   2.562   2.906 -1.7492 -1.0040 -0.6268
 1594SOL     OW16240   3.765   4.171   6.284 -0.1758 -0.0654  0.1632
 1594SOL    HW116241   3.834   4.110   6.258 -0.4672  0.3058 -1.4963
 1594SOL    HW216242   3.724   4.143   6.366  2.2521 -0.3979  1.2657
 1595SOL     OW16243   0.189   2.760  13.525 -0.0686 -0.6367 -0.5701
 1595SOL    HW116244   0.161   2.668  13.529  0.0721 -0.6357  0.3953
 1595SOL    HW216245   0.278   2.750  13.492 -0.2064  0.5175 -1.2779
 1596SOL     OW16246   2.000   1.981   2.291  0.4886  0.4112 -0.4076
 1596SOL    HW116247   1.928   2.006   2.233 -1.3794  1.5431  2.4211
 1596SOL    HW216248   1.999   1.885   2.289 -0.2032  0.3203  3.2138
 1597SOL     OW16249   4.012   4.564   3.936  0.1901  0.3467  0.3407
 1597SOL    HW116250   3.958   4.576   3.858 -0.9051 -1.5451  0.8023
 1597SOL    HW216251   3.995   4.472   3.955  1.3331 -0.0094 -0.3957
 1598SOL     OW16252   2.554   1.067   8.008  0.6537  0.0794  0.1196
 1598SOL    HW116253   2.486   1.116   8.053 -0.4915 -0.8347 -0.5935
 1598SOL    HW216254   2.593   1.139   7.960  0.9781 -1.3342 -1.7453
 1599SOL     OW16255   1.078   4.276   3.888  0.2306 -0.8492  0.9296
 1599SOL    HW116256   0.988   4.305   3.898 -0.4421 -2.2441 -1.0352
 1599SOL    HW216257   1.085   4.227   3.806  0.4823  1.2861 -0.3434
 1600SOL     OW16258   2.334   3.716   4.414 -0.4743 -0.4935  0.2554
 1600SOL    HW116259   2.301   3.806   4.414 -1.2868 -0.7828 -0.0546
 1600SOL    HW216260   2.392   3.715   4.489 -1.1986  1.0530  0.8271
 1601SOL     OW16261   1.703   4.142   8.582 -0.6423 -0.1666 -0.2753
 1601SOL    HW116262   1.761   4.077   8.542  0.3206  0.2195  0.5064
 1601SOL    HW216263   1.772   4.202   8.609 -0.5247 -0.7942  0.8214
 1602SOL     OW16264   4.244   0.021  12.028 -0.0255  0.3879  0.3141
 1602SOL    HW116265   4.196   0.075  11.966 -1.1457 -1.5273 -0.4893
 1602SOL    HW216266   4.302   4.687  11.978 -0.3812 -1.6457  2.2322
 1603SOL     OW16267   2.462   2.917   9.979 -0.0547 -0.4555  0.2295
 1603SOL    HW116268   2.401   2.897  10.051 -0.3332  0.6014  0.2910
 1603SOL    HW216269   2.533   2.876  10.029  0.8237 -1.0849 -1.5706
 1604SOL     OW16270   2.488   0.378   2.811  0.0643 -0.0508 -0.3793
 1604SOL    HW116271   2.549   0.304   2.810  0.8111  0.5667  0.0688
 1604SOL    HW216272   2.455   0.378   2.901  1.8312 -0.9565  0.2704
 1605SOL     OW16273   2.783   3.624   0.612  0.2698 -0.1655  0.4648
 1605SOL    HW116274   2.823   3.545   0.576  2.0263  0.1117  1.8445
 1605SOL    HW216275   2.707   3.621   0.553 -0.0148  1.7405  0.7146
 1606SOL     OW16276   0.358   1.019   6.956 -0.5262 -0.0644 -0.7294
 1606SOL    HW116277   0.415   0.945   6.937 -1.0859 -0.0469 -2.5007
 1606SOL    HW216278   0.362   1.005   7.051 -0.5678 -0.5531 -0.7976
 1607SOL     OW16279   4.377   1.091  11.065 -0.2342 -0.2817  0.6224
 1607SOL    HW116280   4.287   1.058  11.067  0.3071 -1.8364 -0.4854
 1607SOL    HW216281   4.358   1.181  11.040  1.9932 -0.0852 -0.2933
 1608SOL     OW16282   3.594   1.824   6.044  0.3206  0.9308  0.8630
 1608SOL    HW116283   3.523   1.871   6.000 -0.9788  0.9396  2.9542
 1608SOL    HW216284   3.670   1.879   6.027 -0.8612  2.9341  2.0519
 1609SOL     OW16285   4.634   1.674   3.958  0.3506 -0.0068  0.0741
 1609SOL    HW116286   4.713   1.620   3.964  1.8416  2.0082 -1.4821
 1609SOL    HW216287   4.677   1.759   3.970  0.3481 -0.0881  0.6727
 1610SOL     OW16288   3.782   1.526   5.853 -0.3830  0.1255 -0.1007
 1610SOL    HW116289   3.687   1.518   5.855 -0.5645  1.7351 -2.1301
 1610SOL    HW216290   3.809   1.438   5.828  0.0586 -0.3012  1.8507
 1611SOL     OW16291   2.596   1.695   1.072  0.1465  0.3189 -0.2594
 1611SOL    HW116292   2.591   1.609   1.032  2.1091 -0.3176  0.8749
 1611SOL    HW216293   2.512   1.690   1.118  0.0469 -0.5783 -0.5459
 1612SOL     OW16294   3.598   1.072   4.035  0.1539 -0.0455  0.5885
 1612SOL    HW116295   3.609   1.019   3.957 -0.9097  2.0034 -0.9539
 1612SOL    HW216296   3.641   1.027   4.108 -0.5482 -3.3144 -1.0078
 1613SOL     OW16297   2.666   0.009  16.719 -0.1465  0.3736  0.0896
 1613SOL    HW116298   2.678   4.693  16.633  0.5467  0.5226  0.1198
 1613SOL    HW216299   2.753   4.709  16.750 -0.0797 -0.0701 -0.4407
 1614SOL     OW16300   3.524   0.766   9.920  0.0081  0.4768  0.1906
 1614SOL    HW116301   3.591   0.772   9.852 -0.7122  0.0826 -0.5470
 1614SOL    HW216302   3.555   0.681   9.953 -1.9951 -0.2151  0.2782
 1615SOL     OW16303   1.475   1.402  16.569 -0.3908  0.7664  0.0495
 1615SOL    HW116304   1.512   1.340  16.632 -0.8243  0.8954  0.4287
 1615SOL    HW216305   1.383   1.402  16.595 -0.8403  0.8717 -1.5585
 1616SOL     OW16306   3.673   4.192   8.164  0.2842 -0.4531  0.7360
 1616SOL    HW116307   3.679   4.168   8.256 -0.4317 -1.9844  0.3865
 1616SOL    HW216308   3.660   4.287   8.163 -0.1154 -0.5064  0.5475
 1617SOL     OW16309   3.613   1.435   5.146 -0.0348 -0.3058  0.3418
 1617SOL    HW116310   3.593   1.357   5.197  2.9491  0.8318  3.2378
 1617SOL    HW216311   3.700   1.409   5.116  0.0738  0.5162 -0.0544
 1618SOL     OW16312   0.386   2.815   2.093  0.3999  0.3281  0.5340
 1618SOL    HW116313   0.373   2.848   2.004  0.7028 -0.9943  0.0020
 1618SOL    HW216314   0.472   2.850   2.116  1.4904  0.2301 -3.3786
 1619SOL     OW16315   3.749   0.662  16.820 -0.1631 -0.5820 -0.1505
 1619SOL    HW116316   3.790   0.576  16.820  0.3119 -0.3648 -0.8481
 1619SOL    HW216317   3.804   0.706  16.755  2.0449 -2.5128  0.3943
 1620SOL     OW16318   2.176   4.688   1.436 -0.6735 -0.3823 -0.3543
 1620SOL    HW116319   2.133   0.039   1.479 -2.6839 -3.4484  2.9560
 1620SOL    HW216320   2.257   0.010   1.413 -0.8041 -1.2564 -2.5617
 1621SOL     OW16321   4.173   3.732   5.608  0.2586  0.2690  0.3517
 1621SOL    HW116322   4.256   3.756   5.567 -0.3993 -1.8148 -2.2456
 1621SOL    HW216323   4.133   3.674   5.542  1.0343 -0.0833  0.1989
 1622SOL     OW16324   2.330   0.547   4.951 -0.8773 -0.0732 -0.4651
 1622SOL    HW116325   2.272   0.525   4.879  1.6102 -0.8189 -2.2288
 1622SOL    HW216326   2.297   0.630   4.983  2.0021 -0.0599  2.5227
 1623SOL     OW16327   1.460   3.757   8.359  0.2077  0.1617  0.0905
 1623SOL    HW116328   1.422   3.806   8.432  2.4312  0.5253  0.9962
 1623SOL    HW216329   1.459   3.671   8.401 -1.3339  0.2254  0.1759
 1624SOL     OW16330   2.630   4.458   3.332 -0.7864 -0.3986 -0.6945
 1624SOL    HW116331   2.614   4.421   3.419  0.2968  0.1193 -0.2749
 1624SOL    HW216332   2.707   4.410   3.301  1.5497  3.2761 -0.6279
 1625SOL     OW16333   3.061   3.157   0.732 -0.2038  0.4716 -0.1427
 1625SOL    HW116334   3.045   3.225   0.666 -0.1948 -1.0568 -1.7286
 1625SOL    HW216335   3.116   3.094   0.685 -0.0781  0.0925  0.5093
 1626SOL     OW16336   3.816   4.191  13.589 -0.0823 -0.5058  0.1934
 1626SOL    HW116337   3.830   4.152  13.675 -2.7971  0.2786  0.9939
 1626SOL    HW216338   3.807   4.283  13.614 -0.6313 -0.6821  0.6494
 1627SOL     OW16339   1.712   3.526   9.810 -0.6808 -0.1118  0.2441
 1627SOL    HW116340   1.670   3.600   9.768 -0.3282 -0.6702 -1.0951
 1627SOL    HW216341   1.664   3.537   9.892 -0.8874 -1.5954  0.3282
 1628SOL     OW16342   1.442   2.833   6.551 -0.1759  0.0494  0.0071
 1628SOL    HW116343   1.367   2.783   6.520 -0.2596  0.7464 -0.9235
 1628SOL    HW216344   1.415   2.876   6.632  2.6386  1.0467  0.4502
 1629SOL     OW16345   0.989   1.666   3.523 -0.0428 -0.2738  0.2504
 1629SOL    HW116346   0.920   1.654   3.458 -1.1463 -2.4365  1.8590
 1629SOL    HW216347   0.948   1.727   3.584  0.1538  0.0084  0.1025
 1630SOL     OW16348   1.517   4.151   5.233 -0.0132 -0.2803  0.8524
 1630SOL    HW116349   1.598   4.126   5.188  0.1456  0.1927  0.8749
 1630SOL    HW216350   1.519   4.246   5.220 -1.4116 -0.5376 -1.2168
 1631SOL     OW16351   3.068   4.012  17.384  0.0493 -0.4867  0.6859
 1631SOL    HW116352   3.123   4.091  17.381 -1.4639  0.5865  1.5186
 1631SOL    HW216353   3.076   3.986  17.292  0.4935 -0.7260  0.7881
 1632SOL     OW16354   4.531   0.760   2.042 -0.5494  0.0812  0.8138
 1632SOL    HW116355   4.528   0.854   2.061 -0.9863  0.5705 -1.7513
 1632SOL    HW216356   4.439   0.750   2.017 -0.0264  0.5894 -1.2866
 1633SOL     OW16357   1.206   3.968   2.608  0.1220  0.3502  0.1550
 1633SOL    HW116358   1.253   4.023   2.670  0.9782 -0.1328 -0.0692
 1633SOL    HW216359   1.122   4.014   2.601  0.6135  1.1136 -0.6947
 1634SOL     OW16360   2.404   3.173   2.733  0.5541  0.4895  0.8474
 1634SOL    HW116361   2.430   3.264   2.719  0.6357  0.1299 -1.4126
 1634SOL    HW216362   2.385   3.139   2.646  4.2083 -0.1514  0.2911
 1635SOL     OW16363   3.791   4.240  13.895 -0.2627  0.6028 -0.0790
 1635SOL    HW116364   3.821   4.301  13.962 -1.2371 -0.5571  1.4064
 1635SOL    HW216365   3.786   4.309  13.828 -0.5267  1.7684  1.1498
 1636SOL     OW16366   0.048   2.423   5.213 -0.6164 -0.1926 -0.7923
 1636SOL    HW116367   0.117   2.388   5.270 -1.0660 -2.3003 -1.5403
 1636SOL    HW216368   4.723   2.472   5.280 -0.8018 -0.8143 -0.4712
 1637SOL     OW16369   3.003   3.923   1.038 -0.1886 -0.0854  0.0729
 1637SOL    HW116370   2.955   3.859   0.986  0.3498 -1.7192  1.5824
 1637SOL    HW216371   2.994   4.004   0.987 -1.1957 -0.7822 -0.8587
 1638SOL     OW16372   1.527   0.008   7.660  0.0401 -0.0028  0.0320
 1638SOL    HW116373   1.544   4.654   7.607 -1.7957  0.1166 -0.7076
 1638SOL    HW216374   1.584   4.720   7.737 -1.3611  0.8073  1.1889
 1639SOL     OW16375   0.523   2.498   5.066 -0.9841  0.2396 -0.5832
 1639SOL    HW116376   0.590   2.520   5.000 -1.1134  1.1913 -0.4020
 1639SOL    HW216377   0.561   2.419   5.105 -0.0987 -0.4142 -2.7630
 1640SOL     OW16378   3.690   0.251   8.341  0.6613  0.7284  0.1094
 1640SOL    HW116379   3.670   0.330   8.391  1.6392 -0.1497  1.8814
 1640SOL    HW216380   3.615   0.248   8.281 -0.0549 -0.1950  1.0561
 1641SOL     OW16381   0.850   3.594   0.568 -0.4442 -0.1220  0.2104
 1641SOL    HW116382   0.878   3.647   0.493  0.0974  1.6438  1.6476
 1641SOL    HW216383   0.765   3.634   0.590 -1.1001 -1.6171  0.3967
 1642SOL     OW16384   4.244   3.531  10.184 -0.1123  0.6190  0.6433
 1642SOL    HW116385   4.248   3.486  10.268  0.4278  1.4137  1.0463
 1642SOL    HW216386   4.154   3.560  10.178  0.0665  1.0786  0.1714
 1643SOL     OW16387   0.824   3.452  11.733 -0.1927 -0.1825  0.2829
 1643SOL    HW116388   0.775   3.375  11.761  0.1391  0.9992  4.0198
 1643SOL    HW216389   0.812   3.445  11.638  0.6483 -1.0666  0.2371
 1644SOL     OW16390   0.914   2.761   1.774  0.0677  0.3414  0.5473
 1644SOL    HW116391   0.938   2.723   1.690 -0.3129  0.8450  0.2099
 1644SOL    HW216392   0.989   2.818   1.791  0.5194 -0.3803  0.9697
 1645SOL     OW16393   2.275   0.303   5.518  0.0875  0.2675 -0.0260
 1645SOL    HW116394   2.195   0.291   5.467 -0.7594 -0.4430  1.4732
 1645SOL    HW216395   2.265   0.396   5.536 -1.8295  0.8204 -3.9746
 1646SOL     OW16396   0.679   4.099   3.911 -0.6747  0.1669 -0.2828
 1646SOL    HW116397   0.747   4.095   3.978 -0.2705  0.0869 -0.7005
 1646SOL    HW216398   0.725   4.148   3.843 -0.6755  3.5053  2.1399
 1647SOL     OW16399   3.134   3.030   2.728  0.2454  0.4014  0.1603
 1647SOL    HW116400   3.084   3.110   2.740 -2.7678 -1.0470 -2.6776
 1647SOL    HW216401   3.119   3.024   2.634 -1.2754 -1.4637  0.5115
 1648SOL     OW16402   0.941   0.829  10.132  0.2629  0.1897  0.0816
 1648SOL    HW116403   0.972   0.769  10.064  0.1285  0.5095 -0.2563
 1648SOL    HW216404   0.995   0.907  10.124  0.3129  0.2224  0.6788
 1649SOL     OW16405   3.099   0.657   0.221  0.1242 -0.1576 -0.4742
 1649SOL    HW116406   3.155   0.581   0.204  0.9700  1.0439 -3.0563
 1649SOL    HW216407   3.136   0.733   0.176  0.2243 -0.6914 -1.2921
 1650SOL     OW16408   2.023   0.850   9.846  0.1287 -0.0980  0.0523
 1650SOL    HW116409   2.100   0.796   9.834  0.7774 -0.0939  4.2040
 1650SOL    HW216410   1.953   0.785   9.848  0.2328 -0.1937  0.4895
 1651SOL     OW16411   3.447   2.038  14.202  0.3897 -0.0777 -0.4042
 1651SOL    HW116412   3.416   2.028  14.112 -1.2501  1.1104  0.0361
 1651SOL    HW216413   3.440   2.133  14.212 -2.0415 -0.3006 -0.1394
 1652SOL     OW16414   3.379   2.990   9.055 -0.0933 -0.2243 -0.3041
 1652SOL    HW116415   3.415   3.005   8.968 -1.5856 -1.5536 -1.1543
 1652SOL    HW216416   3.461   3.004   9.103 -0.0544  1.3044 -0.8226
 1653SOL     OW16417   1.855   0.942  13.510 -0.1737  0.6253  0.3311
 1653SOL    HW116418   1.882   0.851  13.494 -1.6691  0.8770 -3.5393
 1653SOL    HW216419   1.879   0.953  13.602  0.8993  0.6327  0.0483
 1654SOL     OW16420   2.538   3.435   7.625 -0.1506 -0.5141  0.3803
 1654SOL    HW116421   2.582   3.455   7.543  2.3132  0.7259  2.0246
 1654SOL    HW216422   2.571   3.345   7.619  1.3734  0.0416  0.4963
 1655SOL     OW16423   1.489   2.951   4.300 -0.1700 -0.4662 -0.7794
 1655SOL    HW116424   1.521   3.036   4.331  0.2318 -1.4912  1.5440
 1655SOL    HW216425   1.566   2.926   4.248  0.7121 -0.0151  0.2963
 1656SOL     OW16426   4.345   4.154  10.850  0.2032 -0.3197 -0.0437
 1656SOL    HW116427   4.361   4.242  10.816 -3.2974  0.1662 -0.3339
 1656SOL    HW216428   4.413   4.155  10.918  2.4460  2.9292 -2.3586
 1657SOL     OW16429   4.082   0.547  11.843  0.2457  0.4340 -0.9380
 1657SOL    HW116430   4.158   0.585  11.886  0.3847  0.8786 -1.5776
 1657SOL    HW216431   4.020   0.531  11.915 -1.6217 -1.5529 -2.9665
 1658SOL     OW16432   0.405   2.786   4.924 -0.6381  0.2085  0.2620
 1658SOL    HW116433   0.371   2.773   5.012 -0.7695 -0.4377  0.1180
 1658SOL    HW216434   0.363   2.869   4.903 -0.2127  1.2914  3.7013
 1659SOL     OW16435   4.306   4.069   0.813  0.1101  0.2308 -0.6166
 1659SOL    HW116436   4.243   4.007   0.851 -1.0208  0.9864 -1.2583
 1659SOL    HW216437   4.274   4.152   0.848 -0.6451  0.6356 -2.2525
 1660SOL     OW16438   0.896   2.553  11.519  0.6667 -0.4166 -0.1898
 1660SOL    HW116439   0.909   2.529  11.610 -0.1844 -0.8768 -0.1911
 1660SOL    HW216440   0.803   2.532  11.524  0.7972 -1.0423 -0.4863
 1661SOL     OW16441   0.716   1.698   9.315  0.4402 -0.2332 -0.4657
 1661SOL    HW116442   0.726   1.654   9.400 -1.0672  1.2388  0.4875
 1661SOL    HW216443   0.685   1.781   9.353  0.8747 -1.0601  1.7292
 1662SOL     OW16444   1.965   0.634   6.256  0.3698  0.0396  0.1355
 1662SOL    HW116445   1.980   0.634   6.350  0.3694 -0.9973  0.1396
 1662SOL    HW216446   2.054   0.621   6.223  0.4580  1.4501 -0.1904
 1663SOL     OW16447   3.179   4.194   4.097  0.0109  0.4295  0.1489
 1663SOL    HW116448   3.211   4.113   4.057 -0.2149 -0.5040  1.8205
 1663SOL    HW216449   3.087   4.196   4.072  0.3323  0.5505 -1.0365
 1664SOL     OW16450   3.810   0.343  11.965 -0.2983 -0.4694  0.1854
 1664SOL    HW116451   3.835   0.303  11.881 -1.1877  0.7663 -0.6768
 1664SOL    HW216452   3.843   0.432  11.971  1.2052 -1.0225  0.0824
 1665SOL     OW16453   3.103   3.708   5.653  0.4659  0.2701  0.1371
 1665SOL    HW116454   3.042   3.777   5.679 -0.6042 -0.2735 -0.9345
 1665SOL    HW216455   3.140   3.753   5.577 -0.8351 -0.0235 -0.6741
 1666SOL     OW16456   3.623   1.072  16.184 -0.0150 -0.4133  0.0763
 1666SOL    HW116457   3.663   1.075  16.097  0.3711  0.6881  0.2953
 1666SOL    HW216458   3.594   1.163  16.193 -2.2494 -1.0120 -0.8806
 1667SOL     OW16459   1.358   2.979  14.493 -0.2912  0.0374  0.1652
 1667SOL    HW116460   1.439   2.930  14.477 -0.7142 -0.7278  0.3362
 1667SOL    HW216461   1.395   3.057  14.534 -0.4762  0.3966 -0.3435
 1668SOL     OW16462   2.903   1.605  16.457 -0.0522  0.2238  0.0458
 1668SOL    HW116463   2.859   1.681  16.418  0.8882  0.0153 -1.4212
 1668SOL    HW216464   2.993   1.624  16.431 -0.0478  0.1702  0.0217
 1669SOL     OW16465   1.129   2.584   1.206  0.3048 -0.5333  0.1135
 1669SOL    HW116466   1.050   2.536   1.230 -0.4627  0.0661 -1.2107
 1669SOL    HW216467   1.089   2.657   1.159 -0.8182 -0.5904  0.9719
 1670SOL     OW16468   2.403   1.617   2.726  0.0331 -0.1100  0.0190
 1670SOL    HW116469   2.383   1.647   2.815  0.1699  1.5520 -0.5211
 1670SOL    HW216470   2.463   1.549   2.757 -1.0738 -1.2337 -0.3012
 1671SOL     OW16471   0.044   4.461   6.520 -0.5397  0.4863 -0.3493
 1671SOL    HW116472   0.041   4.370   6.548 -0.1881  0.0691 -1.6728
 1671SOL    HW216473   4.674   4.473   6.504 -0.3064  0.2084 -1.8580
 1672SOL     OW16474   1.754   0.939  12.044  0.0945 -0.1014  0.0382
 1672SOL    HW116475   1.691   0.966  12.111 -1.9082 -0.4250 -1.7313
 1672SOL    HW216476   1.747   0.844  12.044 -1.5172  0.0273 -2.8531
 1673SOL     OW16477   3.808   3.239   7.053 -0.5072 -0.1159  0.1881
 1673SOL    HW116478   3.816   3.280   6.966 -0.4093 -1.6001 -0.4932
 1673SOL    HW216479   3.746   3.169   7.033 -1.1942  0.7910 -0.8899
 1674SOL     OW16480   1.718   2.413   7.175  0.0286 -0.3323 -0.0882
 1674SOL    HW116481   1.653   2.422   7.105  0.7650  1.7591 -0.5122
 1674SOL    HW216482   1.688   2.475   7.242  0.4152 -0.4580  0.2041
 1675SOL     OW16483   0.571   0.412   1.882 -0.1555 -0.2083  0.1602
 1675SOL    HW116484   0.646   0.465   1.858  1.3906 -2.1266  0.7429
 1675SOL    HW216485   0.535   0.384   1.797 -2.2189 -2.5886  1.8061
 1676SOL     OW16486   2.956   3.648   3.975 -0.4295  0.2937  0.3922
 1676SOL    HW116487   2.863   3.638   3.957 -0.2018 -0.7461 -0.2551
 1676SOL    HW216488   2.983   3.693   3.895 -2.5460  1.4097  0.3355
 1677SOL     OW16489   0.185   2.053   3.476 -0.0514  0.0483 -0.4899
 1677SOL    HW116490   0.129   1.992   3.427  1.1344 -0.0004 -1.8120
 1677SOL    HW216491   0.146   2.140   3.464 -0.2368 -0.1066 -1.0609
 1678SOL     OW16492   2.995   0.834  10.564  0.3963 -0.1456  0.4029
 1678SOL    HW116493   3.001   0.761  10.502  1.4811 -1.0399  1.5482
 1678SOL    HW216494   3.012   0.781  10.642  0.6209 -1.7605 -0.7401
 1679SOL     OW16495   1.347   2.415   2.576 -0.4462 -0.5192 -0.0637
 1679SOL    HW116496   1.407   2.479   2.538  0.1308 -0.0198  1.6907
 1679SOL    HW216497   1.283   2.470   2.621  0.8479 -0.7929  2.1202
 1680SOL     OW16498   1.250   3.813   1.575 -0.8729 -0.2731 -0.3185
 1680SOL    HW116499   1.333   3.766   1.585 -0.4256  0.3982 -0.9134
 1680SOL    HW216500   1.247   3.860   1.658 -0.3460  0.5402 -0.7620
 1681SOL     OW16501   1.347   2.443   3.900 -0.2851  0.0950 -0.5807
 1681SOL    HW116502   1.287   2.418   3.829 -1.8387 -1.2018  1.1867
 1681SOL    HW216503   1.436   2.452   3.865  0.1982  3.4938  1.5573
 1682SOL     OW16504   0.361   0.380   7.985  0.0638 -0.1128 -0.1456
 1682SOL    HW116505   0.283   0.377   7.930  0.1421 -1.8892 -0.1700
 1682SOL    HW216506   0.352   0.296   8.030  0.4669 -1.2800 -2.2522
 1683SOL     OW16507   3.993   4.185   2.590 -0.1408  0.6512 -0.3552
 1683SOL    HW116508   4.027   4.133   2.517 -0.3375 -0.2611  0.2112
 1683SOL    HW216509   3.906   4.207   2.559  0.8723  4.0674 -0.8096
 1684SOL     OW16510   3.540   2.695   1.822  0.0635 -0.4501 -0.1588
 1684SOL    HW116511   3.608   2.630   1.805  0.5175 -0.3397  1.2765
 1684SOL    HW216512   3.564   2.705   1.914  0.8459  2.1904 -0.6565
 1685SOL     OW16513   3.145   0.270   1.624 -0.4464  0.3565  0.3293
 1685SOL    HW116514   3.053   0.283   1.647 -0.7244 -0.7491 -0.1551
 1685SOL    HW216515   3.200   0.270   1.702 -0.4283  0.9448  0.3169
 1686SOL     OW16516   2.035   0.593   7.204 -0.2477  0.1329  0.0022
 1686SOL    HW116517   2.098   0.632   7.265 -0.0999  0.4403 -0.3402
 1686SOL    HW216518   2.034   0.504   7.239  1.4880  0.6597  1.4304
 1687SOL     OW16519   4.235   2.247   6.139  0.2713  0.2960  0.9797
 1687SOL    HW116520   4.262   2.180   6.202  1.3940  0.2139  0.4050
 1687SOL    HW216521   4.319   2.253   6.093 -1.0167 -2.3730 -1.6950
 1688SOL     OW16522   0.308   2.815   2.774  0.7842 -0.2446  0.1840
 1688SOL    HW116523   0.255   2.888   2.742 -1.2942 -1.6119  0.5064
 1688SOL    HW216524   0.381   2.810   2.712 -0.5027  0.1618 -1.3610
 1689SOL     OW16525   3.113   1.360   1.722  0.1914 -0.2927 -0.0349
 1689SOL    HW116526   3.155   1.371   1.637  1.5189  0.3263  0.7068
 1689SOL    HW216527   3.063   1.441   1.716  0.2215 -0.3583 -1.2574
 1690SOL     OW16528   2.269   3.945   5.140  0.5923  0.1104 -0.3434
 1690SOL    HW116529   2.330   3.998   5.192  1.5970 -1.2991 -0.0864
 1690SOL    HW216530   2.204   3.946   5.210  1.1926  2.5620  0.2034
 1691SOL     OW16531   3.848   3.765  14.492  0.1952  0.1081 -0.3157
 1691SOL    HW116532   3.830   3.678  14.458  0.6870  0.0634 -0.4666
 1691SOL    HW216533   3.833   3.814  14.411 -0.7747 -0.5976 -0.5503
 1692SOL     OW16534   2.186   4.329   2.623 -0.5391 -0.1095 -0.5458
 1692SOL    HW116535   2.144   4.317   2.708 -2.5196  3.0195 -1.0825
 1692SOL    HW216536   2.269   4.281   2.624  0.6954  2.0420  0.2879
 1693SOL     OW16537   0.091   1.512   7.868 -0.3203  0.3131 -0.0575
 1693SOL    HW116538   0.080   1.570   7.943  3.8237 -0.3346  1.0422
 1693SOL    HW216539   0.182   1.482   7.865 -0.9810 -1.5325 -1.6286
 1694SOL     OW16540   3.313   0.901  16.915  0.1937  0.1818  0.2167
 1694SOL    HW116541   3.383   0.966  16.906  0.9721 -0.9318 -1.8739
 1694SOL    HW216542   3.338   0.871  17.002 -1.5253 -1.3735  0.1713
 1695SOL     OW16543   0.825   2.963   6.235 -0.4629 -0.7544  1.0168
 1695SOL    HW116544   0.768   2.904   6.284  1.4781 -3.2369  0.2835
 1695SOL    HW216545   0.778   3.046   6.241  1.2152  0.4877 -2.8079
 1696SOL     OW16546   0.335   1.737   6.829 -0.5056 -0.3797  0.0879
 1696SOL    HW116547   0.389   1.771   6.757 -2.5297 -2.1629 -2.2504
 1696SOL    HW216548   0.385   1.657   6.844  2.1714  0.8781 -2.2259
 1697SOL     OW16549   2.110   0.844   7.578 -0.5831 -0.0714  0.3739
 1697SOL    HW116550   2.164   0.886   7.645  0.2955 -0.5859 -0.0102
 1697SOL    HW216551   2.122   0.750   7.595  0.6718 -0.4052 -2.4310
 1698SOL     OW16552   0.038   2.458   6.249 -0.1098 -0.2112 -0.7267
 1698SOL    HW116553   4.668   2.462   6.264  0.3077 -0.9275  2.0956
 1698SOL    HW216554   0.059   2.548   6.224 -1.3453  0.6835  1.4120
 1699SOL     OW16555   4.292   0.070   8.897  0.1705 -0.0157 -0.2139
 1699SOL    HW116556   4.236   0.100   8.969 -0.6831  2.7776 -2.0543
 1699SOL    HW216557   4.350   0.010   8.944  1.6144 -0.6905 -2.8546
 1700SOL     OW16558   3.598   1.557   2.493 -0.0326 -0.4767  0.1220
 1700SOL    HW116559   3.614   1.471   2.454  0.8870 -0.9563  1.5695
 1700SOL    HW216560   3.670   1.571   2.554 -0.6701 -2.0186  1.2498
 1701SOL     OW16561   0.484   0.625   4.976 -0.5364  0.0211 -0.6367
 1701SOL    HW116562   0.572   0.630   5.013 -1.3148  1.9581  0.9973
 1701SOL    HW216563   0.505   0.592   4.889  3.0037  0.2961  0.1003
 1702SOL     OW16564   2.145   2.960   1.024 -0.3542 -0.3938 -0.4838
 1702SOL    HW116565   2.210   3.009   0.973  0.4486 -0.2368  0.6887
 1702SOL    HW216566   2.136   2.886   0.964  1.4199 -0.4505 -0.6946
 1703SOL     OW16567   1.959   2.963   1.665 -0.2546  0.6325  0.2401
 1703SOL    HW116568   2.016   3.035   1.693  1.9895 -0.9961 -0.1396
 1703SOL    HW216569   1.870   2.998   1.664 -1.0124 -1.2881  1.4782
 1704SOL     OW16570   2.182   3.231   6.453 -0.1140 -0.1036 -0.2630
 1704SOL    HW116571   2.255   3.202   6.398 -1.2858 -1.0898 -1.3015
 1704SOL    HW216572   2.218   3.200   6.536 -0.0337  0.6422 -0.0225
 1705SOL     OW16573   3.151   3.776  10.534  0.3109  0.1444  0.5406
 1705SOL    HW116574   3.168   3.778  10.439 -0.3609  0.6018  0.4335
 1705SOL    HW216575   3.195   3.849  10.577  0.2730  1.0034 -0.8857
 1706SOL     OW16576   3.501   0.606  17.635  0.4021 -0.2551  0.0483
 1706SOL    HW116577   3.456   0.657  17.568  0.1249 -0.2001  0.2739
 1706SOL    HW216578   3.484   0.516  17.608  1.1692  0.1128 -1.6288
 1707SOL     OW16579   0.712   1.025  12.627  1.1441  0.8336 -0.1876
 1707SOL    HW116580   0.746   1.115  12.620  1.9803  0.5397  0.0866
 1707SOL    HW216581   0.736   0.981  12.546  1.2756  0.5133  0.0247
 1708SOL     OW16582   2.539   3.252   7.996  0.1490  0.0463 -0.1579
 1708SOL    HW116583   2.468   3.219   7.941 -0.7545 -1.3831  1.8536
 1708SOL    HW216584   2.516   3.241   8.089 -2.6455  3.1040 -0.4970
 1709SOL     OW16585   1.022   0.492   7.672  0.1159  0.5544 -0.5129
 1709SOL    HW116586   0.982   0.428   7.613 -0.1079  0.6813 -0.4963
 1709SOL    HW216587   1.000   0.572   7.625  1.6714 -0.5376 -3.0994
 1710SOL     OW16588   2.672   3.254   2.391 -0.5165  0.3952 -0.3091
 1710SOL    HW116589   2.650   3.178   2.337  1.1096 -1.7457  2.0409
 1710SOL    HW216590   2.682   3.208   2.474 -0.4518 -1.2839 -1.2519
 1711SOL     OW16591   1.425   3.579   5.644  0.2900  0.1330  0.0964
 1711SOL    HW116592   1.340   3.573   5.601  0.3637 -0.5161  0.0426
 1711SOL    HW216593   1.421   3.523   5.721 -1.9965 -1.6198 -1.3039
 1712SOL     OW16594   1.266   4.366   4.058  0.0233  0.4399  0.3424
 1712SOL    HW116595   1.190   4.335   4.010 -1.4907  0.7385  2.5594
 1712SOL    HW216596   1.299   4.282   4.091  3.2008  0.5826 -2.4217
 1713SOL     OW16597   1.437   4.669   6.548  0.0535 -0.1902  0.1874
 1713SOL    HW116598   1.365   4.659   6.485 -1.5492  0.6286  1.8947
 1713SOL    HW216599   1.416   4.604   6.615 -3.0846  1.0344  0.3886
 1714SOL     OW16600   3.248   3.436   2.725 -0.3375  0.0524 -0.2325
 1714SOL    HW116601   3.341   3.418   2.712 -0.2010  0.4074  0.2601
 1714SOL    HW216602   3.253   3.449   2.820  0.9484  1.1432 -0.4486
 1715SOL     OW16603   4.227   4.346   7.437 -0.1939 -0.4505  0.2090
 1715SOL    HW116604   4.277   4.298   7.371 -2.0277  0.2312 -1.6963
 1715SOL    HW216605   4.174   4.273   7.469 -0.0587 -0.8865 -0.5387
 1716SOL     OW16606   2.207   3.739   5.852  0.3136 -0.4676  0.5298
 1716SOL    HW116607   2.188   3.816   5.907 -1.2492 -1.0152  0.7604
 1716SOL    HW216608   2.295   3.763   5.825  0.5511 -3.0219 -0.9965
 1717SOL     OW16609   4.430   0.159   5.674  0.1526  0.1405  0.0547
 1717SOL    HW116610   4.442   0.254   5.675  0.0047  0.1633 -0.3698
 1717SOL    HW216611   4.341   0.161   5.641 -1.0982 -1.3914  3.3443
 1718SOL     OW16612   4.156   0.604  14.830 -0.7392  0.0353  0.1156
 1718SOL    HW116613   4.210   0.621  14.753  0.3891 -1.6421  0.5308
 1718SOL    HW216614   4.068   0.581  14.799 -0.7528  0.0598  0.1363
 1719SOL     OW16615   0.029   4.346  14.014 -0.2296 -0.0084  0.7454
 1719SOL    HW116616   4.660   4.368  14.025  0.2118  1.1573  2.2161
 1719SOL    HW216617   0.039   4.384  13.927 -0.3746  2.2774  1.7368
 1720SOL     OW16618   2.624   1.653  11.589  0.3797 -0.3138 -0.1156
 1720SOL    HW116619   2.607   1.602  11.510 -0.5337 -1.2026  0.6690
 1720SOL    HW216620   2.603   1.599  11.664 -0.7446  1.4673  0.8406
 1721SOL     OW16621   1.110   3.034   2.454 -0.2395  0.2103 -0.1559
 1721SOL    HW116622   1.049   3.073   2.516 -1.2409 -2.1637  0.3458
 1721SOL    HW216623   1.140   2.961   2.509  0.7530 -0.0653 -1.0498
 1722SOL     OW16624   1.651   1.194   0.670 -0.1775  0.6553  0.9678
 1722SOL    HW116625   1.743   1.167   0.667 -0.4070  0.1770 -2.2050
 1722SOL    HW216626   1.614   1.110   0.697  1.9136  0.0763  1.9992
 1723SOL     OW16627   0.857   2.418  12.610 -0.0916  0.5269 -0.7264
 1723SOL    HW116628   0.834   2.429  12.702 -3.0002 -2.0342 -1.1342
 1723SOL    HW216629   0.890   2.506  12.591 -1.0784  0.9669 -0.3424
 1724SOL     OW16630   0.480   4.720   4.574 -0.2270  0.2620  0.1992
 1724SOL    HW116631   0.466   0.085   4.609  2.5816  0.5896  0.5330
 1724SOL    HW216632   0.421   4.665   4.625  0.8235 -1.1158 -0.0884
 1725SOL     OW16633   4.020   1.268   3.920 -0.1476  0.3587 -0.6140
 1725SOL    HW116634   4.025   1.338   3.985 -1.2611  0.2054 -0.3578
 1725SOL    HW216635   4.102   1.269   3.871  0.4932 -1.1030  0.4211
 1726SOL     OW16636   2.444   4.440   7.104 -0.8251  0.3392  0.2337
 1726SOL    HW116637   2.462   4.518   7.050 -1.6647 -0.0843 -0.6513
 1726SOL    HW216638   2.390   4.392   7.041 -1.0214 -1.6138  1.8884
 1727SOL     OW16639   2.040   0.923   8.127  0.1714 -0.0083 -0.2121
 1727SOL    HW116640   1.970   0.927   8.192  1.1974  0.0957  0.8854
 1727SOL    HW216641   2.034   0.829   8.108  0.5090 -0.2115  0.7096
 1728SOL     OW16642   2.294   0.853  17.250  0.0634  0.5006 -0.0256
 1728SOL    HW116643   2.299   0.797  17.173 -2.7366  0.7778 -0.4311
 1728SOL    HW216644   2.301   0.787  17.319  3.3760  0.7596 -0.1042
 1729SOL     OW16645   0.601   3.568   8.936 -0.6227  0.3120  0.0588
 1729SOL    HW116646   0.667   3.617   8.888 -1.6091  0.0121 -1.5873
 1729SOL    HW216647   0.650   3.511   8.996 -0.8111 -0.4852 -0.5325
 1730SOL     OW16648   3.749   4.409  15.945  0.3768 -0.4423  0.5862
 1730SOL    HW116649   3.726   4.370  16.029 -1.9211 -4.6581 -2.0174
 1730SOL    HW216650   3.775   4.327  15.904 -2.2930 -2.2072  2.4842
 1731SOL     OW16651   0.148   1.829   6.063  0.9453  0.0365 -0.5092
 1731SOL    HW116652   0.139   1.749   6.114 -0.7528 -0.2365 -1.2565
 1731SOL    HW216653   0.232   1.858   6.100  0.4427  0.4927  0.2587
 1732SOL     OW16654   0.920   0.727   9.658  0.3352 -0.1794 -0.0019
 1732SOL    HW116655   0.840   0.768   9.625 -0.7735 -1.5082  1.0726
 1732SOL    HW216656   0.986   0.777   9.610 -1.1876 -0.2662 -2.1631
 1733SOL     OW16657   2.688   3.100   4.348  0.4423 -0.0948 -0.0557
 1733SOL    HW116658   2.654   3.137   4.430 -0.6185 -0.4978 -0.3222
 1733SOL    HW216659   2.756   3.165   4.329  2.7850 -2.2827  0.7184
 1734SOL     OW16660   4.237   1.007  16.470 -0.1826  0.4231  0.0768
 1734SOL    HW116661   4.203   0.936  16.416 -0.4926  0.9634 -0.4322
 1734SOL    HW216662   4.246   1.073  16.402  1.6866  0.0084 -0.0560
 1735SOL     OW16663   3.898   4.083   5.206 -0.3866  0.3352 -0.6398
 1735SOL    HW116664   3.989   4.068   5.231 -1.1540  0.8196  2.3628
 1735SOL    HW216665   3.864   3.995   5.187  0.0958 -0.7342  3.6216
 1736SOL     OW16666   4.409   3.610   3.025  0.0346 -0.5066 -0.0953
 1736SOL    HW116667   4.449   3.693   3.050 -2.7866  1.8046 -3.1496
 1736SOL    HW216668   4.476   3.558   3.069  0.3434  0.5256  0.6715
 1737SOL     OW16669   2.236   1.368   4.226 -0.0079  0.2889 -0.1626
 1737SOL    HW116670   2.213   1.358   4.133 -0.1486  1.4426 -0.2579
 1737SOL    HW216671   2.163   1.317   4.260  0.4829 -1.4470 -1.7152
 1738SOL     OW16672   4.603   2.304  11.891  0.1366  0.3248  0.1594
 1738SOL    HW116673   4.619   2.220  11.847  1.3396  0.6535 -0.0119
 1738SOL    HW216674   4.612   2.284  11.984  0.3559 -0.0418  0.0606
 1739SOL     OW16675   4.718   1.485  13.134 -0.0109 -0.1595 -0.4264
 1739SOL    HW116676   4.630   1.491  13.097 -0.2015 -0.9044 -0.1007
 1739SOL    HW216677   0.053   1.528  13.072 -1.4734  0.6263 -1.2592
 1740SOL     OW16678   0.688   0.865   1.138 -0.3950  0.1842  0.2611
 1740SOL    HW116679   0.601   0.906   1.136  0.3354  1.7021 -0.4019
 1740SOL    HW216680   0.736   0.927   1.193  0.2388  1.3296 -1.5831
 1741SOL     OW16681   2.912   4.350   2.808 -0.3006  0.6359  0.3908
 1741SOL    HW116682   2.873   4.267   2.832 -3.3319  1.2711 -2.2845
 1741SOL    HW216683   2.892   4.346   2.714 -0.7581 -0.6611  0.5482
 1742SOL     OW16684   3.098   4.346   0.182  0.2016  0.1526  0.3441
 1742SOL    HW116685   3.131   4.429   0.150  0.0459  0.7441  1.7011
 1742SOL    HW216686   3.147   4.348   0.264  0.3085  0.1306  0.2799
 1743SOL     OW16687   2.183   0.276  12.559  0.7925  0.0432 -0.1461
 1743SOL    HW116688   2.134   0.232  12.490  0.4465  0.7307 -0.3412
 1743SOL    HW216689   2.124   0.349  12.579 -1.0998 -2.0291  1.8823
 1744SOL     OW16690   4.576   1.887  12.836  0.4477 -0.0114 -0.2244
 1744SOL    HW116691   4.484   1.912  12.837  0.4473  0.0203 -1.2169
 1744SOL    HW216692   4.585   1.842  12.752  3.3602 -0.2616  0.2089
 1745SOL     OW16693   1.694   3.815   3.078  0.2912 -0.7431  0.0609
 1745SOL    HW116694   1.714   3.726   3.048  3.2221  0.2896 -1.0343
 1745SOL    HW216695   1.773   3.869   3.072 -0.4635  0.2122 -1.4642
 1746SOL     OW16696   4.649   1.611   2.195 -0.5891 -0.0990 -0.3849
 1746SOL    HW116697   4.587   1.663   2.246  1.1062  2.3174 -0.7880
 1746SOL    HW216698   4.606   1.526   2.185 -1.0299  0.2086 -1.0942
 1747SOL     OW16699   0.912   0.524   3.591  0.3736 -0.7074  0.3424
 1747SOL    HW116700   0.893   0.594   3.528  0.8170 -0.5066  0.4269
 1747SOL    HW216701   0.833   0.471   3.595 -0.0825 -0.0710 -0.0864
 1748SOL     OW16702   0.683   2.130   5.067  0.1649  0.1289 -0.1961
 1748SOL    HW116703   0.683   2.096   4.978  0.0854  1.3813 -0.6672
 1748SOL    HW216704   0.703   2.044   5.104  1.9109  1.6848  2.5165
 1749SOL     OW16705   2.005   2.714   8.409 -0.0450  0.1308  0.1820
 1749SOL    HW116706   2.048   2.630   8.392 -1.4226 -0.2997 -1.1454
 1749SOL    HW216707   1.963   2.693   8.492  0.4954  0.6805  0.6031
 1750SOL     OW16708   2.919   4.686  16.844 -0.3113 -0.4261 -0.5878
 1750SOL    HW116709   2.991   4.681  16.906 -0.2907  2.6791 -0.3662
 1750SOL    HW216710   2.965   4.676  16.761  0.4336 -3.5051  0.2076
 1751SOL     OW16711   4.708   3.701   9.326  0.2074  0.2573  0.6708
 1751SOL    HW116712   4.681   3.785   9.288 -0.9945  0.6985  2.5395
 1751SOL    HW216713   0.074   3.725   9.349  0.0770  2.4971 -1.0746
 1752SOL     OW16714   3.948   3.385   4.063  0.8244  0.1838 -0.0094
 1752SOL    HW116715   3.915   3.321   4.125  1.6752  0.5325  0.7994
 1752SOL    HW216716   3.974   3.459   4.118 -2.4351 -0.3315  2.2249
 1753SOL     OW16717   2.051   2.964  12.064 -0.4770  0.1029 -0.7293
 1753SOL    HW116718   2.026   3.045  12.020 -1.2532  0.9175  1.1866
 1753SOL    HW216719   2.146   2.965  12.048 -0.0762 -1.5306  1.5347
 1754SOL     OW16720   2.913   4.354   1.585 -0.1900  0.0976 -0.3343
 1754SOL    HW116721   2.974   4.427   1.591  0.0982 -0.0164 -1.7711
 1754SOL    HW216722   2.825   4.390   1.575  0.1747  0.3622 -2.5403
 1755SOL     OW16723   2.753   3.872   1.782  0.1314 -0.0097  0.1671
 1755SOL    HW116724   2.826   3.822   1.744 -0.8916 -0.7624 -0.7898
 1755SOL    HW216725   2.686   3.845   1.719  0.1418  1.0517 -0.2969
 1756SOL     OW16726   0.186   4.477  11.853 -0.1771  0.1731  0.7126
 1756SOL    HW116727   0.107   4.531  11.842 -0.2108 -0.3800 -1.7129
 1756SOL    HW216728   0.154   4.388  11.865  1.6673 -0.4678  0.8779
 1757SOL     OW16729   2.483   2.577   7.959  0.0969  0.0514 -0.0093
 1757SOL    HW116730   2.487   2.492   7.915 -1.0494 -0.3003  0.5829
 1757SOL    HW216731   2.578   2.579   7.975  0.0035  0.8956  0.4380
 1758SOL     OW16732   3.934   1.626   8.375 -0.0824  0.0202  0.2093
 1758SOL    HW116733   3.959   1.619   8.467 -0.5579  1.0754  0.4143
 1758SOL    HW216734   3.950   1.720   8.368 -0.7779  0.1481  0.3864
 1759SOL     OW16735   0.267   1.577   8.589 -0.3136  0.1440 -0.0949
 1759SOL    HW116736   0.270   1.530   8.672  0.1904  0.6058  0.1468
 1759SOL    HW216737   0.258   1.508   8.524  1.8745  0.5600 -0.8349
 1760SOL     OW16738   3.224   2.093   0.764 -0.2355 -0.2352 -0.7092
 1760SOL    HW116739   3.180   2.178   0.762 -1.4101 -0.8703 -2.0265
 1760SOL    HW216740   3.185   2.051   0.841  1.5141 -0.8059 -0.1236
 1761SOL     OW16741   0.900   3.033   7.499  0.2413 -0.4325 -0.2201
 1761SOL    HW116742   0.971   3.054   7.560 -0.3293 -0.9578  0.6260
 1761SOL    HW216743   0.945   3.020   7.415 -2.3046 -0.3442 -1.5830
 1762SOL     OW16744   1.009   3.018   8.702 -0.5198  0.5077 -0.0574
 1762SOL    HW116745   0.945   3.088   8.710  0.1035  1.2975 -1.9964
 1762SOL    HW216746   0.962   2.954   8.647 -1.0235 -0.1971  1.2030
 1763SOL     OW16747   0.207   1.164  10.306 -0.0544 -0.5156  0.2014
 1763SOL    HW116748   0.270   1.159  10.378  1.2465 -1.4143 -1.0092
 1763SOL    HW216749   0.268   1.194  10.239  0.0616 -0.8831  0.1439
 1764SOL     OW16750   4.330   2.700   8.063  0.0308 -0.4061 -0.4869
 1764SOL    HW116751   4.392   2.772   8.050  0.7288 -1.3624 -2.3978
 1764SOL    HW216752   4.389   2.631   8.033 -0.4509 -0.8420 -0.4220
 1765SOL     OW16753   2.736   4.097   3.407  0.4505 -0.1869  0.2035
 1765SOL    HW116754   2.749   4.140   3.322 -3.4340 -1.5085 -1.0633
 1765SOL    HW216755   2.789   4.018   3.397  2.0487  0.7980  0.9161
 1766SOL     OW16756   4.265   4.568  17.667 -0.2938 -0.4240 -0.4010
 1766SOL    HW116757   4.321   4.521  17.605 -1.2385 -0.8458 -0.9161
 1766SOL    HW216758   4.302   4.532   0.051 -1.9812  1.1480  1.0615
 1767SOL     OW16759   2.074   3.954   7.931 -0.3434  0.0794  0.4735
 1767SOL    HW116760   2.020   4.026   7.964  0.8473  0.1472  2.2784
 1767SOL    HW216761   2.134   3.939   8.005  0.0140  0.8968  0.3491
 1768SOL     OW16762   2.538   1.727  11.191  0.4818 -0.4008  0.2480
 1768SOL    HW116763   2.613   1.779  11.160 -1.0854  0.6573 -1.7956
 1768SOL    HW216764   2.481   1.802  11.207  1.2057 -0.1370  1.5693
 1769SOL     OW16765   2.572   0.841  11.488 -0.2442  0.1823  0.0259
 1769SOL    HW116766   2.592   0.932  11.464 -1.5027  0.2007 -0.9380
 1769SOL    HW216767   2.512   0.825  11.415  1.5049 -0.8056 -1.2196
 1770SOL     OW16768   3.662   3.172   6.162 -0.1331  0.1212  0.0459
 1770SOL    HW116769   3.756   3.190   6.164 -0.3628  1.2135  0.7774
 1770SOL    HW216770   3.641   3.193   6.253 -0.0428  0.9552 -0.1310
 1771SOL     OW16771   3.412   2.450   4.980  0.0671 -0.5379  0.5473
 1771SOL    HW116772   3.415   2.504   5.060  2.1313  1.0155 -0.5933
 1771SOL    HW216773   3.337   2.494   4.941 -0.3859 -3.1420 -1.5031
 1772SOL     OW16774   1.244   1.618   4.153  0.2822  0.6722 -0.3768
 1772SOL    HW116775   1.247   1.624   4.058  2.1660  0.4891 -0.3454
 1772SOL    HW216776   1.187   1.694   4.164  1.0538  1.3550 -1.0709
 1773SOL     OW16777   3.202   2.957   0.982 -0.5152 -0.8951 -0.6365
 1773SOL    HW116778   3.247   2.986   0.903 -1.1625 -1.5503 -1.2468
 1773SOL    HW216779   3.271   2.981   1.044  1.3551 -2.0256 -2.2928
 1774SOL     OW16780   4.610   4.167   5.404  0.2674 -0.4664 -0.5171
 1774SOL    HW116781   4.583   4.142   5.316  0.3070 -0.2862 -0.5802
 1774SOL    HW216782   4.705   4.172   5.395  0.1947  0.0295 -0.9676
 1775SOL     OW16783   1.818   0.524   2.317  0.1344  0.2874 -0.3762
 1775SOL    HW116784   1.766   0.595   2.279 -0.9987 -1.6364 -2.3947
 1775SOL    HW216785   1.769   0.447   2.290  2.1606 -1.4416  0.8345
 1776SOL     OW16786   1.545   1.678  16.650 -0.1962  0.4521 -0.2215
 1776SOL    HW116787   1.550   1.583  16.650 -0.4249  0.4381 -1.4953
 1776SOL    HW216788   1.450   1.682  16.646 -0.2201 -0.6540 -0.7924
 1777SOL     OW16789   2.738   2.402  11.922 -0.2544  0.5875  0.1036
 1777SOL    HW116790   2.732   2.471  11.987 -2.0356  0.7088 -0.2006
 1777SOL    HW216791   2.662   2.351  11.950  0.4119  1.1397  2.8813
 1778SOL     OW16792   4.602   3.203   3.251 -0.0833  0.7294 -0.0775
 1778SOL    HW116793   4.690   3.165   3.256 -0.2716  0.3982  0.9111
 1778SOL    HW216794   4.582   3.228   3.341 -0.4682  0.4262 -0.0779
 1779SOL     OW16795   4.009   2.865  14.392 -0.1069  0.5545 -0.5445
 1779SOL    HW116796   4.082   2.904  14.441 -0.2101 -0.0255  0.0753
 1779SOL    HW216797   4.013   2.914  14.310  0.2010 -0.0980 -0.9260
 1780SOL     OW16798   3.064   2.482  17.672  0.1240 -0.1420  0.2058
 1780SOL    HW116799   3.042   2.403  17.622  0.9514 -0.4107  0.2540
 1780SOL    HW216800   3.159   2.467  17.673  0.3543  1.2935 -1.1764
 1781SOL     OW16801   3.135   3.057   3.664  0.6152  0.5347  0.3075
 1781SOL    HW116802   3.063   3.092   3.716  1.0488  1.0642  0.5506
 1781SOL    HW216803   3.209   3.074   3.722  1.6811 -2.6943 -0.1245
 1782SOL     OW16804   2.122   2.920   2.167 -0.6038  0.6433  0.0008
 1782SOL    HW116805   2.040   2.910   2.215  0.9765 -2.6867  2.0688
 1782SOL    HW216806   2.176   2.855   2.213  1.2216  0.2968 -2.6406
 1783SOL     OW16807   4.166   3.020  15.539  0.3316 -0.2050 -0.0752
 1783SOL    HW116808   4.246   3.017  15.487 -0.0511  1.9141 -0.7551
 1783SOL    HW216809   4.095   3.025  15.475 -1.1843 -0.3156  1.5921
 1784SOL     OW16810   2.852   4.599  15.151  0.0812  0.1913  0.5265
 1784SOL    HW116811   2.819   4.557  15.230 -0.6118 -0.0993  0.0823
 1784SOL    HW216812   2.937   4.636  15.175  0.1477  1.2166 -1.3078
 1785SOL     OW16813   1.424   4.662   1.907 -0.3809  0.7222  0.4788
 1785SOL    HW116814   1.403   4.583   1.957  1.5040  0.0355  0.2097
 1785SOL    HW216815   1.517   4.668   1.928 -0.1319 -1.2248 -0.0379
 1786SOL     OW16816   3.844   2.909   5.470 -0.8638 -0.4735  0.2080
 1786SOL    HW116817   3.794   2.896   5.551 -0.5816 -1.6748  0.1958
 1786SOL    HW216818   3.920   2.943   5.518  0.2465 -0.8660 -1.2821
 1787SOL     OW16819   1.652   0.666  10.093 -0.2834 -0.3989  0.1599
 1787SOL    HW116820   1.701   0.659  10.011 -0.8081  1.5613 -0.3162
 1787SOL    HW216821   1.643   0.760  10.101  0.6494 -0.5296  2.6800
 1788SOL     OW16822   0.622   3.721   4.901 -0.4035 -0.6308 -0.5637
 1788SOL    HW116823   0.680   3.796   4.886  1.5499 -1.7329  1.4091
 1788SOL    HW216824   0.620   3.713   4.997 -0.9317 -0.4246 -0.5579
 1789SOL     OW16825   0.569   2.015   2.834  0.6540 -0.2622 -0.3316
 1789SOL    HW116826   0.520   1.977   2.907  2.7875 -0.9704  0.7290
 1789SOL    HW216827   0.593   1.933   2.791 -1.2408 -1.0184  0.0470
 1790SOL     OW16828   0.527   3.742  13.070 -0.6664 -0.1262  0.1406
 1790SOL    HW116829   0.563   3.753  12.982 -0.0637  4.0402  0.9196
 1790SOL    HW216830   0.433   3.755  13.054 -0.6305 -0.3492 -0.2734
 1791SOL     OW16831   3.517   3.352  14.025 -0.2789 -0.4560  0.0290
 1791SOL    HW116832   3.544   3.412  13.956  1.8922 -1.5030 -0.0273
 1791SOL    HW216833   3.424   3.344  14.004 -0.4031 -0.5236  0.6102
 1792SOL     OW16834   1.948   4.111   6.402 -0.1619  0.3892 -0.2757
 1792SOL    HW116835   1.873   4.151   6.445 -1.7594 -0.7229 -2.0487
 1792SOL    HW216836   1.954   4.180   6.336 -2.6108  0.3748 -0.5106
 1793SOL     OW16837   0.021   1.705   2.611 -0.5562 -0.2699 -0.5203
 1793SOL    HW116838   4.663   1.753   2.599 -1.4313 -1.4892  0.6878
 1793SOL    HW216839   0.085   1.777   2.606 -0.7637 -0.0905 -0.6046
 1794SOL     OW16840   2.142   1.227   3.368 -0.1446  0.1462 -0.0579
 1794SOL    HW116841   2.179   1.206   3.454 -2.1067 -2.3121  0.1902
 1794SOL    HW216842   2.215   1.252   3.311  0.4422  1.5653  1.3397
 1795SOL     OW16843   3.309   1.025   3.981 -0.1815 -0.1195  0.1639
 1795SOL    HW116844   3.391   1.052   4.023 -1.6261  3.2115  0.9328
 1795SOL    HW216845   3.335   0.979   3.902  2.6624  3.4985 -1.0118
 1796SOL     OW16846   0.601   0.961  10.849  0.0745 -0.0294 -0.1032
 1796SOL    HW116847   0.650   0.953  10.767 -0.4971 -0.4120 -0.4137
 1796SOL    HW216848   0.666   0.990  10.912  1.1185 -1.3699 -0.5735
 1797SOL     OW16849   3.495   0.582   2.785 -0.3398 -0.5709  0.1944
 1797SOL    HW116850   3.571   0.566   2.841  1.3758  0.8572 -1.7146
 1797SOL    HW216851   3.443   0.631   2.848  0.7163  0.1848  0.4717
 1798SOL     OW16852   3.483   0.572   7.620 -0.1729 -0.3181  0.1510
 1798SOL    HW116853   3.478   0.581   7.715  0.0468 -0.6436  0.1934
 1798SOL    HW216854   3.455   0.661   7.598  0.5918  0.4792  2.4741
 1799SOL     OW16855   4.257   2.461  15.306 -0.0681  0.0532  0.0132
 1799SOL    HW116856   4.339   2.496  15.340 -0.2913 -0.4591  1.0819
 1799SOL    HW216857   4.286   2.371  15.289 -1.4598 -0.5255  0.6748
 1800SOL     OW16858   0.785   1.594   5.268  0.4174  0.2330  0.5616
 1800SOL    HW116859   0.842   1.531   5.224 -0.6240 -1.1465  1.1886
 1800SOL    HW216860   0.711   1.534   5.263  2.1227 -1.7899 -0.3979
 1801SOL     OW16861   2.261   4.503  10.778  0.0550 -0.3518 -0.6708
 1801SOL    HW116862   2.300   4.467  10.699  0.0580  0.7100 -1.1538
 1801SOL    HW216863   2.263   4.598  10.763  0.3227 -0.2209  0.1612
 1802SOL     OW16864   0.554   4.161  11.272  0.7283  0.6189 -0.0453
 1802SOL    HW116865   0.616   4.174  11.343  2.1726 -0.6590 -1.0519
 1802SOL    HW216866   0.479   4.212  11.302 -0.6740 -0.7063 -1.2681
 1803SOL     OW16867   4.522   2.293   3.648 -0.4635  0.3937  0.0398
 1803SOL    HW116868   4.567   2.209   3.639  0.3248  0.6758  1.3324
 1803SOL    HW216869   4.599   2.349   3.653 -0.1386 -0.1342  0.9529
 1804SOL     OW16870   3.144   4.003   2.537 -0.3146 -0.1211 -0.2687
 1804SOL    HW116871   3.079   3.977   2.471 -0.7907  1.0221 -0.2335
 1804SOL    HW216872   3.224   3.950   2.528  1.5483  2.4985  0.7540
 1805SOL     OW16873   2.371   2.376  13.359  0.2740  0.6640 -0.3879
 1805SOL    HW116874   2.435   2.421  13.303 -0.2816  0.6198 -1.0581
 1805SOL    HW216875   2.307   2.445  13.378 -2.4379 -1.2223 -2.7134
 1806SOL     OW16876   1.346   1.427   7.246 -0.4177 -0.0901  0.3961
 1806SOL    HW116877   1.358   1.430   7.341 -0.3671  0.7115  0.3591
 1806SOL    HW216878   1.255   1.450   7.227 -0.3485  1.8531  2.4710
 1807SOL     OW16879   3.449   3.973   6.719 -0.1096 -0.2846 -0.0210
 1807SOL    HW116880   3.442   3.972   6.814 -3.3179  0.1943 -0.2335
 1807SOL    HW216881   3.360   3.947   6.693  0.1377 -2.5852  1.4732
 1808SOL     OW16882   3.290   3.134  12.181 -0.3404 -0.0687 -0.1448
 1808SOL    HW116883   3.324   3.151  12.093 -2.5076 -0.1443 -0.9971
 1808SOL    HW216884   3.283   3.226  12.205  0.4157 -0.2435  0.7176
 1809SOL     OW16885   1.160   4.652   6.887  0.2144 -0.1854 -0.2594
 1809SOL    HW116886   1.193   0.018   6.876  2.0557 -0.5351  2.3562
 1809SOL    HW216887   1.080   4.653   6.836 -0.1085 -2.0638  0.2162
 1810SOL     OW16888   3.325   1.235  15.383  0.3037 -0.5169  0.2470
 1810SOL    HW116889   3.349   1.199  15.298  1.8336 -1.2472  0.9822
 1810SOL    HW216890   3.408   1.257  15.426  0.2220  1.2150 -0.4805
 1811SOL     OW16891   2.077   1.078   5.008 -0.4878 -0.3470  0.2965
 1811SOL    HW116892   2.171   1.060   5.022 -0.0367  1.3310 -0.5870
 1811SOL    HW216893   2.033   1.063   5.091 -0.6638  5.3134  1.2147
 1812SOL     OW16894   4.191   1.174   2.171 -0.3062 -0.0507 -0.1279
 1812SOL    HW116895   4.182   1.249   2.229  0.5790  2.0735 -2.7186
 1812SOL    HW216896   4.169   1.217   2.089  0.9167 -1.5143 -1.2479
 1813SOL     OW16897   0.284   2.028   8.643  0.5414  0.0633  0.1390
 1813SOL    HW116898   0.370   2.056   8.672  0.4423 -2.7487  3.2163
 1813SOL    HW216899   0.313   1.941   8.613 -0.8139 -0.9769  1.8508
 1814SOL     OW16900   2.115   3.632   5.408 -0.1584 -0.1394 -0.1503
 1814SOL    HW116901   2.104   3.630   5.503 -1.9047 -0.9203 -0.3636
 1814SOL    HW216902   2.096   3.538   5.396  0.5731 -0.4454  1.0632
 1815SOL     OW16903   1.069   2.827  14.167  0.2109 -0.1691  0.1324
 1815SOL    HW116904   1.059   2.880  14.246  0.7438  1.0268 -0.5985
 1815SOL    HW216905   0.983   2.838  14.126  0.2009 -0.4502  0.0795
 1816SOL     OW16906   1.758   0.062   5.783 -0.3710  0.2074  0.5161
 1816SOL    HW116907   1.704   4.709   5.764 -2.6474  1.8182  0.4395
 1816SOL    HW216908   1.836   0.028   5.740  0.3069  0.4841  1.5329
 1817SOL     OW16909   3.290   2.622  10.215  0.1269 -0.3438  0.2056
 1817SOL    HW116910   3.234   2.564  10.162 -0.9728  0.8039  0.0969
 1817SOL    HW216911   3.254   2.710  10.201  0.4067  0.1708  2.7457
 1818SOL     OW16912   2.131   2.843   1.271  0.4582 -0.0809  0.1852
 1818SOL    HW116913   2.143   2.889   1.188  1.5934 -1.7804 -0.5844
 1818SOL    HW216914   2.181   2.910   1.316 -0.8368  0.5883  0.6359
 1819SOL     OW16915   1.063   0.220   9.392  0.1950 -0.0767  0.0537
 1819SOL    HW116916   1.002   0.292   9.405  0.0434  0.2291 -2.3899
 1819SOL    HW216917   1.083   0.231   9.299 -0.8442 -1.4654 -0.3275
 1820SOL     OW16918   1.963   4.186   8.037 -0.6545 -0.1240 -0.3675
 1820SOL    HW116919   1.880   4.234   8.032  0.0240  0.8808 -2.0857
 1820SOL    HW216920   1.975   4.192   8.132  0.0569  0.0301 -0.4677
 1821SOL     OW16921   0.524   2.224   7.392  0.1663  0.6396  0.2332
 1821SOL    HW116922   0.565   2.138   7.396 -0.2814  0.3264 -1.6516
 1821SOL    HW216923   0.502   2.240   7.483 -1.0708  2.8686 -0.4508
 1822SOL     OW16924   4.034   3.719  17.671 -0.2620  0.0364 -0.6258
 1822SOL    HW116925   4.004   3.742   0.061  0.3407 -0.6311 -0.2468
 1822SOL    HW216926   4.004   3.629  17.660 -1.9500  0.3858  1.1903
 1823SOL     OW16927   4.096   1.184   0.760 -0.2143  0.5286 -0.5027
 1823SOL    HW116928   4.185   1.157   0.783  0.4716  1.6211 -1.8209
 1823SOL    HW216929   4.113   1.203   0.668  0.4881  0.2993 -0.4193
 1824SOL     OW16930   4.152   0.367   7.362 -0.3373 -0.5974  0.1741
 1824SOL    HW116931   4.169   0.306   7.433 -0.1878  0.7901  1.3297
 1824SOL    HW216932   4.187   0.318   7.288  2.1502 -1.3403  1.8732
 1825SOL     OW16933   3.838   4.391   9.629  0.4157  0.1774  0.1444
 1825SOL    HW116934   3.858   4.298   9.641 -0.4508  0.3463  2.8459
 1825SOL    HW216935   3.923   4.432   9.613 -0.5072  1.5128 -1.4163
 1826SOL     OW16936   3.338   0.710   4.623  0.2483  0.2051 -0.7719
 1826SOL    HW116937   3.431   0.722   4.643  0.3343 -0.9743 -0.4715
 1826SOL    HW216938   3.314   0.799   4.599  0.3374  0.6221  0.6836
 1827SOL     OW16939   3.828   4.179   1.184 -0.3850  0.6112  0.3620
 1827SOL    HW116940   3.913   4.140   1.204 -0.7733 -0.1907  0.4594
 1827SOL    HW216941   3.780   4.141   1.257  0.1139  0.4787  0.6217
 1828SOL     OW16942   4.648   1.895  13.332  0.4125  0.5158  0.1414
 1828SOL    HW116943   4.693   1.830  13.386  2.2089  2.1404  0.6531
 1828SOL    HW216944   4.658   1.866  13.241  1.5252  2.7973 -0.4870
 1829SOL     OW16945   1.622   2.773   2.336  0.3329 -0.1766  0.1011
 1829SOL    HW116946   1.626   2.689   2.290  0.3344 -0.1817  0.1104
 1829SOL    HW216947   1.566   2.823   2.276  0.8832 -1.8413 -1.8085
 1830SOL     OW16948   2.121   4.275  10.433 -0.0719 -0.5211  0.5251
 1830SOL    HW116949   2.118   4.302  10.341  1.5902  1.5770  1.0932
 1830SOL    HW216950   2.082   4.351  10.475 -0.3608 -0.1816 -0.3610
 1831SOL     OW16951   2.566   2.401   8.408 -0.4370 -0.0760 -0.6731
 1831SOL    HW116952   2.546   2.332   8.471 -0.7092  0.1585 -0.5016
 1831SOL    HW216953   2.512   2.475   8.434 -0.4639 -0.4528  0.3238
 1832SOL     OW16954   1.632   1.888   5.235  0.3081  0.1173  0.5630
 1832SOL    HW116955   1.554   1.841   5.206 -0.1837  2.4932 -2.0067
 1832SOL    HW216956   1.682   1.812   5.264 -2.3036 -1.7536  0.1712
 1833SOL     OW16957   2.320   0.825   1.652  0.2856  0.0324  0.2563
 1833SOL    HW116958   2.360   0.890   1.710 -0.1063 -0.3210  0.9149
 1833SOL    HW216959   2.257   0.786   1.711 -1.6582  0.0710 -1.7940
 1834SOL     OW16960   0.559   4.315   4.319  0.1731  0.0817 -0.1757
 1834SOL    HW116961   0.539   4.331   4.411  1.6730 -1.2717  0.3871
 1834SOL    HW216962   0.622   4.244   4.331  1.8274  2.1271  3.1790
 1835SOL     OW16963   1.351   0.934  12.526 -0.3831 -0.3376 -0.0751
 1835SOL    HW116964   1.287   0.882  12.478  0.6979 -0.2127 -1.6594
 1835SOL    HW216965   1.405   0.977  12.460 -0.5037  2.1383  1.4305
 1836SOL     OW16966   4.599   3.345   8.668 -0.0861  0.4407  0.1443
 1836SOL    HW116967   4.665   3.411   8.646  0.2558 -0.7214 -2.3955
 1836SOL    HW216968   4.526   3.401   8.696 -0.1269  1.1283 -1.2904
 1837SOL     OW16969   1.868   3.856   6.576 -0.3476  0.1645  0.3263
 1837SOL    HW116970   1.810   3.837   6.650 -3.1682 -2.0098 -2.4430
 1837SOL    HW216971   1.893   3.939   6.618  0.7825  0.6495 -1.3131
 1838SOL     OW16972   1.806   1.953   1.949  0.3744  0.6414 -0.1114
 1838SOL    HW116973   1.808   1.930   2.042 -2.0433  1.1421  0.0712
 1838SOL    HW216974   1.840   2.042   1.941  0.8306  0.3176 -1.6613
 1839SOL     OW16975   3.385   0.587   0.184 -0.0005  0.4914 -0.3703
 1839SOL    HW116976   3.409   0.676   0.211  2.3575 -0.1728 -0.3044
 1839SOL    HW216977   3.427   0.586   0.098  1.0510 -1.0213  0.1465
 1840SOL     OW16978   2.236   3.280   8.553  0.4505 -0.0894  0.0655
 1840SOL    HW116979   2.290   3.204   8.531  0.4705  0.2183 -0.9424
 1840SOL    HW216980   2.295   3.352   8.533  0.8894 -0.6201 -0.5390
 1841SOL     OW16981   3.248   4.238   6.115 -0.2532 -0.0794 -0.2152
 1841SOL    HW116982   3.283   4.203   6.033  0.9663  0.3275  0.1244
 1841SOL    HW216983   3.193   4.170   6.154 -0.7672 -0.0757 -0.9355
 1842SOL     OW16984   1.806   2.343   5.174  0.3344  0.0611 -0.1088
 1842SOL    HW116985   1.745   2.273   5.199  1.0477 -0.3306  0.5403
 1842SOL    HW216986   1.817   2.384   5.260 -0.7122  1.3229 -0.5723
 1843SOL     OW16987   4.155   1.365  10.577  0.0947 -0.1742  0.4682
 1843SOL    HW116988   4.128   1.311  10.502  0.7690  0.2641 -0.0879
 1843SOL    HW216989   4.220   1.419  10.534 -0.1894 -0.3183 -0.1518
 1844SOL     OW16990   1.310   2.601   1.831  0.0655  0.1138 -0.1393
 1844SOL    HW116991   1.252   2.528   1.809 -0.0774  0.2303 -0.1571
 1844SOL    HW216992   1.259   2.653   1.894  0.9922  0.5650  0.2340
 1845SOL     OW16993   2.594   0.773  17.365  0.1114  0.1341  0.0330
 1845SOL    HW116994   2.616   0.861  17.336  2.0834 -0.5164 -0.4706
 1845SOL    HW216995   2.638   0.719  17.299  0.5023  3.1505 -2.1640
 1846SOL     OW16996   1.420   2.509   7.874 -0.6199  0.6660  0.1850
 1846SOL    HW116997   1.359   2.466   7.814  0.4428 -0.4578 -0.0861
 1846SOL    HW216998   1.446   2.582   7.818  1.1051 -0.3862 -0.3942
 1847SOL     OW16999   3.763   0.871   3.381  0.1139  0.2618 -0.5833
 1847SOL    HW117000   3.680   0.862   3.427  0.8256  4.2663  1.4869
 1847SOL    HW217001   3.813   0.929   3.438 -0.7974 -0.7702  1.2804
 1848SOL     OW17002   4.321   2.379   2.011 -0.6471 -0.7561 -0.4782
 1848SOL    HW117003   4.346   2.470   2.027  2.1572 -1.6777  0.3798
 1848SOL    HW217004   4.227   2.386   2.028 -0.5783  2.6342 -1.4061
 1849SOL     OW17005   1.360   1.319   3.212 -0.6549  0.0724  0.0561
 1849SOL    HW117006   1.306   1.241   3.202 -2.1854  1.1811 -0.2855
 1849SOL    HW217007   1.418   1.299   3.285 -0.3656  0.2216 -0.1334
 1850SOL     OW17008   1.073   1.042   7.886 -0.2480 -0.4344 -0.8790
 1850SOL    HW117009   1.145   0.982   7.904 -1.3398 -1.2519  0.7574
 1850SOL    HW217010   1.092   1.106   7.954  1.1467  1.2718 -2.8557
 1851SOL     OW17011   3.112   2.863   5.227  0.1509 -0.1344  0.0803
 1851SOL    HW117012   3.112   2.894   5.137  3.3782 -1.1535 -0.2622
 1851SOL    HW217013   3.034   2.810   5.217  1.1024 -1.5451  0.1382
 1852SOL     OW17014   4.530   3.642   1.776 -0.0093  0.0289 -0.2490
 1852SOL    HW117015   4.436   3.648   1.763  0.1882  0.4089 -1.5254
 1852SOL    HW217016   4.554   3.571   1.716  0.7481 -0.9516  1.2286
 1853SOL     OW17017   0.386   3.741   4.773  0.1327  0.1009 -0.6605
 1853SOL    HW117018   0.365   3.666   4.828 -0.7367  1.2319  0.5254
 1853SOL    HW217019   0.458   3.789   4.814  0.3252 -0.2424 -0.5874
 1854SOL     OW17020   2.724   2.744   8.759 -0.7340 -0.4055  0.3518
 1854SOL    HW117021   2.714   2.794   8.678  0.4962 -0.6669  0.0370
 1854SOL    HW217022   2.700   2.813   8.820  1.3435  0.3851  0.2792
 1855SOL     OW17023   0.782   4.387  14.456 -0.0772 -0.0298 -0.1851
 1855SOL    HW117024   0.804   4.399  14.549  1.2862 -2.4088 -0.1863
 1855SOL    HW217025   0.691   4.417  14.447  0.4698  1.8778  0.7794
 1856SOL     OW17026   1.185   1.014   8.277 -0.0652  0.0520 -0.4145
 1856SOL    HW117027   1.162   1.091   8.225  2.5388  0.9979 -0.1473
 1856SOL    HW217028   1.107   0.994   8.328  0.9347  1.1277  1.5262
 1857SOL     OW17029   1.545   1.803   5.899  0.2218  0.2151 -0.3316
 1857SOL    HW117030   1.640   1.807   5.903  0.1005  1.7713  0.9596
 1857SOL    HW217031   1.528   1.801   5.805  2.5717 -0.1649 -0.7405
 1858SOL     OW17032   1.512   3.844   4.537 -0.6062  0.2032 -0.0975
 1858SOL    HW117033   1.528   3.759   4.497  0.4284  0.4131 -0.1177
 1858SOL    HW217034   1.600   3.864   4.570  0.4080 -1.9330 -1.5713
 1859SOL     OW17035   3.800   1.828   2.464  0.4062  0.2657 -0.1627
 1859SOL    HW117036   3.726   1.804   2.408  1.0197 -0.5450 -0.6302
 1859SOL    HW217037   3.873   1.794   2.411  1.0303 -0.2146  1.0097
 1860SOL     OW17038   3.488   4.570   0.997 -0.5128  0.1348  0.1189
 1860SOL    HW117039   3.448   4.531   0.920  0.7421 -0.2947 -0.3161
 1860SOL    HW217040   3.560   4.509   1.013 -0.7552 -0.5067 -1.2285
 1861SOL     OW17041   1.494   3.902   6.485  0.5780 -0.1732 -0.1310
 1861SOL    HW117042   1.566   3.874   6.429  1.1436  1.2247 -0.1061
 1861SOL    HW217043   1.422   3.881   6.426 -0.4838  1.3914  0.6167
 1862SOL     OW17044   1.027   4.474   3.219  0.8005 -0.5790  0.3164
 1862SOL    HW117045   1.102   4.444   3.167  0.9234 -0.7375  0.5830
 1862SOL    HW217046   1.059   4.440   3.303  1.1761  0.9685  0.8064
 1863SOL     OW17047   4.018   0.417   6.484 -0.3095 -0.0469 -0.2146
 1863SOL    HW117048   4.017   0.505   6.447 -0.3755 -0.3101 -0.8342
 1863SOL    HW217049   3.996   0.428   6.577  2.1416 -0.5729  0.4338
 1864SOL     OW17050   0.635   2.878   7.900  0.3746  0.7372 -0.1515
 1864SOL    HW117051   0.656   2.888   7.993 -0.1448  2.9226 -0.2510
 1864SOL    HW217052   0.549   2.920   7.902 -0.6370 -1.2346 -2.7842
 1865SOL     OW17053   4.535   1.052   2.071  0.1869 -0.7395  0.4295
 1865SOL    HW117054   4.445   1.080   2.091  0.4752 -0.5299  1.4661
 1865SOL    HW217055   4.584   1.111   2.130  1.7303 -0.1516 -1.4508
 1866SOL     OW17056   0.559   1.253   3.251  0.5144 -0.3611 -0.0308
 1866SOL    HW117057   0.650   1.223   3.253  0.1801 -1.3512  0.1463
 1866SOL    HW217058   0.569   1.346   3.228  1.0658 -0.3634  0.2014
 1867SOL     OW17059   3.349   2.466   3.705  0.3015  0.7214 -0.3757
 1867SOL    HW117060   3.289   2.470   3.780 -1.6009  0.0185 -1.8427
 1867SOL    HW217061   3.427   2.484   3.756 -0.0364 -1.9782  1.0999
 1868SOL     OW17062   4.034   3.602  15.219 -0.3406 -0.2396  0.6615
 1868SOL    HW117063   3.985   3.654  15.283  0.2201 -0.4790  1.2769
 1868SOL    HW217064   3.985   3.519  15.223  1.2816 -1.2488 -0.8008
 1869SOL     OW17065   4.584   0.456   9.312 -0.1188  0.1445 -0.0528
 1869SOL    HW117066   4.538   0.403   9.377  2.9313 -0.4907  1.6017
 1869SOL    HW217067   4.645   0.386   9.287  0.6013  1.3336 -1.6006
 1870SOL     OW17068   1.391   0.701  16.916  0.2492  0.0688 -0.3576
 1870SOL    HW117069   1.464   0.660  16.961 -0.0230 -0.4353 -0.3752
 1870SOL    HW217070   1.357   0.754  16.989 -0.9529 -0.7154 -0.3434
 1871SOL     OW17071   3.343   3.991   4.771 -0.0669 -0.1217 -0.5350
 1871SOL    HW117072   3.408   4.046   4.814  0.5510 -0.2488 -1.3080
 1871SOL    HW217073   3.261   4.037   4.790 -0.0813 -1.1864  1.8679
 1872SOL     OW17074   4.559   3.580   9.570  0.3315  0.0964 -0.3016
 1872SOL    HW117075   4.635   3.604   9.517  1.2814 -0.3285  0.8853
 1872SOL    HW217076   4.589   3.591   9.660 -1.1572  0.1663  0.1825
 1873SOL     OW17077   1.566   3.494   6.945 -0.7495 -0.7565  0.2266
 1873SOL    HW117078   1.602   3.511   7.032 -0.7881 -0.9366  0.2788
 1873SOL    HW217079   1.649   3.471   6.903 -0.8177  0.5779 -0.6430
 1874SOL     OW17080   2.260   3.436   1.666 -0.1713 -0.4285 -0.3003
 1874SOL    HW117081   2.240   3.463   1.755 -2.0692  1.4093 -1.2783
 1874SOL    HW217082   2.288   3.344   1.668 -0.9347 -0.6283  0.9800
 1875SOL     OW17083   0.005   0.002   8.276 -0.1238  0.3468  0.1553
 1875SOL    HW117084   4.635   0.016   8.260  0.1061  0.5021 -1.0260
 1875SOL    HW217085   0.030   4.666   8.206 -0.9332 -1.2425  1.2150
 1876SOL     OW17086   3.080   1.928   7.410 -0.0037  0.0022 -0.0877
 1876SOL    HW117087   3.069   1.841   7.371  4.5763 -1.3239  1.6194
 1876SOL    HW217088   3.102   1.910   7.502 -1.2025 -0.7968  0.0445
 1877SOL     OW17089   2.963   2.966   7.433 -0.2263 -0.2577 -0.3729
 1877SOL    HW117090   3.039   2.955   7.490 -3.4919 -1.3931  3.7914
 1877SOL    HW217091   3.013   2.981   7.353 -0.6783  0.8795 -0.4383
 1878SOL     OW17092   1.949   1.414   8.183  0.1605  0.0034  0.1341
 1878SOL    HW117093   1.984   1.440   8.269 -0.5522  2.7045 -0.3716
 1878SOL    HW217094   1.891   1.343   8.211 -3.1531  3.1100  1.1999
 1879SOL     OW17095   0.406   4.685   2.800 -1.0773 -0.1217  0.2289
 1879SOL    HW117096   0.316   4.654   2.806 -0.6880 -1.5329 -1.1818
 1879SOL    HW217097   0.372   0.042   2.762  2.2134  1.0930 -0.0782
 1880SOL     OW17098   2.968   4.717  11.673  0.2629  0.2508  0.3457
 1880SOL    HW117099   3.018   4.646  11.712  3.4992  3.0789  1.2916
 1880SOL    HW217100   2.974   4.687  11.582  0.4746  0.7700  0.1927
 1881SOL     OW17101   1.677   1.925   1.247 -0.6764 -0.1664 -0.0653
 1881SOL    HW117102   1.612   1.986   1.213  1.2076  0.9448 -1.6757
 1881SOL    HW217103   1.624   1.874   1.309 -0.1328 -1.0778 -0.3374
 1882SOL     OW17104   0.885   2.823  15.845  0.1908  1.0172  0.2284
 1882SOL    HW117105   0.932   2.900  15.814  1.6980  0.3133  0.7799
 1882SOL    HW217106   0.928   2.803  15.928  0.3807  0.5352  0.0142
 1883SOL     OW17107   1.690   0.442   5.043  0.1171  0.2671  0.5419
 1883SOL    HW117108   1.776   0.477   5.068  0.9078  0.6697 -2.8353
 1883SOL    HW217109   1.732   0.381   4.982 -1.7413  0.5768 -1.0392
 1884SOL     OW17110   3.495   0.290   2.957 -0.1591  0.2038  0.0918
 1884SOL    HW117111   3.463   0.289   3.047  0.9957 -1.4971  0.4675
 1884SOL    HW217112   3.573   0.345   2.961 -0.1369  0.3333 -2.1071
 1885SOL     OW17113   1.800   2.491   5.408  0.0194 -0.2526 -0.5028
 1885SOL    HW117114   1.854   2.468   5.484  1.9840 -0.1907 -1.8889
 1885SOL    HW217115   1.802   2.587   5.409  1.5845 -0.2910 -0.3618
 1886SOL     OW17116   1.708   3.058   9.034  0.1055  0.9862 -0.2564
 1886SOL    HW117117   1.784   3.101   9.075 -0.6899  2.5075 -0.3585
 1886SOL    HW217118   1.682   2.999   9.104 -0.0960  0.8397 -0.4571
 1887SOL     OW17119   0.451   3.972   6.546  0.2185 -0.2598 -0.4525
 1887SOL    HW117120   0.469   4.010   6.632  0.6766  1.0205 -1.1118
 1887SOL    HW217121   0.439   3.883   6.578 -2.2285 -0.6856 -2.5616
 1888SOL     OW17122   4.185   1.686   6.865 -0.2081  0.2246  0.6132
 1888SOL    HW117123   4.234   1.684   6.947  0.0905  0.0778  0.4334
 1888SOL    HW217124   4.172   1.592   6.852 -1.8657  0.8076 -1.9692
 1889SOL     OW17125   3.342   2.798   3.254  0.5200  0.6144  0.6207
 1889SOL    HW117126   3.329   2.836   3.341 -0.4605  1.2999  0.1684
 1889SOL    HW217127   3.417   2.843   3.216  0.1266  0.7885  0.0526
 1890SOL     OW17128   3.267   3.111   3.149  0.2809  0.0364  0.0835
 1890SOL    HW117129   3.314   3.061   3.082 -1.0103  0.1500 -0.9155
 1890SOL    HW217130   3.329   3.181   3.173 -0.7737 -0.2322  3.5317
 1891SOL     OW17131   3.063   0.271  10.845 -0.5413 -0.2281  0.2471
 1891SOL    HW117132   3.148   0.272  10.801  0.1834  2.5094  1.7343
 1891SOL    HW217133   3.012   0.326  10.786 -0.3452 -1.1334 -0.7668
 1892SOL     OW17134   1.259   3.723  16.594  0.3128 -0.1571 -1.4819
 1892SOL    HW117135   1.190   3.670  16.554 -1.0880  0.3045  0.3550
 1892SOL    HW217136   1.230   3.812  16.576  3.0161  0.7568 -1.3976
 1893SOL     OW17137   2.970   0.346   4.475 -0.3312  0.3210 -0.4353
 1893SOL    HW117138   2.965   0.370   4.567 -0.4302 -1.6352  0.0728
 1893SOL    HW217139   2.917   0.416   4.436 -1.1637 -0.7722 -1.2648
 1894SOL     OW17140   2.918   3.131   1.303  0.1049 -0.6121  0.2268
 1894SOL    HW117141   2.854   3.061   1.289  0.3621 -0.7185 -0.4187
 1894SOL    HW217142   2.964   3.150   1.222 -1.8771  2.5863 -0.1481
 1895SOL     OW17143   4.535   2.732   4.512  0.2142 -0.4572 -0.0544
 1895SOL    HW117144   4.474   2.764   4.579  0.6237 -0.5542  0.3707
 1895SOL    HW217145   4.548   2.812   4.462 -0.4490 -0.2441  0.1063
 1896SOL     OW17146   0.511   2.241   2.712 -0.3359  0.2209 -0.0830
 1896SOL    HW117147   0.425   2.263   2.748 -1.3654  0.5256 -2.7495
 1896SOL    HW217148   0.534   2.165   2.765 -2.9106  0.4012  1.2709
 1897SOL     OW17149   4.185   1.999   8.819 -0.8700  0.0621 -0.2461
 1897SOL    HW117150   4.189   1.999   8.915  0.0010  0.1696 -0.2784
 1897SOL    HW217151   4.149   2.086   8.798  0.7316  0.4382 -1.4273
 1898SOL     OW17152   4.118   2.983   2.437 -0.0833  0.3369 -0.0577
 1898SOL    HW117153   4.176   2.954   2.507  0.0957 -0.9959 -0.7690
 1898SOL    HW217154   4.056   3.036   2.487  3.5442  2.7180  1.9269
 1899SOL     OW17155   3.794   1.845  17.021 -0.5705  0.3091 -0.4768
 1899SOL    HW117156   3.844   1.765  17.004 -0.0975  0.7186 -1.0231
 1899SOL    HW217157   3.737   1.821  17.094  0.0775 -1.3649 -0.5277
 1900SOL     OW17158   4.701   3.695   3.260  0.2370  0.1305 -0.0532
 1900SOL    HW117159   0.007   3.638   3.331  0.2183 -0.0205 -0.1666
 1900SOL    HW217160   4.668   3.619   3.211  1.9947 -0.5954 -0.1039
 1901SOL     OW17161   2.252   4.654  14.809  1.1221 -0.1705 -0.1616
 1901SOL    HW117162   2.216   4.708  14.739  1.6125  2.2821  1.4679
 1901SOL    HW217163   2.173   4.602  14.826 -0.2152  1.4244 -1.5046
 1902SOL     OW17164   0.978   3.921   2.380 -0.5542  0.8923 -0.3018
 1902SOL    HW117165   0.993   3.827   2.381 -0.4531  0.9063 -0.5160
 1902SOL    HW217166   1.008   3.946   2.293  2.9544 -0.6526  0.4580
 1903SOL     OW17167   3.839   0.563   6.289 -0.2214  0.9582  0.5512
 1903SOL    HW117168   3.764   0.605   6.247 -1.7729 -0.9304  1.3888
 1903SOL    HW217169   3.913   0.577   6.231 -0.3193  0.4220  0.2940
 1904SOL     OW17170   2.892   4.500   7.745 -0.1337 -0.2246  0.4151
 1904SOL    HW117171   2.936   4.528   7.665 -0.6610  3.9017  1.5960
 1904SOL    HW217172   2.799   4.518   7.730 -0.7230 -2.1940  1.6831
 1905SOL     OW17173   3.237   0.334   0.191 -0.5533 -0.4532 -0.6778
 1905SOL    HW117174   3.279   0.413   0.156 -0.8435 -1.3285 -3.0056
 1905SOL    HW217175   3.304   0.265   0.194 -1.1254 -0.9485  0.6141
 1906SOL     OW17176   4.504   3.446   7.981 -0.5702  0.2988 -0.2560
 1906SOL    HW117177   4.547   3.530   7.966  0.9427 -0.3481  0.5064
 1906SOL    HW217178   4.411   3.469   7.988 -0.5153  1.1986 -2.4768
 1907SOL     OW17179   3.094   0.337   1.299 -0.5169  0.0701  0.3609
 1907SOL    HW117180   3.054   0.422   1.281  2.1049  0.9187 -1.4473
 1907SOL    HW217181   3.175   0.338   1.247 -0.8026 -3.6803 -0.1154
 1908SOL     OW17182   3.930   2.960  15.709  0.2517 -0.3482 -0.0802
 1908SOL    HW117183   3.884   2.887  15.668 -0.2294  0.6284 -1.2897
 1908SOL    HW217184   4.003   2.973  15.649  0.7850 -2.1349  0.1905
 1909SOL     OW17185   1.882   0.204  16.566 -0.2133  0.5903 -0.5892
 1909SOL    HW117186   1.936   0.136  16.605 -2.2103  0.5841  2.1618
 1909SOL    HW217187   1.796   0.166  16.587  0.4464 -0.3120  0.4520
 1910SOL     OW17188   2.301   0.992  16.055 -0.0997 -0.0163 -0.5469
 1910SOL    HW117189   2.254   0.918  16.017 -0.1696  0.9026 -2.2570
 1910SOL    HW217190   2.249   1.007  16.133  0.3167 -2.3394  0.1842
 1911SOL     OW17191   1.358   2.096   8.258  0.0943  0.3694  0.5772
 1911SOL    HW117192   1.411   2.133   8.328 -0.4870  0.1375  1.1374
 1911SOL    HW217193   1.388   2.005   8.259 -1.7287 -0.2519 -0.2423
 1912SOL     OW17194   4.215   1.582   1.709 -0.4992  0.3985 -0.0986
 1912SOL    HW117195   4.214   1.669   1.669  0.4962  0.7887  0.7405
 1912SOL    HW217196   4.203   1.525   1.633  2.4095 -0.6561  0.2470
 1913SOL     OW17197   4.053   2.310   7.079 -0.0202 -0.2841  0.1385
 1913SOL    HW117198   3.983   2.338   7.020  2.0927  0.2301 -2.1158
 1913SOL    HW217199   4.007   2.306   7.163 -1.3311  1.0389 -0.5221
 1914SOL     OW17200   3.208   0.608   6.368  0.2772  0.3742 -0.0365
 1914SOL    HW117201   3.282   0.580   6.422  0.4152  1.8801  0.5677
 1914SOL    HW217202   3.175   0.523   6.339  0.1912 -0.0174  1.1805
 1915SOL     OW17203   4.258   2.236  10.673 -0.3857 -0.0310 -0.8581
 1915SOL    HW117204   4.296   2.254  10.759 -3.1401 -2.0808  0.7709
 1915SOL    HW217205   4.319   2.294  10.626  0.0419  0.7166  0.6280
 1916SOL     OW17206   0.892   3.179   4.795 -0.0275  0.0627  0.5616
 1916SOL    HW117207   0.888   3.094   4.839 -2.0016  0.4755  1.1469
 1916SOL    HW217208   0.829   3.169   4.723  0.2996 -0.8560  0.3990
 1917SOL     OW17209   3.308   0.904   7.076  0.3246  0.7751 -0.0746
 1917SOL    HW117210   3.271   0.961   7.009 -2.0655  0.7343  1.1979
 1917SOL    HW217211   3.224   0.877   7.114  1.1419 -0.2328  1.0015
 1918SOL     OW17212   3.446   3.777  15.100 -0.2903 -0.3052 -0.0977
 1918SOL    HW117213   3.395   3.719  15.156 -1.3142  1.0607  0.3827
 1918SOL    HW217214   3.537   3.746  15.105 -0.1031  0.0362 -1.2938
 1919SOL     OW17215   3.291   0.976   4.567 -0.5133 -0.1032 -0.4152
 1919SOL    HW117216   3.212   0.996   4.617 -0.0793  1.7081 -0.4658
 1919SOL    HW217217   3.313   1.067   4.547 -0.1644  0.3253  1.9603
 1920SOL     OW17218   4.510   1.451   6.499 -0.2718  0.3525 -0.0597
 1920SOL    HW117219   4.601   1.429   6.480 -0.6841 -0.4125 -1.1256
 1920SOL    HW217220   4.500   1.529   6.445  0.4120  0.6057  0.1827
 1921SOL     OW17221   0.918   2.607   7.971 -0.3748 -0.5322  0.2653
 1921SOL    HW117222   1.013   2.613   7.981 -0.4584 -2.1164  2.0768
 1921SOL    HW217223   0.900   2.582   8.062 -1.6248  2.1144  0.7715
 1922SOL     OW17224   3.123   1.742   5.541  0.3346 -0.2184  0.1371
 1922SOL    HW117225   3.119   1.779   5.629  0.6159  0.3221 -0.0779
 1922SOL    HW217226   3.214   1.737   5.512  0.2303  0.1366 -0.2516
 1923SOL     OW17227   3.830   2.159   6.708  0.4537  0.3424 -0.5537
 1923SOL    HW117228   3.923   2.179   6.696 -0.0376  0.8185 -3.5100
 1923SOL    HW217229   3.827   2.161   6.804  1.6259  0.1537 -0.5100
 1924SOL     OW17230   1.685   2.601   0.424 -0.0049  0.3334  0.5208
 1924SOL    HW117231   1.653   2.630   0.339  0.4760 -1.7923 -0.3723
 1924SOL    HW217232   1.774   2.583   0.394 -0.4572 -0.1310 -0.5372
 1925SOL     OW17233   0.426   1.377  11.938 -0.3825 -0.1527  0.0247
 1925SOL    HW117234   0.500   1.349  11.991 -0.3586 -0.8996 -0.4037
 1925SOL    HW217235   0.444   1.470  11.927 -3.6575 -0.1216 -4.9888
 1926SOL     OW17236   3.219   2.953   1.348  0.5058  0.0775  0.1883
 1926SOL    HW117237   3.272   2.999   1.283 -0.4539 -0.0157 -0.6613
 1926SOL    HW217238   3.277   2.926   1.419 -0.9003 -2.5918  0.3300
 1927SOL     OW17239   1.056   2.403   3.006 -0.2937 -0.1900 -0.1452
 1927SOL    HW117240   1.142   2.445   3.003  0.6070 -2.1514 -1.5503
 1927SOL    HW217241   1.066   2.332   2.943  1.6983  0.5345 -0.6291
 1928SOL     OW17242   3.882   1.929  15.718 -0.4855 -0.9652 -0.6608
 1928SOL    HW117243   3.921   2.004  15.764  0.3323 -1.5085 -0.4799
 1928SOL    HW217244   3.910   1.947  15.629 -0.6838 -0.3966 -0.6109
 1929SOL     OW17245   0.756   4.604  14.217  0.4712  0.5782  0.5404
 1929SOL    HW117246   0.776   4.675  14.156  1.7443 -1.4152 -1.3756
 1929SOL    HW217247   0.666   4.588  14.188  1.2322 -0.0772 -1.5032
 1930SOL     OW17248   0.800   3.139   1.667 -0.4286 -0.0501  0.4454
 1930SOL    HW117249   0.736   3.114   1.733  0.0856 -0.0821  0.9306
 1930SOL    HW217250   0.763   3.224   1.642  1.2572  0.2253 -1.1357
 1931SOL     OW17251   1.002   4.001   1.376 -0.0840 -0.0465  0.2929
 1931SOL    HW117252   1.081   4.044   1.344 -1.6309  2.2216 -0.5575
 1931SOL    HW217253   0.940   4.043   1.316  0.9764  0.1967 -0.6435
 1932SOL     OW17254   2.847   3.044   1.936 -0.3721 -0.1837 -0.4870
 1932SOL    HW117255   2.850   3.139   1.950 -2.0807 -0.5233  2.1196
 1932SOL    HW217256   2.933   3.025   1.899 -0.2073  0.9252 -0.6806
 1933SOL     OW17257   4.488   1.903  14.889  0.5510  0.0424  0.3213
 1933SOL    HW117258   4.558   1.842  14.864 -1.5354 -1.6571 -1.4445
 1933SOL    HW217259   4.426   1.893  14.816  1.4956  2.1321 -0.7565
 1934SOL     OW17260   2.678   0.172   2.754  0.0741  0.4440  0.6188
 1934SOL    HW117261   2.753   0.210   2.708 -0.4350 -1.4484 -1.7486
 1934SOL    HW217262   2.717   0.169   2.841  2.0653  1.1950 -0.2419
 1935SOL     OW17263   1.011   1.926  14.571  0.2146  0.3276 -0.3080
 1935SOL    HW117264   1.098   1.965  14.570 -0.4381  1.8635  3.0522
 1935SOL    HW217265   1.024   1.846  14.520 -0.5724 -1.6822  2.6584
 1936SOL     OW17266   0.267   3.784   1.769 -0.1065  0.0860  0.0139
 1936SOL    HW117267   0.279   3.797   1.675  0.5304  0.9118  0.2057
 1936SOL    HW217268   0.190   3.728   1.773  0.8029 -1.3320 -2.4377
 1937SOL     OW17269   4.193   1.217  13.532 -0.1955 -0.1812  0.4872
 1937SOL    HW117270   4.129   1.270  13.578 -0.8782 -1.4409  0.9966
 1937SOL    HW217271   4.191   1.143  13.593  1.4719  0.7482  1.6807
 1938SOL     OW17272   2.046   2.011   6.422  0.3312 -0.0711 -0.8749
 1938SOL    HW117273   2.118   1.962   6.459  0.9906  0.0652 -1.9936
 1938SOL    HW217274   2.099   2.074   6.374 -0.4812 -1.0408 -3.0542
 1939SOL     OW17275   3.436   2.311   4.136 -0.5987  0.6487  0.3546
 1939SOL    HW117276   3.502   2.335   4.201 -0.7001  0.9729  0.3410
 1939SOL    HW217277   3.487   2.255   4.078  0.2961  0.7294  1.0669
 1940SOL     OW17278   2.078   2.847  10.303  0.2760 -0.1549 -0.1843
 1940SOL    HW117279   2.071   2.869  10.396 -3.5564 -2.0441 -0.0229
 1940SOL    HW217280   2.031   2.921  10.265  0.8933  0.0638 -0.5190
 1941SOL     OW17281   2.395   2.148   5.344  0.2159  0.4517 -0.1184
 1941SOL    HW117282   2.347   2.095   5.407  1.2857  0.6021  0.8329
 1941SOL    HW217283   2.429   2.218   5.400  1.8471 -0.9343  0.6162
 1942SOL     OW17284   0.337   2.632   7.338  0.9080 -0.2615  0.2348
 1942SOL    HW117285   0.332   2.541   7.311 -1.5900 -0.0626  0.0343
 1942SOL    HW217286   0.360   2.632   7.431  1.2249  0.1430  0.1585
 1943SOL     OW17287   3.581   0.254   4.288 -0.2825  0.0286  0.1631
 1943SOL    HW117288   3.572   0.248   4.193 -0.0448  1.4250  0.0511
 1943SOL    HW217289   3.676   0.242   4.294 -0.3583 -0.4216  0.4459
 1944SOL     OW17290   0.067   1.530   5.261  0.0279 -0.0890  0.3496
 1944SOL    HW117291   0.102   1.612   5.225  3.2957 -1.4866  0.3146
 1944SOL    HW217292   0.022   1.564   5.338 -1.7495 -2.1491  0.2245
 1945SOL     OW17293   1.385   3.126   1.900  0.1719  0.0295  0.3588
 1945SOL    HW117294   1.357   3.042   1.863 -2.4391  1.4344 -0.8660
 1945SOL    HW217295   1.363   3.103   1.991  0.2583 -0.7631  0.1804
 1946SOL     OW17296   0.679   4.251   4.764 -0.3955 -0.1280 -0.4503
 1946SOL    HW117297   0.743   4.197   4.716  1.3287  2.0794 -0.6244
 1946SOL    HW217298   0.713   4.336   4.737 -1.2974 -0.4616 -2.6486
 1947SOL     OW17299   4.011   3.061   4.537  0.0292 -0.2777 -0.0780
 1947SOL    HW117300   3.954   3.014   4.476  1.6045  0.3553 -2.0416
 1947SOL    HW217301   3.948   3.111   4.589 -1.1645 -1.4340 -0.4330
 1948SOL     OW17302   1.046   4.600   6.618 -0.5232 -0.4780  0.1228
 1948SOL    HW117303   1.113   4.594   6.550  1.4129  1.8382  1.8148
 1948SOL    HW217304   0.974   4.550   6.580  0.0751  1.0842 -3.0388
 1949SOL     OW17305   3.642   4.066   8.437 -0.3169  0.2886 -0.4898
 1949SOL    HW117306   3.611   3.976   8.445  0.6208  0.2370  2.6168
 1949SOL    HW217307   3.732   4.042   8.416  0.4787  3.8550 -1.1088
 1950SOL     OW17308   0.306   2.075   5.126 -0.2259  0.2603  0.4605
 1950SOL    HW117309   0.352   2.041   5.203  2.5302  1.6726 -0.5598
 1950SOL    HW217310   0.371   2.133   5.086 -1.6956  1.5353 -0.0864
 1951SOL     OW17311   3.729   3.975  15.042 -0.3854 -0.2927 -0.0385
 1951SOL    HW117312   3.676   3.948  15.117  0.2470  0.1914  0.5783
 1951SOL    HW217313   3.748   4.066  15.062 -0.1769 -0.7464  1.8925
 1952SOL     OW17314   1.783   4.014   6.162 -0.3204 -0.0570 -0.1515
 1952SOL    HW117315   1.826   3.937   6.127 -1.9544 -0.6189 -0.9260
 1952SOL    HW217316   1.857   4.068   6.189 -3.1253  1.6530  4.2422
 1953SOL     OW17317   4.129   3.027  11.730 -0.0778  0.1348 -0.2184
 1953SOL    HW117318   4.055   2.979  11.768 -1.9885  5.3891  2.6724
 1953SOL    HW217319   4.120   3.117  11.759 -2.9960 -0.7845  1.7382
 1954SOL     OW17320   0.580   4.448   6.749  0.4486  0.3119 -0.2507
 1954SOL    HW117321   0.498   4.450   6.800  0.4348 -1.9643 -0.1759
 1954SOL    HW217322   0.564   4.519   6.687 -1.2832  0.4228  0.2989
 1955SOL     OW17323   3.222   3.397  14.950 -0.2287  0.0300 -0.4828
 1955SOL    HW117324   3.169   3.318  14.952 -0.3483  0.0916 -1.3940
 1955SOL    HW217325   3.167   3.457  14.899 -0.1228  2.4937  2.2525
 1956SOL     OW17326   0.836   0.909   4.170  0.8926 -0.3348 -0.9039
 1956SOL    HW117327   0.911   0.949   4.125  1.6534 -0.0053  0.6535
 1956SOL    HW217328   0.796   0.850   4.106  1.1053 -0.6893 -0.7055
 1957SOL     OW17329   1.285   1.593  14.324  0.6256  0.1854  0.2170
 1957SOL    HW117330   1.343   1.652  14.276  0.4646 -0.8871 -1.2946
 1957SOL    HW217331   1.329   1.512  14.302 -1.6652 -1.2838  1.0371
 1958SOL     OW17332   2.014   4.592   8.180  0.2727  0.0003 -0.7831
 1958SOL    HW117333   1.975   4.506   8.198  0.2202 -0.1054 -1.3833
 1958SOL    HW217334   2.019   4.636   8.265 -2.1914  0.1114 -0.6906
 1959SOL     OW17335   0.442   0.405  14.710  0.1535 -0.2067 -0.3614
 1959SOL    HW117336   0.504   0.442  14.773  0.4930 -3.2013  1.0565
 1959SOL    HW217337   0.425   0.485  14.661  0.5794 -0.5523 -1.0712
 1960SOL     OW17338   2.233   3.334   1.039  0.4375  0.3929 -0.4149
 1960SOL    HW117339   2.289   3.275   1.090  0.0153 -0.1884 -0.6259
 1960SOL    HW217340   2.245   3.306   0.948  0.9564 -1.8015  0.3157
 1961SOL     OW17341   4.514   3.300   7.019 -0.5977 -0.3956 -0.4617
 1961SOL    HW117342   4.530   3.255   7.102 -2.6666  0.9816  0.6653
 1961SOL    HW217343   4.423   3.327   7.024 -0.8090 -1.7208  2.3597
 1962SOL     OW17344   0.398   1.867   2.463 -0.2384  0.8171 -0.0020
 1962SOL    HW117345   0.310   1.860   2.500  0.0695  0.8743  0.7549
 1962SOL    HW217346   0.398   1.789   2.408 -1.8126  0.6513  0.2543
 1963SOL     OW17347   2.197   2.392  15.627  0.2820 -0.3280 -0.3342
 1963SOL    HW117348   2.161   2.379  15.715  0.1186  0.1893 -0.3274
 1963SOL    HW217349   2.236   2.306  15.611 -0.8523 -1.0939  0.9580
 1964SOL     OW17350   2.508   3.939   1.275 -0.0374  0.2522 -0.2513
 1964SOL    HW117351   2.560   3.858   1.283  1.4734  1.5112  2.4047
 1964SOL    HW217352   2.501   3.962   1.367 -1.0489 -2.0318  0.2454
 1965SOL     OW17353   2.410   1.639  15.548 -0.2153  0.3948 -0.5805
 1965SOL    HW117354   2.318   1.655  15.569 -0.7105 -0.5360 -2.0289
 1965SOL    HW217355   2.447   1.726  15.562 -0.0412  0.3243 -0.6055
 1966SOL     OW17356   3.700   2.917  13.321  0.5502  0.0724  0.5015
 1966SOL    HW117357   3.775   2.919  13.262 -0.1249 -1.8752 -0.4167
 1966SOL    HW217358   3.632   2.929  13.255  1.4933 -0.7045 -0.6012
 1967SOL     OW17359   0.391   0.731   2.135 -0.3685 -0.7156  0.0718
 1967SOL    HW117360   0.383   0.671   2.209 -1.3565  0.4074  0.8574
 1967SOL    HW217361   0.329   0.689   2.075 -0.0049 -0.4360 -0.5012
 1968SOL     OW17362   4.150   3.046   3.245 -0.1483 -0.8059  0.1991
 1968SOL    HW117363   4.224   3.076   3.297  0.1852 -0.7525 -0.3179
 1968SOL    HW217364   4.182   3.048   3.155 -1.1525  1.1228 -0.1157
 1969SOL     OW17365   1.675   3.717  16.483 -0.5294 -0.4902 -0.2201
 1969SOL    HW117366   1.755   3.742  16.529 -1.2891  2.3670 -0.4557
 1969SOL    HW217367   1.684   3.752  16.394 -1.5512 -0.6728 -0.3882
 1970SOL     OW17368   2.435   0.882   6.408  0.7615 -0.1107  0.2368
 1970SOL    HW117369   2.397   0.824   6.474  0.0931  0.4698  0.3593
 1970SOL    HW217370   2.364   0.945   6.406 -0.3279 -1.2691  2.7062
 1971SOL     OW17371   1.759   1.911  11.506 -0.3595 -0.1364  0.1409
 1971SOL    HW117372   1.803   1.849  11.448 -1.1175  0.4295 -1.0366
 1971SOL    HW217373   1.808   1.991  11.486  0.8961 -0.9389 -0.0419
 1972SOL     OW17374   0.999   1.534   0.035 -0.1995 -0.4309  0.3414
 1972SOL    HW117375   0.978   1.599   0.101 -2.8101  0.5498 -1.4505
 1972SOL    HW217376   1.076   1.488   0.070  1.0569  1.0042 -0.5449
 1973SOL     OW17377   4.581   0.464  13.136  0.1503 -0.3033  0.5785
 1973SOL    HW117378   4.556   0.488  13.047  2.6980  1.8498  0.4476
 1973SOL    HW217379   4.651   0.524  13.161 -0.9793  0.8298  1.0562
 1974SOL     OW17380   3.241   2.380   4.694 -0.2674 -0.0960  0.1869
 1974SOL    HW117381   3.282   2.333   4.622 -0.5760 -0.1946  0.0723
 1974SOL    HW217382   3.228   2.469   4.661  1.0916 -0.6158 -1.7621
 1975SOL     OW17383   3.323   4.288  13.845  0.2458  0.5094  0.4812
 1975SOL    HW117384   3.400   4.231  13.854  0.0612  0.4032  1.3150
 1975SOL    HW217385   3.332   4.324  13.756 -0.7899 -1.7867 -0.5443
 1976SOL     OW17386   3.028   3.380   8.061  0.0932 -0.2217  0.2138
 1976SOL    HW117387   3.100   3.317   8.071 -2.2674 -3.3119 -2.0482
 1976SOL    HW217388   2.991   3.347   7.980 -2.0477 -0.8591  1.4638
 1977SOL     OW17389   3.688   3.948   3.635  0.1931  0.1478  0.3034
 1977SOL    HW117390   3.734   3.872   3.671  0.0617 -0.6142 -1.1454
 1977SOL    HW217391   3.758   4.011   3.619  0.5411  0.1580  1.9171
 1978SOL     OW17392   4.000   3.164   2.871 -0.1637  0.1900  0.2094
 1978SOL    HW117393   3.939   3.091   2.875  2.3807 -1.9715 -0.1055
 1978SOL    HW217394   3.967   3.243   2.914  1.3554  1.0759 -0.2436
 1979SOL     OW17395   4.117   1.220  13.118 -0.4996  0.5665  0.0947
 1979SOL    HW117396   4.023   1.207  13.112  0.0623 -3.5630  0.2540
 1979SOL    HW217397   4.143   1.152  13.056  0.9594  2.0820 -0.9527
 1980SOL     OW17398   0.044   1.727   8.521  0.5073 -0.7539 -0.5625
 1980SOL    HW117399   0.006   1.760   8.602 -0.1233 -0.4021 -1.0061
 1980SOL    HW217400   0.133   1.710   8.552  0.4959  0.3584  0.0788
 1981SOL     OW17401   1.072   3.435   6.322  0.5937  0.4633 -0.1161
 1981SOL    HW117402   1.105   3.387   6.246 -3.5680  1.6827 -2.6801
 1981SOL    HW217403   1.048   3.517   6.280  0.4350 -0.0026 -0.9323
 1982SOL     OW17404   0.922   2.895   8.243  0.4452  0.7554  0.5541
 1982SOL    HW117405   0.827   2.884   8.237  0.5032  0.6614 -0.1696
 1982SOL    HW217406   0.931   2.866   8.333  1.1563 -0.6450  0.0362
 1983SOL     OW17407   3.168   1.529   6.295 -0.0596 -0.3684 -0.8045
 1983SOL    HW117408   3.154   1.488   6.210 -1.1966 -0.6276 -0.4987
 1983SOL    HW217409   3.087   1.580   6.299 -0.3213 -0.7992 -0.5453
 1984SOL     OW17410   4.237   4.014  16.374  0.3230  0.0846 -0.1578
 1984SOL    HW117411   4.261   4.107  16.374  1.5937 -0.2434 -1.2666
 1984SOL    HW217412   4.246   3.995  16.468 -0.7237 -0.8617 -0.2547
 1985SOL     OW17413   2.701   1.028  12.142  0.2704  0.2384 -0.1577
 1985SOL    HW117414   2.725   1.112  12.182  1.1357 -0.1420  0.1256
 1985SOL    HW217415   2.759   1.024  12.066 -1.7989  0.1394 -1.7272
 1986SOL     OW17416   2.293   4.703   3.480  0.1633  0.5752 -0.8027
 1986SOL    HW117417   2.287   4.610   3.500 -0.8205  0.2547 -2.5403
 1986SOL    HW217418   2.385   4.723   3.468  0.4326  0.7159  1.5143
 1987SOL     OW17419   2.931   0.085   8.177  0.3332  0.3315  0.2452
 1987SOL    HW117420   2.964   0.028   8.107  3.0321  2.2015 -0.0383
 1987SOL    HW217421   2.883   0.014   8.219 -1.6797  2.1033  0.9318
 1988SOL     OW17422   2.786   1.935   7.631  0.0519  0.2466 -0.3198
 1988SOL    HW117423   2.846   2.005   7.605  0.6140  0.3467  1.2015
 1988SOL    HW217424   2.704   1.963   7.589  0.0405  1.1200  0.2830
 1989SOL     OW17425   0.689   2.861  12.141  0.1655 -0.0409  0.8034
 1989SOL    HW117426   0.735   2.864  12.057 -2.0629 -0.0232 -0.3874
 1989SOL    HW217427   0.632   2.786  12.125  0.3274  0.1970 -0.8238
 1990SOL     OW17428   3.799   3.411   1.092 -0.5637  0.7751  0.4162
 1990SOL    HW117429   3.817   3.318   1.081 -0.8197  0.7710  0.0264
 1990SOL    HW217430   3.825   3.447   1.008 -1.2241 -1.2550 -0.6722
 1991SOL     OW17431   4.401   0.735   8.515 -0.1586  0.1943 -0.3137
 1991SOL    HW117432   4.362   0.657   8.475 -0.3617 -1.0199  2.2736
 1991SOL    HW217433   4.385   0.808   8.456  1.6536  0.2865 -0.6791
 1992SOL     OW17434   1.871   0.022   0.688 -0.1898 -0.1378  0.2282
 1992SOL    HW117435   1.884   4.723   0.596 -0.5472 -1.8667  0.6215
 1992SOL    HW217436   1.777   0.013   0.702 -0.6370  3.0117 -0.6436
 1993SOL     OW17437   1.082   3.583   2.765  0.4130  0.1940 -0.1826
 1993SOL    HW117438   1.005   3.537   2.797  0.1382  1.2908  0.7474
 1993SOL    HW217439   1.101   3.639   2.840 -0.5174  1.5232 -0.9363
 1994SOL     OW17440   4.556   3.106   7.792  0.6955 -0.7409 -0.0740
 1994SOL    HW117441   4.567   3.022   7.747 -0.8382 -1.4952  0.9433
 1994SOL    HW217442   4.481   3.140   7.743  1.1642  0.0424 -0.2468
 1995SOL     OW17443   1.176   2.701  12.361  0.1283 -0.4636 -0.6739
 1995SOL    HW117444   1.234   2.778  12.359  0.4450 -0.6636  0.8774
 1995SOL    HW217445   1.132   2.729  12.281  0.7633 -0.2673 -0.9575
 1996SOL     OW17446   1.604   0.663   6.656  0.6457 -0.4195 -0.3238
 1996SOL    HW117447   1.545   0.609   6.709 -0.5594  0.3712 -0.8498
 1996SOL    HW217448   1.566   0.649   6.570  0.5640 -2.2450  0.0134
 1997SOL     OW17449   0.262   3.174  10.541 -0.2196 -0.1743  0.0064
 1997SOL    HW117450   0.235   3.266  10.538  0.6018  0.1875  4.0910
 1997SOL    HW217451   0.354   3.177  10.567  0.0204 -1.4540 -0.6745
 1998SOL     OW17452   0.416   4.237  15.998 -0.1920 -0.1013  0.1015
 1998SOL    HW117453   0.363   4.259  16.075  1.6489  0.7566  1.1061
 1998SOL    HW217454   0.374   4.155  15.971  2.7162 -0.3923 -3.4145
 1999SOL     OW17455   1.108   3.650   2.092 -0.3628 -0.1608  0.1612
 1999SOL    HW117456   1.127   3.558   2.113 -0.2057  0.1055  1.1852
 1999SOL    HW217457   1.135   3.651   2.000 -1.5231 -1.4257 -0.2025
 2000SOL     OW17458   1.629   1.771  10.469 -1.1232 -0.3022 -0.4396
 2000SOL    HW117459   1.619   1.722  10.550  0.5933 -2.4353 -1.5052
 2000SOL    HW217460   1.701   1.722  10.428  1.8058  1.8118  2.1626
 2001SOL     OW17461   3.661   4.497   8.969  0.2778 -0.1433  0.7751
 2001SOL    HW117462   3.695   4.408   8.980  0.3760 -0.1829  0.1116
 2001SOL    HW217463   3.634   4.511   9.060  1.5005 -2.2538  1.4797
 2002SOL     OW17464   0.771   4.362   3.204  0.1497 -0.2290 -0.5551
 2002SOL    HW117465   0.857   4.401   3.183  0.4218 -0.6716 -0.2584
 2002SOL    HW217466   0.713   4.400   3.137  0.4964  0.1536 -0.6443
 2003SOL     OW17467   0.334   1.494  11.287 -0.4028  0.6851  0.0796
 2003SOL    HW117468   0.361   1.516  11.197  1.1995  1.4563  0.7492
 2003SOL    HW217469   0.375   1.409  11.301  0.1892  0.9028 -0.3098
 2004SOL     OW17470   0.525   0.649  14.451 -0.4041 -0.1993 -0.2906
 2004SOL    HW117471   0.494   0.702  14.524 -0.7003  0.4522 -0.8951
 2004SOL    HW217472   0.538   0.725  14.394  1.0218 -1.2577 -1.3587
 2005SOL     OW17473   0.195   4.059   3.787 -0.2774 -0.8467 -0.5426
 2005SOL    HW117474   0.290   4.050   3.785 -0.1483  0.1838  1.2602
 2005SOL    HW217475   0.164   3.988   3.730  1.5151 -1.0489 -1.2651
 2006SOL     OW17476   3.429   2.811  14.590 -0.9416 -0.2010  0.0383
 2006SOL    HW117477   3.355   2.802  14.531  0.7017 -0.6151 -1.9196
 2006SOL    HW217478   3.498   2.827  14.527 -1.2387 -0.2053 -0.2869
 2007SOL     OW17479   1.627   2.841  12.444 -0.2111  0.1873 -0.1036
 2007SOL    HW117480   1.692   2.773  12.430 -0.9091 -0.6139  0.5817
 2007SOL    HW217481   1.554   2.824  12.384 -0.0822 -1.4334  0.2212
 2008SOL     OW17482   3.619   4.153   6.040 -0.0457  0.4298 -0.7272
 2008SOL    HW117483   3.672   4.161   6.119  0.0247 -1.5257 -0.5692
 2008SOL    HW217484   3.546   4.110   6.084 -0.0177  1.7817  0.6278
 2009SOL     OW17485   1.899   1.588   8.726 -0.1793 -0.5433  0.0874
 2009SOL    HW117486   1.855   1.672   8.739  1.1261 -0.1824  2.1195
 2009SOL    HW217487   1.967   1.599   8.792  0.2407  1.4606 -0.6887
 2010SOL     OW17488   3.301   0.273   6.459 -0.1702  0.1573 -0.0540
 2010SOL    HW117489   3.382   0.291   6.508  0.1537  1.2337 -0.9957
 2010SOL    HW217490   3.331   0.284   6.369  0.8747 -1.3400  0.1094
 2011SOL     OW17491   1.376   3.431  17.324  0.2112  0.0465  0.0737
 2011SOL    HW117492   1.289   3.391  17.319 -0.4757  1.5551 -0.2458
 2011SOL    HW217493   1.373   3.505  17.264 -0.0373  0.1850  0.2546
 2012SOL     OW17494   4.400   1.868   6.160 -0.5660  0.4608 -0.2070
 2012SOL    HW117495   4.332   1.903   6.217 -1.1945  0.2736 -0.8457
 2012SOL    HW217496   4.476   1.925   6.175  0.8495 -1.2808 -0.7284
 2013SOL     OW17497   1.242   4.445   1.157  0.2550 -0.1917 -0.8811
 2013SOL    HW117498   1.194   4.518   1.117 -1.7249 -1.4639 -0.8191
 2013SOL    HW217499   1.207   4.368   1.112 -1.5004 -0.0328  0.2296
 2014SOL     OW17500   2.427   3.151   6.322 -0.2280  0.4852 -0.4377
 2014SOL    HW117501   2.475   3.224   6.281 -0.2126 -0.7041 -2.5147
 2014SOL    HW217502   2.497   3.087   6.333 -1.1669 -0.1054  1.9389
 2015SOL     OW17503   1.788   4.069  10.824  0.3348 -0.1946 -0.2245
 2015SOL    HW117504   1.854   4.059  10.755 -1.8003 -1.4947 -2.0767
 2015SOL    HW217505   1.709   4.049  10.775  0.3954 -1.5065  0.2181
 2016SOL     OW17506   0.180   2.945   2.206 -0.2322 -0.6035  0.5017
 2016SOL    HW117507   0.237   2.877   2.171 -2.5626 -1.5034 -1.5406
 2016SOL    HW217508   0.116   2.892   2.255  0.2492 -1.6840 -0.0398
 2017SOL     OW17509   1.089   3.400  11.883  0.1053 -0.4602 -0.6250
 2017SOL    HW117510   1.023   3.335  11.909 -0.6763  1.1668  1.4278
 2017SOL    HW217511   1.071   3.424  11.792 -2.5559 -0.2418 -0.0433
 2018SOL     OW17512   4.546   2.045   5.381 -0.2546  0.1555  0.3614
 2018SOL    HW117513   4.567   2.105   5.310  1.4772 -0.2735  0.5186
 2018SOL    HW217514   4.504   1.973   5.335 -1.1497  0.2099  1.0924
 2019SOL     OW17515   0.214   4.259   1.456 -0.0777 -0.3260 -0.2427
 2019SOL    HW117516   0.223   4.299   1.542  1.5766 -0.3156 -0.4190
 2019SOL    HW217517   0.296   4.267   1.406 -0.8799 -0.5030 -1.6046
 2020SOL     OW17518   4.381   4.050   6.015 -0.1124  0.2582  0.0319
 2020SOL    HW117519   4.383   4.022   5.923 -0.5412 -2.0300  0.7216
 2020SOL    HW217520   4.472   4.067   6.038  0.3286  0.3044 -1.7390
 2021SOL     OW17521   3.955   3.996  10.313  0.0112  0.0059  0.7463
 2021SOL    HW117522   4.049   4.010  10.316  0.2035 -1.5249  1.7025
 2021SOL    HW217523   3.956   3.951  10.398 -0.7468  0.9991  1.2803
 2022SOL     OW17524   1.622   4.135  16.276  0.4715 -0.3079 -0.3773
 2022SOL    HW117525   1.673   4.058  16.304  1.6048 -0.4041 -2.6534
 2022SOL    HW217526   1.632   4.130  16.181 -0.6272  1.0288 -0.5472
 2023SOL     OW17527   2.178   3.026  12.567 -0.3699 -0.0387 -0.0530
 2023SOL    HW117528   2.207   2.968  12.638 -2.4279  0.5178  1.2276
 2023SOL    HW217529   2.095   3.059  12.600  0.4946  0.5992  1.5047
 2024SOL     OW17530   2.766   0.627   7.119 -0.0428  0.2799  0.1917
 2024SOL    HW117531   2.782   0.711   7.077  1.1854 -0.3639 -0.5944
 2024SOL    HW217532   2.773   0.660   7.209 -1.1716 -0.6001  0.6092
 2025SOL     OW17533   0.895   4.317   8.691 -0.0916 -0.1103  0.6301
 2025SOL    HW117534   0.837   4.335   8.765  0.2838  0.0198  0.8923
 2025SOL    HW217535   0.975   4.292   8.737 -1.3120 -1.8814  1.8176
 2026SOL     OW17536   2.655   4.398   1.486  0.4045 -0.0669 -0.1583
 2026SOL    HW117537   2.657   4.440   1.400  2.1646 -1.1591 -0.6358
 2026SOL    HW217538   2.622   4.315   1.452 -2.0486  0.3470  1.1685
 2027SOL     OW17539   3.938   4.463   6.347 -0.1669  0.1365 -0.0667
 2027SOL    HW117540   3.862   4.477   6.404  2.0194 -0.6080  3.0171
 2027SOL    HW217541   3.998   4.406   6.395  0.3033 -1.8706 -3.0476
 2028SOL     OW17542   2.463   0.153   0.144 -0.1815 -0.4466 -0.1772
 2028SOL    HW117543   2.500   0.071   0.111 -1.2690 -1.7232  1.7797
 2028SOL    HW217544   2.546   0.164   0.190 -0.6046 -4.5035  1.5667
 2029SOL     OW17545   3.222   2.611   6.524  0.3397  0.3861  0.3966
 2029SOL    HW117546   3.192   2.526   6.493  1.9282 -0.2035  0.4929
 2029SOL    HW217547   3.240   2.594   6.617  0.3133 -1.0868  0.1282
 2030SOL     OW17548   4.696   0.827  16.954 -0.0031 -0.1208  0.0890
 2030SOL    HW117549   4.601   0.823  16.951 -0.0598  1.0581  0.4920
 2030SOL    HW217550   4.718   0.787  17.038  0.6721  1.5874  0.7296
 2031SOL     OW17551   0.824   0.893  10.363  0.3217 -0.0403 -0.0120
 2031SOL    HW117552   0.849   0.985  10.349  0.3319 -0.0871 -0.3148
 2031SOL    HW217553   0.852   0.861  10.277  0.5796 -2.5151  1.0028
 2032SOL     OW17554   1.428   1.931   2.034 -0.2639 -0.0005 -0.3777
 2032SOL    HW117555   1.515   1.971   2.029 -0.6249  0.4866 -2.6811
 2032SOL    HW217556   1.380   1.995   2.087 -2.8316 -0.0271 -2.6580
 2033SOL     OW17557   0.206   2.114   8.258 -0.1435 -0.7279 -0.0526
 2033SOL    HW117558   0.117   2.106   8.221 -0.3898 -0.5850  0.5179
 2033SOL    HW217559   0.183   2.156   8.341 -1.3033 -1.3940 -0.0377
 2034SOL     OW17560   0.060   0.936   5.108  0.1309 -0.1544 -0.0050
 2034SOL    HW117561   0.060   0.988   5.027  1.5272  0.3627  0.3161
 2034SOL    HW217562   0.106   0.995   5.167 -1.6798  0.7680  0.4700
 2035SOL     OW17563   0.435   2.564  16.948 -0.0843 -0.5669 -0.1570
 2035SOL    HW117564   0.357   2.514  16.973  1.0285 -2.2185  0.0784
 2035SOL    HW217565   0.463   2.605  17.030 -0.9135  0.7630 -0.5438
 2036SOL     OW17566   2.516   1.557   6.207  0.1660  0.1151  0.2876
 2036SOL    HW117567   2.602   1.516   6.199 -0.3308 -0.8908  0.1240
 2036SOL    HW217568   2.512   1.591   6.117  0.6280 -1.7648 -0.4444
 2037SOL     OW17569   2.382   4.488   4.680  0.6137 -0.0077  0.1651
 2037SOL    HW117570   2.387   4.582   4.700  0.1841 -0.2718  1.4942
 2037SOL    HW217571   2.459   4.447   4.721  0.9083 -1.1063 -1.5021
 2038SOL     OW17572   0.895   2.946   1.480 -0.7136 -0.8612  0.0947
 2038SOL    HW117573   0.984   2.928   1.510 -0.4285  0.0836 -0.1828
 2038SOL    HW217574   0.877   3.008   1.550  1.2379  2.2150 -2.0970
 2039SOL     OW17575   0.334   3.918  13.881 -0.0180  0.4801  0.6127
 2039SOL    HW117576   0.275   3.847  13.855 -1.3070  1.3383  1.1962
 2039SOL    HW217577   0.318   3.988  13.816 -4.9910  0.6277  1.9869
 2040SOL     OW17578   1.283   1.313   9.184  0.5711 -0.3208 -0.7679
 2040SOL    HW117579   1.309   1.311   9.092  1.3563 -2.6600 -0.4889
 2040SOL    HW217580   1.198   1.271   9.176  0.0414  0.9640 -1.9204
 2041SOL     OW17581   4.037   1.369   3.307  0.0233  0.3613 -0.1176
 2041SOL    HW117582   3.976   1.339   3.239 -0.2741 -0.9037  0.7019
 2041SOL    HW217583   3.972   1.375   3.376 -0.4377 -1.4714 -0.3867
 2042SOL     OW17584   1.325   0.324   2.244 -0.0014  0.0850  0.1618
 2042SOL    HW117585   1.343   0.390   2.311 -1.6710 -0.9610  1.6285
 2042SOL    HW217586   1.266   0.374   2.189  0.0147  0.0932  0.1518
 2043SOL     OW17587   0.872   3.403   4.977 -0.1886  0.4043  0.7719
 2043SOL    HW117588   0.900   3.330   4.921  0.6389  0.8578  0.6078
 2043SOL    HW217589   0.781   3.414   4.948  0.3546  0.9936 -0.6804
 2044SOL     OW17590   0.794   0.553   1.766 -0.0541  0.3989  0.1123
 2044SOL    HW117591   0.775   0.582   1.677  0.3761  0.0329 -0.1000
 2044SOL    HW217592   0.829   0.465   1.750 -2.6900 -0.6302  0.0229
 2045SOL     OW17593   2.468   0.108   0.993 -0.5718  0.5172 -0.0401
 2045SOL    HW117594   2.527   0.038   0.967 -1.4083 -1.0977  2.3904
 2045SOL    HW217595   2.474   0.170   0.920 -1.1525  0.1217 -0.4272
 2046SOL     OW17596   1.790   2.060  10.104 -0.4768  0.0355 -0.3942
 2046SOL    HW117597   1.713   2.089  10.153  0.3910  0.7406  0.5272
 2046SOL    HW217598   1.773   2.109  10.023  1.8742  1.9525  0.2719
 2047SOL     OW17599   1.782   4.626   4.540 -0.5886 -0.0742  0.2857
 2047SOL    HW117600   1.844   4.561   4.508 -1.5486 -0.4773 -0.7558
 2047SOL    HW217601   1.717   4.622   4.470  0.5440  0.7772 -0.7870
 2048SOL     OW17602   1.160   0.460  16.089  0.6105  0.2426 -0.1315
 2048SOL    HW117603   1.167   0.531  16.025 -2.2647  0.2414 -0.4117
 2048SOL    HW217604   1.174   0.383  16.033 -0.4589  0.2009 -0.3291
 2049SOL     OW17605   1.953   1.406   1.710  0.0587  0.1357 -0.4805
 2049SOL    HW117606   1.912   1.490   1.689  0.2295 -0.1375 -1.9221
 2049SOL    HW217607   1.892   1.341   1.674  1.3699 -1.1015 -0.4440
 2050SOL     OW17608   3.456   0.498   3.282 -0.1661  0.1325  0.2915
 2050SOL    HW117609   3.401   0.439   3.332  0.8726  0.7310  2.1528
 2050SOL    HW217610   3.430   0.581   3.322  1.3459  1.4172 -1.3967
 2051SOL     OW17611   3.394   2.105  10.511  0.2803  0.7602  0.7515
 2051SOL    HW117612   3.435   2.123  10.596  0.5843 -0.0099  0.7703
 2051SOL    HW217613   3.309   2.075  10.544 -0.8143  1.2524 -1.6207
 2052SOL     OW17614   4.421   3.428  10.913  0.2946 -0.3720 -0.1230
 2052SOL    HW117615   4.334   3.422  10.951  0.2700  0.2419 -0.0848
 2052SOL    HW217616   4.474   3.458  10.987  1.2257 -1.9450 -0.1367
 2053SOL     OW17617   1.072   1.883   4.179 -0.4578 -0.0301 -0.3066
 2053SOL    HW117618   1.039   1.917   4.096 -0.6947 -0.3915 -0.3606
 2053SOL    HW217619   1.150   1.938   4.179 -1.1284  0.9311  0.2114
 2054SOL     OW17620   0.935   3.268   1.308  0.0613  0.8143 -0.4553
 2054SOL    HW117621   0.920   3.339   1.371  0.5185  2.2101 -1.9073
 2054SOL    HW217622   0.994   3.207   1.353 -1.8666 -0.8958 -0.2490
 2055SOL     OW17623   2.256   3.983   2.555 -0.1993 -0.5968 -0.7424
 2055SOL    HW117624   2.351   3.981   2.538  0.0513 -0.9339  0.6946
 2055SOL    HW217625   2.214   4.005   2.472 -0.5156  0.9341 -0.1746
 2056SOL     OW17626   2.124   0.380   1.666 -0.5248 -0.6064  0.1535
 2056SOL    HW117627   2.190   0.349   1.728  0.9421 -0.4557 -1.3192
 2056SOL    HW217628   2.104   0.308   1.606  3.5830 -1.5933  0.0021
 2057SOL     OW17629   3.633   2.798   4.640 -0.1634  0.8342 -0.2343
 2057SOL    HW117630   3.621   2.710   4.676 -1.6518  0.4913 -1.5633
 2057SOL    HW217631   3.694   2.773   4.570 -1.1589 -1.1137 -0.4017
 2058SOL     OW17632   0.370   0.613  10.127  0.1665 -0.3269 -0.0019
 2058SOL    HW117633   0.463   0.626  10.107  0.9583 -0.2299  3.7336
 2058SOL    HW217634   0.369   0.578  10.217 -0.7071 -1.0224 -0.2912
 2059SOL     OW17635   3.596   2.754   2.069 -0.0297  0.1251  0.2070
 2059SOL    HW117636   3.653   2.816   2.115  0.0852  0.3903 -0.2883
 2059SOL    HW217637   3.560   2.720   2.151  0.2742 -0.9705 -0.1115
 2060SOL     OW17638   0.289   1.645   1.632 -0.7235 -0.1005 -0.6359
 2060SOL    HW117639   0.340   1.711   1.679  0.2517 -0.9373 -0.5260
 2060SOL    HW217640   0.223   1.618   1.696  0.3182  2.8293  1.7331
 2061SOL     OW17641   1.788   3.571   6.720  0.9318 -0.1995 -0.0086
 2061SOL    HW117642   1.788   3.651   6.773  0.7709 -0.3939  0.2842
 2061SOL    HW217643   1.837   3.509   6.774 -0.7833 -1.3947  0.1688
 2062SOL     OW17644   2.969   2.668   7.035  0.1772 -0.1170 -0.2151
 2062SOL    HW117645   3.060   2.646   7.055 -0.4700 -1.1250  1.6591
 2062SOL    HW217646   2.934   2.682   7.123 -0.2463  1.7064 -0.6793
 2063SOL     OW17647   4.020   0.083   2.080  0.0156  0.2289 -0.0874
 2063SOL    HW117648   4.067   0.008   2.044 -0.7810 -1.9347  3.3371
 2063SOL    HW217649   4.028   0.065   2.174 -0.5739  0.8680  0.0858
 2064SOL     OW17650   0.816   2.769  13.490  0.3465 -0.5119 -0.0652
 2064SOL    HW117651   0.891   2.751  13.547 -0.7120  0.3389  1.5753
 2064SOL    HW217652   0.756   2.816  13.547 -0.1222 -0.6255 -0.4618
 2065SOL     OW17653   2.945   3.829  15.727 -0.8095 -0.6208  0.2754
 2065SOL    HW117654   2.933   3.740  15.696  0.5034 -1.4150  2.0733
 2065SOL    HW217655   2.929   3.818  15.821  2.4890 -0.3976  0.8821
 2066SOL     OW17656   1.515   1.155  11.051  0.8781 -0.3268 -0.6261
 2066SOL    HW117657   1.518   1.117  11.139  1.2723 -1.0658 -0.9570
 2066SOL    HW217658   1.452   1.095  11.009  0.2450  0.6129 -1.0251
 2067SOL     OW17659   3.086   0.462  16.207  0.3368 -0.5047  0.1543
 2067SOL    HW117660   3.019   0.528  16.186  1.0581  0.3113  0.4070
 2067SOL    HW217661   3.140   0.487  16.132  0.0580  0.3449  0.2325
 2068SOL     OW17662   3.020   0.864  10.246 -0.1035  0.3605  0.2790
 2068SOL    HW117663   3.038   0.908  10.163  0.3472  0.8948  0.6570
 2068SOL    HW217664   3.019   0.944  10.300  0.5328  0.8241 -0.4042
 2069SOL     OW17665   4.466   0.053   1.116  0.1498  0.0116 -0.4882
 2069SOL    HW117666   4.518   0.015   1.186  0.8080 -0.7600 -1.3980
 2069SOL    HW217667   4.521   0.121   1.077 -1.5147  2.3454  1.2100
 2070SOL     OW17668   1.462   1.710   7.069  0.0684  0.0881  0.1989
 2070SOL    HW117669   1.498   1.700   7.157  0.9019  0.7048 -0.0738
 2070SOL    HW217670   1.387   1.765   7.092  1.5540  1.9144  0.6706
 2071SOL     OW17671   3.982   3.738   4.780 -0.0757 -0.4651 -0.1490
 2071SOL    HW117672   4.048   3.751   4.713 -1.1886  1.1805 -0.9258
 2071SOL    HW217673   4.032   3.732   4.862  1.1496  0.3677 -0.8506
 2072SOL     OW17674   2.432   4.192  14.740  0.0659  0.1481  0.4651
 2072SOL    HW117675   2.387   4.259  14.688  0.3974 -0.4118 -0.5349
 2072SOL    HW217676   2.428   4.117  14.681 -1.2254  1.1468 -0.7326
 2073SOL     OW17677   0.060   0.271   5.260 -0.2020  0.4446  0.3115
 2073SOL    HW117678   4.700   0.306   5.230  0.7109  0.6596 -1.9690
 2073SOL    HW217679   0.041   0.179   5.244  1.0558 -0.0769  1.8563
 2074SOL     OW17680   1.991   0.149  11.483  0.2969 -0.0921 -0.2472
 2074SOL    HW117681   2.022   0.090  11.415  1.4719  0.4073 -0.1450
 2074SOL    HW217682   2.067   0.204  11.503  1.0530 -1.0877 -0.4005
 2075SOL     OW17683   3.733   3.554   8.959  0.0792  0.0566 -0.0053
 2075SOL    HW117684   3.713   3.623   9.021  4.9457  1.3028  0.2128
 2075SOL    HW217685   3.717   3.596   8.874  1.2351  2.4379  0.9563
 2076SOL     OW17686   2.677   0.607   5.500  0.2889 -0.0858  0.5124
 2076SOL    HW117687   2.751   0.575   5.552 -0.1145 -2.4678 -0.3934
 2076SOL    HW217688   2.670   0.550   5.423 -0.4793 -0.0454  0.5571
 2077SOL     OW17689   4.684   3.316   7.554 -0.5311  0.4219  0.3873
 2077SOL    HW117690   4.665   3.384   7.489  1.2281  0.4348 -0.1215
 2077SOL    HW217691   4.631   3.246   7.517 -0.1780  0.3620 -0.0005
 2078SOL     OW17692   1.145   3.884  12.381 -0.4853  0.3833 -0.0006
 2078SOL    HW117693   1.189   3.846  12.457 -0.8499  1.2390  0.6413
 2078SOL    HW217694   1.194   3.834  12.316 -1.5849  1.2096 -1.4929
 2079SOL     OW17695   0.941   3.746  17.374  1.1688 -0.0443  0.1875
 2079SOL    HW117696   1.009   3.685  17.403  0.8265  1.2240  3.6235
 2079SOL    HW217697   0.874   3.745  17.443 -1.7026  1.9918 -2.5778
 2080SOL     OW17698   4.233   3.634  15.033 -0.9991  0.0477 -0.1091
 2080SOL    HW117699   4.171   3.620  15.105 -2.0534  0.8963 -0.8343
 2080SOL    HW217700   4.201   3.720  15.006 -0.1944  0.1358 -0.7696
 2081SOL     OW17701   4.616   2.821   6.328 -0.1386 -0.1763  0.4694
 2081SOL    HW117702   4.641   2.832   6.419 -0.1394  0.2922  0.4101
 2081SOL    HW217703   4.524   2.795   6.332 -0.8882  2.2774 -0.6923
 2082SOL     OW17704   0.943   1.703   9.141  0.0772 -0.2548 -0.1675
 2082SOL    HW117705   0.855   1.693   9.177  0.3067  1.6128  0.9416
 2082SOL    HW217706   0.991   1.654   9.208  1.9207  1.4986 -0.2168
 2083SOL     OW17707   2.588   3.680   0.414 -0.2748  0.0005  0.3176
 2083SOL    HW117708   2.638   3.656   0.336 -0.8627 -0.3028  0.0302
 2083SOL    HW217709   2.596   3.773   0.433  0.4145  0.3070 -1.4874
 2084SOL     OW17710   0.286   2.549   1.683  0.3847  0.5730 -0.6646
 2084SOL    HW117711   0.345   2.614   1.644 -0.6398  1.0866 -1.3583
 2084SOL    HW217712   0.291   2.588   1.770  0.2917 -2.0672  0.5259
 2085SOL     OW17713   0.323   2.978  17.308 -0.3785  0.0631 -0.1195
 2085SOL    HW117714   0.306   2.942  17.221 -0.1262  1.4397 -0.7405
 2085SOL    HW217715   0.307   2.899  17.360  1.7826 -0.5587 -0.4011
 2086SOL     OW17716   3.564   2.872  13.655 -0.3630  0.6089  0.7681
 2086SOL    HW117717   3.607   2.946  13.613 -0.8064  0.5656  0.2346
 2086SOL    HW217718   3.592   2.791  13.612  1.7941  0.7982  1.8107
 2087SOL     OW17719   3.162   0.458   3.220 -0.2694  0.0951  0.0320
 2087SOL    HW117720   3.134   0.515   3.292  1.1721 -0.0376  0.6826
 2087SOL    HW217721   3.106   0.490   3.148 -1.1059 -1.5815 -0.0517
 2088SOL     OW17722   2.526   1.872   5.491  0.4846 -0.4119 -0.8757
 2088SOL    HW117723   2.475   1.880   5.411  1.5212 -0.7796 -1.5739
 2088SOL    HW217724   2.605   1.830   5.457  0.7973  1.0857 -2.0131
 2089SOL     OW17725   3.546   1.966   6.719 -0.0643 -0.5115 -0.3311
 2089SOL    HW117726   3.533   1.874   6.697 -0.3354 -0.6502  0.3933
 2089SOL    HW217727   3.639   1.985   6.709 -0.0486 -0.1024  0.5335
 2090SOL     OW17728   3.311   3.296   3.692 -0.1708 -0.0382  0.4113
 2090SOL    HW117729   3.334   3.373   3.640  0.3533  0.5907  1.5780
 2090SOL    HW217730   3.217   3.280   3.688  0.0686 -1.2731 -0.2706
 2091SOL     OW17731   3.517   4.327   3.337  0.2192  0.2318 -0.3941
 2091SOL    HW117732   3.510   4.420   3.361  0.3610 -0.0033  0.5882
 2091SOL    HW217733   3.587   4.312   3.401  0.1413 -1.2475 -0.6675
 2092SOL     OW17734   2.570   0.706  11.816  0.5129  0.3966 -0.0242
 2092SOL    HW117735   2.484   0.738  11.843 -0.3499  0.2310 -2.5081
 2092SOL    HW217736   2.551   0.658  11.735 -1.9277  0.5762  0.4470
 2093SOL     OW17737   1.782   0.631   4.340 -0.3064 -0.7221  0.1699
 2093SOL    HW117738   1.787   0.726   4.355 -0.7392 -1.1331  2.9214
 2093SOL    HW217739   1.798   0.598   4.428  0.7906  1.3148  0.7494
 2094SOL     OW17740   2.536   0.232  11.214 -0.3533 -0.3232 -0.2238
 2094SOL    HW117741   2.587   0.312  11.198 -0.9873 -0.0298 -0.7797
 2094SOL    HW217742   2.487   0.257  11.292 -2.5383  1.3289 -2.1459
 2095SOL     OW17743   0.663   0.685   4.573  0.8958  0.2712 -0.1779
 2095SOL    HW117744   0.633   0.774   4.555 -3.7064 -1.1784  0.3042
 2095SOL    HW217745   0.754   0.711   4.587  0.9018  0.3339 -0.3257
 2096SOL     OW17746   2.530   1.421   8.042 -0.0378 -0.2724 -0.0089
 2096SOL    HW117747   2.568   1.407   8.129  1.8978  1.8856 -0.5079
 2096SOL    HW217748   2.447   1.374   8.050  0.4769 -1.0595  0.6653
 2097SOL     OW17749   3.934   2.658   0.414 -0.0947 -0.5037  0.2295
 2097SOL    HW117750   3.896   2.676   0.501 -1.4280 -1.1518 -0.2197
 2097SOL    HW217751   4.010   2.717   0.411 -0.9285  0.5849  0.2286
 2098SOL     OW17752   1.348   0.029   8.026  0.1997 -0.1846  0.5130
 2098SOL    HW117753   1.302   0.085   7.964 -0.8124  1.7541  2.9957
 2098SOL    HW217754   1.438   0.056   8.010 -0.7557  2.3741 -0.4889
 2099SOL     OW17755   1.592   2.102   6.600 -0.0783  0.0379 -0.3321
 2099SOL    HW117756   1.548   2.187   6.601  0.2685  0.2279 -1.3827
 2099SOL    HW217757   1.682   2.125   6.575  0.0795 -0.0419  0.1609
 2100SOL     OW17758   1.257   2.958  13.979  0.4262 -0.2404 -0.1676
 2100SOL    HW117759   1.315   3.027  14.012  0.2857 -0.0588 -0.3030
 2100SOL    HW217760   1.200   2.951  14.055  1.2876 -1.6257  0.3566
 2101SOL     OW17761   3.727   1.206  10.860  0.5350  0.0151 -0.7696
 2101SOL    HW117762   3.734   1.291  10.904 -1.1612 -0.3562  0.2393
 2101SOL    HW217763   3.657   1.171  10.915  2.3557 -2.4232 -0.0016
 2102SOL     OW17764   4.723   4.506   5.527 -0.5229 -0.2161 -0.5967
 2102SOL    HW117765   4.653   4.450   5.560 -1.0327 -0.2062 -1.6647
 2102SOL    HW217766   0.053   4.446   5.476 -0.0149  0.9403 -1.4425
 2103SOL     OW17767   4.570   4.430   4.803  0.0456 -0.4218  0.3911
 2103SOL    HW117768   4.656   4.439   4.763  0.7455 -0.6763  1.8562
 2103SOL    HW217769   4.589   4.446   4.895  0.9690  2.0286 -0.2271
 2104SOL     OW17770   4.060   0.882   4.770 -0.1889  0.3743 -0.4505
 2104SOL    HW117771   4.077   0.959   4.825  0.0979  0.2637 -0.3809
 2104SOL    HW217772   4.135   0.895   4.712  0.1565 -2.3557 -0.6126
 2105SOL     OW17773   1.322   3.081   0.130  0.6171  0.8564  0.0868
 2105SOL    HW117774   1.264   3.121   0.195  0.8705 -2.1602  2.1930
 2105SOL    HW217775   1.408   3.092   0.169  1.9302 -0.7339 -2.3634
 2106SOL     OW17776   3.945   4.175   1.925 -0.0017 -0.1513 -0.2347
 2106SOL    HW117777   4.009   4.105   1.940 -1.3072 -1.7310 -1.8706
 2106SOL    HW217778   3.974   4.212   1.841  0.8601  0.0232  0.1448
 2107SOL     OW17779   0.750   0.133  16.368  0.2203 -0.1076 -0.6392
 2107SOL    HW117780   0.660   0.106  16.384  0.8159 -1.7204  0.0239
 2107SOL    HW217781   0.739   0.178  16.285  0.9503 -2.1465 -1.8528
 2108SOL     OW17782   0.960   1.877   7.829  0.7982  0.0255 -0.5858
 2108SOL    HW117783   0.882   1.877   7.884  0.4974 -0.5317 -1.0253
 2108SOL    HW217784   1.007   1.948   7.873  2.8985 -1.5536 -0.2849
 2109SOL     OW17785   1.859   2.194   6.297 -0.2056  0.2768 -0.5720
 2109SOL    HW117786   1.954   2.200   6.287 -0.2043  0.8667 -0.1626
 2109SOL    HW217787   1.851   2.175   6.390 -1.0997  0.6689 -0.5644
 2110SOL     OW17788   3.908   3.278  14.526  0.3193 -0.2440  0.6040
 2110SOL    HW117789   3.893   3.196  14.478 -0.1730 -0.5812  1.3386
 2110SOL    HW217790   4.000   3.297  14.514 -0.0039 -1.4786 -3.7951
 2111SOL     OW17791   1.601   1.274   3.439 -0.1552  0.0573 -0.4548
 2111SOL    HW117792   1.692   1.258   3.414  0.0867 -0.1948  0.5794
 2111SOL    HW217793   1.577   1.199   3.493 -0.1627  2.0707  2.3066
 2112SOL     OW17794   1.513   1.632   5.081  0.5379 -0.2272 -0.3555
 2112SOL    HW117795   1.581   1.570   5.053  1.2987 -0.5970  2.3140
 2112SOL    HW217796   1.445   1.578   5.123  0.1010 -1.2945 -2.4593
 2113SOL     OW17797   4.461   0.015  15.240  0.4530 -1.1154  0.0548
 2113SOL    HW117798   4.454   4.697  15.326  1.5130 -0.2592  0.5600
 2113SOL    HW217799   4.408   0.092  15.259 -0.0555 -1.2473 -0.8461
 2114SOL     OW17800   1.498   2.836  17.696 -0.0772  0.7620  0.7084
 2114SOL    HW117801   1.481   2.875  17.610  0.5322  0.7263  0.5711
 2114SOL    HW217802   1.454   2.895   0.059 -0.7134  1.8205 -0.7758
 2115SOL     OW17803   1.626   3.307   8.948  0.0295  0.2007 -0.3777
 2115SOL    HW117804   1.659   3.219   8.968 -0.2737 -0.0815 -1.1256
 2115SOL    HW217805   1.546   3.327   8.996  1.3732  0.1008  1.9138
 2116SOL     OW17806   2.730   0.571  15.653  0.3617 -0.2015 -0.0593
 2116SOL    HW117807   2.781   0.537  15.726  0.6194  0.5611  0.1142
 2116SOL    HW217808   2.769   0.658  15.641 -1.5464  0.4996 -1.2261
 2117SOL     OW17809   0.875   3.277  15.091 -0.5725 -0.0238 -0.2139
 2117SOL    HW117810   0.840   3.350  15.142  1.5976  1.0437 -0.2294
 2117SOL    HW217811   0.847   3.301  15.003 -0.6966  1.0069  0.1059
 2118SOL     OW17812   3.909   0.704   7.488 -0.0912 -0.4860  0.2517
 2118SOL    HW117813   3.973   0.761   7.446 -2.2055  0.5026 -1.6382
 2118SOL    HW217814   3.899   0.743   7.575  0.5216  0.2733 -0.0191
 2119SOL     OW17815   1.883   0.174  14.984 -0.3156 -0.2483 -0.5610
 2119SOL    HW117816   1.893   0.117  14.908 -2.4067  0.7159 -1.5442
 2119SOL    HW217817   1.973   0.175  15.018 -0.7851 -0.7732  0.6972
 2120SOL     OW17818   3.059   0.135   6.433  0.2090  0.0573 -0.6814
 2120SOL    HW117819   3.078   0.043   6.452  3.0052  0.5626 -1.0144
 2120SOL    HW217820   3.150   0.165   6.427  1.1143 -2.3827  0.8165
 2121SOL     OW17821   2.676   3.931   5.375 -0.2962 -0.1369 -0.4734
 2121SOL    HW117822   2.727   3.905   5.452 -0.0144 -1.6432 -1.1736
 2121SOL    HW217823   2.684   3.850   5.326  0.4989  0.0244 -0.6068
 2122SOL     OW17824   1.150   1.996   2.825 -0.5613  1.0389  0.2240
 2122SOL    HW117825   1.058   1.976   2.811 -0.6052  1.1898  0.3015
 2122SOL    HW217826   1.167   2.038   2.741  0.3562  2.9215  1.3371
 2123SOL     OW17827   0.360   1.875   8.205 -0.1850  0.4750 -0.8340
 2123SOL    HW117828   0.325   1.961   8.230 -0.6205  0.3116 -0.8778
 2123SOL    HW217829   0.406   1.906   8.127  0.6501  1.3181 -0.0112
 2124SOL     OW17830   3.851   1.249  10.258 -0.4598 -0.0140 -0.0516
 2124SOL    HW117831   3.913   1.207  10.319 -1.0104 -2.0458 -0.8966
 2124SOL    HW217832   3.778   1.280  10.311  0.1625  1.4115 -0.0074
 2125SOL     OW17833   2.002   2.206  17.383 -0.3289 -0.4872 -0.5551
 2125SOL    HW117834   1.968   2.219  17.472 -0.2814  0.0214 -0.6096
 2125SOL    HW217835   1.996   2.111  17.382 -1.3674 -0.4596  1.8841
 2126SOL     OW17836   3.246   2.655   2.728  0.1125 -0.0019  0.0772
 2126SOL    HW117837   3.249   2.586   2.662 -1.5560 -0.3542  0.3544
 2126SOL    HW217838   3.167   2.696   2.694  0.2629  0.2017 -0.0236
 2127SOL     OW17839   0.363   3.558   8.819 -0.1293 -0.1905  0.1057
 2127SOL    HW117840   0.333   3.504   8.892  1.4319 -1.5069 -0.2344
 2127SOL    HW217841   0.450   3.566   8.859 -0.2800 -1.7547  0.7325
 2128SOL     OW17842   1.396   2.826   3.330 -0.0917 -0.5890 -0.6427
 2128SOL    HW117843   1.328   2.823   3.262  0.3486  1.2528 -1.1817
 2128SOL    HW217844   1.474   2.800   3.282  0.6235 -1.5262  1.0573
 2129SOL     OW17845   1.223   2.795   3.120 -0.6274  0.5337  0.3514
 2129SOL    HW117846   1.235   2.857   3.048  1.1133 -0.7116 -0.4402
 2129SOL    HW217847   1.229   2.709   3.078  0.1673  1.6669 -1.8405
 2130SOL     OW17848   4.216   1.811   8.632 -0.3268  0.7619  0.1547
 2130SOL    HW117849   4.312   1.811   8.636 -0.3423 -2.0481  0.8140
 2130SOL    HW217850   4.202   1.887   8.689 -1.3818  1.2064 -0.7183
 2131SOL     OW17851   3.258   0.464   7.071 -0.6231  0.4177 -0.3156
 2131SOL    HW117852   3.230   0.373   7.072 -2.0153  0.8202 -1.7347
 2131SOL    HW217853   3.302   0.471   7.155 -0.1734  0.5728 -0.5662
 2132SOL     OW17854   2.374   2.236   3.351  0.4000  0.0835 -0.0847
 2132SOL    HW117855   2.394   2.263   3.262  1.3136  1.2035  0.4637
 2132SOL    HW217856   2.282   2.257   3.361 -0.4012 -3.0485 -0.8672
 2133SOL     OW17857   2.442   2.824   2.623  0.5110 -0.3164 -0.4085
 2133SOL    HW117858   2.442   2.881   2.546  2.0777  0.3514  0.0826
 2133SOL    HW217859   2.516   2.770   2.595 -0.3202 -1.4576 -0.3961
 2134SOL     OW17860   1.976   2.221   2.433 -0.0142  0.1536  0.2320
 2134SOL    HW117861   1.982   2.126   2.434 -0.9833  0.1021  0.6103
 2134SOL    HW217862   2.066   2.254   2.441  0.2938  0.1307 -3.1835
 2135SOL     OW17863   1.767   2.845  16.137 -0.2387  0.7956  0.1500
 2135SOL    HW117864   1.689   2.794  16.162 -0.3317 -0.4825 -2.6639
 2135SOL    HW217865   1.815   2.826  16.217  3.5510  0.0718 -2.2746
 2136SOL     OW17866   0.517   0.389   6.414 -0.2041 -0.2474 -0.8620
 2136SOL    HW117867   0.511   0.466   6.357  0.0709 -0.2875 -0.9462
 2136SOL    HW217868   0.459   0.322   6.378  1.6680 -1.7686 -1.0460
 2137SOL     OW17869   0.032   0.671   7.227  0.6603  0.4086 -0.2810
 2137SOL    HW117870   0.006   0.666   7.136 -0.5124 -1.8654  0.1942
 2137SOL    HW217871   4.690   0.731   7.263  0.1893 -0.4863  0.3394
 2138SOL     OW17872   1.042   3.677   5.123 -0.5556 -0.3461 -0.3766
 2138SOL    HW117873   0.976   3.681   5.054 -0.8394  2.6192  0.0533
 2138SOL    HW217874   0.996   3.615   5.178  0.4766  0.0874  0.9822
 2139SOL     OW17875   1.702   3.558   0.602 -0.1818 -0.7399  0.3204
 2139SOL    HW117876   1.699   3.470   0.564  1.9440 -0.7115  0.0755
 2139SOL    HW217877   1.774   3.603   0.559 -1.6873  1.5379  0.2256
 2140SOL     OW17878   4.313   0.143   1.855  0.0530  0.0845  0.1069
 2140SOL    HW117879   4.403   0.122   1.877  0.4162 -0.6999 -2.1203
 2140SOL    HW217880   4.285   0.085   1.784  2.2472 -1.4626  0.5290
 2141SOL     OW17881   1.345   1.754   3.305 -0.2133  0.2887 -0.5113
 2141SOL    HW117882   1.260   1.760   3.261 -0.1754 -0.9373 -0.7649
 2141SOL    HW217883   1.335   1.692   3.377  2.4769 -1.0639 -1.2750
 2142SOL     OW17884   2.087   1.079   5.974 -0.3722  0.3528 -0.5177
 2142SOL    HW117885   2.129   1.038   5.899 -0.2438 -0.4899  0.0105
 2142SOL    HW217886   2.078   1.008   6.038 -0.0022 -0.5087 -1.4371
 2143SOL     OW17887   4.097   1.064  14.010  0.1839  0.1723 -0.0249
 2143SOL    HW117888   4.149   1.134  14.050 -2.2282  1.5320  0.7554
 2143SOL    HW217889   4.144   0.990  14.048 -1.2049 -0.0766  1.1984
 2144SOL     OW17890   3.574   1.782   0.092  0.0286  0.2528 -0.1230
 2144SOL    HW117891   3.533   1.710   0.140 -0.7533  0.8107  0.0266
 2144SOL    HW217892   3.498   1.840   0.093  0.0239  0.2307  1.9596
 2145SOL     OW17893   3.241   1.555   0.198 -0.4073  0.4736 -0.1941
 2145SOL    HW117894   3.287   1.604   0.267  1.8918  0.1677 -1.5179
 2145SOL    HW217895   3.194   1.623   0.150  0.1324  0.4565 -0.7565
 2146SOL     OW17896   2.615   1.240  16.927 -0.1161 -0.1049 -0.2001
 2146SOL    HW117897   2.662   1.197  16.856  0.2653  0.7345 -0.4545
 2146SOL    HW217898   2.683   1.296  16.964 -1.0231  0.4386  0.6274
 2147SOL     OW17899   0.587   2.183  10.486 -0.4864  0.4047  0.4784
 2147SOL    HW117900   0.510   2.130  10.509 -0.0996  0.6029  2.2638
 2147SOL    HW217901   0.637   2.190  10.567  1.0073  1.0863 -0.5059
 2148SOL     OW17902   1.029   4.215   7.555  0.2956  0.2140  0.0183
 2148SOL    HW117903   1.066   4.303   7.559 -0.5585  0.7416 -3.8183
 2148SOL    HW217904   1.070   4.180   7.476  0.2767 -0.1885  0.1863
 2149SOL     OW17905   1.073   3.098  15.202  0.3185  0.2204 -0.2045
 2149SOL    HW117906   1.010   3.057  15.262 -0.7143  2.4950  0.2627
 2149SOL    HW217907   1.031   3.174  15.162 -1.2508  0.0988  1.1912
 2150SOL     OW17908   0.922   2.145   8.594 -0.3764  0.3512 -0.2308
 2150SOL    HW117909   0.864   2.217   8.568 -0.1929  1.2534  1.8488
 2150SOL    HW217910   1.002   2.174   8.551  0.2457 -0.5961  0.2797
 2151SOL     OW17911   4.364   0.494   6.236  0.2751 -0.7287  0.6881
 2151SOL    HW117912   4.323   0.411   6.214  1.0902 -0.5439 -1.5491
 2151SOL    HW217913   4.287   0.551   6.236 -0.3855 -1.6243 -0.2069
 2152SOL     OW17914   1.467   1.020  12.983 -0.4761 -0.2822  0.2969
 2152SOL    HW117915   1.442   0.988  12.897  0.0687 -1.9614  0.7602
 2152SOL    HW217916   1.420   0.957  13.038 -0.9275 -0.0645  0.1633
 2153SOL     OW17917   0.779   1.126   5.706  0.0283  0.0052 -0.1863
 2153SOL    HW117918   0.862   1.156   5.669  0.5453 -0.5810  0.4856
 2153SOL    HW217919   0.789   1.172   5.790  0.6971  0.7930 -0.7009
 2154SOL     OW17920   0.594   3.033   2.321  0.2917 -0.0816  0.6270
 2154SOL    HW117921   0.600   2.966   2.253  0.4627  1.0288 -0.4439
 2154SOL    HW217922   0.524   3.093   2.296 -0.6197 -0.4629  2.2592
 2155SOL     OW17923   0.617   4.626   2.635  0.1183  0.1793  0.0913
 2155SOL    HW117924   0.574   4.625   2.549  1.3572  1.6555 -0.5470
 2155SOL    HW217925   0.538   4.642   2.687  1.8038  1.2777  2.3049
 2156SOL     OW17926   2.208   1.536   6.681 -0.0871 -0.0652  0.1528
 2156SOL    HW117927   2.161   1.605   6.635 -1.1375 -1.3905 -0.7617
 2156SOL    HW217928   2.177   1.551   6.770  2.0384  0.2280  0.8543
 2157SOL     OW17929   1.996   1.014   5.278 -0.0020 -0.4303  0.0833
 2157SOL    HW117930   1.993   0.993   5.372 -0.0298  0.4513  0.2765
 2157SOL    HW217931   1.953   0.939   5.236 -2.0274  0.5490  0.4369
 2158SOL     OW17932   1.348   0.850  15.339 -0.4243 -0.4557 -0.2575
 2158SOL    HW117933   1.352   0.829  15.246 -1.7134  1.0450 -0.6369
 2158SOL    HW217934   1.356   0.763  15.380  0.9408  0.6016  1.7261
 2159SOL     OW17935   2.812   1.650   5.663  0.1536 -0.4502 -0.3779
 2159SOL    HW117936   2.768   1.605   5.591 -1.1304 -0.0985  0.2017
 2159SOL    HW217937   2.873   1.709   5.618 -0.0949  0.1766  0.1129
 2160SOL     OW17938   3.532   3.909  12.537 -0.4195 -0.1643 -0.3016
 2160SOL    HW117939   3.604   3.930  12.478  0.6604 -1.1368  0.6918
 2160SOL    HW217940   3.480   3.989  12.526  0.0170  0.0715 -0.6489
 2161SOL     OW17941   0.646   2.900   2.081 -0.2221  0.1779 -0.0107
 2161SOL    HW117942   0.695   2.850   2.016 -0.1426  1.1714 -0.7249
 2161SOL    HW217943   0.669   2.993   2.075 -0.1752  0.2913  1.7901
 2162SOL     OW17944   4.153   2.262  17.530 -0.2264  0.2756 -0.1944
 2162SOL    HW117945   4.124   2.352  17.541  0.9007  0.3455  2.1027
 2162SOL    HW217946   4.157   2.227  17.619  0.8501  0.3026 -0.2267
 2163SOL     OW17947   3.878   4.683   5.495 -0.3238  0.2556 -0.2651
 2163SOL    HW117948   3.834   4.673   5.580  0.8979  1.5078  0.5162
 2163SOL    HW217949   3.968   4.657   5.516 -0.8534 -1.0061  0.4358
 2164SOL     OW17950   1.640   2.552  12.755 -0.7435 -0.0409 -0.3735
 2164SOL    HW117951   1.556   2.578  12.717  0.3391  0.5287 -2.3696
 2164SOL    HW217952   1.707   2.579  12.693 -1.3772  0.9005 -0.6537
 2165SOL     OW17953   1.793   1.099   9.148  0.0053 -0.4231  0.2378
 2165SOL    HW117954   1.770   1.095   9.241 -0.7915  0.9155  0.0922
 2165SOL    HW217955   1.887   1.089   9.159  0.0387 -0.9637 -0.4861
 2166SOL     OW17956   1.304   0.921   8.894  0.6082  0.5123  0.1964
 2166SOL    HW117957   1.319   0.875   8.811 -1.6909 -0.0556  0.0713
 2166SOL    HW217958   1.363   0.878   8.955  1.7452  1.2406 -0.3982
 2167SOL     OW17959   2.295   0.383   2.589 -0.0253  0.2125 -0.1881
 2167SOL    HW117960   2.354   0.353   2.659  0.8417 -0.1407 -1.0666
 2167SOL    HW217961   2.357   0.389   2.516  2.0057 -3.8642  1.1367
 2168SOL     OW17962   1.239   0.556   7.189  0.1624  0.3991  0.3143
 2168SOL    HW117963   1.285   0.640   7.197 -0.7535  0.8926  0.4580
 2168SOL    HW217964   1.310   0.494   7.174 -0.4529 -0.5045  1.1936
 2169SOL     OW17965   2.341   4.401   1.167 -0.0483  0.3463  0.2168
 2169SOL    HW117966   2.308   4.338   1.102 -1.0492  1.3015 -0.2100
 2169SOL    HW217967   2.324   4.485   1.124  0.8843 -0.7661 -2.3415
 2170SOL     OW17968   1.693   0.363   7.310 -0.0012 -0.4370  0.4454
 2170SOL    HW117969   1.699   0.269   7.331  1.0457 -0.4708  0.0239
 2170SOL    HW217970   1.774   0.374   7.361  0.7499 -3.1649 -0.1165
 2171SOL     OW17971   1.321   0.157   0.817  0.3282  0.4099 -0.1655
 2171SOL    HW117972   1.331   0.225   0.884  0.0952 -0.0333  0.3194
 2171SOL    HW217973   1.334   0.074   0.863 -0.1254  0.0997 -0.6051
 2172SOL     OW17974   0.710   0.031  13.608  0.0315 -0.4392  0.1787
 2172SOL    HW117975   0.678   4.691  13.671 -0.9405 -1.2717 -1.1570
 2172SOL    HW217976   0.799   0.002  13.590  1.0076  2.6010  0.1799
 2173SOL     OW17977   1.802   3.388   2.630 -0.8776  0.0395 -0.4958
 2173SOL    HW117978   1.885   3.345   2.651 -1.0961  0.3140  0.8794
 2173SOL    HW217979   1.766   3.373   2.717 -0.6793 -1.9626 -0.7723
 2174SOL     OW17980   2.593   3.356  13.344 -0.0268  0.2782  0.2734
 2174SOL    HW117981   2.688   3.359  13.332 -0.0679  0.6043  0.0130
 2174SOL    HW217982   2.599   3.393  13.432 -2.8383 -1.1389  1.0831
 2175SOL     OW17983   3.307   2.747   3.884 -0.3597 -0.1310  0.9179
 2175SOL    HW117984   3.370   2.779   3.949  0.9027 -2.5646  0.8839
 2175SOL    HW217985   3.313   2.814   3.815  2.0016  1.0300  2.2486
 2176SOL     OW17986   2.928   0.199   5.351  0.6979 -0.2597 -0.1820
 2176SOL    HW117987   2.904   0.269   5.411 -1.2729  0.0284 -1.3212
 2176SOL    HW217988   2.942   0.123   5.407 -1.0827  1.2992  2.3723
 2177SOL     OW17989   1.444   0.824  15.081  0.0020  0.2542  0.7427
 2177SOL    HW117990   1.479   0.910  15.057  1.8424 -1.0809 -1.3107
 2177SOL    HW217991   1.526   0.777  15.092 -1.5389 -3.0232 -1.7868
 2178SOL     OW17992   0.619   0.203   7.422  0.3315  0.0401  0.0529
 2178SOL    HW117993   0.591   0.202   7.513  0.8036  0.1351  0.2018
 2178SOL    HW217994   0.574   0.122   7.398  3.0369 -1.7052  0.8632
 2179SOL     OW17995   0.499   0.154   1.742  0.0578 -0.1853  0.6640
 2179SOL    HW117996   0.423   0.122   1.790 -0.9951 -1.4711 -1.8531
 2179SOL    HW217997   0.466   0.148   1.653  0.1516  1.0613  0.5445
 2180SOL     OW17998   4.491   4.592   4.100  0.6419 -0.0074  0.3845
 2180SOL    HW117999   4.485   4.606   4.006  2.0642  1.8208  0.5713
 2180SOL    HW218000   4.585   4.585   4.113  1.0290  2.7162 -0.8986
 2181SOL     OW18001   4.149   2.003   5.225 -0.0183  0.2269 -0.2450
 2181SOL    HW118002   4.182   2.091   5.246 -0.1521  0.2336 -0.0644
 2181SOL    HW218003   4.088   1.977   5.294  3.6739 -0.6802  2.6951
 2182SOL     OW18004   1.418   0.203   3.202  0.3823 -0.3871 -0.0735
 2182SOL    HW118005   1.436   0.256   3.124  0.1156  0.0870  0.1845
 2182SOL    HW218006   1.504   0.161   3.206  0.8433  0.8018  2.5495
 2183SOL     OW18007   0.923   1.167   9.818  0.3594  0.0058  0.4462
 2183SOL    HW118008   0.958   1.215   9.743  1.4170  1.2758  1.7670
 2183SOL    HW218009   0.897   1.090   9.767  0.3002  1.3072 -1.4639
 2184SOL     OW18010   1.230   2.740   7.485  0.4387 -0.9146  0.0631
 2184SOL    HW118011   1.156   2.695   7.444 -2.7837  1.6254  3.0890
 2184SOL    HW218012   1.181   2.813   7.523  0.3650 -1.0388  0.2071
 2185SOL     OW18013   2.776   1.255  12.301  0.0665 -0.0979  0.0472
 2185SOL    HW118014   2.796   1.241  12.393  0.4276 -3.6192 -0.5517
 2185SOL    HW218015   2.741   1.344  12.299 -1.5562 -0.7392 -0.6013
 2186SOL     OW18016   4.403   1.175   9.020  0.3958  0.2065  0.0288
 2186SOL    HW118017   4.497   1.154   9.014  0.1351 -0.8759 -0.3096
 2186SOL    HW218018   4.409   1.254   8.967  1.7562  0.6616  0.8554
 2187SOL     OW18019   0.437   2.624   6.103 -0.0260 -0.2730 -0.4052
 2187SOL    HW118020   0.436   2.562   6.030  0.5785 -0.0507 -0.5956
 2187SOL    HW218021   0.390   2.569   6.166  0.9275 -1.5932 -0.8540
 2188SOL     OW18022   0.734   4.482   8.175  0.4733  0.6755 -0.0106
 2188SOL    HW118023   0.827   4.462   8.187  0.3044 -0.6689 -0.9806
 2188SOL    HW218024   0.735   4.566   8.129  0.7285  0.1094 -1.0174
 2189SOL     OW18025   3.959   2.396   3.584 -0.1505 -0.0925 -0.0496
 2189SOL    HW118026   3.869   2.427   3.593  0.6156  2.3586 -0.8725
 2189SOL    HW218027   3.954   2.339   3.507  0.7075 -1.8542  1.1787
 2190SOL     OW18028   4.455   2.344  16.784 -0.3777 -0.0206 -0.4105
 2190SOL    HW118029   4.522   2.372  16.846 -1.0391  1.8756 -0.5396
 2190SOL    HW218030   4.448   2.251  16.806  2.3521  0.2545  1.5503
 2191SOL     OW18031   2.083   0.032  15.098 -0.1988 -0.0300 -0.2038
 2191SOL    HW118032   2.083   4.708  15.016  1.3764  0.3004 -0.3900
 2191SOL    HW218033   2.026   4.701  15.152 -0.0520  1.8380  1.8609
 2192SOL     OW18034   4.340   1.429   5.885  0.1616 -0.3401 -0.8480
 2192SOL    HW118035   4.414   1.388   5.930  0.2011  0.3366 -0.2921
 2192SOL    HW218036   4.365   1.519   5.908 -1.9258  0.4365 -1.6427
 2193SOL     OW18037   1.076   3.541   3.907 -0.0466 -0.3189 -0.5631
 2193SOL    HW118038   1.021   3.471   3.874 -1.0371 -0.1129  0.6788
 2193SOL    HW218039   1.016   3.615   3.904  1.3242  0.8184 -0.3801
 2194SOL     OW18040   4.281   3.969   3.637  0.3892  0.1233 -0.2407
 2194SOL    HW118041   4.271   3.890   3.690 -0.8789  0.2425 -0.2928
 2194SOL    HW218042   4.285   4.030   3.711  0.7743  0.0138 -0.1696
 2195SOL     OW18043   1.212   3.352  15.561  0.4549 -0.3469  0.2747
 2195SOL    HW118044   1.230   3.442  15.533  2.3542 -1.0547 -0.7403
 2195SOL    HW218045   1.232   3.347  15.654  2.2170 -0.2707 -0.1074
 2196SOL     OW18046   1.717   4.320   6.232 -0.2335  0.0182  0.8392
 2196SOL    HW118047   1.755   4.291   6.149 -0.4878  0.1611  0.6716
 2196SOL    HW218048   1.628   4.285   6.227 -0.4761  0.4908  1.8453
 2197SOL     OW18049   0.681   1.007   2.542  0.1664  0.5148 -0.1861
 2197SOL    HW118050   0.763   0.996   2.590  0.2976 -0.0883 -0.5481
 2197SOL    HW218051   0.710   1.028   2.453 -0.7857  0.7920 -0.4289
 2198SOL     OW18052   1.363   3.457   7.329  0.3385 -0.4520  0.3441
 2198SOL    HW118053   1.291   3.508   7.366  1.2477  1.0136  0.0899
 2198SOL    HW218054   1.370   3.384   7.390  0.9218  0.6631  1.5921
 2199SOL     OW18055   3.513   3.504   6.448  0.7772  0.4593  0.0114
 2199SOL    HW118056   3.432   3.537   6.486  0.1282  0.0398 -1.0112
 2199SOL    HW218057   3.482   3.490   6.358  0.0003  2.6326 -0.0842
 2200SOL     OW18058   1.409   1.917   5.664  0.3153  0.0418  0.3279
 2200SOL    HW118059   1.357   1.923   5.744  1.4648 -0.2331  1.0774
 2200SOL    HW218060   1.366   1.838   5.629  1.4390 -0.8333  0.9558
 2201SOL     OW18061   0.691   2.414   7.687  0.1744 -0.1990  0.1428
 2201SOL    HW118062   0.712   2.504   7.662 -0.8914 -0.1596 -0.5972
 2201SOL    HW218063   0.606   2.415   7.731 -0.1677 -0.6554 -0.5181
 2202SOL     OW18064   0.091   1.567   1.804  0.1213  0.2205  0.2882
 2202SOL    HW118065   0.049   1.482   1.816  0.7646 -0.2270 -0.5722
 2202SOL    HW218066   0.029   1.621   1.853 -1.2636 -0.6071 -0.5717
 2203SOL     OW18067   0.699   3.934  11.850  0.0192  0.9584 -0.0186
 2203SOL    HW118068   0.776   3.935  11.908  0.1738 -1.4796 -0.2016
 2203SOL    HW218069   0.670   4.025  11.852  2.9949  1.9062  0.6780
 2204SOL     OW18070   3.806   2.253  15.200  0.0569 -0.2486  0.5044
 2204SOL    HW118071   3.875   2.316  15.222  0.8377  0.0081 -2.7064
 2204SOL    HW218072   3.817   2.246  15.105 -2.8511  1.3658  0.0420
 2205SOL     OW18073   3.386   3.925   7.392  0.6337 -0.2846  0.7390
 2205SOL    HW118074   3.474   3.887   7.392  0.2685 -1.1530 -0.5526
 2205SOL    HW218075   3.334   3.851   7.422 -0.5382  1.1555  2.2880
 2206SOL     OW18076   1.127   0.112   3.100  0.0354  0.3079 -0.4689
 2206SOL    HW118077   1.176   0.032   3.118  2.1863  1.7998  0.4363
 2206SOL    HW218078   1.052   0.075   3.055 -0.0536 -0.0528 -0.0224
 2207SOL     OW18079   2.128   2.644   1.555  0.7996  0.6616  0.1343
 2207SOL    HW118080   2.137   2.554   1.584  2.9539  1.5079  2.1180
 2207SOL    HW218081   2.208   2.681   1.593  1.9024 -1.0707 -0.5568
 2208SOL     OW18082   2.392   2.271   0.051  0.1902 -0.0499 -0.3886
 2208SOL    HW118083   2.411   2.325   0.127 -1.7907 -1.7702  1.3185
 2208SOL    HW218084   2.298   2.287   0.045  0.1426 -0.4890 -0.8425
 2209SOL     OW18085   0.342   1.966   1.484 -0.4395 -0.0606 -0.6698
 2209SOL    HW118086   0.250   1.975   1.459 -0.8542 -0.1617  0.8591
 2209SOL    HW218087   0.378   1.964   1.395  2.2038 -1.5785  0.4630
 2210SOL     OW18088   3.455   3.480   4.804  0.3897  0.2931 -0.1007
 2210SOL    HW118089   3.481   3.530   4.727 -1.3552  0.0929 -0.8184
 2210SOL    HW218090   3.444   3.550   4.869  0.9418  0.2341  0.0583
 2211SOL     OW18091   2.492   0.252   1.525 -0.3419  0.4191 -0.1258
 2211SOL    HW118092   2.501   0.340   1.489 -1.2512  0.8544  0.7204
 2211SOL    HW218093   2.482   0.206   1.442 -2.2284 -0.2410  0.4606
 2212SOL     OW18094   2.489   0.717   5.299 -0.2823 -0.1390  0.1195
 2212SOL    HW118095   2.553   0.711   5.228  1.1831 -0.5161  1.4466
 2212SOL    HW218096   2.544   0.746   5.372 -0.4267  0.0257  0.1614
 2213SOL     OW18097   1.845   2.216   6.577 -0.0626  0.3162 -0.3712
 2213SOL    HW118098   1.816   2.297   6.536 -0.7040 -1.4540 -3.4296
 2213SOL    HW218099   1.880   2.253   6.658 -2.4568 -1.4926  1.4929
 2214SOL     OW18100   1.275   2.969  14.789 -0.3257  0.0108 -0.9303
 2214SOL    HW118101   1.367   2.989  14.804 -0.4567 -0.5727  0.6812
 2214SOL    HW218102   1.239   2.987  14.877  1.0933 -0.4817 -0.2595
 2215SOL     OW18103   4.216   2.825   2.702  0.3775 -0.1731  0.4222
 2215SOL    HW118104   4.149   2.758   2.687 -0.2234  0.0047  2.2401
 2215SOL    HW218105   4.220   2.825   2.798 -1.7076 -1.0594  0.5102
 2216SOL     OW18106   2.323   1.550   0.784 -0.7138 -0.2414  0.2107
 2216SOL    HW118107   2.386   1.500   0.732  2.8486  0.1442  4.2138
 2216SOL    HW218108   2.339   1.638   0.749  1.3093 -0.3108  0.9272
 2217SOL     OW18109   1.575   2.649   1.372 -0.0761  0.0454 -0.0161
 2217SOL    HW118110   1.482   2.650   1.350 -0.4505  0.7242  1.6029
 2217SOL    HW218111   1.576   2.717   1.440 -0.8092  1.3484 -1.3195
 2218SOL     OW18112   2.883   2.649   7.747 -0.0671 -0.2927 -0.5844
 2218SOL    HW118113   2.788   2.647   7.733 -0.5282  0.1331  2.5658
 2218SOL    HW218114   2.903   2.654   7.654 -1.0257 -3.2506 -0.9686
 2219SOL     OW18115   0.655   3.546  15.702 -0.1639  0.3290 -0.4617
 2219SOL    HW118116   0.640   3.625  15.650 -2.1018  0.8923  0.9529
 2219SOL    HW218117   0.740   3.513  15.672 -0.3310 -0.4954 -0.0434
 2220SOL     OW18118   2.084   1.668   5.861  0.1064 -0.2000 -0.0652
 2220SOL    HW118119   2.131   1.696   5.939  0.7072 -1.0286 -0.1402
 2220SOL    HW218120   2.026   1.608   5.907 -0.0080  0.7178  0.9852
 2221SOL     OW18121   4.362   3.876   8.910  0.1111  0.4951  0.1637
 2221SOL    HW118122   4.382   3.819   8.984 -0.5719 -0.3313 -0.2746
 2221SOL    HW218123   4.277   3.835   8.892  1.3487 -1.5339 -1.0812
 2222SOL     OW18124   2.256   1.248  11.581  0.3548  0.7766 -0.1426
 2222SOL    HW118125   2.217   1.267  11.666 -2.9425  1.5756 -1.8144
 2222SOL    HW218126   2.347   1.272  11.596  0.5436  1.3274 -2.1225
 2223SOL     OW18127   3.229   0.343   1.037  0.4052 -0.2092  0.4363
 2223SOL    HW118128   3.215   0.413   0.973  0.6245 -0.0239  0.5912
 2223SOL    HW218129   3.210   0.266   0.983  2.0643  0.4238 -1.0643
 2224SOL     OW18130   2.174   2.288   4.640  0.6904 -0.3415 -0.0423
 2224SOL    HW118131   2.248   2.315   4.693  1.7723 -2.2345 -0.6051
 2224SOL    HW218132   2.213   2.209   4.603  1.1197 -0.0376 -0.2321
 2225SOL     OW18133   2.143   3.959   5.368 -0.0528  0.3083  0.5185
 2225SOL    HW118134   2.222   3.954   5.421 -0.4586  0.3103  1.1233
 2225SOL    HW218135   2.082   3.958   5.441  1.5149  2.3611  1.8614
 2226SOL     OW18136   0.129   0.987  16.803  0.3490  0.0414  0.3611
 2226SOL    HW118137   0.076   0.931  16.859 -1.2846  1.2750  0.0413
 2226SOL    HW218138   0.077   0.984  16.723  1.7356 -0.8017 -0.5241
 2227SOL     OW18139   4.085   1.281  12.420  0.1653  0.0528 -0.1013
 2227SOL    HW118140   4.025   1.231  12.476  1.7200 -1.9260 -0.2116
 2227SOL    HW218141   4.054   1.371  12.430  1.6425  0.5843 -0.3636
 2228SOL     OW18142   0.110   3.740   1.216 -0.0111  0.4635 -0.3094
 2228SOL    HW118143   0.168   3.816   1.217 -0.3092  0.6858  0.3638
 2228SOL    HW218144   0.038   3.776   1.164 -1.3985 -0.6263  0.8551
 2229SOL     OW18145   2.053   0.916   0.288  0.0611  0.2231 -0.1141
 2229SOL    HW118146   2.056   0.828   0.251 -0.2052  0.9501 -1.8740
 2229SOL    HW218147   2.100   0.899   0.370  0.5894  1.0979 -0.2274
 2230SOL     OW18148   1.893   1.009   6.267  0.5964 -0.0888 -0.0571
 2230SOL    HW118149   1.880   1.095   6.228  0.7136 -0.3014 -0.5727
 2230SOL    HW218150   1.809   0.967   6.286  1.8308 -2.2568  0.6901
 2231SOL     OW18151   3.541   3.665  13.324 -0.4990  0.0341  0.3063
 2231SOL    HW118152   3.524   3.752  13.359  0.8573  0.3606  0.1757
 2231SOL    HW218153   3.616   3.684  13.267 -0.8997 -0.4986 -0.3995
 2232SOL     OW18154   3.588   1.275   7.914 -0.5154  0.3490  0.3431
 2232SOL    HW118155   3.550   1.188   7.921 -1.6996  0.8761  0.3558
 2232SOL    HW218156   3.671   1.250   7.955  1.0400  0.6723 -2.6037
 2233SOL     OW18157   3.530   2.656  14.805  0.0436  0.1724  0.0654
 2233SOL    HW118158   3.436   2.667  14.818  0.1107  1.0581 -0.1457
 2233SOL    HW218159   3.544   2.708  14.726  1.8513 -1.8475 -0.9333
 2234SOL     OW18160   2.601   0.977  10.923 -0.4979  0.0241  0.3683
 2234SOL    HW118161   2.648   0.894  10.919  0.7032  0.7897 -0.8998
 2234SOL    HW218162   2.669   1.044  10.915 -0.3894 -0.2579 -0.9786
 2235SOL     OW18163   4.467   4.107  11.325  0.2849  0.9789 -0.5006
 2235SOL    HW118164   4.392   4.102  11.385  2.9637  2.0714  2.9136
 2235SOL    HW218165   4.532   4.072  11.386 -2.1089 -0.9398  0.9442
 2236SOL     OW18166   1.347   3.873   8.579  0.6552 -0.3735 -0.3089
 2236SOL    HW118167   1.349   3.968   8.583  0.8143 -0.3720 -0.4607
 2236SOL    HW218168   1.261   3.856   8.619  0.2105 -1.5744 -1.8075
 2237SOL     OW18169   1.681   3.428   4.623  0.3971  0.2202 -0.5955
 2237SOL    HW118170   1.671   3.467   4.709  0.1164 -0.0929 -0.4892
 2237SOL    HW218171   1.735   3.495   4.580 -0.6630  0.6918 -1.2105
 2238SOL     OW18172   1.969   0.631   6.524 -0.3373  0.5001 -0.1320
 2238SOL    HW118173   1.905   0.647   6.594 -1.4867  0.7176 -1.2300
 2238SOL    HW218174   1.989   0.724   6.534 -1.9094  0.9372 -1.0369
 2239SOL     OW18175   0.241   3.236  17.305  0.0190  0.0657  0.0604
 2239SOL    HW118176   0.169   3.199  17.255 -0.5342 -1.7000  2.1545
 2239SOL    HW218177   0.275   3.150  17.328  1.1553  1.0207  1.9714
 2240SOL     OW18178   2.337   3.070   3.687  0.0233  0.1089  0.8016
 2240SOL    HW118179   2.302   3.072   3.598  1.6235  1.6368  0.2144
 2240SOL    HW218180   2.274   3.009   3.725  1.7197 -0.7727  2.2574
 2241SOL     OW18181   4.168   1.209  15.992  0.3153 -0.6434  0.0706
 2241SOL    HW118182   4.090   1.234  15.942  0.1546  1.7565  1.5310
 2241SOL    HW218183   4.232   1.273  15.961 -0.4366 -0.1601 -0.4958
 2242SOL     OW18184   4.543   4.090  16.824 -0.0264  0.2881  0.0221
 2242SOL    HW118185   4.522   4.060  16.913  0.3913 -0.5303 -0.1477
 2242SOL    HW218186   4.624   4.042  16.806  1.6224  1.7104  3.7083
 2243SOL     OW18187   1.204   0.591   5.651 -0.6001  0.3547 -0.3058
 2243SOL    HW118188   1.149   0.526   5.695  0.6506  0.9128  2.1055
 2243SOL    HW218189   1.233   0.545   5.572  0.4022 -1.8385  1.3165
 2244SOL     OW18190   4.587   2.216   7.857  0.3785  0.2027 -0.1943
 2244SOL    HW118191   4.548   2.301   7.836 -1.1199 -1.3510 -3.7239
 2244SOL    HW218192   4.553   2.206   7.946  2.4621 -0.8508  0.4921
 2245SOL     OW18193   0.963   1.465   8.000  0.3824 -0.1111 -0.4115
 2245SOL    HW118194   0.980   1.513   7.919 -0.5562  1.5571  0.3816
 2245SOL    HW218195   0.912   1.534   8.043 -0.2928 -0.0724 -1.2770
 2246SOL     OW18196   0.567   1.600   1.560 -0.5731  0.0468  0.3292
 2246SOL    HW118197   0.480   1.576   1.593 -1.2891 -1.0800 -2.3900
 2246SOL    HW218198   0.587   1.682   1.606  1.6694 -0.5534  0.4050
 2247SOL     OW18199   0.887   1.242   8.306 -0.1884  0.0874  0.1884
 2247SOL    HW118200   0.952   1.309   8.326 -1.3824  1.1357  0.5528
 2247SOL    HW218201   0.857   1.216   8.393  1.2375 -1.5154  0.1990
 2248SOL     OW18202   4.227   0.159   9.448 -0.0045  0.0614 -0.0272
 2248SOL    HW118203   4.175   0.235   9.474 -1.1614 -0.5967 -0.4078
 2248SOL    HW218204   4.243   0.122   9.535  2.4181 -0.3027 -0.6310
 2249SOL     OW18205   0.817   0.268   2.801 -0.5320  0.1094  0.2776
 2249SOL    HW118206   0.783   0.295   2.716  0.4066  1.1672  0.2299
 2249SOL    HW218207   0.856   0.187   2.769 -1.2998 -0.8658  1.8397
 2250SOL     OW18208   1.365   4.488   4.746 -0.5999  0.6372 -0.8154
 2250SOL    HW118209   1.323   4.470   4.662 -2.3391 -0.0042  0.2006
 2250SOL    HW218210   1.407   4.574   4.736  0.0418  0.2286 -1.6080
 2251SOL     OW18211   2.917   1.704  10.042  0.0863  0.3384  1.0523
 2251SOL    HW118212   2.921   1.796  10.069 -0.0906  0.4145  0.8167
 2251SOL    HW218213   2.954   1.656  10.116  1.8501 -1.2515 -0.8430
 2252SOL     OW18214   4.145   3.447   9.621  0.4813 -0.0841  0.4603
 2252SOL    HW118215   4.055   3.435   9.653  0.1756 -1.7755 -1.0163
 2252SOL    HW218216   4.173   3.355   9.631  0.3727 -0.0808  0.8072
 2253SOL     OW18217   3.887   0.441   8.182 -0.7321 -0.4580  0.4646
 2253SOL    HW118218   3.805   0.447   8.134 -1.5113  1.7066  2.0491
 2253SOL    HW218219   3.941   0.504   8.134  1.7514 -2.5337  0.5216
 2254SOL     OW18220   1.571   1.885   4.497 -0.0292  0.0768 -0.4835
 2254SOL    HW118221   1.657   1.870   4.457  0.2604  0.0940  0.1300
 2254SOL    HW218222   1.515   1.840   4.434  0.7943 -0.8420 -0.5541
 2255SOL     OW18223   4.596   1.306  17.474  0.5081 -0.1064  0.1531
 2255SOL    HW118224   4.502   1.290  17.485  0.3253  0.8048 -0.0973
 2255SOL    HW218225   4.629   1.335  17.560 -2.5078  1.2270  0.8580
 2256SOL     OW18226   1.337   3.128   4.645  0.1625  0.0997  0.2164
 2256SOL    HW118227   1.264   3.134   4.583  0.3636 -0.7343 -0.0997
 2256SOL    HW218228   1.393   3.196   4.607  1.8247 -0.7125  1.2524
 2257SOL     OW18229   2.000   4.177   2.011  0.9786  0.0254  0.0247
 2257SOL    HW118230   1.944   4.246   1.976  0.1579  0.6076  2.4398
 2257SOL    HW218231   1.944   4.103   1.988 -0.1638  0.4465  1.4242
 2258SOL     OW18232   1.416   4.438   5.441  0.5037  0.1326 -0.0346
 2258SOL    HW118233   1.382   4.496   5.509 -1.4985 -0.0319 -0.8748
 2258SOL    HW218234   1.400   4.494   5.366  2.4181 -0.5379 -0.9390
 2259SOL     OW18235   1.922   0.247  14.147 -0.2772 -0.0705  0.7053
 2259SOL    HW118236   1.853   0.217  14.206  0.9378  1.9852  3.1624
 2259SOL    HW218237   1.987   0.250  14.217  2.0363  1.2187 -1.4839
 2260SOL     OW18238   0.904   1.614   4.030 -0.2901  0.1733  0.4085
 2260SOL    HW118239   0.906   1.629   4.125 -1.6306  0.5430  0.3899
 2260SOL    HW218240   0.810   1.626   4.015 -0.0534  0.0991 -1.1477
 2261SOL     OW18241   0.499   3.757   4.166  0.1697 -0.4689 -0.2597
 2261SOL    HW118242   0.481   3.848   4.191 -0.0078 -0.7405  0.6046
 2261SOL    HW218243   0.434   3.713   4.221  0.2014  3.5829  3.0305
 2262SOL     OW18244   1.586   1.122   4.467  0.3664 -0.0213 -0.1278
 2262SOL    HW118245   1.549   1.047   4.420 -1.9094  1.8157 -1.3045
 2262SOL    HW218246   1.585   1.093   4.558 -0.1042 -1.4971 -0.6141
 2263SOL     OW18247   0.390   0.632   8.699 -0.1104 -0.4155 -0.1265
 2263SOL    HW118248   0.305   0.594   8.676  0.5236 -1.2673 -1.0686
 2263SOL    HW218249   0.451   0.565   8.666  1.1984  0.4810  0.4873
 2264SOL     OW18250   2.445   1.535  16.014 -0.3211  0.9241  0.4130
 2264SOL    HW118251   2.350   1.531  16.002 -0.0743 -0.6878 -0.9806
 2264SOL    HW218252   2.471   1.571  15.929  0.5213  0.7979  0.6188
 2265SOL     OW18253   0.282   0.352   0.005  0.2310  0.2187  0.1072
 2265SOL    HW118254   0.354   0.348  17.640 -0.9283 -1.4390 -1.1245
 2265SOL    HW218255   0.215   0.292  17.669  2.9394 -1.9934 -1.3943
 2266SOL     OW18256   1.613   1.803  16.413  0.5503  0.1762 -0.2780
 2266SOL    HW118257   1.537   1.846  16.375 -1.4930 -1.2931  2.1774
 2266SOL    HW218258   1.582   1.783  16.501  0.4156  1.4391 -0.0325
 2267SOL     OW18259   2.928   4.308   9.229  0.2827  0.0153 -0.1561
 2267SOL    HW118260   2.846   4.259   9.227  0.4650 -0.2816 -0.3601
 2267SOL    HW218261   2.988   4.245   9.270  1.7009  2.6771  1.8659
 2268SOL     OW18262   4.067   1.646   5.592 -0.1151  0.4026  0.5265
 2268SOL    HW118263   4.083   1.605   5.506 -2.3817 -0.5774  0.5714
 2268SOL    HW218264   4.157   1.676   5.608 -0.7137  2.4647 -0.0052
 2269SOL     OW18265   2.384   2.143  13.215 -0.3489 -0.0629  0.7495
 2269SOL    HW118266   2.386   2.221  13.271 -1.8134 -0.8044  1.8617
 2269SOL    HW218267   2.465   2.098  13.236  0.7126  3.2909  3.9429
 2270SOL     OW18268   0.140   1.624   9.119 -0.0419  0.1559  0.0322
 2270SOL    HW118269   0.196   1.549   9.098  0.3653  1.0602 -2.1604
 2270SOL    HW218270   0.053   1.588   9.100  0.7484 -2.1426  0.7365
 2271SOL     OW18271   1.301   2.478  14.018 -0.4256  0.0947  0.1294
 2271SOL    HW118272   1.240   2.550  14.001 -0.6964  0.1849  1.4597
 2271SOL    HW218273   1.266   2.425  13.946  1.0963 -2.7725  1.5162
 2272SOL     OW18274   2.599   0.171   2.029 -0.5029  0.5296  0.0234
 2272SOL    HW118275   2.577   0.181   1.936 -0.7527 -0.5651 -0.0290
 2272SOL    HW218276   2.657   0.247   2.041 -0.1465  0.0291  1.5114
 2273SOL     OW18277   4.024   2.587  10.897 -0.1997  0.2420  0.8215
 2273SOL    HW118278   4.067   2.586  10.811  1.3645 -0.4084  1.6044
 2273SOL    HW218279   3.953   2.649  10.882 -0.7284 -0.4513  0.4631
 2274SOL     OW18280   1.338   1.050  15.543 -0.1042  0.1140  0.2138
 2274SOL    HW118281   1.332   0.993  15.466 -1.3392 -1.3404  1.4021
 2274SOL    HW218282   1.410   1.006  15.588 -0.7324 -0.8656  0.2575
 2275SOL     OW18283   2.338   2.459   6.249  0.6995 -0.3968  0.5711
 2275SOL    HW118284   2.288   2.525   6.297  0.5277  0.5922 -0.9541
 2275SOL    HW218285   2.348   2.504   6.165 -0.4279 -0.8085  0.2184
 2276SOL     OW18286   4.201   1.154   7.338  0.3304  0.7585  0.0992
 2276SOL    HW118287   4.184   1.173   7.431 -0.1649  1.4196 -0.1275
 2276SOL    HW218288   4.189   1.247   7.321  1.3358  0.7692 -0.5058
 2277SOL     OW18289   3.203   1.946   0.547  0.3709 -0.4547 -0.1204
 2277SOL    HW118290   3.199   1.856   0.578 -0.4240  0.5356  2.6802
 2277SOL    HW218291   3.203   1.994   0.630  0.3638  0.1969 -0.4946
 2278SOL     OW18292   0.644   1.521   9.123  0.4854  0.1719  0.0873
 2278SOL    HW118293   0.677   1.463   9.191 -0.4126  0.4619  0.7754
 2278SOL    HW218294   0.624   1.595   9.180 -4.3363  0.1782 -1.5740
 2279SOL     OW18295   2.783   3.977   6.720  0.4564  0.2943 -0.0843
 2279SOL    HW118296   2.824   3.919   6.655  0.8084 -0.8803  1.1834
 2279SOL    HW218297   2.770   4.056   6.668 -0.4570  0.7989  0.9288
 2280SOL     OW18298   2.519   2.159   8.220  0.2709 -0.3539  0.3194
 2280SOL    HW118299   2.424   2.165   8.224  0.4354  0.5917  3.0778
 2280SOL    HW218300   2.544   2.241   8.263  0.5867 -0.0874 -0.3771
 2281SOL     OW18301   3.140   1.565   9.605  0.4826 -0.4759 -0.6260
 2281SOL    HW118302   3.110   1.608   9.685  1.2755  2.2569 -1.8047
 2281SOL    HW218303   3.230   1.542   9.628  0.6522  1.4044  0.5183
 2282SOL     OW18304   3.733   0.295  12.782 -0.3582  0.4256 -0.6286
 2282SOL    HW118305   3.758   0.281  12.873  0.7069  1.6878 -0.7187
 2282SOL    HW218306   3.782   0.225  12.739  1.2115  1.1964 -0.1098
 2283SOL     OW18307   1.752   1.117   4.993  0.2467  0.3175 -0.4678
 2283SOL    HW118308   1.660   1.106   5.017 -0.0184 -0.3215 -1.7736
 2283SOL    HW218309   1.766   1.209   5.015 -1.2011  0.0951  1.3531
 2284SOL     OW18310   2.818   0.666  14.603  0.3077 -0.2747  0.0320
 2284SOL    HW118311   2.868   0.585  14.590 -0.0256 -0.1913 -1.7848
 2284SOL    HW218312   2.732   0.625  14.602  0.1546  0.0053  1.5922
 2285SOL     OW18313   3.311   4.123  11.974  0.2081 -0.1807 -0.4378
 2285SOL    HW118314   3.319   4.217  11.991 -1.0045 -0.1568  0.0644
 2285SOL    HW218315   3.218   4.116  11.950 -0.0695 -0.7564  0.8212
 2286SOL     OW18316   3.220   1.968   7.042 -0.0816  0.3968 -0.0732
 2286SOL    HW118317   3.267   1.885   7.036  0.7307  0.6508  2.9682
 2286SOL    HW218318   3.166   1.954   6.963  2.4852 -0.0902 -1.7420
 2287SOL     OW18319   1.689   0.120   2.926 -0.0973 -0.4341  0.0613
 2287SOL    HW118320   1.688   0.102   3.020  2.2939 -1.1644 -0.0414
 2287SOL    HW218321   1.598   0.120   2.899  0.0001  0.5981 -0.2727
 2288SOL     OW18322   0.872   1.256   2.433  0.5579 -0.0218 -0.0728
 2288SOL    HW118323   0.899   1.168   2.408 -0.0278 -0.3248  0.3529
 2288SOL    HW218324   0.956   1.296   2.456  1.4463 -2.2331  0.4391
 2289SOL     OW18325   4.643   4.585   3.232  0.1113 -0.0273  0.3274
 2289SOL    HW118326   4.647   4.594   3.327  1.4124 -0.6207  0.3298
 2289SOL    HW218327   4.653   4.674   3.200 -0.0777 -0.8689 -2.0328
 2290SOL     OW18328   3.783   2.102   4.322 -0.1353  0.1384 -0.3937
 2290SOL    HW118329   3.839   2.074   4.249  0.7625  0.6354  0.1002
 2290SOL    HW218330   3.703   2.057   4.297 -1.7757  2.6547  0.3716
 2291SOL     OW18331   3.860   1.342   3.542 -0.3327  0.4795  0.7645
 2291SOL    HW118332   3.827   1.277   3.480  1.9387  1.3573 -1.3546
 2291SOL    HW218333   3.819   1.314   3.624 -1.0112 -1.8958 -0.4128
 2292SOL     OW18334   0.210   4.057  17.280  0.0640  0.7640 -0.3065
 2292SOL    HW118335   0.160   4.133  17.312 -1.4830 -1.1420  1.8105
 2292SOL    HW218336   0.210   3.998  17.356 -0.5168 -1.4855 -2.0543
 2293SOL     OW18337   2.097   1.480  16.653  0.0137 -0.2566 -0.2715
 2293SOL    HW118338   2.037   1.417  16.614  1.9342 -0.5540 -2.7390
 2293SOL    HW218339   2.054   1.513  16.732  2.4705  0.1208  0.9276
 2294SOL     OW18340   2.937   4.218   7.815 -0.7676 -0.3854  0.1368
 2294SOL    HW118341   2.917   4.298   7.767  2.2065  1.2705  1.6661
 2294SOL    HW218342   2.850   4.218   7.854  0.1307  0.3813  2.1003
 2295SOL     OW18343   1.029   3.736   1.457 -0.1895  0.3168 -0.4302
 2295SOL    HW118344   1.097   3.739   1.524 -0.2687  1.3827 -0.3974
 2295SOL    HW218345   1.050   3.820   1.417 -2.2990  1.9489  1.9058
 2296SOL     OW18346   0.512   0.335   2.137 -0.0511 -0.3581  0.5710
 2296SOL    HW118347   0.470   0.271   2.080 -3.4108  1.4434  0.9860
 2296SOL    HW218348   0.547   0.392   2.068 -1.9865 -2.3727 -2.0706
 2297SOL     OW18349   1.321   3.904   6.800  0.4299  0.2716  0.0695
 2297SOL    HW118350   1.361   3.821   6.776  1.7398  0.8418  0.2475
 2297SOL    HW218351   1.395   3.963   6.780  0.1257  0.0036 -1.8826
 2298SOL     OW18352   1.314   4.097   4.104  0.1861  0.3045 -0.2152
 2298SOL    HW118353   1.376   4.054   4.044  1.0163  0.3793  0.5930
 2298SOL    HW218354   1.348   4.076   4.191 -1.5144  1.6695  0.7718
 2299SOL     OW18355   4.022   3.155  13.710  0.6231  0.5931 -0.4883
 2299SOL    HW118356   4.068   3.087  13.758 -0.5235  0.6719  0.7353
 2299SOL    HW218357   3.949   3.107  13.672 -0.1558  0.4422  1.2114
 2300SOL     OW18358   4.623   1.377  15.284 -0.0266 -0.1211  0.6694
 2300SOL    HW118359   4.559   1.400  15.351  1.7035  2.0126  1.5869
 2300SOL    HW218360   4.583   1.376  15.197  0.6252 -0.5394  0.3749
 2301SOL     OW18361   4.646   0.647   8.586 -0.2934  0.0695 -0.3156
 2301SOL    HW118362   4.633   0.572   8.529 -1.0753 -1.8946  2.4378
 2301SOL    HW218363   4.561   0.691   8.583 -1.0935 -1.4647  0.0559
 2302SOL     OW18364   0.343   3.349   7.232  0.0702 -0.0884  0.5293
 2302SOL    HW118365   0.275   3.341   7.300 -0.6535  0.5788 -0.1198
 2302SOL    HW218366   0.391   3.270   7.259  1.7264  1.3638  1.8457
 2303SOL     OW18367   1.463   0.614  15.481 -0.3795 -0.7668 -0.0332
 2303SOL    HW118368   1.460   0.669  15.560 -1.0051  1.5670 -1.6746
 2303SOL    HW218369   1.537   0.651  15.433 -1.3476  2.5141  1.0168
 2304SOL     OW18370   3.517   3.108   4.461 -0.1406  0.0936  0.5663
 2304SOL    HW118371   3.538   3.171   4.392  1.0893 -2.5410 -1.4319
 2304SOL    HW218372   3.593   3.110   4.519 -0.1955 -2.9717  0.7268
 2305SOL     OW18373   3.191   1.077   7.667  0.1089  0.1721  0.1802
 2305SOL    HW118374   3.178   1.121   7.751  1.8627 -2.9149  2.0618
 2305SOL    HW218375   3.154   1.137   7.602 -2.1830 -0.5288  0.8730
 2306SOL     OW18376   0.351   0.111   1.990 -0.1836 -0.1894  0.1506
 2306SOL    HW118377   0.374   0.024   2.023 -1.3262 -0.3517  0.5405
 2306SOL    HW218378   0.276   0.130   2.047 -0.5391  0.9867 -0.7047
 2307SOL     OW18379   4.111   0.256  12.499  0.0332 -0.4412  0.2556
 2307SOL    HW118380   4.147   0.326  12.555 -1.7890 -0.2303  1.1551
 2307SOL    HW218381   4.196   0.222  12.473  0.3475  0.5190 -0.0015
 2308SOL     OW18382   0.527   4.182   6.717  0.3062 -0.4669  0.0085
 2308SOL    HW118383   0.470   4.189   6.794  0.3166 -1.4938  0.1050
 2308SOL    HW218384   0.554   4.274   6.713  0.6772 -0.5704  0.1545
 2309SOL     OW18385   1.633   3.846  12.428  0.9139  0.6038  0.4851
 2309SOL    HW118386   1.658   3.761  12.465  0.6034 -0.4597 -1.7528
 2309SOL    HW218387   1.555   3.864  12.481 -0.7174 -0.1645 -1.6670
 2310SOL     OW18388   0.251   1.895   4.353 -0.5511  0.0891  0.0849
 2310SOL    HW118389   0.156   1.905   4.342 -0.4716 -1.5258 -2.1989
 2310SOL    HW218390   0.258   1.799   4.357 -1.4862  0.0884  1.4855
 2311SOL     OW18391   3.767   3.408   3.348 -0.1335  0.1331 -0.1988
 2311SOL    HW118392   3.847   3.461   3.340 -1.2122  1.9682  1.3550
 2311SOL    HW218393   3.715   3.462   3.407  0.7246  0.7004  0.0443
 2312SOL     OW18394   1.721   3.705   4.052  0.0276  0.3326 -0.0751
 2312SOL    HW118395   1.742   3.752   3.971 -1.7382  0.9444 -0.1730
 2312SOL    HW218396   1.626   3.716   4.057  0.0487 -0.1158  1.3840
 2313SOL     OW18397   4.672   1.045  16.046  0.7614 -0.0292 -0.0753
 2313SOL    HW118398   4.610   1.047  16.118  1.8041 -1.1289  0.8372
 2313SOL    HW218399   4.614   1.094  15.987 -0.1995  0.1618  1.0293
 2314SOL     OW18400   3.303   4.398  11.072 -0.1432 -0.2994  0.2963
 2314SOL    HW118401   3.244   4.465  11.039  0.5015  1.5778  2.9126
 2314SOL    HW218402   3.356   4.388  10.993 -1.2041  1.5671 -0.6621
 2315SOL     OW18403   1.005   2.992  16.836 -0.0534 -0.4495 -0.4456
 2315SOL    HW118404   0.942   2.924  16.859  1.6153 -2.5673 -2.1200
 2315SOL    HW218405   1.059   2.993  16.915  3.0027  2.7178 -2.6074
 2316SOL     OW18406   3.831   0.817   4.020  0.1606  0.2071  0.3103
 2316SOL    HW118407   3.777   0.824   3.942 -1.7314  0.2665  1.6191
 2316SOL    HW218408   3.906   0.775   3.979 -0.5618 -2.1194  1.3840
 2317SOL     OW18409   4.176   0.164   5.616 -0.0321  0.0509 -0.0242
 2317SOL    HW118410   4.091   0.144   5.657  0.6851  1.4731  2.1498
 2317SOL    HW218411   4.142   0.226   5.551  0.2840 -0.4725 -0.6932
 2318SOL     OW18412   0.825   3.681   1.264 -0.3226 -0.0161 -0.2296
 2318SOL    HW118413   0.896   3.661   1.324 -1.0392  1.2380  1.0142
 2318SOL    HW218414   0.876   3.727   1.198 -1.9728  0.8046 -0.9363
 2319SOL     OW18415   0.291   3.338   6.386  0.4164  0.3176 -0.2777
 2319SOL    HW118416   0.243   3.256   6.380 -2.1299  1.7792  0.1382
 2319SOL    HW218417   0.316   3.363   6.297 -0.1510  1.5440 -0.1014
 2320SOL     OW18418   2.374   4.550  16.325  0.4951  0.0069 -0.1595
 2320SOL    HW118419   2.340   4.541  16.414 -2.0902 -1.8439 -1.3566
 2320SOL    HW218420   2.416   4.464  16.316  1.3783  0.2541  1.4341
 2321SOL     OW18421   4.324   1.055   6.127 -0.3729 -0.4308  0.5378
 2321SOL    HW118422   4.385   1.098   6.187 -0.5370  0.9682 -0.3113
 2321SOL    HW218423   4.387   1.040   6.057  1.2911  0.3178  1.8660
 2322SOL     OW18424   4.660   1.610  13.375  0.1077 -0.6227  0.1644
 2322SOL    HW118425   4.690   1.569  13.294  1.8646  1.7136 -0.3413
 2322SOL    HW218426   4.573   1.570  13.386  0.0301 -0.2244  1.0059
 2323SOL     OW18427   0.631   3.741   1.564 -0.5570 -0.6235  0.3638
 2323SOL    HW118428   0.674   3.658   1.584 -0.8628 -0.4734  1.6238
 2323SOL    HW218429   0.565   3.719   1.498  0.3305 -0.2927 -0.6383
 2324SOL     OW18430   2.606   2.081   6.212 -0.1382 -0.1003  0.0585
 2324SOL    HW118431   2.624   1.995   6.250 -1.5358 -1.1120 -1.5507
 2324SOL    HW218432   2.572   2.128   6.289 -1.1282  0.4544 -0.7066
 2325SOL     OW18433   0.578   2.761   5.208  0.3070  0.3582  0.4695
 2325SOL    HW118434   0.661   2.718   5.230  0.4753 -0.0215 -0.9480
 2325SOL    HW218435   0.548   2.692   5.149  1.6702  0.4675 -0.3654
 2326SOL     OW18436   2.294   0.838  13.162 -0.6833  0.1641  0.5803
 2326SOL    HW118437   2.387   0.815  13.157 -0.3897  1.0218  1.9464
 2326SOL    HW218438   2.294   0.923  13.118 -1.0238 -1.4709 -2.5883
 2327SOL     OW18439   0.070   3.533   7.727  0.1426 -0.3548 -0.6907
 2327SOL    HW118440   0.050   3.482   7.805 -2.6721 -0.7920 -1.7104
 2327SOL    HW218441   0.034   3.469   7.665 -0.2039 -1.6149  0.8092
 2328SOL     OW18442   4.578   4.204   5.657  0.0221 -0.7629 -0.3167
 2328SOL    HW118443   4.554   4.118   5.692 -0.3671 -0.3848  0.3511
 2328SOL    HW218444   4.591   4.187   5.564  0.6791 -0.9654 -0.1852
 2329SOL     OW18445   3.101   1.848   4.546  0.1644  0.0560 -0.1606
 2329SOL    HW118446   3.140   1.809   4.467 -0.7863  0.4951 -0.8520
 2329SOL    HW218447   3.101   1.941   4.523  2.1652 -0.0928 -0.8003
 2330SOL     OW18448   0.334   1.613  14.181 -0.2399  0.1279 -0.9089
 2330SOL    HW118449   0.247   1.622  14.142 -1.0920 -3.7814  0.1169
 2330SOL    HW218450   0.390   1.619  14.104  0.0032  2.6191 -0.5548
 2331SOL     OW18451   4.670   0.116   3.133 -0.5404  0.3526 -0.6821
 2331SOL    HW118452   4.693   0.168   3.210  0.0648 -0.1653 -0.5133
 2331SOL    HW218453   4.692   0.176   3.061 -1.7191  0.8789 -0.5962
 2332SOL     OW18454   1.175   0.937   2.046 -0.0819  0.5014  0.6335
 2332SOL    HW118455   1.193   0.917   1.954 -0.0281 -0.6222  0.8872
 2332SOL    HW218456   1.103   0.877   2.068  0.4085 -0.1650  0.4086
 2333SOL     OW18457   0.294   4.678   7.688  0.0992 -0.0290 -0.1426
 2333SOL    HW118458   0.249   4.599   7.658  0.9755 -0.5382 -0.1224
 2333SOL    HW218459   0.382   4.647   7.707  0.2457 -0.0733 -0.8806
 2334SOL     OW18460   3.197   1.348   0.042 -0.1071 -0.7561  0.6518
 2334SOL    HW118461   3.180   1.408  17.667 -3.6234 -2.0535  0.4202
 2334SOL    HW218462   3.207   1.408   0.116  3.0130  0.5387 -0.8111
 2335SOL     OW18463   1.913   1.411   6.358 -0.2621 -0.1962 -0.4822
 2335SOL    HW118464   1.916   1.344   6.425  0.2260 -0.2715 -0.5771
 2335SOL    HW218465   1.873   1.355   6.292  0.5055  0.9954 -1.9681
 2336SOL     OW18466   2.822   4.020   0.700  0.0439  0.6902 -0.9246
 2336SOL    HW118467   2.783   4.079   0.635 -0.4280 -1.5659 -2.6672
 2336SOL    HW218468   2.893   4.071   0.739  0.3443  0.7889 -1.5961
 2337SOL     OW18469   0.605   4.178   0.713  0.0054  0.1862  0.0997
 2337SOL    HW118470   0.593   4.148   0.623 -0.0781 -1.3215  0.6058
 2337SOL    HW218471   0.627   4.270   0.699  0.5851 -0.3020 -2.2318
 2338SOL     OW18472   3.433   3.164  11.955 -0.2754  0.1110  0.2390
 2338SOL    HW118473   3.492   3.091  11.971  0.2836  0.9027  1.7566
 2338SOL    HW218474   3.464   3.188  11.867  0.4340  1.9594  0.9954
 2339SOL     OW18475   2.164   1.621  13.262  0.1595  0.4758  0.0783
 2339SOL    HW118476   2.098   1.593  13.325  1.0987 -1.2446  0.2933
 2339SOL    HW218477   2.134   1.709  13.237 -0.3737 -0.5182 -2.8538
 2340SOL     OW18478   1.825   3.351   7.469  0.3159 -0.3009 -0.1904
 2340SOL    HW118479   1.754   3.410   7.494  1.0424  0.2021  0.6956
 2340SOL    HW218480   1.904   3.405   7.475  0.6778 -0.6886 -1.5272
 2341SOL     OW18481   1.328   0.356  15.644 -0.2661  0.6110  0.1390
 2341SOL    HW118482   1.417   0.321  15.649 -0.6146 -0.3670 -0.4684
 2341SOL    HW218483   1.328   0.427  15.708  1.5177 -0.0191  0.8314
 2342SOL     OW18484   2.738   3.679   5.278 -0.4838 -0.0043  0.0835
 2342SOL    HW118485   2.810   3.648   5.332 -1.9559  0.9217  2.5551
 2342SOL    HW218486   2.672   3.609   5.272  0.5348 -0.8669 -1.1006
 2343SOL     OW18487   2.491   0.277   6.079  0.3995  0.3452 -0.0590
 2343SOL    HW118488   2.451   0.277   6.166  1.5183 -0.0905  0.4551
 2343SOL    HW218489   2.569   0.227   6.104 -0.1570 -0.1676  0.6678
 2344SOL     OW18490   4.143   2.366   7.457 -0.2223 -0.2794  0.2375
 2344SOL    HW118491   4.184   2.412   7.530 -0.1881  0.5474 -0.2955
 2344SOL    HW218492   4.173   2.277   7.477  1.0860  0.1686  0.2388
 2345SOL     OW18493   1.949   1.720   2.224 -0.4936  0.1590  0.6100
 2345SOL    HW118494   1.911   1.658   2.161  0.9879  1.1449 -1.2314
 2345SOL    HW218495   2.038   1.686   2.213 -1.0158 -1.2280  0.5833
 2346SOL     OW18496   2.535   3.532   5.169 -0.4186  0.4640  0.0100
 2346SOL    HW118497   2.470   3.595   5.199 -0.8801  0.1098 -0.2432
 2346SOL    HW218498   2.499   3.498   5.087 -0.3055 -0.4871  0.3564
 2347SOL     OW18499   1.031   3.115   7.887  0.1836 -0.0639 -0.0985
 2347SOL    HW118500   1.049   3.033   7.843  0.2601  0.1743 -0.5071
 2347SOL    HW218501   0.938   3.128   7.867  0.2450  0.1470 -0.2491
 2348SOL     OW18502   3.573   2.990  15.347  0.3536 -0.4250 -0.2758
 2348SOL    HW118503   3.612   2.919  15.398  1.6575  0.1901 -0.4349
 2348SOL    HW218504   3.617   2.974  15.264 -1.1463  1.7583 -1.4823
 2349SOL     OW18505   4.069   1.104   4.512  0.0037 -0.0076 -0.6126
 2349SOL    HW118506   4.136   1.049   4.553 -0.2544 -1.0134 -1.5103
 2349SOL    HW218507   4.056   1.046   4.436  0.0870  1.2644 -1.5970
 2350SOL     OW18508   0.548   0.748   2.611 -0.0930  0.3652  0.1535
 2350SOL    HW118509   0.630   0.716   2.650  0.3033 -1.5727 -2.2939
 2350SOL    HW218510   0.588   0.819   2.561 -1.6506  2.1071  1.4101
 2351SOL     OW18511   0.401   3.422   6.164  0.3253  0.3145 -0.4769
 2351SOL    HW118512   0.438   3.382   6.085 -0.2686  0.0564 -0.6269
 2351SOL    HW218513   0.352   3.495   6.127 -2.6475 -1.8055 -0.7707
 2352SOL     OW18514   3.618   0.375   7.727  0.6900  0.5737  0.6516
 2352SOL    HW118515   3.552   0.436   7.692 -1.7493 -2.4972 -0.1616
 2352SOL    HW218516   3.564   0.302   7.758 -3.2377  3.0413 -0.2513
 2353SOL     OW18517   1.973   3.647  15.522  0.2090 -0.4939  1.1676
 2353SOL    HW118518   2.047   3.588  15.508 -0.4032 -1.0633  0.3624
 2353SOL    HW218519   2.013   3.731  15.497 -1.8885  0.2942  0.4517
 2354SOL     OW18520   4.555   2.519   1.386  0.3093 -0.6907 -0.5887
 2354SOL    HW118521   4.570   2.512   1.480  1.1214 -0.9267 -0.7361
 2354SOL    HW218522   4.540   2.427   1.363 -1.0975  0.3949 -4.1010
 2355SOL     OW18523   3.093   2.516   8.244  0.5441  0.1902  0.2391
 2355SOL    HW118524   3.128   2.520   8.333 -1.4444  0.0515  1.0501
 2355SOL    HW218525   3.005   2.479   8.255  1.2772 -1.7259 -0.2877
 2356SOL     OW18526   0.304   3.241   2.033 -0.2146 -0.3648 -0.2181
 2356SOL    HW118527   0.271   3.324   2.001 -1.9213 -1.2503 -0.7213
 2356SOL    HW218528   0.234   3.187   1.998  0.6862 -1.6133 -0.1143
 2357SOL     OW18529   2.101   2.487   8.576  0.1735  0.1239 -0.2573
 2357SOL    HW118530   2.165   2.537   8.626 -2.9501  2.2971  1.5704
 2357SOL    HW218531   2.034   2.480   8.644 -1.0015 -0.1448 -1.4385
 2358SOL     OW18532   3.594   0.084   6.225  0.0949 -0.3084 -0.3070
 2358SOL    HW118533   3.670   0.141   6.236 -0.0368 -0.0474 -0.7742
 2358SOL    HW218534   3.603   0.027   6.302  0.9342  2.0162  1.3163
 2359SOL     OW18535   0.421   4.026   4.258 -0.1231  0.5266 -0.1934
 2359SOL    HW118536   0.491   4.080   4.223  1.5193 -0.1095  2.1159
 2359SOL    HW218537   0.348   4.088   4.245 -1.1462 -0.7930 -0.6894
 2360SOL     OW18538   4.479   1.380   9.299 -0.3963 -0.2637 -0.2881
 2360SOL    HW118539   4.386   1.403   9.290 -0.0736  2.5372  3.7481
 2360SOL    HW218540   4.514   1.468   9.286 -0.5328 -0.1000  0.4828
 2361SOL     OW18541   3.721   4.670   7.940  0.0856 -0.2045  0.1010
 2361SOL    HW118542   3.806   4.704   7.969 -0.7589  0.8050  1.3830
 2361SOL    HW218543   3.669   0.026   7.943  3.0732  1.8650 -2.7126
 2362SOL     OW18544   2.268   2.023   2.276  0.2742 -0.6942 -0.6668
 2362SOL    HW118545   2.242   2.048   2.187 -1.3386 -1.6847 -0.4706
 2362SOL    HW218546   2.192   1.970   2.299 -0.7861  0.1207 -2.2938
 2363SOL     OW18547   0.892   1.374   7.678  0.2118 -0.0462  1.0894
 2363SOL    HW118548   0.833   1.348   7.749 -2.0893 -0.8068 -1.0893
 2363SOL    HW218549   0.952   1.427   7.730  0.3507  0.8187  0.0622
 2364SOL     OW18550   2.271   3.385   3.599 -0.5039  0.2035 -0.3650
 2364SOL    HW118551   2.196   3.376   3.657  0.1934  2.2137  0.8394
 2364SOL    HW218552   2.252   3.314   3.538  1.9512 -2.5425  2.1062
 2365SOL     OW18553   2.513   4.575   8.321 -0.2209 -0.7407  0.3848
 2365SOL    HW118554   2.422   4.604   8.328 -0.8773 -3.0727  1.7166
 2365SOL    HW218555   2.562   4.647   8.359 -1.0197 -0.9874  1.9021
 2366SOL     OW18556   1.560   1.409   8.173 -0.2037  0.4176 -0.2140
 2366SOL    HW118557   1.580   1.429   8.082 -1.2046 -0.5614 -0.6590
 2366SOL    HW218558   1.525   1.320   8.168 -1.2832  1.0664 -4.1139
 2367SOL     OW18559   4.043   0.485  13.458  0.1219  0.1568 -0.1955
 2367SOL    HW118560   4.010   0.401  13.424 -1.0066  1.5172 -2.4743
 2367SOL    HW218561   3.994   0.489  13.540  0.0529 -0.3072 -0.2122
 2368SOL     OW18562   0.935   2.566  13.090  0.4370 -0.8393 -0.0835
 2368SOL    HW118563   0.915   2.526  13.175  1.7194 -0.8063  0.2365
 2368SOL    HW218564   1.031   2.562  13.090  0.3835 -2.1956 -0.4756
 2369SOL     OW18565   1.334   4.162  13.627  0.2704  0.3501  0.3282
 2369SOL    HW118566   1.262   4.220  13.651  0.4256  0.5748  0.2503
 2369SOL    HW218567   1.407   4.223  13.616 -0.7045  1.3079 -0.8209
 2370SOL     OW18568   0.310   2.243   9.468 -0.0176 -0.0063  0.0215
 2370SOL    HW118569   0.381   2.268   9.408  0.0672  1.6196  0.7935
 2370SOL    HW218570   0.267   2.167   9.428 -3.0907 -0.2093  3.6904
 2371SOL     OW18571   1.946   2.330   1.648  0.4535  0.2110 -0.3741
 2371SOL    HW118572   1.977   2.242   1.627 -0.7972 -0.7905  2.0645
 2371SOL    HW218573   2.016   2.365   1.704 -1.5478  1.3679  1.4044
 2372SOL     OW18574   4.490   0.630  12.936 -0.1831 -0.5631  0.3849
 2372SOL    HW118575   4.574   0.623  12.890 -0.1441 -0.0070  0.3641
 2372SOL    HW218576   4.444   0.555  12.899  0.9764 -0.8007 -0.5721
 2373SOL     OW18577   4.066   0.496   4.394  0.2292 -0.0446  0.5961
 2373SOL    HW118578   4.130   0.437   4.354 -1.1603 -0.6745 -0.6577
 2373SOL    HW218579   3.982   0.470   4.357  1.0511  1.5624 -2.4387
 2374SOL     OW18580   3.636   2.161   3.629 -0.2372  0.5320  0.3375
 2374SOL    HW118581   3.653   2.072   3.662  1.0739  1.1329  1.2892
 2374SOL    HW218582   3.646   2.206   3.713  0.9307 -0.6416  0.8211
 2375SOL     OW18583   4.697   3.334  16.337  0.0139 -0.6754 -0.5959
 2375SOL    HW118584   4.654   3.405  16.290 -2.6362 -1.6109  0.4247
 2375SOL    HW218585   0.045   3.311  16.278 -1.1543  0.0557 -2.2949
 2376SOL     OW18586   0.712   0.716   7.729  0.2656  0.6682 -0.2346
 2376SOL    HW118587   0.630   0.702   7.684 -0.1139 -1.8154  1.2405
 2376SOL    HW218588   0.687   0.798   7.773 -0.6407 -0.9020  2.1573
 2377SOL     OW18589   0.187   4.099   3.171 -0.1369  0.4051  0.7935
 2377SOL    HW118590   0.127   4.166   3.140 -0.5492 -0.3174  0.0331
 2377SOL    HW218591   0.265   4.111   3.117 -1.6082 -0.6061 -1.6097
 2378SOL     OW18592   0.493   2.124   6.666 -0.0623 -0.2900 -0.7416
 2378SOL    HW118593   0.587   2.104   6.666  0.0839  0.4184 -1.2370
 2378SOL    HW218594   0.505   2.196   6.729 -0.6170 -0.1186 -0.8376
 2379SOL     OW18595   2.615   0.872   6.231  0.5242 -0.1052  0.6386
 2379SOL    HW118596   2.566   0.895   6.310  1.0993 -1.7532  1.4686
 2379SOL    HW218597   2.541   0.844   6.178  0.5359  0.3207  0.3957
 2380SOL     OW18598   0.918   1.032   8.734 -0.8935 -0.2781 -0.6110
 2380SOL    HW118599   0.874   1.071   8.659  2.0571  0.3399 -2.0205
 2380SOL    HW218600   0.984   1.100   8.749 -0.8207 -0.6668  0.8810
 2381SOL     OW18601   3.242   2.866  12.160  0.7521 -0.4077  0.0066
 2381SOL    HW118602   3.285   2.838  12.079 -0.4155  1.8360 -1.3858
 2381SOL    HW218603   3.271   2.957  12.166 -2.1368  0.5367 -0.5561
 2382SOL     OW18604   1.959   3.708   1.197  0.0819 -0.0869  0.2933
 2382SOL    HW118605   1.949   3.635   1.258 -1.5559  0.6872  0.9416
 2382SOL    HW218606   1.931   3.665   1.117 -0.2775  1.3680 -0.3560
 2383SOL     OW18607   4.209   4.023   6.219 -0.0526 -0.1065  0.2637
 2383SOL    HW118608   4.267   4.055   6.149 -0.2970 -0.1782  0.0285
 2383SOL    HW218609   4.265   3.947   6.235  1.3974  1.3688  2.1314
 2384SOL     OW18610   3.133   3.707  11.732 -0.3094 -0.8948 -0.5370
 2384SOL    HW118611   3.070   3.636  11.723 -0.7834 -0.5924  0.3410
 2384SOL    HW218612   3.166   3.720  11.643 -1.1954  0.8088 -0.6210
 2385SOL     OW18613   2.569   0.164   7.740 -0.5979  0.5018 -0.1787
 2385SOL    HW118614   2.629   0.160   7.814 -1.1125 -0.7494  0.1705
 2385SOL    HW218615   2.515   0.089   7.766  1.1651  0.1350  2.4147
 2386SOL     OW18616   3.567   4.455   7.045  0.0072  0.8981  0.4109
 2386SOL    HW118617   3.471   4.453   7.055  0.1931 -0.2923  2.0392
 2386SOL    HW218618   3.580   4.379   6.988 -3.0530  0.3689  0.3791
 2387SOL     OW18619   3.943   1.505   4.030  0.6875 -0.4752  0.2259
 2387SOL    HW118620   3.942   1.598   4.050  1.9312 -0.1425 -1.3019
 2387SOL    HW218621   3.955   1.509   3.936 -1.8734 -1.6453 -0.1456
 2388SOL     OW18622   1.144   3.298   1.560 -0.1334  0.2599  0.1617
 2388SOL    HW118623   1.087   3.375   1.553 -0.8029 -0.2838 -0.2791
 2388SOL    HW218624   1.127   3.260   1.646  1.0326 -1.1392 -0.2286
 2389SOL     OW18625   2.286   1.775   4.906 -0.1135 -0.0529  0.1807
 2389SOL    HW118626   2.257   1.861   4.936 -1.7536 -0.7799  0.7057
 2389SOL    HW218627   2.302   1.736   4.992  1.5616  1.0744  0.3834
 2390SOL     OW18628   3.541   1.249   8.813  0.3994 -0.2907  0.7435
 2390SOL    HW118629   3.576   1.319   8.868  0.8243 -0.4456  0.6683
 2390SOL    HW218630   3.466   1.286   8.767 -0.4059 -0.0620  2.2254
 2391SOL     OW18631   1.435   4.468   7.505  0.5667 -0.1599  0.1897
 2391SOL    HW118632   1.526   4.441   7.494  0.3422  0.1520 -2.5905
 2391SOL    HW218633   1.423   4.458   7.599  0.8448  1.3884  0.3930
 2392SOL     OW18634   1.389   0.981   0.443 -0.5363  0.0731  0.0786
 2392SOL    HW118635   1.310   0.932   0.462 -0.5240  0.7088  1.7327
 2392SOL    HW218636   1.428   0.995   0.529  0.1043 -2.8005  0.2508
 2393SOL     OW18637   0.726   0.268   5.504 -0.0207 -0.8161 -0.4420
 2393SOL    HW118638   0.680   0.314   5.433  2.8483  2.4688 -0.1493
 2393SOL    HW218639   0.655   0.248   5.565 -0.5582 -0.6566 -1.0101
 2394SOL     OW18640   3.891   4.718   2.911 -0.3897 -0.1734 -0.4770
 2394SOL    HW118641   3.928   0.082   2.920 -1.4708  0.2748 -0.4026
 2394SOL    HW218642   3.800   0.021   2.904 -0.1961  1.0516  1.5943
 2395SOL     OW18643   0.663   4.611  10.431 -0.2209 -0.3503 -0.1879
 2395SOL    HW118644   0.743   4.621  10.483 -1.3049 -1.7285  1.7692
 2395SOL    HW218645   0.600   4.628  10.501 -0.8478  0.5775 -0.9825
 2396SOL     OW18646   4.332   2.794   5.821 -0.2805 -0.2144  0.0376
 2396SOL    HW118647   4.300   2.705   5.814  0.9646 -0.7259  0.7374
 2396SOL    HW218648   4.365   2.782   5.910 -0.1341 -2.3753 -0.3091
 2397SOL     OW18649   3.680   4.659   0.255  0.1699 -0.4256  0.3919
 2397SOL    HW118650   3.592   4.686   0.231  0.4871  0.6214  0.4165
 2397SOL    HW218651   3.679   4.677   0.349  1.5540  3.3755 -0.3322
 2398SOL     OW18652   4.401   1.749  13.783 -0.1125 -0.0808 -0.8095
 2398SOL    HW118653   4.389   1.656  13.764  0.8471  0.0028 -1.8102
 2398SOL    HW218654   4.403   1.791  13.697 -0.4815  0.0953 -0.7316
 2399SOL     OW18655   2.109   0.163   2.382  0.0189 -0.1483 -0.1695
 2399SOL    HW118656   2.075   0.108   2.452 -1.2102 -0.6455 -1.1598
 2399SOL    HW218657   2.198   0.184   2.410  0.2742 -1.0729 -0.2941
 2400SOL     OW18658   3.236   0.971   6.062 -0.0059  0.1270 -0.2127
 2400SOL    HW118659   3.283   0.891   6.083 -0.8914 -0.1785  0.5944
 2400SOL    HW218660   3.230   1.003   6.153  0.2238 -0.7581  0.1153
 2401SOL     OW18661   0.701   1.690   7.047 -0.6399  0.0195  0.0372
 2401SOL    HW118662   0.623   1.683   7.102  0.4892  1.2452  1.8445
 2401SOL    HW218663   0.768   1.732   7.102  0.0434  1.3389 -1.8123
 2402SOL     OW18664   2.049   4.455   6.982 -0.4717  0.4420  0.2138
 2402SOL    HW118665   1.998   4.378   7.009  1.9993 -1.3107 -0.0572
 2402SOL    HW218666   2.007   4.527   7.028  0.2416 -0.6633  2.5905
 2403SOL     OW18667   1.538   1.886   3.478  0.5566 -0.8106 -0.1869
 2403SOL    HW118668   1.585   1.808   3.449 -0.1740 -0.2260 -2.9896
 2403SOL    HW218669   1.450   1.875   3.444  1.0818  0.7265 -2.0732
 2404SOL     OW18670   0.517   1.520   8.324 -0.2752 -0.2672 -0.0609
 2404SOL    HW118671   0.588   1.523   8.388 -0.6717  0.4899  0.3274
 2404SOL    HW218672   0.542   1.438   8.280  0.2039 -0.4320  0.5266
 2405SOL     OW18673   4.569   4.311  11.876  0.1629  0.5214 -0.2683
 2405SOL    HW118674   4.591   4.303  11.783  0.0923  0.4003 -0.2749
 2405SOL    HW218675   4.652   4.310  11.924 -0.7465 -0.5574  1.2701
 2406SOL     OW18676   0.411   2.053   6.419 -0.4730 -0.3940 -0.1106
 2406SOL    HW118677   0.426   2.087   6.507 -0.2594 -0.5553 -0.0831
 2406SOL    HW218678   0.316   2.058   6.431 -0.4888 -0.0146 -0.3997
 2407SOL     OW18679   0.753   0.533   4.989  0.2254 -0.1191 -0.2099
 2407SOL    HW118680   0.780   0.506   4.901  0.4355 -1.1561  0.1731
 2407SOL    HW218681   0.797   0.617   5.001  1.8750 -0.8147 -1.2917
 2408SOL     OW18682   1.398   1.686  16.142  0.4995 -0.0381 -0.3138
 2408SOL    HW118683   1.484   1.661  16.110  0.8888  0.1938  0.5541
 2408SOL    HW218684   1.330   1.652  16.083  0.2987 -1.1070  0.5069
 2409SOL     OW18685   0.435   1.704   2.787 -0.1567  0.4055  0.2988
 2409SOL    HW118686   0.377   1.780   2.801 -0.4801 -0.4035  3.4525
 2409SOL    HW218687   0.393   1.648   2.723  0.3132  0.3084  0.0735
 2410SOL     OW18688   4.001   2.937  16.811  0.5635  0.0432  0.1460
 2410SOL    HW118689   4.060   2.887  16.755 -0.1065  0.1066 -0.6089
 2410SOL    HW218690   3.919   2.930  16.762  0.3954  1.4613  0.2256
 2411SOL     OW18691   0.158   1.687   7.137  0.6215 -0.3046  0.0600
 2411SOL    HW118692   0.071   1.646   7.140  0.2966  0.4141  0.3634
 2411SOL    HW218693   0.211   1.610   7.154 -0.7856 -0.8230  2.0604
 2412SOL     OW18694   3.905   2.785   2.303  0.1533 -0.1271 -0.3280
 2412SOL    HW118695   3.882   2.695   2.327 -1.4373  0.6988  1.1915
 2412SOL    HW218696   3.948   2.818   2.381  2.2860 -0.8749 -1.1938
 2413SOL     OW18697   0.450   0.983   3.386 -0.2839  0.1298  0.0627
 2413SOL    HW118698   0.527   1.035   3.409  0.3974 -1.1715  0.7602
 2413SOL    HW218699   0.384   1.050   3.371  1.9508  1.8504 -2.0285
 2414SOL     OW18700   0.820   3.169   2.280  0.7380 -0.4090  0.3263
 2414SOL    HW118701   0.756   3.113   2.324  1.0117 -1.4372 -0.5590
 2414SOL    HW218702   0.793   3.249   2.324  1.1903  1.2877 -2.4661
 2415SOL     OW18703   1.924   2.757   6.321 -0.3758  0.0622 -0.1944
 2415SOL    HW118704   1.842   2.779   6.365 -0.5894 -1.9642  0.4323
 2415SOL    HW218705   1.979   2.832   6.342 -0.6521 -0.0580  0.9668
 2416SOL     OW18706   1.770   2.604   6.507  0.0640 -0.4460 -0.0570
 2416SOL    HW118707   1.783   2.629   6.598 -0.0104  1.0795 -0.4600
 2416SOL    HW218708   1.738   2.680   6.458 -2.7659  0.3599  3.0589
 2417SOL     OW18709   2.065   0.335  12.123  0.4770  0.4721 -0.9988
 2417SOL    HW118710   2.016   0.416  12.131  1.5621  0.7838  2.5784
 2417SOL    HW218711   2.109   0.335  12.208  0.7707 -0.2670 -1.1496
 2418SOL     OW18712   4.255   1.495   9.219  0.0745 -0.5541  0.4515
 2418SOL    HW118713   4.255   1.550   9.298 -0.2271  1.1798 -0.7500
 2418SOL    HW218714   4.166   1.513   9.187  1.3548 -0.2557 -2.8821
 2419SOL     OW18715   2.052   3.301   2.690 -0.2169 -0.8068  0.0668
 2419SOL    HW118716   2.082   3.357   2.761 -0.5464 -2.6102  1.6316
 2419SOL    HW218717   2.106   3.337   2.619  1.2665  0.7092  1.9621
 2420SOL     OW18718   0.980   4.022   5.576 -0.3882 -0.2062  0.4732
 2420SOL    HW118719   1.047   4.069   5.626  1.2370 -0.5621 -1.3718
 2420SOL    HW218720   1.032   3.968   5.516 -1.0100  0.5570 -0.7490
 2421SOL     OW18721   0.889   4.076   1.748  0.0408 -0.2613  0.5175
 2421SOL    HW118722   0.946   4.135   1.698 -0.8162  0.1014 -0.0336
 2421SOL    HW218723   0.819   4.069   1.684 -0.0062 -1.1454  0.6663
 2422SOL     OW18724   3.686   0.140   2.331  0.0052  0.0873 -0.0293
 2422SOL    HW118725   3.690   0.099   2.244  0.2769  0.8081 -0.3556
 2422SOL    HW218726   3.597   0.116   2.356  0.1300 -0.2585  0.0896
 2423SOL     OW18727   1.610   2.431  11.954  0.0759 -0.2429  0.1098
 2423SOL    HW118728   1.686   2.455  11.902 -0.4462  1.3527  0.0917
 2423SOL    HW218729   1.605   2.511  12.006 -0.9225  0.5441 -1.1929
 2424SOL     OW18730   4.246   4.256  10.490  0.3635  0.1533 -0.3596
 2424SOL    HW118731   4.225   4.164  10.508  1.9416  0.0072  0.7213
 2424SOL    HW218732   4.183   4.299  10.547 -2.4283 -1.2092 -2.4346
 2425SOL     OW18733   4.128   3.427   4.534 -0.9232 -0.0375 -0.4608
 2425SOL    HW118734   4.133   3.333   4.550  0.5931  0.2944  1.0959
 2425SOL    HW218735   4.079   3.454   4.612 -0.9057 -0.9228 -0.1432
 2426SOL     OW18736   4.209   4.141   7.220  0.0633  0.3338  0.2172
 2426SOL    HW118737   4.217   4.145   7.124 -1.2332 -0.8381  0.0589
 2426SOL    HW218738   4.285   4.086   7.239 -1.5467 -2.2751 -0.7773
 2427SOL     OW18739   1.932   4.311   0.663 -0.6567  0.1682  0.2320
 2427SOL    HW118740   1.888   4.377   0.716  1.7590  1.7251  0.2696
 2427SOL    HW218741   1.897   4.232   0.705  1.2519  0.1277  1.6987
 2428SOL     OW18742   0.914   0.844   7.235 -0.0207  0.9373  0.4090
 2428SOL    HW118743   0.955   0.929   7.220  1.4538 -0.1020 -1.5217
 2428SOL    HW218744   0.941   0.832   7.326  0.1863 -2.1424 -0.0602
 2429SOL     OW18745   3.159   4.279   5.118 -0.0824  0.4537  0.0430
 2429SOL    HW118746   3.103   4.322   5.054 -1.8206 -0.9496  0.6005
 2429SOL    HW218747   3.172   4.193   5.077 -0.6668  0.8674 -0.9933
 2430SOL     OW18748   1.952   2.649   2.826 -0.2784 -0.3795 -0.2621
 2430SOL    HW118749   1.910   2.586   2.885 -0.8260 -0.0331 -0.2843
 2430SOL    HW218750   2.039   2.611   2.838  0.2837  1.4391  1.3737
 2431SOL     OW18751   3.053   3.805   1.278 -0.0584  0.4110  0.5329
 2431SOL    HW118752   3.034   3.836   1.189  0.5027 -0.9509 -0.0532
 2431SOL    HW218753   3.148   3.817   1.279  0.2464 -2.1224  1.3852
 2432SOL     OW18754   3.986   4.308   4.088  0.0413  0.3140  0.1305
 2432SOL    HW118755   3.991   4.228   4.036 -2.5223  0.6833 -0.6993
 2432SOL    HW218756   3.904   4.299   4.137 -0.1089 -0.9435 -0.3601
 2433SOL     OW18757   2.521   4.482   3.805  0.4510 -0.3190 -0.2796
 2433SOL    HW118758   2.593   4.536   3.773 -1.3128  2.5033  0.4433
 2433SOL    HW218759   2.496   4.436   3.725 -1.8351  2.2391 -1.0431
 2434SOL     OW18760   0.121   0.484  15.745  0.2387  0.0866 -0.3062
 2434SOL    HW118761   0.206   0.464  15.706 -0.1886 -0.1161 -1.1331
 2434SOL    HW218762   0.102   0.573  15.715  0.5967  0.8346  1.6893
 2435SOL     OW18763   0.929   4.425   0.319  0.4593  0.3677  0.8131
 2435SOL    HW118764   0.842   4.422   0.360 -0.1782 -1.0242 -0.6466
 2435SOL    HW218765   0.942   4.519   0.321 -1.5828  0.6735  0.2572
 2436SOL     OW18766   1.721   3.823   8.319  0.0766 -0.4073 -0.1043
 2436SOL    HW118767   1.692   3.903   8.275 -2.0417  0.0339  2.0799
 2436SOL    HW218768   1.637   3.778   8.312 -0.6417  0.7729  0.9496
 2437SOL     OW18769   0.430   0.869   6.054 -0.1494 -0.4761  0.2315
 2437SOL    HW118770   0.438   0.925   6.131 -0.4870 -0.4280  0.2309
 2437SOL    HW218771   0.428   0.780   6.090 -0.0684 -1.1822 -1.4959
 2438SOL     OW18772   1.912   2.836   2.316  0.1035 -0.1092  0.0689
 2438SOL    HW118773   1.836   2.788   2.283  1.0051 -2.2951  1.2251
 2438SOL    HW218774   1.920   2.801   2.404 -1.8852 -0.0047  0.3081
 2439SOL     OW18775   3.621   2.936  15.871 -0.1091 -0.1067 -0.3457
 2439SOL    HW118776   3.612   3.023  15.833  0.0831  0.4181  0.8123
 2439SOL    HW218777   3.659   2.957  15.957  1.4550 -0.9157 -0.8337
 2440SOL     OW18778   4.557   1.440  16.118  0.2204 -0.3454 -0.2837
 2440SOL    HW118779   4.615   1.515  16.104 -0.8556  0.1721 -1.9121
 2440SOL    HW218780   4.559   1.430  16.213  1.3038 -0.3015 -0.3018
 2441SOL     OW18781   3.929   1.070   2.213  0.1762 -0.1980 -0.1825
 2441SOL    HW118782   4.015   1.093   2.177  0.9978  1.0161  2.5670
 2441SOL    HW218783   3.903   0.998   2.156 -0.7925  0.2311 -0.2844
 2442SOL     OW18784   2.711   2.573   4.321 -0.1598 -0.3021  0.4097
 2442SOL    HW118785   2.714   2.643   4.256 -1.0827  0.2401  0.9555
 2442SOL    HW218786   2.628   2.527   4.309 -0.1618  0.1607 -1.3761
 2443SOL     OW18787   0.051   4.288   2.011 -0.1389 -0.5584 -0.2160
 2443SOL    HW118788   0.092   4.245   2.086 -0.8683  0.2298  0.6329
 2443SOL    HW218789   0.108   4.362   1.988 -0.5982  0.1993  1.0943
 2444SOL     OW18790   1.980   3.306   8.366  0.1932  0.0177  0.0134
 2444SOL    HW118791   2.014   3.286   8.454 -0.6789  2.1335  0.8347
 2444SOL    HW218792   2.055   3.334   8.314 -0.9567  0.3173 -1.4841
 2445SOL     OW18793   2.630   0.386   8.361  0.0162 -0.4077 -0.8816
 2445SOL    HW118794   2.534   0.385   8.355 -0.1158 -0.3062  1.2309
 2445SOL    HW218795   2.653   0.462   8.414 -2.6362 -1.0830  1.2630
 2446SOL     OW18796   0.731   3.982  12.280  0.3346 -0.1694 -0.2238
 2446SOL    HW118797   0.656   3.925  12.262 -0.6057  1.7467 -2.2756
 2446SOL    HW218798   0.687   4.066  12.286 -1.9409 -1.4905  1.6482
 2447SOL     OW18799   2.022   1.797   7.066  0.5317  0.4169 -0.0261
 2447SOL    HW118800   2.100   1.848   7.043 -0.9020  2.0104 -1.2822
 2447SOL    HW218801   2.027   1.819   7.159 -0.0305  0.2087  0.0527
 2448SOL     OW18802   1.467   3.859   1.058  0.1574  0.4074  0.4492
 2448SOL    HW118803   1.484   3.776   1.013 -1.5913  0.2854  0.0022
 2448SOL    HW218804   1.492   3.924   0.992 -1.1204 -2.7158 -3.1364
 2449SOL     OW18805   1.785   0.528   6.107  0.4262  0.2324  0.5258
 2449SOL    HW118806   1.854   0.579   6.151  0.9037 -0.4279  0.5496
 2449SOL    HW218807   1.775   0.445   6.153 -1.2554  0.3542  0.3530
 2450SOL     OW18808   3.233   1.255   4.501  0.8960  0.2854 -0.2669
 2450SOL    HW118809   3.248   1.337   4.548 -0.7392  0.3183  0.2028
 2450SOL    HW218810   3.209   1.294   4.417  0.3818 -0.9087 -0.6644
 2451SOL     OW18811   2.068   4.404   4.961 -0.1822 -0.5164 -0.4982
 2451SOL    HW118812   2.154   4.441   4.942  0.4313 -1.4203  0.6076
 2451SOL    HW218813   2.063   4.399   5.056  1.9521 -1.1337 -0.4385
 2452SOL     OW18814   3.766   1.373   8.157 -0.3278  0.0773  0.3210
 2452SOL    HW118815   3.700   1.307   8.181 -0.3718 -0.3734 -1.0157
 2452SOL    HW218816   3.742   1.432   8.228 -1.4995  0.4028 -0.3486
 2453SOL     OW18817   3.202   2.719   7.308  0.3921  0.2035  0.4301
 2453SOL    HW118818   3.238   2.740   7.394  1.1223 -0.5104  0.3036
 2453SOL    HW218819   3.200   2.623   7.315 -0.9042 -0.0100 -2.9205
 2454SOL     OW18820   3.328   0.500   3.558  0.6426  0.2483  0.1888
 2454SOL    HW118821   3.291   0.578   3.516  1.4509 -0.3918 -1.6855
 2454SOL    HW218822   3.258   0.435   3.553  0.2337  0.7367 -0.4911
 2455SOL     OW18823   2.270   1.269  17.239  0.6234  0.1011  0.2274
 2455SOL    HW118824   2.213   1.213  17.186  0.9345  1.7880 -1.8963
 2455SOL    HW218825   2.353   1.241  17.201  1.1286  0.0982  1.3257
 2456SOL     OW18826   0.166   0.746   4.698  0.1982  0.0013 -0.5915
 2456SOL    HW118827   0.241   0.805   4.699  0.2666 -0.0874 -0.2045
 2456SOL    HW218828   0.159   0.739   4.603 -1.6095 -0.4022 -0.4398
 2457SOL     OW18829   1.357   2.907  15.298 -0.3006  0.5444  0.5761
 2457SOL    HW118830   1.419   2.891  15.369  1.2328  0.4079 -0.8045
 2457SOL    HW218831   1.304   2.973  15.344 -2.5990 -1.5753  0.9646
 2458SOL     OW18832   4.201   1.981  12.147 -0.4303  0.2513 -0.1134
 2458SOL    HW118833   4.207   2.057  12.205  0.7344  1.4886 -1.8704
 2458SOL    HW218834   4.279   2.000  12.096 -0.2626 -0.5119 -0.1337
 2459SOL     OW18835   1.210   2.589  14.306 -0.1007  0.0501  0.0683
 2459SOL    HW118836   1.170   2.664  14.262  1.4999  1.7084  1.4683
 2459SOL    HW218837   1.300   2.589  14.274 -0.2139 -0.6506 -0.2545
 2460SOL     OW18838   0.997   3.420   0.715  0.4050  0.2644  0.1648
 2460SOL    HW118839   0.934   3.430   0.786 -0.6613 -0.5454 -0.6635
 2460SOL    HW218840   0.939   3.458   0.649  1.6254  0.4392 -0.8132
 2461SOL     OW18841   4.187   3.187   4.950  0.4706  0.0696  0.1718
 2461SOL    HW118842   4.258   3.177   4.887 -0.6464 -1.0746 -0.8995
 2461SOL    HW218843   4.134   3.109   4.934 -0.8950  0.9484  0.3883
 2462SOL     OW18844   0.901   4.067   6.487  0.0673 -0.1839 -0.2818
 2462SOL    HW118845   0.897   4.150   6.535 -0.9278 -0.2683 -0.2153
 2462SOL    HW218846   0.994   4.044   6.490  0.7621  2.7477  1.0671
 2463SOL     OW18847   3.725   2.308   5.339  0.6320  0.3439  0.0086
 2463SOL    HW118848   3.642   2.352   5.357 -0.0083 -1.3431  1.1607
 2463SOL    HW218849   3.753   2.310   5.431 -2.7513  0.3786  1.0245
 2464SOL     OW18850   0.029   3.800   5.323 -0.6966 -0.2748  0.3709
 2464SOL    HW118851   0.117   3.824   5.294 -1.0396 -1.5610 -1.7153
 2464SOL    HW218852   0.047   3.782   5.415 -0.7607  0.2257  0.4811
 2465SOL     OW18853   1.724   2.380   2.812  0.1823  0.2269 -0.0184
 2465SOL    HW118854   1.765   2.388   2.727 -2.2981  0.8412 -1.1689
 2465SOL    HW218855   1.792   2.407   2.874 -0.8323 -0.5564  1.4587
 2466SOL     OW18856   2.751   2.815  14.753 -0.1922 -0.1906 -0.6355
 2466SOL    HW118857   2.816   2.790  14.819 -2.3735 -1.5217  0.9832
 2466SOL    HW218858   2.811   2.862  14.694  0.7038 -0.4065  0.1076
 2467SOL     OW18859   3.661   3.077   9.101  0.0104  0.1939  0.3462
 2467SOL    HW118860   3.634   3.158   9.057  3.2391 -0.1260 -2.2952
 2467SOL    HW218861   3.715   3.105   9.175 -1.3493  0.1687  1.3467
 2468SOL     OW18862   1.366   0.630   9.745 -0.2288  0.4006  0.1258
 2468SOL    HW118863   1.304   0.699   9.770 -0.1759  0.0694  1.1864
 2468SOL    HW218864   1.412   0.622   9.829  1.5063  1.4407 -0.7257
 2469SOL     OW18865   4.109   4.524   2.781 -0.2325 -0.1597  0.2934
 2469SOL    HW118866   4.086   4.609   2.819  1.6026  0.6637 -0.4435
 2469SOL    HW218867   4.028   4.506   2.734  1.3507 -2.0006 -1.6899
 2470SOL     OW18868   3.624   1.494  13.258 -0.4575 -0.2138 -0.7057
 2470SOL    HW118869   3.671   1.514  13.177 -0.2716 -1.2788 -0.8694
 2470SOL    HW218870   3.657   1.554  13.325 -0.0556 -0.5246 -0.6260
 2471SOL     OW18871   3.134   0.022   6.002 -0.1102 -0.1649  0.0273
 2471SOL    HW118872   3.060   0.029   6.062 -2.4514  2.9648 -3.2077
 2471SOL    HW218873   3.194   4.722   6.073  1.7603 -1.7154 -2.0795
 2472SOL     OW18874   4.126   2.362   2.778 -0.7727  0.7128  0.4533
 2472SOL    HW118875   4.062   2.374   2.708  0.2958  0.8179 -0.5255
 2472SOL    HW218876   4.079   2.387   2.857 -1.0219 -0.6291  0.7232
 2473SOL     OW18877   1.288   0.017   3.435 -0.0351  0.1784  0.2114
 2473SOL    HW118878   1.193   0.023   3.423  0.1078 -1.2234 -1.6493
 2473SOL    HW218879   1.314   0.059   3.353 -0.9588  0.0147 -0.1693
 2474SOL     OW18880   2.358   2.694   8.160 -0.4873 -0.4315 -0.0110
 2474SOL    HW118881   2.384   2.653   8.078 -1.2922 -0.2364 -0.3717
 2474SOL    HW218882   2.301   2.629   8.202  0.2885 -0.6732  0.6843
 2475SOL     OW18883   2.261   3.926   4.701 -0.1411 -0.1306  0.4431
 2475SOL    HW118884   2.337   3.921   4.758  2.2681 -0.5086 -2.7659
 2475SOL    HW218885   2.250   4.021   4.705 -0.7544 -0.2228  0.8848
 2476SOL     OW18886   0.859   3.808   0.349 -0.4601  0.3020 -0.0563
 2476SOL    HW118887   0.873   3.890   0.397  0.2251  0.0202  0.2302
 2476SOL    HW218888   0.789   3.841   0.293  0.3967  0.5985 -0.9700
 2477SOL     OW18889   3.586   3.469   4.264 -0.1652  0.7713  0.0567
 2477SOL    HW118890   3.604   3.563   4.259  1.4477  0.5174  1.0330
 2477SOL    HW218891   3.498   3.475   4.302 -0.3357 -0.5480 -0.1364
 2478SOL     OW18892   1.465   3.257   1.624 -0.3155 -0.0881 -0.1669
 2478SOL    HW118893   1.432   3.226   1.708  0.2995  0.4897  0.2909
 2478SOL    HW218894   1.433   3.348   1.619  0.2234  0.0924 -0.3077
 2479SOL     OW18895   4.135   2.667   7.842  0.1743 -0.2604  0.3400
 2479SOL    HW118896   4.045   2.667   7.874  0.2568  0.4036  0.5527
 2479SOL    HW218897   4.174   2.694   7.925  0.6939  1.8817 -0.6173
 2480SOL     OW18898   0.552   1.136   5.537  0.6011  0.0840  0.3058
 2480SOL    HW118899   0.625   1.150   5.597 -0.4898  4.4773  0.5716
 2480SOL    HW218900   0.599   1.152   5.455  0.4181 -0.8539  0.0077
 2481SOL     OW18901   1.982   2.866   9.033 -0.3098 -0.0622 -0.0928
 2481SOL    HW118902   1.898   2.822   9.024 -0.3766 -0.3133  1.8218
 2481SOL    HW218903   1.957   2.928   9.102  0.7254 -2.5836  2.5578
 2482SOL     OW18904   2.221   2.130  13.479  0.1921  0.1542  0.3076
 2482SOL    HW118905   2.307   2.113  13.519  0.6961  1.4470 -0.2386
 2482SOL    HW218906   2.235   2.214  13.436 -0.7325 -0.2925 -0.8613
 2483SOL     OW18907   0.186   2.928   6.037 -0.3727  0.3291 -0.0127
 2483SOL    HW118908   0.270   2.975   6.040  1.5689 -3.0206 -1.6830
 2483SOL    HW218909   0.144   2.945   5.953 -0.2575  1.4737  0.1669
 2484SOL     OW18910   1.749   1.347   9.021 -0.1248 -0.2823 -0.1209
 2484SOL    HW118911   1.685   1.342   8.950 -0.3448  1.1952 -0.0207
 2484SOL    HW218912   1.731   1.265   9.066  1.2256  0.7143  2.2584
 2485SOL     OW18913   3.890   4.406   4.327  0.3615 -0.8223  0.1302
 2485SOL    HW118914   3.845   4.488   4.346 -2.2053 -1.8212 -1.7618
 2485SOL    HW218915   3.978   4.437   4.307 -0.0507 -1.3086 -2.4305
 2486SOL     OW18916   2.516   1.339  11.576  0.1195  0.8205  0.7100
 2486SOL    HW118917   2.530   1.392  11.654 -0.6971  0.4134  1.1400
 2486SOL    HW218918   2.514   1.397  11.500 -0.6394  1.2888  1.0874
 2487SOL     OW18919   3.532   2.721  10.314 -0.5290  0.6123 -0.5451
 2487SOL    HW118920   3.441   2.715  10.283 -1.0579  1.6470  0.8462
 2487SOL    HW218921   3.540   2.814  10.334 -2.0474  0.5282  0.4361
 2488SOL     OW18922   1.945   1.320   9.873  1.2270 -0.2390  0.2514
 2488SOL    HW118923   1.912   1.282   9.955  0.9068 -1.4805 -0.4561
 2488SOL    HW218924   1.861   1.352   9.841  2.0999  0.9999 -0.7825
 2489SOL     OW18925   0.204   1.572  16.267  1.4154  0.1668  0.0700
 2489SOL    HW118926   0.229   1.612  16.351  0.0627  1.9147 -0.3660
 2489SOL    HW218927   0.259   1.494  16.276 -0.6647 -1.4795 -1.3688
 2490SOL     OW18928   4.390   2.725  16.513  0.2412  0.4708  0.2385
 2490SOL    HW118929   4.455   2.721  16.443  1.4836 -0.3702  1.4525
 2490SOL    HW218930   4.343   2.646  16.485 -1.5724  1.3978  0.6539
 2491SOL     OW18931   3.083   4.568   2.814 -0.4462  0.1188  1.0918
 2491SOL    HW118932   3.157   4.540   2.867 -1.3104  1.2137  2.9025
 2491SOL    HW218933   3.034   4.486   2.818 -0.4658  0.0748 -0.0955
 2492SOL     OW18934   2.929   3.203   3.763 -0.2564  0.1595 -0.8040
 2492SOL    HW118935   2.856   3.143   3.747 -0.8311  0.6447  0.0009
 2492SOL    HW218936   2.900   3.239   3.847  2.1119  0.5908 -0.1838
 2493SOL     OW18937   1.154   1.498   6.461 -0.2688 -0.1464  0.2810
 2493SOL    HW118938   1.179   1.586   6.487 -1.7288  0.5613 -0.7431
 2493SOL    HW218939   1.237   1.450   6.461 -0.1855 -0.0019  0.6721
 2494SOL     OW18940   0.236   0.518   5.023 -0.3885 -0.6225  0.2293
 2494SOL    HW118941   0.326   0.550   5.017 -0.3823 -0.8216 -0.7666
 2494SOL    HW218942   0.189   0.566   4.954 -2.0320 -0.3198  1.5441
 2495SOL     OW18943   3.634   2.065   5.909  0.2086  0.0596  0.0768
 2495SOL    HW118944   3.687   2.079   5.987  0.6294 -0.9093 -0.0405
 2495SOL    HW218945   3.637   2.152   5.868  1.2154 -0.6040 -1.3084
 2496SOL     OW18946   0.217   4.598  14.146 -0.2299  0.0126  0.7374
 2496SOL    HW118947   0.194   4.530  14.082 -3.3958  0.6091  1.2517
 2496SOL    HW218948   0.167   4.585  14.226 -1.9357 -1.4701 -0.5637
 2497SOL     OW18949   0.561   2.148   1.917 -0.5821  0.2193 -0.1599
 2497SOL    HW118950   0.514   2.149   1.834 -0.8695 -0.6950 -0.0127
 2497SOL    HW218951   0.598   2.236   1.923  0.4544 -0.3470  1.7069
 2498SOL     OW18952   2.452   2.927   7.116 -0.2616 -0.0153 -0.3069
 2498SOL    HW118953   2.499   2.870   7.176 -1.3806 -1.3846 -0.7504
 2498SOL    HW218954   2.385   2.867   7.083 -0.9807  1.0546 -0.7900
 2499SOL     OW18955   2.752   3.375   1.582  0.0275 -0.0907 -0.0428
 2499SOL    HW118956   2.782   3.453   1.536 -1.0369 -0.9535 -2.2094
 2499SOL    HW218957   2.681   3.415   1.631 -0.3022 -2.1159  1.1503
 2500SOL     OW18958   2.753   4.087   7.320 -0.2137 -0.5981 -0.1595
 2500SOL    HW118959   2.719   4.002   7.292 -0.5957 -0.5047  0.0150
 2500SOL    HW218960   2.845   4.089   7.294 -0.1085 -0.5112  0.2136
 2501SOL     OW18961   2.848   3.953  11.270  0.2334 -0.0022 -0.3116
 2501SOL    HW118962   2.763   3.973  11.309  0.9432  1.0765  0.6753
 2501SOL    HW218963   2.820   3.867  11.238 -2.7534 -0.2148  2.9488
 2502SOL     OW18964   3.251   1.707   6.717  0.4245 -0.1132 -0.6924
 2502SOL    HW118965   3.325   1.673   6.768 -1.4871  0.1505  2.3104
 2502SOL    HW218966   3.287   1.702   6.629  0.5563 -1.2200 -0.5832
 2503SOL     OW18967   0.289   0.183   2.920  0.1853 -0.1661  0.0302
 2503SOL    HW118968   0.326   0.270   2.935 -1.5618  0.6710 -0.4545
 2503SOL    HW218969   0.209   0.207   2.873 -0.9560 -0.2404  1.9331
 2504SOL     OW18970   1.380   3.611   2.663 -0.0652 -0.2795  0.3475
 2504SOL    HW118971   1.445   3.552   2.701  0.8660  1.3927  1.3562
 2504SOL    HW218972   1.304   3.577   2.710 -0.0795 -1.1565 -0.3131
 2505SOL     OW18973   4.395   1.797   1.067  0.2727  0.5858 -0.3967
 2505SOL    HW118974   4.434   1.711   1.050  2.8057  1.3491  1.4813
 2505SOL    HW218975   4.380   1.834   0.980 -1.7438  0.5034 -0.0837
 2506SOL     OW18976   2.385   4.413  15.428  0.5044  0.0615 -0.2649
 2506SOL    HW118977   2.397   4.500  15.389 -0.6965  0.0356 -0.6814
 2506SOL    HW218978   2.425   4.351  15.366  0.5286 -1.4494  1.2712
 2507SOL     OW18979   2.862   1.056  11.925 -0.0580 -0.1289  0.0564
 2507SOL    HW118980   2.863   0.972  11.879 -0.3309 -0.9025  1.4408
 2507SOL    HW218981   2.949   1.096  11.929 -0.4907  0.5152  2.8283
 2508SOL     OW18982   2.530   3.936   3.826 -0.4080  0.0638  0.2069
 2508SOL    HW118983   2.552   3.940   3.733 -1.5161 -1.1475 -0.1219
 2508SOL    HW218984   2.543   4.028   3.849  0.9034 -0.5280  1.7811
 2509SOL     OW18985   1.220   3.796   6.399 -0.6994  0.1445 -0.1101
 2509SOL    HW118986   1.180   3.724   6.449 -2.5621  0.1096 -1.6543
 2509SOL    HW218987   1.248   3.742   6.325 -2.3334 -0.3334 -0.3850
 2510SOL     OW18988   0.743   4.170   6.037 -0.4217  0.0938  0.2015
 2510SOL    HW118989   0.707   4.107   5.975 -0.5230  0.1850  0.1661
 2510SOL    HW218990   0.766   4.116   6.112 -1.2525 -2.1552 -1.1682
 2511SOL     OW18991   0.080   0.784   8.229  0.0991  0.0752  0.1301
 2511SOL    HW118992   0.107   0.702   8.270  2.0101  0.1472 -0.9829
 2511SOL    HW218993   0.161   0.813   8.186  0.1755 -0.0334  0.2012
 2512SOL     OW18994   2.242   2.513   8.321 -0.5175  0.3174  0.0351
 2512SOL    HW118995   2.211   2.462   8.395 -0.6037  0.9643  0.4453
 2512SOL    HW218996   2.311   2.560   8.368 -0.3617  0.3885 -0.2592
 2513SOL     OW18997   0.342   3.072   4.853  0.0999  0.8269 -0.7005
 2513SOL    HW118998   0.386   3.138   4.800 -1.9625  1.9568 -0.9679
 2513SOL    HW218999   0.282   3.019   4.800 -1.7100  3.9038 -1.6786
 2514SOL     OW19000   3.488   1.362   3.774 -0.6716  0.3382 -0.7876
 2514SOL    HW119001   3.504   1.382   3.682  3.9236  1.6811  0.2977
 2514SOL    HW219002   3.400   1.333   3.795 -0.3752 -0.0853 -0.1336
 2515SOL     OW19003   2.013   1.048  14.311 -0.6004  0.0639  0.5459
 2515SOL    HW119004   2.019   1.110  14.384  2.8920  1.0825 -0.6036
 2515SOL    HW219005   2.093   1.069  14.262  0.1735 -0.4000  1.5997
 2516SOL     OW19006   0.164   1.543  15.168 -0.0159  0.2507 -0.4073
 2516SOL    HW119007   0.211   1.576  15.244  1.3220  0.0156 -1.1286
 2516SOL    HW219008   0.081   1.576  15.202  0.0348  0.7006 -0.7190
 2517SOL     OW19009   0.653   1.380   5.105 -0.1838  0.4429  0.6134
 2517SOL    HW119010   0.603   1.460   5.089  0.5721  0.4683 -1.4897
 2517SOL    HW219011   0.711   1.386   5.029 -1.7813 -0.7736 -0.7005
 2518SOL     OW19012   1.749   1.747  11.953  0.3290 -0.1100  0.2861
 2518SOL    HW119013   1.799   1.794  12.020  0.5505  0.2871 -0.1572
 2518SOL    HW219014   1.809   1.679  11.921  0.8729  0.5833 -0.1497
 2519SOL     OW19015   0.465   3.990   3.802 -0.5805 -0.0433  0.1786
 2519SOL    HW119016   0.538   4.035   3.845 -0.2016  0.5326 -1.0596
 2519SOL    HW219017   0.502   3.997   3.714  0.7321  1.0870  0.8236
 2520SOL     OW19018   1.097   2.556  16.805  0.1201  0.1691  0.2007
 2520SOL    HW119019   1.031   2.616  16.841 -1.2261 -0.9880 -0.3659
 2520SOL    HW219020   1.123   2.512  16.886 -2.5225  1.4991  1.8014
 2521SOL     OW19021   0.694   2.529  10.540 -0.4712 -0.6181  0.4400
 2521SOL    HW119022   0.650   2.566  10.616  0.1939 -1.3751  1.1924
 2521SOL    HW219023   0.740   2.451  10.572 -0.5726 -0.8761 -0.0340
 2522SOL     OW19024   2.601   2.249  13.025  0.4206  0.4188  0.9828
 2522SOL    HW119025   2.543   2.199  13.082 -1.5379 -1.1096 -2.3396
 2522SOL    HW219026   2.582   2.205  12.942 -0.7391 -0.8002  1.8908
 2523SOL     OW19027   2.918   1.275   3.132 -0.2245  0.0033  0.0774
 2523SOL    HW119028   2.955   1.284   3.044 -1.4772  0.9545 -0.3493
 2523SOL    HW219029   2.869   1.357   3.145 -2.2871 -1.2146 -0.0384
 2524SOL     OW19030   0.269   2.831   9.169  0.1448 -0.0426 -0.6891
 2524SOL    HW119031   0.325   2.778   9.226  1.0381 -0.1029 -1.6263
 2524SOL    HW219032   0.183   2.809   9.205  0.7001 -2.5272 -0.8916
 2525SOL     OW19033   2.957   3.245  14.898  0.0015  0.5009 -0.9548
 2525SOL    HW119034   2.890   3.255  14.965  1.4701 -0.3304  0.6327
 2525SOL    HW219035   2.896   3.234  14.825 -0.4051  0.8056 -0.6550
 2526SOL     OW19036   4.649   1.392   4.503 -0.0706  0.0687  0.2590
 2526SOL    HW119037   4.586   1.442   4.554 -0.1559  0.1703  0.0508
 2526SOL    HW219038   4.717   1.383   4.570 -0.7571  0.2279  0.9668
 2527SOL     OW19039   2.201   0.178   6.639  0.1693  0.1593  0.5343
 2527SOL    HW119040   2.120   0.212   6.603 -0.7080 -2.7262 -0.2319
 2527SOL    HW219041   2.166   0.117   6.704  0.6288  0.0936  0.7237
 2528SOL     OW19042   3.894   1.907   6.083  0.0533 -0.7614  0.0983
 2528SOL    HW119043   3.964   1.880   6.142 -0.4059 -0.2798  0.8647
 2528SOL    HW219044   3.877   1.998   6.106 -3.3033 -1.3123 -0.1867
 2529SOL     OW19045   0.808   2.487   8.185 -0.9158  0.1482 -0.4116
 2529SOL    HW119046   0.723   2.506   8.145 -0.3861  0.3078 -1.4587
 2529SOL    HW219047   0.784   2.474   8.277 -0.1413  0.2057 -0.1957
 2530SOL     OW19048   1.462   0.843   9.569  0.3390 -0.1348  0.0441
 2530SOL    HW119049   1.426   0.758   9.596  1.2003  0.0177  1.6542
 2530SOL    HW219050   1.520   0.856   9.643 -0.1633  0.5308  0.3232
 2531SOL     OW19051   4.090   2.380   5.124 -0.6601 -0.0317  0.5330
 2531SOL    HW119052   4.012   2.332   5.095 -0.8466 -1.0629  2.6887
 2531SOL    HW219053   4.055   2.401   5.211 -1.2069 -1.3360  0.6300
 2532SOL     OW19054   0.127   4.226   7.635 -0.3087 -0.1500  0.0172
 2532SOL    HW119055   0.129   4.304   7.691  0.2232  0.6288 -1.0832
 2532SOL    HW219056   0.221   4.223   7.614  0.5753  1.7630  3.5650
 2533SOL     OW19057   2.311   2.140   6.106  0.4199 -0.2264  0.0903
 2533SOL    HW119058   2.391   2.125   6.157  1.8249  3.0521 -1.0610
 2533SOL    HW219059   2.354   2.185   6.032  0.4126  0.0683  0.2656
 2534SOL     OW19060   0.542   1.669   6.139 -0.7046  0.0296  0.3922
 2534SOL    HW119061   0.573   1.690   6.051 -0.1853 -0.4635  0.4538
 2534SOL    HW219062   0.595   1.596   6.172 -0.4980 -0.6704 -1.4320
 2535SOL     OW19063   2.694   3.633   1.045  0.2881  0.2093 -0.3100
 2535SOL    HW119064   2.750   3.685   0.988  0.0806 -0.7613 -1.4128
 2535SOL    HW219065   2.740   3.548   1.047  0.9114  0.5029 -1.9974
 2536SOL     OW19066   1.780   3.929   4.592 -0.7512  0.4924  0.0971
 2536SOL    HW119067   1.828   3.970   4.521 -1.4903  0.9737 -0.1195
 2536SOL    HW219068   1.841   3.935   4.666  0.5601 -0.7591 -0.8982
 2537SOL     OW19069   4.287   1.686   8.929  0.2479 -0.0626 -0.3270
 2537SOL    HW119070   4.368   1.719   8.890  1.3424 -0.2749  1.7368
 2537SOL    HW219071   4.251   1.774   8.943 -0.4620 -0.3217 -0.5152
 2538SOL     OW19072   2.505   3.842   6.102  0.0823 -0.0899 -0.1982
 2538SOL    HW119073   2.522   3.837   6.196 -3.1017  1.6249  0.4555
 2538SOL    HW219074   2.423   3.891   6.102 -1.6308 -2.9851 -0.6668
 2539SOL     OW19075   0.535   1.608   2.021  0.4789 -0.7145  0.4194
 2539SOL    HW119076   0.456   1.660   2.004  0.6678 -0.4510  0.3587
 2539SOL    HW219077   0.599   1.674   2.045  0.4778 -0.5305 -0.0938
 2540SOL     OW19078   3.055   2.686   1.609  0.2224 -0.2120 -0.4667
 2540SOL    HW119079   2.976   2.634   1.607  0.5266 -0.6740 -0.4770
 2540SOL    HW219080   3.080   2.674   1.517  0.5125 -1.4665 -0.2222
 2541SOL     OW19081   1.512   1.123   8.471  0.1087  0.2216  0.2945
 2541SOL    HW119082   1.559   1.068   8.534 -0.8400  0.9766  1.6677
 2541SOL    HW219083   1.578   1.190   8.457 -0.0773  0.0610 -1.2951
 2542SOL     OW19084   4.309   2.079   2.778  0.5722  0.4550  0.0054
 2542SOL    HW119085   4.246   2.038   2.837  1.5665  2.2910  2.3038
 2542SOL    HW219086   4.265   2.085   2.694 -0.2704  1.7519  0.5550
 2543SOL     OW19087   4.015   2.265   7.769  0.5518  0.8366 -0.0227
 2543SOL    HW119088   4.059   2.333   7.821 -0.0001 -0.6745  2.4433
 2543SOL    HW219089   3.946   2.238   7.830  1.6834 -0.0362  0.8784
 2544SOL     OW19090   2.358   3.099   2.076 -0.0346 -0.7750 -0.7121
 2544SOL    HW119091   2.273   3.074   2.112 -0.3687 -2.2359 -2.4905
 2544SOL    HW219092   2.358   3.046   1.996  0.6495 -2.3992  0.3580
 2545SOL     OW19093   2.700   4.265   5.654  0.0835 -0.0720  0.0846
 2545SOL    HW119094   2.718   4.298   5.566 -0.7636 -0.0996 -0.0936
 2545SOL    HW219095   2.785   4.282   5.695 -0.3478 -0.2718  1.0424
 2546SOL     OW19096   1.502   1.504   7.894  0.4294  0.1049 -0.7298
 2546SOL    HW119097   1.467   1.593   7.902  1.6528  0.3754  1.6098
 2546SOL    HW219098   1.432   1.456   7.937  0.3323  0.3637 -0.5979
 2547SOL     OW19099   4.252   1.319   4.125 -1.0135  0.5449  0.2138
 2547SOL    HW119100   4.302   1.290   4.049 -0.4286 -1.8972  1.4997
 2547SOL    HW219101   4.272   1.411   4.109 -1.1953  0.5138 -0.1886
 2548SOL     OW19102   2.839   3.606   1.469  0.2202 -0.2267 -0.0569
 2548SOL    HW119103   2.890   3.648   1.400  1.5272 -0.8853  0.4881
 2548SOL    HW219104   2.869   3.658   1.544 -0.4985 -2.9107  2.1214
 2549SOL     OW19105   1.874   2.218  13.373  0.6492 -0.2480  0.3573
 2549SOL    HW119106   1.864   2.258  13.459  0.3963  0.2353  0.0960
 2549SOL    HW219107   1.826   2.273  13.311 -1.5967  0.3327  2.6213
 2550SOL     OW19108   0.010   2.955  12.728  0.3146  0.4838  0.4278
 2550SOL    HW119109   0.010   2.937  12.822 -1.3497  0.8978  0.4955
 2550SOL    HW219110   4.698   2.870  12.702 -0.8327  0.1934  2.8968
 2551SOL     OW19111   1.944   2.721   3.526  0.6258 -0.0425 -0.1320
 2551SOL    HW119112   1.942   2.730   3.431 -1.3080  0.3701 -0.0356
 2551SOL    HW219113   1.922   2.812   3.544  1.0178  0.0400 -0.0514
 2552SOL     OW19114   1.661   0.364   1.395  0.4229  0.1964  0.1483
 2552SOL    HW119115   1.620   0.443   1.429  0.5310  0.6333 -0.7360
 2552SOL    HW219116   1.696   0.318   1.472 -1.7035  1.4140  1.8237
 2553SOL     OW19117   3.732   3.263   8.089 -0.6253  0.0810 -0.4649
 2553SOL    HW119118   3.763   3.284   8.001 -0.1271  1.5751  0.0657
 2553SOL    HW219119   3.740   3.169   8.077  1.2926  0.4030 -1.7829
 2554SOL     OW19120   3.528   0.842   0.248  0.1020  0.4642  0.0085
 2554SOL    HW119121   3.556   0.934   0.245  2.6620 -0.3540 -2.0517
 2554SOL    HW219122   3.585   0.816   0.321 -1.0522 -0.2463  0.6410
 2555SOL     OW19123   2.392   2.656   2.008 -0.1549 -0.2974 -0.3053
 2555SOL    HW119124   2.371   2.671   2.100  1.5702 -0.2247  0.0798
 2555SOL    HW219125   2.393   2.560   2.007 -1.2128 -0.3287  1.1060
 2556SOL     OW19126   1.052   2.001   5.371 -0.5046  0.2266  0.3532
 2556SOL    HW119127   1.037   2.022   5.463 -2.5173 -0.5504  0.2057
 2556SOL    HW219128   1.024   2.085   5.336  0.4200 -0.0407 -1.0655
 2557SOL     OW19129   4.566   0.463  14.206 -0.0364 -0.2097  0.1722
 2557SOL    HW119130   4.612   0.496  14.129  1.2523  0.4229  1.2167
 2557SOL    HW219131   4.479   0.453  14.166  0.9233 -1.8266 -1.4989
 2558SOL     OW19132   0.529   3.868   5.819  0.2410  0.2999 -0.3040
 2558SOL    HW119133   0.489   3.944   5.777 -1.5276  1.0468  2.7615
 2558SOL    HW219134   0.616   3.901   5.839  0.2002  0.1952  0.0480
 2559SOL     OW19135   3.814   3.672   3.462  0.1322 -0.0027 -0.7402
 2559SOL    HW119136   3.740   3.732   3.449  0.8986  1.7654  3.0169
 2559SOL    HW219137   3.874   3.690   3.390  3.6636 -2.4767  1.6077
 2560SOL     OW19138   3.374   0.292   4.484  0.2291  0.5007 -0.5626
 2560SOL    HW119139   3.437   0.273   4.553  1.4513  2.0038 -1.2731
 2560SOL    HW219140   3.439   0.297   4.414 -0.2913  1.1214 -1.0048
 2561SOL     OW19141   1.897   0.881  14.610 -0.2622  0.1793 -0.1554
 2561SOL    HW119142   1.871   0.826  14.684 -1.9811  1.4035  0.1574
 2561SOL    HW219143   1.980   0.918  14.641  0.6075 -2.4245  0.6611
 2562SOL     OW19144   1.168   0.340  15.398 -0.6963  0.2376  0.0865
 2562SOL    HW119145   1.181   0.349  15.492 -1.6010  0.5907  0.1800
 2562SOL    HW219146   1.155   0.434  15.380  0.0873  0.4091  0.4217
 2563SOL     OW19147   0.692   3.732   9.724 -0.0528 -0.0581  0.4060
 2563SOL    HW119148   0.779   3.693   9.711  0.0352 -0.6041  2.7588
 2563SOL    HW219149   0.687   3.737   9.819  0.7201  3.5435  0.2686
 2564SOL     OW19150   2.613   2.033   7.999  0.1850 -0.7088 -0.1662
 2564SOL    HW119151   2.562   2.073   8.070 -0.1740 -0.5494 -0.5193
 2564SOL    HW219152   2.544   1.998   7.944  0.1400 -2.1186  0.7657
 2565SOL     OW19153   3.314   2.406   5.337 -0.5374 -0.0046 -0.0270
 2565SOL    HW119154   3.368   2.475   5.298  0.7496  0.5084  2.6574
 2565SOL    HW219155   3.233   2.429   5.291  0.7268 -0.5528 -2.5280
 2566SOL     OW19156   3.463   1.653  12.380  0.0607 -0.7336 -0.1272
 2566SOL    HW119157   3.403   1.662  12.306  0.7684 -0.7035 -0.6959
 2566SOL    HW219158   3.546   1.637  12.335 -0.3022 -2.5608 -0.1590
 2567SOL     OW19159   1.389   3.414   0.154 -0.5433  0.2630  0.4632
 2567SOL    HW119160   1.347   3.367   0.226  1.1282  0.1488  1.3485
 2567SOL    HW219161   1.471   3.367   0.150 -0.2806  0.7574 -0.0692
 2568SOL     OW19162   0.542   2.009   4.621  0.0729 -0.1217 -0.5483
 2568SOL    HW119163   0.488   2.088   4.619  2.2724  1.4009 -0.2553
 2568SOL    HW219164   0.630   2.047   4.631 -0.1654 -0.5103  2.8875
 2569SOL     OW19165   0.203   2.304   9.176 -0.1953 -0.1803  0.6903
 2569SOL    HW119166   0.170   2.228   9.223  2.0027 -0.2301  2.1481
 2569SOL    HW219167   0.298   2.290   9.180  0.2036  2.4589  0.6067
 2570SOL     OW19168   3.253   1.407  11.097  0.2870 -0.6556  0.0162
 2570SOL    HW119169   3.247   1.464  11.173 -0.1858 -1.1027  0.3141
 2570SOL    HW219170   3.311   1.337  11.127 -0.3451 -0.4508  1.6801
 2571SOL     OW19171   2.260   2.461  10.272 -0.5530 -0.3166 -0.1408
 2571SOL    HW119172   2.274   2.393  10.205 -2.6502  0.7321 -1.6394
 2571SOL    HW219173   2.311   2.530  10.229 -1.0401 -0.9022 -1.6506
 2572SOL     OW19174   1.474   3.496  12.988  0.1673  0.2666  0.0022
 2572SOL    HW119175   1.556   3.535  12.958  1.0364 -1.4431  0.1281
 2572SOL    HW219176   1.459   3.420  12.930  3.8619 -0.3980 -0.0351
 2573SOL     OW19177   2.244   3.300   4.549 -0.7194  0.5625  0.3806
 2573SOL    HW119178   2.292   3.305   4.466  0.1791  0.1907  0.8800
 2573SOL    HW219179   2.317   3.285   4.609  0.1005 -1.9697 -1.2529
 2574SOL     OW19180   0.741   1.185   5.340  0.5354  0.0051 -0.4717
 2574SOL    HW119181   0.758   1.109   5.285  1.3140  0.5700 -1.0202
 2574SOL    HW219182   0.719   1.252   5.275  1.1743  1.1801  0.5249
 2575SOL     OW19183   1.718   4.532   7.521 -0.2403  0.0296  0.3960
 2575SOL    HW119184   1.772   4.482   7.460 -1.5117 -2.2990  1.2049
 2575SOL    HW219185   1.757   4.614   7.489 -1.6035  1.1534  1.5961
 2576SOL     OW19186   1.964   2.423   4.680 -0.1438 -0.2389 -0.3286
 2576SOL    HW119187   1.901   2.360   4.644 -1.8396  0.8731  0.7070
 2576SOL    HW219188   2.043   2.368   4.684 -1.9303 -2.8563 -0.8827
 2577SOL     OW19189   4.249   4.575   9.385 -0.4281 -0.8529 -0.1446
 2577SOL    HW119190   4.255   4.670   9.396  1.1823 -1.0783  0.9204
 2577SOL    HW219191   4.305   4.566   9.308  0.3012 -0.5474  0.3496
 2578SOL     OW19192   0.339   3.587   3.686  0.1111 -0.2812 -0.2421
 2578SOL    HW119193   0.405   3.641   3.728  0.7749 -1.0996 -0.2323
 2578SOL    HW219194   0.313   3.537   3.764  1.2410 -1.2280 -0.4822
 2579SOL     OW19195   0.938   4.722   0.317  0.0664  0.6711 -0.5335
 2579SOL    HW119196   0.986   0.038   0.244  0.1134  2.1356  0.3120
 2579SOL    HW219197   0.853   0.041   0.312 -0.7578 -0.9001  0.0499
 2580SOL     OW19198   3.980   2.419   5.378 -0.3960 -0.2166 -0.0044
 2580SOL    HW119199   3.961   2.453   5.465 -0.5822 -1.4817  0.4539
 2580SOL    HW219200   3.912   2.351   5.374 -3.0474  2.3298  1.4464
 2581SOL     OW19201   0.844   3.565   4.165 -0.7188 -0.4014 -0.5250
 2581SOL    HW119202   0.881   3.646   4.130  0.8365 -0.0224  1.9575
 2581SOL    HW219203   0.917   3.525   4.212 -3.1220 -2.9822  1.0661
 2582SOL     OW19204   3.024   0.310   0.365 -0.1309  0.4846  0.3717
 2582SOL    HW119205   2.968   0.378   0.328  1.5015  0.8983 -1.3221
 2582SOL    HW219206   3.092   0.313   0.298  0.5341 -1.9629  0.9260
 2583SOL     OW19207   0.719   4.417   5.199  0.2235 -0.4361 -0.2835
 2583SOL    HW119208   0.800   4.396   5.244  1.2836 -0.0266 -2.0169
 2583SOL    HW219209   0.683   4.496   5.240  0.0281  0.1234 -1.5207
 2584SOL     OW19210   3.612   4.041   7.933  0.0510  0.3252 -0.5937
 2584SOL    HW119211   3.654   4.101   7.872 -0.0425  0.1647 -0.8168
 2584SOL    HW219212   3.612   4.087   8.017 -0.7794 -0.0869 -0.3680
 2585SOL     OW19213   4.580   2.521   5.401  0.2724 -0.1096 -0.0635
 2585SOL    HW119214   4.486   2.536   5.413  0.2680 -1.0598  1.1091
 2585SOL    HW219215   4.608   2.583   5.469  1.1937  1.0925 -1.5492
 2586SOL     OW19216   2.471   4.291   8.383  0.2725  0.0028  0.0389
 2586SOL    HW119217   2.481   4.386   8.375 -1.1536  0.0246 -1.4800
 2586SOL    HW219218   2.522   4.277   8.463 -0.9746 -0.5976  0.7217
 2587SOL     OW19219   2.194   0.913   3.440 -0.5771  0.4637 -0.4714
 2587SOL    HW119220   2.272   0.916   3.385  0.1709 -1.9145  0.4945
 2587SOL    HW219221   2.146   0.976   3.387  0.1465  1.6437  0.2622
 2588SOL     OW19222   1.196   4.522   1.742  0.6445 -0.0851  0.6419
 2588SOL    HW119223   1.134   4.485   1.805 -0.3203 -0.7003 -0.6632
 2588SOL    HW219224   1.266   4.457   1.742  0.8546  0.1177 -1.4721
 2589SOL     OW19225   1.274   2.553   3.006 -0.2187 -0.2542 -0.2106
 2589SOL    HW119226   1.334   2.510   2.945  2.3702  1.7365  0.9046
 2589SOL    HW219227   1.330   2.549   3.084 -2.2596 -1.8416  1.1750
 2590SOL     OW19228   2.949   2.596   7.468 -0.3135 -0.0861  0.5927
 2590SOL    HW119229   3.042   2.609   7.485  0.1660 -1.1182 -1.3059
 2590SOL    HW219230   2.951   2.505   7.439  1.3316  0.5652 -1.2666
 2591SOL     OW19231   1.378   3.470  16.287 -0.1746 -0.2419  0.0236
 2591SOL    HW119232   1.377   3.556  16.245 -0.7740  0.6149  1.7765
 2591SOL    HW219233   1.470   3.469  16.314 -0.7532 -0.6730  2.0170
 2592SOL     OW19234   1.690   4.222   7.531  0.4078  0.7896 -0.2887
 2592SOL    HW119235   1.744   4.224   7.610 -2.8392  2.1752  1.9163
 2592SOL    HW219236   1.604   4.194   7.562  1.5099 -0.7265  1.4074
 2593SOL     OW19237   1.528   1.544   3.512 -0.0443  0.3281 -0.4633
 2593SOL    HW119238   1.440   1.547   3.475  0.1739  0.1441 -0.9954
 2593SOL    HW219239   1.554   1.452   3.505 -0.4130  0.2601 -0.9853
 2594SOL     OW19240   0.585   1.309   1.592 -0.1247  0.4323  0.2622
 2594SOL    HW119241   0.555   1.398   1.576  0.5308  0.4690 -0.7263
 2594SOL    HW219242   0.565   1.297   1.685  0.3211  0.9646  0.4255
 2595SOL     OW19243   2.695   2.526  11.100  0.2809 -0.6883 -0.0684
 2595SOL    HW119244   2.770   2.553  11.047 -0.5250 -0.1648 -0.9161
 2595SOL    HW219245   2.731   2.510  11.188 -1.5999 -0.2566  0.7827
 2596SOL     OW19246   1.845   4.352   3.174  0.3480  0.7066 -0.3656
 2596SOL    HW119247   1.794   4.302   3.110  0.0952 -1.8777  1.8295
 2596SOL    HW219248   1.850   4.291   3.248 -0.9726  0.3839 -0.5403
 2597SOL     OW19249   2.839   3.144  11.141 -0.3173  0.3163  0.7398
 2597SOL    HW119250   2.880   3.227  11.117 -0.4355  0.6656  1.7604
 2597SOL    HW219251   2.861   3.076  11.077 -1.8646 -1.1962  1.8053
 2598SOL     OW19252   1.296   4.532   2.798 -0.0718 -0.2409  0.0848
 2598SOL    HW119253   1.350   4.454   2.808  0.1893 -0.2807 -1.5638
 2598SOL    HW219254   1.207   4.499   2.786 -0.4703  0.5151  0.9533
 2599SOL     OW19255   1.155   3.925   1.081 -0.3822 -0.4217  0.1446
 2599SOL    HW119256   1.162   4.002   1.137 -1.0798 -0.6599  0.5625
 2599SOL    HW219257   1.244   3.891   1.082  0.3526  1.5345  0.3354
 2600SOL     OW19258   0.784   3.033   5.969  0.0358  0.2143 -0.2153
 2600SOL    HW119259   0.805   3.019   6.061  1.3145 -0.2981 -0.5773
 2600SOL    HW219260   0.703   2.984   5.957  2.1583 -3.1342 -0.9867
 2601SOL     OW19261   0.963   1.325   8.965 -0.3254  0.6470 -0.3511
 2601SOL    HW119262   1.026   1.255   8.947 -0.3722  0.4812  0.1277
 2601SOL    HW219263   0.943   1.304   9.057  2.7085  0.0447  0.1566
 2602SOL     OW19264   3.744   2.743   4.215  0.4200  0.0139  0.1614
 2602SOL    HW119265   3.775   2.821   4.261  0.1384 -1.0862  2.2351
 2602SOL    HW219266   3.759   2.667   4.271  0.9355  0.3884  0.5310
 2603SOL     OW19267   4.279   1.235   5.374  0.7322  1.0567  0.4361
 2603SOL    HW119268   4.301   1.144   5.353 -3.6488  0.2910 -0.7493
 2603SOL    HW219269   4.292   1.228   5.469  0.1560  0.1296  0.4444
 2604SOL     OW19270   3.051   2.641  15.304  0.2559  0.5542  0.5757
 2604SOL    HW119271   3.115   2.711  15.308  0.2621  0.4171  2.5184
 2604SOL    HW219272   2.994   2.664  15.378  1.7563 -2.3030  2.5786
 2605SOL     OW19273   4.611   0.384   7.366  0.0217 -0.0946  0.0977
 2605SOL    HW119274   4.621   0.391   7.271 -2.7023 -0.3051 -0.2094
 2605SOL    HW219275   4.702   0.370   7.393  0.1614  2.3276  0.8505
 2606SOL     OW19276   2.773   1.372   7.576 -0.0189  0.5763  0.3621
 2606SOL    HW119277   2.792   1.396   7.486  3.0241 -0.0959  0.8093
 2606SOL    HW219278   2.722   1.451   7.593 -1.1856  0.2649 -1.8635
 2607SOL     OW19279   1.889   4.294   2.268 -0.0939 -0.1759  0.3006
 2607SOL    HW119280   1.881   4.375   2.218  1.5114  0.2075  0.6568
 2607SOL    HW219281   1.957   4.247   2.220  1.3813  1.4525  0.7877
 2608SOL     OW19282   0.330   1.806   2.036 -0.7409  0.4026  0.1686
 2608SOL    HW119283   0.317   1.815   1.942  2.3940 -0.1042 -0.3059
 2608SOL    HW219284   0.240   1.831   2.060 -0.6592  0.8337  0.0198
 2609SOL     OW19285   4.642   2.882   3.261 -0.1257 -0.7616 -0.1684
 2609SOL    HW119286   4.595   2.885   3.178 -2.3254 -1.1014  1.0765
 2609SOL    HW219287   4.590   2.824   3.316  1.0104 -1.4066  0.2199
 2610SOL     OW19288   0.094   2.279   3.386  0.1930 -0.2916 -0.0264
 2610SOL    HW119289   0.088   2.371   3.412  0.7157 -0.2607 -0.0227
 2610SOL    HW219290   0.096   2.274   3.290 -1.7136  0.7870 -0.1334
 2611SOL     OW19291   1.141   3.707   7.962 -0.3825 -0.2040  0.5162
 2611SOL    HW119292   1.199   3.754   8.022  0.4175  1.2389 -1.4040
 2611SOL    HW219293   1.140   3.622   8.006 -0.7389 -0.9318 -0.9073
 2612SOL     OW19294   1.852   4.140   7.728 -0.3624  0.3457 -0.3298
 2612SOL    HW119295   1.883   4.134   7.819 -1.7957  0.2224  0.1500
 2612SOL    HW219296   1.918   4.086   7.684 -1.2891 -1.8925  1.0143
 2613SOL     OW19297   2.442   4.424  12.053  0.6408  0.0662 -0.4623
 2613SOL    HW119298   2.534   4.412  12.030  0.8213 -1.6761  1.1171
 2613SOL    HW219299   2.412   4.478  11.981 -2.1082 -2.1805 -1.0077
 2614SOL     OW19300   1.854   4.575   2.193 -0.6124  0.5083 -0.4007
 2614SOL    HW119301   1.810   4.624   2.123  0.3945  3.0812  0.7702
 2614SOL    HW219302   1.786   4.580   2.261 -0.3893  2.6333 -0.3355
 2615SOL     OW19303   3.697   1.672   6.410 -0.2504 -0.2666 -0.2425
 2615SOL    HW119304   3.790   1.652   6.420 -0.7214 -2.3861 -0.1219
 2615SOL    HW219305   3.689   1.650   6.317 -0.3227 -0.3498 -0.2177
 2616SOL     OW19306   1.043   0.939   6.511 -0.2762 -0.5746  0.5541
 2616SOL    HW119307   1.087   1.015   6.548 -0.3351 -1.2051  1.9404
 2616SOL    HW219308   1.091   0.902   6.437  0.6681  0.9535  0.4186
 2617SOL     OW19309   4.549   4.656   6.182  0.1892  0.2122  0.1775
 2617SOL    HW119310   4.485   4.678   6.115 -0.3655  1.1710  1.0188
 2617SOL    HW219311   4.516   4.717   6.248 -1.3345 -0.4435  0.0397
 2618SOL     OW19312   2.508   0.686   8.308 -0.3485 -0.0236 -0.1467
 2618SOL    HW119313   2.467   0.705   8.392  1.7312 -0.9317  1.0524
 2618SOL    HW219314   2.600   0.710   8.316 -0.3284 -0.2911  0.4165
 2619SOL     OW19315   2.496   1.914  14.539  0.0779  0.3328  0.3694
 2619SOL    HW119316   2.523   1.988  14.594  0.8661 -0.0173  0.4391
 2619SOL    HW219317   2.419   1.893  14.592 -0.5081  0.2911 -0.5094
 2620SOL     OW19318   0.782   4.086   7.228  0.0792  0.3769  0.2348
 2620SOL    HW119319   0.871   4.082   7.193  0.2248 -0.1562  0.6628
 2620SOL    HW219320   0.735   4.147   7.170  0.1175 -0.0602 -0.2541
 2621SOL     OW19321   1.968   1.513   6.055 -0.1960 -0.9967 -0.1851
 2621SOL    HW119322   2.026   1.438   6.069  2.3426  1.4319  2.1918
 2621SOL    HW219323   1.977   1.543   6.145  0.7092 -1.5641 -0.0854
 2622SOL     OW19324   3.098   2.598   4.288  0.0648  0.6247  0.4241
 2622SOL    HW119325   3.185   2.563   4.305  0.1982  0.5830 -0.3543
 2622SOL    HW219326   3.050   2.525   4.249 -1.1405  0.0038  3.1009
 2623SOL     OW19327   0.019   0.196  10.037 -0.1045 -0.4445 -0.1106
 2623SOL    HW119328   0.017   0.280  10.084 -3.5042 -0.0709 -0.9611
 2623SOL    HW219329   0.092   0.206   9.976 -0.1704 -2.1050 -0.4541
 2624SOL     OW19330   1.374   3.981   2.403 -0.2172  0.0780 -0.2174
 2624SOL    HW119331   1.303   3.974   2.466 -0.5161  1.0800 -0.4335
 2624SOL    HW219332   1.361   4.063   2.354  0.9576 -0.9687 -2.3197
 2625SOL     OW19333   1.045   4.601   1.047  0.5263 -0.2533  0.5012
 2625SOL    HW119334   0.958   4.596   1.087 -0.4008  0.2233 -1.4475
 2625SOL    HW219335   1.020   4.570   0.960 -0.9513 -0.3451  0.9550
 2626SOL     OW19336   0.116   3.484  17.350  0.3103  0.5530  0.2483
 2626SOL    HW119337   0.184   3.423  17.323 -1.1060 -0.3713 -1.2126
 2626SOL    HW219338   0.156   3.513  17.432 -1.2049 -1.4602  1.6814
 2627SOL     OW19339   2.697   2.533   5.358  0.2229 -0.3648 -0.8289
 2627SOL    HW119340   2.644   2.555   5.435  1.4558 -0.8392  0.1434
 2627SOL    HW219341   2.630   2.482   5.313  0.7655 -1.0302 -0.8847
 2628SOL     OW19342   0.523   4.480  14.391 -0.2102  0.2157 -0.3096
 2628SOL    HW119343   0.499   4.571  14.371 -1.3611 -0.0235 -0.0557
 2628SOL    HW219344   0.451   4.440  14.343 -0.5800  1.3952 -0.7549
 2629SOL     OW19345   0.495   0.677  13.299 -0.4587  0.5263  0.4319
 2629SOL    HW119346   0.511   0.583  13.304 -0.8570  0.4862  1.0191
 2629SOL    HW219347   0.574   0.708  13.344 -1.5588  0.4706  2.4375
 2630SOL     OW19348   3.233   1.201   6.613  0.3942  0.0154 -0.1174
 2630SOL    HW119349   3.173   1.128   6.598 -0.6547  0.7435  0.5025
 2630SOL    HW219350   3.181   1.239   6.684  0.6516  1.5512 -0.7415
 2631SOL     OW19351   3.094   1.880  16.143  0.5025 -0.0175 -0.2829
 2631SOL    HW119352   3.172   1.841  16.104  0.4025 -1.3439  0.8193
 2631SOL    HW219353   3.031   1.859  16.074  0.1581 -2.6259  0.7958
 2632SOL     OW19354   3.189   1.882   4.962  0.6358 -0.2337  0.1656
 2632SOL    HW119355   3.224   1.963   4.924 -0.8655  0.4051  0.1522
 2632SOL    HW219356   3.205   1.814   4.897 -1.0488 -1.0145  0.5667
 2633SOL     OW19357   4.182   3.825   4.630 -0.2070  0.5333  0.2982
 2633SOL    HW119358   4.271   3.799   4.606 -1.4830 -0.5073 -3.3711
 2633SOL    HW219359   4.179   3.920   4.625 -0.5184  0.4639 -0.7815
 2634SOL     OW19360   3.271   2.344   1.726 -0.2487 -0.3978 -0.2895
 2634SOL    HW119361   3.207   2.318   1.659  0.3876  1.6154 -1.7062
 2634SOL    HW219362   3.338   2.390   1.676 -0.9360 -0.7068 -1.4995
 2635SOL     OW19363   0.586   1.010   1.946  0.0761 -0.0368 -0.2844
 2635SOL    HW119364   0.581   0.978   2.036  0.5729 -0.9979 -0.6040
 2635SOL    HW219365   0.548   0.928   1.913  4.2824 -1.4624 -1.5248
 2636SOL     OW19366   4.077   1.727  15.216  0.6788 -0.3363  0.5857
 2636SOL    HW119367   4.154   1.717  15.161 -0.0278 -0.6858 -0.3341
 2636SOL    HW219368   4.028   1.741  15.134  0.0226 -2.6110  0.5998
 2637SOL     OW19369   1.141   4.242   8.811 -0.2016  0.3807  0.3007
 2637SOL    HW119370   1.172   4.330   8.791 -0.0191  0.3391  0.4034
 2637SOL    HW219371   1.227   4.205   8.830 -0.6204 -0.3106  0.8426
 2638SOL     OW19372   0.190   1.377   8.341  0.0112 -0.7437  0.1229
 2638SOL    HW119373   0.117   1.321   8.316 -0.3400 -0.1197 -0.2415
 2638SOL    HW219374   0.172   1.462   8.302  0.4945 -0.5209  0.3868
 2639SOL     OW19375   2.130   2.107   2.024  0.3272  0.3092 -0.4204
 2639SOL    HW119376   2.169   2.076   1.942  2.1028  1.3651  0.0261
 2639SOL    HW219377   2.043   2.135   1.994  1.4665  3.4356 -0.7649
 2640SOL     OW19378   3.020   1.141   7.399 -0.1315  0.1445  0.0777
 2640SOL    HW119379   3.110   1.146   7.367 -0.5788  1.8734 -0.9184
 2640SOL    HW219380   2.996   1.230   7.422  0.4913  0.2312  0.3894
 2641SOL     OW19381   3.341   1.986   2.742 -0.2605 -0.2956 -0.4374
 2641SOL    HW119382   3.267   2.013   2.687 -0.7657 -1.7723 -0.4865
 2641SOL    HW219383   3.394   1.945   2.674 -1.7242 -0.9933 -1.1696
 2642SOL     OW19384   3.077   4.470   7.497  0.3720 -0.1257  0.1376
 2642SOL    HW119385   3.166   4.497   7.520 -0.4544  2.8530 -0.2204
 2642SOL    HW219386   3.085   4.491   7.404 -1.9035 -0.9164 -0.2164
 2643SOL     OW19387   0.425   1.346   6.548 -0.6190 -0.0521 -0.6146
 2643SOL    HW119388   0.396   1.278   6.608  1.9011  2.2537  3.2058
 2643SOL    HW219389   0.515   1.366   6.573 -0.4307 -0.5262 -0.9052
 2644SOL     OW19390   2.814   2.415  14.000  0.1335 -0.0192 -0.3829
 2644SOL    HW119391   2.762   2.339  14.026  1.4697 -0.9448 -0.4091
 2644SOL    HW219392   2.743   2.469  13.965 -1.6177 -0.0684  3.0138
 2645SOL     OW19393   2.532   4.118   5.823 -0.4516  0.1982  0.0081
 2645SOL    HW119394   2.595   4.132   5.893 -1.1130 -0.7706  0.8009
 2645SOL    HW219395   2.581   4.170   5.759 -1.3617  2.3150  1.0364
 2646SOL     OW19396   3.641   3.737   4.261 -0.5719 -0.7333  0.3944
 2646SOL    HW119397   3.618   3.816   4.213  0.0090 -0.7706  0.0523
 2646SOL    HW219398   3.727   3.756   4.299  0.0046 -1.1388 -0.7214
 2647SOL     OW19399   3.301   2.737  11.493  0.4936 -0.5001  0.0348
 2647SOL    HW119400   3.304   2.703  11.583  0.0425 -2.8697 -0.8305
 2647SOL    HW219401   3.215   2.709  11.463  0.2834  2.0577 -1.6889
 2648SOL     OW19402   3.017   3.255  13.051 -0.3367 -0.5345 -0.1756
 2648SOL    HW119403   3.089   3.297  13.005 -0.9369 -1.4387 -1.9416
 2648SOL    HW219404   2.952   3.324  13.035 -1.6234 -1.7875 -0.3237
 2649SOL     OW19405   3.338   0.323   5.259  0.0859 -0.1748 -0.0328
 2649SOL    HW119406   3.407   0.351   5.319 -0.4067 -0.9008  0.8628
 2649SOL    HW219407   3.349   0.230   5.280  1.1849  0.0711  0.4922
 2650SOL     OW19408   1.474   4.197   2.039  0.0655  0.0314  0.8067
 2650SOL    HW119409   1.514   4.197   1.952  0.9207 -2.5635  1.2191
 2650SOL    HW219410   1.538   4.152   2.093  1.9965 -1.8122 -3.0197
 2651SOL     OW19411   4.626   1.303   7.906  1.0019 -0.1176 -0.1997
 2651SOL    HW119412   4.693   1.370   7.906  0.7054  0.1713  0.9124
 2651SOL    HW219413   4.545   1.354   7.904  0.3090 -1.2694 -1.9618
 2652SOL     OW19414   2.498   4.539   2.269 -0.3852  0.2686 -1.0836
 2652SOL    HW119415   2.575   4.585   2.234  2.6456 -4.0547 -0.1172
 2652SOL    HW219416   2.445   4.535   2.189 -1.1105  1.6288 -0.6671
 2653SOL     OW19417   1.582   2.579   5.240 -0.1452 -0.1529 -0.1225
 2653SOL    HW119418   1.628   2.508   5.196  3.9760  1.4586  1.6294
 2653SOL    HW219419   1.552   2.536   5.321  0.3021  0.2698  0.2704
 2654SOL     OW19420   3.219   4.572   2.459  0.2229 -0.8950  0.0689
 2654SOL    HW119421   3.195   4.501   2.400 -1.0460  0.2697 -0.7968
 2654SOL    HW219422   3.208   4.533   2.546 -1.6094 -1.8503 -0.5999
 2655SOL     OW19423   0.550   3.016   8.862  0.3698  0.5585  0.1426
 2655SOL    HW119424   0.511   3.026   8.949 -1.8969  1.3601 -0.9701
 2655SOL    HW219425   0.554   2.920   8.859  1.3855  0.6546 -2.0875
 2656SOL     OW19426   1.065   1.414   8.364 -0.2394  0.6324 -0.2008
 2656SOL    HW119427   1.066   1.510   8.369  1.3151  0.5601  0.6827
 2656SOL    HW219428   1.150   1.391   8.401 -1.1093 -0.5461  1.0660
 2657SOL     OW19429   4.572   4.183   7.563 -0.2086 -0.3988  0.2201
 2657SOL    HW119430   4.664   4.166   7.585  0.0274  0.3853 -0.1684
 2657SOL    HW219431   4.529   4.177   7.648 -1.9542 -0.5635 -0.6864
 2658SOL     OW19432   2.083   1.685   4.053  0.1500  0.1092  0.0332
 2658SOL    HW119433   2.177   1.684   4.033  0.3156  2.1165  0.7016
 2658SOL    HW219434   2.036   1.699   3.971 -1.7533 -0.4803  1.0140
 2659SOL     OW19435   3.927   4.172   7.267  0.2668 -0.3821  0.0467
 2659SOL    HW119436   4.021   4.157   7.279  0.0914 -1.1245  0.4576
 2659SOL    HW219437   3.895   4.169   7.357  1.4145 -0.1506  0.4658
 2660SOL     OW19438   1.494   4.470   3.670 -0.2437 -0.4891 -0.3102
 2660SOL    HW119439   1.467   4.502   3.756  0.9014 -1.6249  0.4622
 2660SOL    HW219440   1.572   4.521   3.649 -0.4439 -0.2340 -0.4346
 2661SOL     OW19441   1.770   2.999   0.835  0.5823  0.7753 -0.5903
 2661SOL    HW119442   1.822   3.072   0.869  0.0600  2.0699 -2.5140
 2661SOL    HW219443   1.759   2.939   0.908  1.3454  0.7866 -0.4641
 2662SOL     OW19444   0.339   4.199   6.466 -0.2283 -0.0797  0.4379
 2662SOL    HW119445   0.274   4.232   6.528 -1.0108 -0.0227 -0.4070
 2662SOL    HW219446   0.381   4.124   6.509 -0.8942  0.1998  1.5754
 2663SOL     OW19447   4.341   2.192   4.703 -0.1571 -0.1535 -0.0777
 2663SOL    HW119448   4.333   2.276   4.657 -0.6719 -0.1222  0.0704
 2663SOL    HW219449   4.435   2.181   4.720 -0.6773 -0.7329  2.4219
 2664SOL     OW19450   0.234   1.125   9.336 -0.2071 -0.0586 -0.0142
 2664SOL    HW119451   0.236   1.064   9.410 -0.6950 -1.0495 -0.8307
 2664SOL    HW219452   0.300   1.193   9.351  1.0026 -1.3191  0.3767
 2665SOL     OW19453   4.045   0.656   6.748  0.1326  0.1242  1.0902
 2665SOL    HW119454   3.989   0.666   6.671  1.5061  0.4698  0.1147
 2665SOL    HW219455   3.994   0.705   6.813 -1.4529 -1.5517  1.0871
 2666SOL     OW19456   1.397   0.088   0.101 -0.2557  0.4059 -0.3503
 2666SOL    HW119457   1.428   0.014   0.049  1.3237  0.3601  0.6624
 2666SOL    HW219458   1.307   0.096   0.067 -0.0105  0.0477 -1.0903
 2667SOL     OW19459   4.593   2.769   3.617 -0.3759 -0.2481 -0.3487
 2667SOL    HW119460   4.499   2.771   3.604 -0.3062  1.3739 -0.5896
 2667SOL    HW219461   4.592   2.723   3.701 -1.0169 -2.9644 -1.8319
 2668SOL     OW19462   0.528   2.101  12.706  0.1047  0.6976  0.1889
 2668SOL    HW119463   0.512   2.072  12.616  0.7096  0.5100  0.1356
 2668SOL    HW219464   0.620   2.074  12.713 -0.1032 -0.2680 -0.7826
 2669SOL     OW19465   0.334   3.654   6.455  0.0928 -0.0584  0.6336
 2669SOL    HW119466   0.419   3.616   6.435 -1.3347 -1.6953 -2.2729
 2669SOL    HW219467   0.357   3.700   6.536 -0.3293 -1.4468  1.5560
 2670SOL     OW19468   0.998   1.162   0.566 -0.0823  0.5071  0.1910
 2670SOL    HW119469   1.003   1.199   0.655  0.1214  0.8532  0.0373
 2670SOL    HW219470   1.074   1.191   0.515  0.1640 -2.5957 -1.1990
 2671SOL     OW19471   3.093   0.895   3.041 -0.1497 -0.0984  0.4026
 2671SOL    HW119472   3.156   0.949   3.089 -1.8186  1.6184  0.6438
 2671SOL    HW219473   3.117   0.813   3.084  3.9948  2.3981  2.9183
 2672SOL     OW19474   3.436   3.086  10.478  0.5162  0.1169 -0.0977
 2672SOL    HW119475   3.506   3.148  10.500  0.2439  0.1786  0.5873
 2672SOL    HW219476   3.484   3.027  10.420  0.7851  2.0529 -1.8507
 2673SOL     OW19477   3.910   1.284  13.858  0.0974 -0.3444 -0.1031
 2673SOL    HW119478   3.983   1.345  13.860 -0.1272 -0.1236  1.1053
 2673SOL    HW219479   3.881   1.295  13.767 -1.1563 -0.9130  0.2257
 2674SOL     OW19480   1.966   1.481  10.801 -0.5258 -0.5891 -0.6492
 2674SOL    HW119481   1.889   1.455  10.750 -0.0815 -2.2913 -0.4500
 2674SOL    HW219482   1.980   1.559  10.748  0.4809  0.6056  1.4000
 2675SOL     OW19483   2.711   3.535   1.967 -0.0913  0.3888 -0.1011
 2675SOL    HW119484   2.653   3.511   1.895 -0.2527 -2.4570  0.9608
 2675SOL    HW219485   2.662   3.602   2.015 -0.3961  0.3029 -0.2898
 2676SOL     OW19486   1.499   2.600   6.780  0.5584  0.0594  0.4186
 2676SOL    HW119487   1.419   2.638   6.818  1.2289  0.3950  1.4845
 2676SOL    HW219488   1.530   2.664   6.716  1.7243  0.1014  1.0311
 2677SOL     OW19489   0.121   2.328   7.314 -0.2712 -0.4791 -0.0449
 2677SOL    HW119490   0.212   2.306   7.298 -0.6825 -0.9761 -1.7179
 2677SOL    HW219491   0.065   2.255   7.288  1.0074 -1.0132 -1.3151
 2678SOL     OW19492   3.615   2.768   7.384  0.0423  0.1250 -0.1960
 2678SOL    HW119493   3.682   2.817   7.336  0.1817  1.4598  1.3432
 2678SOL    HW219494   3.627   2.812   7.469  1.3551  0.2727 -0.4497
 2679SOL     OW19495   3.155   2.586   6.126  0.4812  0.0011  0.3017
 2679SOL    HW119496   3.112   2.519   6.074 -0.0074 -0.9066  1.8715
 2679SOL    HW219497   3.139   2.550   6.213  1.9202 -1.0336  0.1411
 2680SOL     OW19498   1.987   0.731  15.120  0.0449  0.4106  0.2177
 2680SOL    HW119499   2.083   0.731  15.130  0.0841  1.5848 -0.1483
 2680SOL    HW219500   1.950   0.725  15.208 -0.3422  3.1279  0.2346
 2681SOL     OW19501   0.999   3.482   8.224  0.3066  0.0928  0.4025
 2681SOL    HW119502   1.076   3.483   8.167 -1.3595 -1.4390 -1.9136
 2681SOL    HW219503   0.959   3.400   8.196 -1.8427  0.9401  1.0284
 2682SOL     OW19504   3.093   1.544  13.718  0.2636  0.2714 -0.1017
 2682SOL    HW119505   3.080   1.521  13.626  0.7389  0.5333 -0.2351
 2682SOL    HW219506   3.082   1.639  13.718 -0.9456  0.1234 -1.8143
 2683SOL     OW19507   4.007   3.846   4.161 -0.1224 -0.2103  0.1997
 2683SOL    HW119508   4.038   3.929   4.123 -1.2400  0.0679 -0.1066
 2683SOL    HW219509   3.972   3.872   4.246 -1.0283 -1.4754  0.2033
 2684SOL     OW19510   0.870   2.443   6.380 -0.3099  0.1409  0.5916
 2684SOL    HW119511   0.922   2.503   6.435 -0.2042  2.3055 -1.8678
 2684SOL    HW219512   0.815   2.393   6.441  0.8753 -1.0201  0.7078
 2685SOL     OW19513   0.156   2.192   7.638  0.1395  0.0794 -0.3085
 2685SOL    HW119514   0.122   2.146   7.715 -0.4655  2.5487  0.8957
 2685SOL    HW219515   0.145   2.109   7.590 -1.0807 -0.1663  0.4080
 2686SOL     OW19516   4.312   0.814   6.366  0.4809 -0.2877  0.0676
 2686SOL    HW119517   4.318   0.899   6.410  2.1751 -0.0769 -0.5802
 2686SOL    HW219518   4.345   0.825   6.277  0.4199 -2.8744 -0.2659
 2687SOL     OW19519   4.526   3.583   6.318  0.0905  0.0767 -0.2561
 2687SOL    HW119520   4.534   3.489   6.332 -2.1587 -0.0592  0.0852
 2687SOL    HW219521   4.556   3.609   6.405 -2.3152  4.0708 -0.5882
 2688SOL     OW19522   1.280   4.374  12.949 -0.1089  0.0425  0.2447
 2688SOL    HW119523   1.201   4.322  12.935 -0.2005  0.3418 -0.3427
 2688SOL    HW219524   1.313   4.336  13.030 -0.1068 -1.4969 -0.4940
 2689SOL     OW19525   0.292   0.436   3.389 -0.1222  0.4601  0.1765
 2689SOL    HW119526   0.300   0.344   3.361  0.6910  0.5873 -0.0115
 2689SOL    HW219527   0.355   0.485   3.337 -1.5346 -0.1442 -2.0935
 2690SOL     OW19528   3.998   2.372  16.768 -0.2100  0.2824 -0.2204
 2690SOL    HW119529   3.976   2.291  16.721  1.0725 -0.7172  0.9319
 2690SOL    HW219530   3.943   2.353  16.844  1.1646  0.7626  0.8803
 2691SOL     OW19531   3.508   3.409  14.300  0.1594 -0.5137 -0.4469
 2691SOL    HW119532   3.516   3.315  14.313  1.7682 -0.0949  1.7390
 2691SOL    HW219533   3.488   3.425  14.208 -0.6212  0.5949 -0.0894
 2692SOL     OW19534   3.295   4.252   2.532  0.4985  0.3613  0.9077
 2692SOL    HW119535   3.244   4.172   2.521  0.0511  0.2892  3.5483
 2692SOL    HW219536   3.260   4.300   2.457 -0.7770  0.9237  1.8682
 2693SOL     OW19537   2.928   3.685  11.964  0.0436  0.2248  0.2835
 2693SOL    HW119538   2.943   3.730  11.881 -0.0004  1.8273  1.1323
 2693SOL    HW219539   2.886   3.760  12.007 -0.2712 -0.7118  1.6083
 2694SOL     OW19540   1.907   3.204   5.412  0.3844  0.1298  0.4287
 2694SOL    HW119541   1.946   3.290   5.397  0.1072 -0.2063 -2.2388
 2694SOL    HW219542   1.930   3.157   5.331 -1.4326  0.3743 -0.2125
 2695SOL     OW19543   2.923   1.980   6.654 -0.4258  0.1816  0.3160
 2695SOL    HW119544   2.963   1.917   6.594 -1.0518  0.7556 -0.7053
 2695SOL    HW219545   2.961   1.963   6.740  2.0208  0.8557 -0.6354
 2696SOL     OW19546   0.747   1.479   6.881 -0.3181  0.3632  0.1957
 2696SOL    HW119547   0.731   1.558   6.933 -1.6049 -1.6244  2.8447
 2696SOL    HW219548   0.829   1.441   6.913 -0.2711 -0.9892 -1.5272
 2697SOL     OW19549   1.425   0.718   2.619 -0.4538  0.4057  0.5164
 2697SOL    HW119550   1.429   0.791   2.557 -0.6363 -0.3141 -0.3460
 2697SOL    HW219551   1.438   0.657   2.546 -0.2074 -0.0954  0.9839
 2698SOL     OW19552   2.435   2.980   2.941 -0.6576 -0.0407 -0.3698
 2698SOL    HW119553   2.527   2.979   2.970 -0.1975  0.8132 -1.8046
 2698SOL    HW219554   2.427   3.045   2.871 -3.5503 -0.9845 -0.9122
 2699SOL     OW19555   2.618   3.406  14.817  0.4514 -0.5841 -0.0847
 2699SOL    HW119556   2.698   3.448  14.785  0.4212 -1.5492 -1.4140
 2699SOL    HW219557   2.607   3.469  14.888  1.4124 -1.8850  1.2338
 2700SOL     OW19558   2.974   1.772   7.702 -0.6363 -0.3946 -0.1257
 2700SOL    HW119559   2.919   1.756   7.779  0.9989 -0.3498  1.0422
 2700SOL    HW219560   2.911   1.817   7.646 -1.7270 -0.5893  0.9332
 2701SOL     OW19561   3.324   0.162   0.663  0.3475 -0.2648 -0.0552
 2701SOL    HW119562   3.312   0.249   0.626 -1.7305  0.3162  2.0799
 2701SOL    HW219563   3.419   0.149   0.654  0.5697  1.1026  0.4058
 2702SOL     OW19564   0.337   3.781   7.690  0.0808  0.0184  0.5662
 2702SOL    HW119565   0.356   3.690   7.669  0.4237  0.7123 -2.0964
 2702SOL    HW219566   0.388   3.787   7.771 -1.9638  1.7145  1.7400
 2703SOL     OW19567   2.158   1.572   7.232 -0.0019  0.4402 -0.1544
 2703SOL    HW119568   2.170   1.477   7.238 -0.1542  0.4531  0.3119
 2703SOL    HW219569   2.241   1.599   7.191 -0.6219  1.9769 -0.3825
 2704SOL     OW19570   2.241   2.206   7.240  0.2444 -0.3324 -0.4967
 2704SOL    HW119571   2.237   2.264   7.316  0.0460 -0.4026 -0.4543
 2704SOL    HW219572   2.153   2.216   7.205 -0.5706 -0.7385  1.4122
 2705SOL     OW19573   1.550   0.791   7.069  0.1259  0.4424 -0.3811
 2705SOL    HW119574   1.486   0.785   7.140  0.4309 -3.1923 -0.4133
 2705SOL    HW219575   1.630   0.778   7.120 -1.0414 -0.0883  1.2901
 2706SOL     OW19576   3.849   2.966   4.308  0.0769  0.3536  0.1957
 2706SOL    HW119577   3.930   2.973   4.256  1.8676  1.2231  3.0861
 2706SOL    HW219578   3.805   3.047   4.283 -0.6358 -0.3833 -0.9118
 2707SOL     OW19579   0.462   1.495   6.855  0.1219 -0.3585 -0.3260
 2707SOL    HW119580   0.557   1.490   6.854  0.1024 -1.0446  1.4546
 2707SOL    HW219581   0.436   1.412   6.815 -0.4004 -0.4750  0.2549
 2708SOL     OW19582   0.021   3.643   4.396 -0.0232  0.0646  0.4029
 2708SOL    HW119583   0.006   3.737   4.401  3.0730  0.5079  1.5084
 2708SOL    HW219584   4.724   3.616   4.486 -0.1991  0.6160  0.5271
 2709SOL     OW19585   4.463   2.976   1.535 -0.3930  0.1030  0.1696
 2709SOL    HW119586   4.432   3.011   1.619 -0.9178 -0.8268  0.3579
 2709SOL    HW219587   4.387   2.974   1.477 -0.9013  1.0684  0.7919
 2710SOL     OW19588   0.543   0.840   8.739  0.2555  0.0806 -0.2397
 2710SOL    HW119589   0.484   0.767   8.721  0.8408 -0.5443  0.3649
 2710SOL    HW219590   0.619   0.823   8.683 -0.5866  0.3350 -1.4407
 2711SOL     OW19591   0.399   1.046   6.261  0.0009 -0.5102 -0.2048
 2711SOL    HW119592   0.367   1.133   6.236  0.7043  0.2757  1.6497
 2711SOL    HW219593   0.373   1.057   6.352  0.2690  1.2196 -0.3376
 2712SOL     OW19594   3.960   0.375   4.058  0.6475  0.3591 -0.7293
 2712SOL    HW119595   3.919   0.427   4.127  0.1316 -0.8684 -0.1200
 2712SOL    HW219596   3.975   0.299   4.113  1.0017  0.5228 -0.5989
 2713SOL     OW19597   2.164   2.180   3.617 -0.2428 -0.1117  0.3613
 2713SOL    HW119598   2.141   2.209   3.529  0.7991  0.4902  0.2866
 2713SOL    HW219599   2.074   2.159   3.644  0.0360 -1.7097  0.0511
 2714SOL     OW19600   0.696   4.109  16.923 -0.0760 -0.0822  0.0188
 2714SOL    HW119601   0.665   4.019  16.933  0.6209 -0.3838 -0.5829
 2714SOL    HW219602   0.722   4.150  17.006 -1.2247  1.3928 -0.3534
 2715SOL     OW19603   3.094   0.382   6.245  0.5189  0.1412  0.0326
 2715SOL    HW119604   3.003   0.408   6.229  0.7634  0.2329 -1.2489
 2715SOL    HW219605   3.122   0.352   6.159  0.4319 -0.3428  0.1752
 2716SOL     OW19606   3.233   2.571   6.773 -0.6190 -0.0569  0.1830
 2716SOL    HW119607   3.289   2.576   6.850 -1.2867 -0.4682  0.6986
 2716SOL    HW219608   3.223   2.476   6.770 -0.9065 -0.1784  4.2974
 2717SOL     OW19609   4.618   2.867   2.948  0.1383  0.5225  0.2679
 2717SOL    HW119610   4.679   2.940   2.942  3.5704 -2.3765  0.1559
 2717SOL    HW219611   4.575   2.853   2.864  1.2309  0.3783 -0.2598
 2718SOL     OW19612   1.771   0.069   6.056  0.0195 -0.2787 -0.1038
 2718SOL    HW119613   1.774   0.091   5.963  3.5081 -0.8031 -0.1188
 2718SOL    HW219614   1.818   4.709   6.060 -0.6597 -0.7385 -1.7306
 2719SOL     OW19615   0.754   1.108   9.142 -0.1220  0.7876  0.4902
 2719SOL    HW119616   0.674   1.061   9.168  0.1960  0.8620  1.6037
 2719SOL    HW219617   0.802   1.031   9.110 -0.5714  0.7673 -0.1335
 2720SOL     OW19618   0.579   3.384   2.670 -0.2607  0.3137 -0.3733
 2720SOL    HW119619   0.648   3.406   2.607  4.0225 -3.1735  3.0987
 2720SOL    HW219620   0.515   3.358   2.604 -0.9266 -2.6852  1.4610
 2721SOL     OW19621   4.335   3.729   3.990  0.9394  0.1111  0.0397
 2721SOL    HW119622   4.290   3.751   3.909  0.0877  0.8132  0.7034
 2721SOL    HW219623   4.423   3.749   3.958  0.2096  1.5842 -1.0471
 2722SOL     OW19624   2.607   1.431   0.987 -0.3783  0.2335  0.1695
 2722SOL    HW119625   2.547   1.361   1.011  0.7091 -0.8678 -0.3886
 2722SOL    HW219626   2.621   1.402   0.897 -0.1868  2.7631 -0.6157
 2723SOL     OW19627   1.793   4.559  12.634 -0.1142  0.0526 -0.1367
 2723SOL    HW119628   1.885   4.585  12.634  0.1755 -0.9879  0.2909
 2723SOL    HW219629   1.785   4.552  12.729  2.0040 -2.2517 -0.1321
 2724SOL     OW19630   3.538   0.403   4.772  0.2879  0.3182 -0.5819
 2724SOL    HW119631   3.541   0.494   4.744 -0.1114  0.8436  1.0429
 2724SOL    HW219632   3.455   0.400   4.820  0.8513  2.2556  0.5170
 2725SOL     OW19633   3.973   0.675   3.437  0.3210 -0.0414 -0.1249
 2725SOL    HW119634   3.995   0.655   3.528 -0.1847 -0.6678 -0.1402
 2725SOL    HW219635   3.886   0.712   3.443  0.2186 -0.5435  1.3883
 2726SOL     OW19636   4.347   2.118   2.074 -0.1531 -0.3468  0.3731
 2726SOL    HW119637   4.376   2.088   1.988  0.8612  1.8677 -0.0526
 2726SOL    HW219638   4.344   2.213   2.064 -0.6502 -0.3957  0.0287
 2727SOL     OW19639   0.865   2.837   9.927 -0.0365  0.1670 -0.1475
 2727SOL    HW119640   0.918   2.897   9.979  0.0417  0.1492 -0.2051
 2727SOL    HW219641   0.904   2.874   9.847 -2.0015  0.5685 -0.9098
 2728SOL     OW19642   4.295   2.182   8.571 -0.0826 -0.1699 -0.3814
 2728SOL    HW119643   4.313   2.160   8.662 -0.6206  2.9268  0.4870
 2728SOL    HW219644   4.253   2.268   8.578  2.3227  0.9487  0.3499
 2729SOL     OW19645   3.679   1.734   4.227  0.3881 -0.6898  0.4783
 2729SOL    HW119646   3.760   1.778   4.202 -0.5000  0.6318 -0.0970
 2729SOL    HW219647   3.624   1.811   4.244  0.7343 -0.2349 -0.5066
 2730SOL     OW19648   3.590   1.759   3.241  0.2156 -0.1516  0.4283
 2730SOL    HW119649   3.637   1.814   3.304  0.0726  0.6709 -0.1903
 2730SOL    HW219650   3.655   1.699   3.205 -0.9390  0.2103 -2.2319
 2731SOL     OW19651   0.356   0.439   6.759  0.3074  0.2875 -0.5760
 2731SOL    HW119652   0.435   0.492   6.769  2.0115 -1.9993 -1.8415
 2731SOL    HW219653   0.374   0.412   6.669  1.2154  0.4835 -0.4498
 2732SOL     OW19654   2.188   4.147  16.074 -0.6025 -0.6357  0.1507
 2732SOL    HW119655   2.116   4.130  16.014 -0.2430 -2.3021  0.1683
 2732SOL    HW219656   2.249   4.194  16.018 -1.6059 -1.2236 -1.4276
 2733SOL     OW19657   4.652   2.905   7.606 -0.7514  0.1015  0.3013
 2733SOL    HW119658   0.015   2.869   7.626 -0.3568 -0.7207 -2.8249
 2733SOL    HW219659   4.619   2.837   7.547  0.0475 -0.9319  1.0272
 2734SOL     OW19660   2.832   2.322   5.122  0.0125 -0.5940  0.2567
 2734SOL    HW119661   2.792   2.283   5.044 -1.0901  2.8374 -0.9154
 2734SOL    HW219662   2.919   2.342   5.089 -0.3998  1.0388  0.1562
 2735SOL     OW19663   3.791   2.259   8.693 -0.0067 -0.2695  0.9280
 2735SOL    HW119664   3.786   2.348   8.658  0.7048 -0.1920  1.0154
 2735SOL    HW219665   3.717   2.262   8.754  0.9273 -2.5964  2.1649
 2736SOL     OW19666   0.457   3.470   3.094 -0.2359 -0.3561  0.0338
 2736SOL    HW119667   0.510   3.490   3.016  0.7666 -1.7619  0.3453
 2736SOL    HW219668   0.404   3.548   3.111 -0.2692 -0.4732  0.4474
 2737SOL     OW19669   4.632   1.105   8.516  0.0432  0.0884 -0.1176
 2737SOL    HW119670   4.635   1.013   8.544  0.8613  0.2246  0.2451
 2737SOL    HW219671   4.667   1.107   8.427 -1.4308 -1.3887 -0.7276
 2738SOL     OW19672   3.140   2.389   2.637 -0.0189  0.0588  0.1120
 2738SOL    HW119673   3.077   2.321   2.615  2.4148 -2.0920 -0.1219
 2738SOL    HW219674   3.193   2.338   2.697 -1.5543  0.7469  2.0710
 2739SOL     OW19675   0.906   0.149   5.721 -0.1248 -0.2288 -0.1447
 2739SOL    HW119676   0.859   0.092   5.783  1.5961 -1.2819  0.1832
 2739SOL    HW219677   0.838   0.163   5.655 -1.8788 -1.4294  1.3836
 2740SOL     OW19678   4.197   1.982   3.558  0.2155 -0.0227 -0.5949
 2740SOL    HW119679   4.287   2.009   3.573 -0.2876  0.8311  0.8761
 2740SOL    HW219680   4.203   1.890   3.532  2.8690 -0.3331  1.1472
 2741SOL     OW19681   0.454   0.218   3.887  0.1024  0.1878 -0.0612
 2741SOL    HW119682   0.429   0.210   3.795 -1.3156 -0.6923  0.4054
 2741SOL    HW219683   0.367   0.216   3.927  0.6070 -2.7975  0.8284
 2742SOL     OW19684   1.886   0.432  13.019 -0.0753 -0.0633  0.5091
 2742SOL    HW119685   1.879   0.414  12.926 -1.5517 -1.1735  0.8248
 2742SOL    HW219686   1.895   0.342  13.051 -0.3802  0.0217  0.8444
 2743SOL     OW19687   3.580   2.536   5.530  0.0316 -0.3148 -0.3026
 2743SOL    HW119688   3.574   2.621   5.486 -1.8257 -1.1445 -1.6356
 2743SOL    HW219689   3.488   2.513   5.542 -0.1518  1.1754  1.1653
 2744SOL     OW19690   2.501   1.008   4.138  0.2321 -0.6732  0.5517
 2744SOL    HW119691   2.531   1.097   4.159 -1.1824  0.7715 -3.4846
 2744SOL    HW219692   2.494   0.963   4.222  1.7766  0.5707  1.3606
 2745SOL     OW19693   1.791   3.666   7.372 -0.6098  0.1574 -0.1188
 2745SOL    HW119694   1.877   3.680   7.412 -0.1483 -2.1189 -0.3030
 2745SOL    HW219695   1.738   3.735   7.411 -0.8364 -0.3899  0.5386
 2746SOL     OW19696   2.408   2.383   7.523 -0.5214  0.3051  0.4621
 2746SOL    HW119697   2.330   2.339   7.491 -2.1311  2.5171  1.3954
 2746SOL    HW219698   2.421   2.331   7.603 -2.2403  1.1771  1.3083
 2747SOL     OW19699   1.832   4.627   4.834  0.3330  0.1218 -0.3893
 2747SOL    HW119700   1.820   4.640   4.740  2.5115  2.7569 -0.3141
 2747SOL    HW219701   1.928   4.626   4.834  0.3392  0.7506 -1.0221
 2748SOL     OW19702   1.726   1.489   5.903  0.0003  0.4325  0.3421
 2748SOL    HW119703   1.808   1.483   5.952  0.6329 -1.7295 -0.9631
 2748SOL    HW219704   1.758   1.503   5.814  0.0179  0.6560  0.3850
 2749SOL     OW19705   2.585   0.380   7.024 -0.2183 -0.1836  0.0717
 2749SOL    HW119706   2.598   0.403   6.932  0.9054 -0.9004  0.0567
 2749SOL    HW219707   2.633   0.452   7.064 -1.9584  0.2234  1.4117
 2750SOL     OW19708   2.626   0.115   0.638  0.1747  0.6516 -0.4470
 2750SOL    HW119709   2.563   0.069   0.583 -1.3084  0.1839  1.6607
 2750SOL    HW219710   2.692   0.048   0.649 -0.8103 -0.1221  0.6663
 2751SOL     OW19711   0.449   4.365   4.580 -0.3110 -0.3269 -0.1626
 2751SOL    HW119712   0.459   4.276   4.616  0.5619  0.3489  1.2565
 2751SOL    HW219713   0.381   4.415   4.625  1.6795  1.5790  0.7411
 2752SOL     OW19714   4.009   0.657   8.905 -0.0938  0.2012  0.4455
 2752SOL    HW119715   3.966   0.722   8.959  1.2208  3.6301 -2.6512
 2752SOL    HW219716   3.947   0.644   8.833  1.2232 -4.3984  0.0867
 2753SOL     OW19717   2.353   3.422   4.999  0.8811  0.0032 -0.3826
 2753SOL    HW119718   2.312   3.477   4.933 -1.8208  0.5128  1.7085
 2753SOL    HW219719   2.276   3.412   5.055  0.2091  1.1141 -1.1124
 2754SOL     OW19720   2.410   0.520  13.825  0.9913  0.0456  0.3377
 2754SOL    HW119721   2.362   0.551  13.748 -1.2257 -0.1201  1.6476
 2754SOL    HW219722   2.461   0.450  13.784  0.2117 -0.7596  0.7362
 2755SOL     OW19723   3.152   3.773   4.992 -0.1154  0.0417  0.0077
 2755SOL    HW119724   3.111   3.698   5.034  0.0554 -0.4842 -0.7543
 2755SOL    HW219725   3.110   3.782   4.907  3.4198  1.7423 -1.5789
 2756SOL     OW19726   3.042   1.035   6.577 -0.5457  0.6753 -0.3254
 2756SOL    HW119727   3.062   0.948   6.543  1.0006  0.9039 -0.0206
 2756SOL    HW219728   2.948   1.033   6.558 -0.4735  2.2179 -0.8723
 2757SOL     OW19729   2.368   3.972   4.113 -0.0911  0.4683 -0.2163
 2757SOL    HW119730   2.328   3.894   4.076 -1.5796  0.7005  0.9016
 2757SOL    HW219731   2.337   3.968   4.203 -2.1280  0.3389 -0.9292
 2758SOL     OW19732   3.087   3.242   5.813  0.4744 -0.1149  0.1722
 2758SOL    HW119733   3.059   3.259   5.903 -2.5511  0.1562 -0.8210
 2758SOL    HW219734   3.054   3.324   5.776  0.3008  0.2385  1.1204
 2759SOL     OW19735   1.530   1.922  11.993  0.1814 -0.0104  0.3845
 2759SOL    HW119736   1.606   1.869  11.970  2.0678  3.5257 -1.4814
 2759SOL    HW219737   1.550   2.004  11.949  0.4650 -0.0866  0.3743
 2760SOL     OW19738   2.013   0.931   3.158  0.6574  0.6681  0.0032
 2760SOL    HW119739   1.956   0.868   3.114  1.4786 -1.8623  2.5627
 2760SOL    HW219740   2.094   0.902   3.116 -0.1801 -1.8146  0.0920
 2761SOL     OW19741   0.862   2.359   1.635  0.3667 -0.4267 -0.2279
 2761SOL    HW119742   0.826   2.445   1.658 -1.7075 -0.3029 -3.9213
 2761SOL    HW219743   0.859   2.363   1.539  0.9598 -2.1460 -0.3173
 2762SOL     OW19744   1.170   1.020   7.151 -0.4496  0.1400  0.2019
 2762SOL    HW119745   1.155   1.050   7.061 -1.8090  0.8996  0.6771
 2762SOL    HW219746   1.128   1.089   7.201 -3.9672  0.1165 -2.6891
 2763SOL     OW19747   4.152   0.364   2.637  0.3929  0.5815 -0.6502
 2763SOL    HW119748   4.071   0.411   2.621 -1.5746 -1.9391  1.8302
 2763SOL    HW219749   4.178   0.347   2.546  0.2568  1.1476 -0.7931
 2764SOL     OW19750   0.430   2.250   0.463 -0.2381  0.6593 -0.1974
 2764SOL    HW119751   0.357   2.308   0.440 -0.8688  0.1650  0.5577
 2764SOL    HW219752   0.469   2.295   0.538 -3.6891  0.5264  1.6529
 2765SOL     OW19753   1.589   0.501   4.142  0.8019 -0.1800  0.0633
 2765SOL    HW119754   1.599   0.475   4.050  3.3094  0.3445  0.2048
 2765SOL    HW219755   1.674   0.474   4.175  0.7519  0.8433  1.0101
 2766SOL     OW19756   0.151   2.097   5.457  0.4918 -0.1419 -0.2374
 2766SOL    HW119757   0.185   2.128   5.541 -0.2491  1.3888 -0.5016
 2766SOL    HW219758   0.172   2.173   5.403  0.2407 -0.1418 -0.3338
 2767SOL     OW19759   4.159   4.461  13.708 -0.4587 -0.6022  0.1189
 2767SOL    HW119760   4.066   4.467  13.687 -0.3279  2.7726  0.5599
 2767SOL    HW219761   4.161   4.474  13.803 -1.1631 -0.2933  0.0922
 2768SOL     OW19762   2.711   2.504   6.794  0.5396 -0.5117  0.3216
 2768SOL    HW119763   2.638   2.533   6.738  0.2483 -0.5996  0.6532
 2768SOL    HW219764   2.693   2.544   6.879  1.3884 -0.4798  0.4774
 2769SOL     OW19765   4.248   3.903   9.950 -0.0687  0.2111  0.3198
 2769SOL    HW119766   4.269   3.927   9.860 -1.0182 -0.4542 -0.0821
 2769SOL    HW219767   4.242   3.808   9.939 -0.6446  0.2631  0.1599
 2770SOL     OW19768   3.304   0.258   2.758  0.1077 -0.1205 -0.3495
 2770SOL    HW119769   3.371   0.251   2.690 -0.2196 -3.8237 -0.3025
 2770SOL    HW219770   3.362   0.260   2.834 -0.3892 -1.2668  0.0651
 2771SOL     OW19771   4.505   0.095   3.614 -0.8888  0.5417 -0.0186
 2771SOL    HW119772   4.497   0.142   3.531  0.3658  1.7940  0.5443
 2771SOL    HW219773   4.482   0.167   3.674 -1.2904 -0.6183  1.2094
 2772SOL     OW19774   3.579   1.913   7.683 -1.0064 -0.3545  0.6671
 2772SOL    HW119775   3.665   1.932   7.722 -1.1845  0.7732  0.5037
 2772SOL    HW219776   3.539   1.855   7.748 -2.2257  0.5216  0.6824
 2773SOL     OW19777   0.426   1.919   9.499 -0.2757  0.1015  0.0338
 2773SOL    HW119778   0.522   1.927   9.495 -0.2782 -0.1006 -0.5160
 2773SOL    HW219779   0.423   1.962   9.584 -0.5624  1.5965 -0.7311
 2774SOL     OW19780   3.065   4.310  16.326  0.5163 -0.5262  0.2459
 2774SOL    HW119781   3.125   4.272  16.391 -2.3588 -0.0511  3.1789
 2774SOL    HW219782   2.984   4.301  16.377  1.5976  0.2007  2.1003
 2775SOL     OW19783   3.265   4.094   7.558  0.6440  0.1562 -0.0758
 2775SOL    HW119784   3.320   4.081   7.481 -0.0037 -0.5276 -0.4224
 2775SOL    HW219785   3.327   4.127   7.623 -1.2471 -0.3463  1.9789
 2776SOL     OW19786   1.147   1.548   1.744  0.4532 -0.6180  0.2972
 2776SOL    HW119787   1.110   1.636   1.744 -1.8589 -1.6020  2.6345
 2776SOL    HW219788   1.130   1.518   1.654 -0.3226 -0.5642  0.4311
 2777SOL     OW19789   1.944   2.422   1.391 -0.7081 -0.0195  0.3756
 2777SOL    HW119790   1.954   2.380   1.476 -0.5857  0.4291  0.5838
 2777SOL    HW219791   1.857   2.402   1.357 -1.3277  2.3223  0.5596
 2778SOL     OW19792   4.438   3.624   3.598 -0.2092 -0.1388  0.2082
 2778SOL    HW119793   4.444   3.672   3.680  0.4377  0.1046  0.0158
 2778SOL    HW219794   4.460   3.696   3.539  0.2866  0.9840  1.7775
 2779SOL     OW19795   2.560   1.647   5.161 -0.5840  0.1841 -0.2048
 2779SOL    HW119796   2.590   1.668   5.072  0.2635 -0.8102 -0.1558
 2779SOL    HW219797   2.627   1.689   5.214 -0.7409  1.0308 -0.6716
 2780SOL     OW19798   0.120   1.807   6.555  0.4389 -0.1659 -0.4030
 2780SOL    HW119799   0.190   1.782   6.495 -0.4732 -0.1480 -1.4887
 2780SOL    HW219800   0.164   1.785   6.637  1.4346 -1.8510 -1.3773
 2781SOL     OW19801   0.550   1.741   8.864  0.5996  0.0496 -0.5358
 2781SOL    HW119802   0.549   1.651   8.898  2.1545 -0.3771 -1.6592
 2781SOL    HW219803   0.541   1.736   8.769 -0.0747  0.8290 -0.5150
 2782SOL     OW19804   3.985   3.537  14.653 -0.2880  0.1665 -0.0686
 2782SOL    HW119805   3.929   3.462  14.634 -1.0458  0.4371  1.1036
 2782SOL    HW219806   4.061   3.496  14.694  0.9942  0.1372 -2.4821
 2783SOL     OW19807   2.360   3.981   5.547 -0.3370 -0.3990  0.0505
 2783SOL    HW119808   2.380   3.918   5.617  1.5788  0.0253 -0.1232
 2783SOL    HW219809   2.393   4.062   5.585  1.6271 -0.4831 -1.4787
 2784SOL     OW19810   2.650   1.998   6.622 -0.3569 -0.1757 -0.2152
 2784SOL    HW119811   2.745   1.995   6.625 -0.4136 -1.2043  0.4670
 2784SOL    HW219812   2.630   1.931   6.557 -0.7861 -1.2512  1.0275
 2785SOL     OW19813   1.527   3.275   6.572 -0.0834  0.1152 -0.2685
 2785SOL    HW119814   1.515   3.369   6.581  0.7883  0.3115 -1.0881
 2785SOL    HW219815   1.440   3.245   6.544  0.2326 -0.1859 -0.9326
 2786SOL     OW19816   0.545   0.434   8.607 -0.1281 -0.7512 -0.4306
 2786SOL    HW119817   0.512   0.472   8.525 -0.5509 -0.6864 -0.2335
 2786SOL    HW219818   0.634   0.412   8.579  1.0253  0.2400  2.4064
 2787SOL     OW19819   3.503   3.965   2.014  0.3564 -0.0107 -0.3556
 2787SOL    HW119820   3.566   4.017   1.963  0.1620  0.2480 -0.3333
 2787SOL    HW219821   3.425   4.019   2.029  0.6273  0.3677 -0.3123
 2788SOL     OW19822   0.172   3.363  11.822 -0.3461 -0.0917  0.2674
 2788SOL    HW119823   0.115   3.433  11.855  0.6164  0.4261  0.8301
 2788SOL    HW219824   0.120   3.336  11.746 -0.5284  0.5415  0.1728
 2789SOL     OW19825   3.591   2.029   4.800  0.2544  0.2433 -0.5507
 2789SOL    HW119826   3.496   2.025   4.786  0.1872 -1.6639  0.4644
 2789SOL    HW219827   3.595   2.070   4.886  1.7440 -1.5895  0.2560
 2790SOL     OW19828   1.874   0.887   5.054  0.3751 -0.2356  0.7753
 2790SOL    HW119829   1.825   0.967   5.034  0.3404  0.1564  2.4527
 2790SOL    HW219830   1.909   0.858   4.970 -1.4986 -0.3974  0.0393
 2791SOL     OW19831   2.425   2.330   5.541  0.1542 -0.3638 -0.1650
 2791SOL    HW119832   2.363   2.310   5.612 -1.1998 -2.8420 -2.0165
 2791SOL    HW219833   2.437   2.425   5.539 -1.4517 -0.1282  0.6546
 2792SOL     OW19834   2.730   4.300   1.002  0.3931  0.0649 -0.6096
 2792SOL    HW119835   2.705   4.215   1.038 -0.3225  0.2043 -0.7740
 2792SOL    HW219836   2.656   4.324   0.947 -0.3834 -1.0990 -0.0823
 2793SOL     OW19837   1.047   1.499   3.188  0.6778 -0.1552  0.0258
 2793SOL    HW119838   1.110   1.527   3.255 -0.3160  0.6823  0.6126
 2793SOL    HW219839   1.094   1.502   3.105 -2.3496 -0.3134 -1.7102
 2794SOL     OW19840   3.107   1.715   5.980 -0.2959  0.3688 -0.1614
 2794SOL    HW119841   3.094   1.764   5.899 -0.3613  0.9550  0.1975
 2794SOL    HW219842   3.117   1.628   5.942 -0.1962  0.8715 -1.2878
 2795SOL     OW19843   2.998   1.850   9.203 -0.6069 -0.0937  0.1507
 2795SOL    HW119844   3.036   1.790   9.267 -1.7766 -1.0755 -0.0884
 2795SOL    HW219845   2.960   1.792   9.137 -0.3418  1.6515 -1.5544
 2796SOL     OW19846   4.723   0.837  11.955  0.0266 -0.3378  0.1476
 2796SOL    HW119847   4.668   0.854  11.878 -1.2468  0.1188  1.1572
 2796SOL    HW219848   4.719   0.741  11.958  1.7948 -0.4087  0.1760
 2797SOL     OW19849   0.151   3.681   2.939  0.2301 -0.2143  0.1938
 2797SOL    HW119850   0.119   3.770   2.922  2.0902  0.3651 -0.3467
 2797SOL    HW219851   0.226   3.698   2.996  0.5535 -0.1954 -0.2317
 2798SOL     OW19852   2.082   0.490   1.229  0.3150 -0.2818 -0.6286
 2798SOL    HW119853   2.028   0.500   1.150  1.6493  1.0641 -1.3779
 2798SOL    HW219854   2.117   0.401   1.225  0.0500 -0.3793 -0.7728
 2799SOL     OW19855   1.569   0.757   3.591  0.4809  0.5367 -0.5382
 2799SOL    HW119856   1.610   0.716   3.667 -2.1427 -0.8396  0.1323
 2799SOL    HW219857   1.557   0.680   3.535 -1.2564  0.7958 -0.5312
 2800SOL     OW19858   1.035   1.220   7.266  0.1144 -0.3625  0.3715
 2800SOL    HW119859   1.074   1.241   7.350 -1.7114 -1.3926  1.4670
 2800SOL    HW219860   0.944   1.247   7.282  0.6443 -0.8620  4.0261
 2801SOL     OW19861   3.659   2.821  14.347 -0.5810  0.1620  0.3372
 2801SOL    HW119862   3.725   2.890  14.349 -0.0091 -0.2658 -3.6539
 2801SOL    HW219863   3.660   2.788  14.257 -2.1570 -0.7619  0.6504
 2802SOL     OW19864   4.559   2.774   9.104  0.1914 -0.2419 -0.2294
 2802SOL    HW119865   4.595   2.848   9.056  1.6866 -1.4695 -0.9852
 2802SOL    HW219866   4.602   2.691   9.084  0.5442 -0.5253  1.7043
 2803SOL     OW19867   3.973   1.029   3.483  0.6018  0.6311 -0.4164
 2803SOL    HW119868   4.063   1.010   3.457  0.8915 -1.7201  2.2688
 2803SOL    HW219869   3.979   1.005   3.576  1.2596  0.6139 -0.4595
 2804SOL     OW19870   0.455   1.525   7.536  0.1296 -0.3047  0.0447
 2804SOL    HW119871   0.495   1.490   7.616  0.0594 -0.0813  0.1766
 2804SOL    HW219872   0.427   1.444   7.493  0.2079  0.7144 -1.9097
 2805SOL     OW19873   3.384   3.851   2.456  0.8253 -1.0438 -0.1597
 2805SOL    HW119874   3.449   3.790   2.422  0.4125 -2.1387  1.0480
 2805SOL    HW219875   3.317   3.788   2.481 -0.3428 -0.1566 -1.0142
 2806SOL     OW19876   3.908   3.159   3.222  0.0966  0.4932 -0.3631
 2806SOL    HW119877   3.995   3.122   3.213 -0.3739 -0.5649 -0.5219
 2806SOL    HW219878   3.932   3.242   3.263 -0.4744  0.6535 -0.3521
 2807SOL     OW19879   2.274   0.518   8.086  0.0360 -0.3726 -0.1459
 2807SOL    HW119880   2.267   0.445   8.148 -0.9704  0.8119  1.1558
 2807SOL    HW219881   2.201   0.572   8.119  0.1407 -1.4462  1.8800
 2808SOL     OW19882   1.787   2.524  12.513  0.2237 -0.3430 -0.7037
 2808SOL    HW119883   1.709   2.508  12.460 -1.1036 -2.8632  2.0248
 2808SOL    HW219884   1.853   2.469  12.471 -0.8063 -2.1729  0.0247
 2809SOL     OW19885   1.347   2.713   3.571  0.2765  0.0051  0.3348
 2809SOL    HW119886   1.351   2.794   3.521 -0.4029  0.4165  0.9482
 2809SOL    HW219887   1.436   2.681   3.585  0.2511 -0.3538 -0.2921
 2810SOL     OW19888   3.425   2.001   3.148  0.3668  0.1089 -0.5242
 2810SOL    HW119889   3.430   2.035   3.237  1.6996 -1.6078  0.0531
 2810SOL    HW219890   3.474   1.920   3.165  1.8781  1.1024 -0.1325
 2811SOL     OW19891   1.869   4.484   0.196 -0.3079 -0.1082 -0.3204
 2811SOL    HW119892   1.945   4.476   0.139 -0.1798  0.7772 -0.2716
 2811SOL    HW219893   1.912   4.451   0.275  0.7499  2.1288  0.0411
 2812SOL     OW19894   3.581   4.022   4.300 -0.2424 -0.0832 -0.2200
 2812SOL    HW119895   3.556   4.115   4.305  0.1972  0.0899 -1.2520
 2812SOL    HW219896   3.537   3.979   4.373  0.4716  0.9421  0.8127
 2813SOL     OW19897   2.896   3.789  14.436  0.2334 -0.0354  0.6141
 2813SOL    HW119898   2.884   3.829  14.522 -0.3337 -0.4163  0.7096
 2813SOL    HW219899   2.808   3.778  14.400  0.0912 -0.9110  1.2425
 2814SOL     OW19900   2.357   1.800   0.671  0.0848 -0.5575 -0.1525
 2814SOL    HW119901   2.281   1.781   0.615  1.4884 -1.6392 -1.6784
 2814SOL    HW219902   2.369   1.892   0.649 -2.0899 -0.1525  0.3806
 2815SOL     OW19903   2.996   4.040   3.930  0.2886  0.1632  0.2692
 2815SOL    HW119904   3.071   3.987   3.955 -0.4069 -0.6166  0.7193
 2815SOL    HW219905   2.982   4.006   3.842  1.0302  1.6848 -0.4283
 2816SOL     OW19906   3.628   4.648   3.130 -0.1834 -0.0753 -0.4176
 2816SOL    HW119907   3.649   4.712   3.061  1.4613 -0.3798 -0.2034
 2816SOL    HW219908   3.711   4.600   3.134 -0.6258 -0.9543 -2.2482
 2817SOL     OW19909   1.535   0.004  14.874 -0.1173  0.0358 -0.2214
 2817SOL    HW119910   1.593   0.031  14.803 -1.0501  0.0991 -0.9715
 2817SOL    HW219911   1.596   4.713  14.946  1.6752  3.1211 -1.1098
 2818SOL     OW19912   1.169   3.598   6.633  0.4578 -0.3138  0.8421
 2818SOL    HW119913   1.134   3.545   6.705 -0.3984 -0.4402  0.3239
 2818SOL    HW219914   1.256   3.622   6.665 -0.1242  0.7358  1.6590
 2819SOL     OW19915   0.130   3.867  12.535  0.3072  0.6041 -0.1402
 2819SOL    HW119916   0.044   3.831  12.557  1.3874 -1.9463 -0.1053
 2819SOL    HW219917   0.147   3.848  12.443  0.6161 -2.7366  0.6223
 2820SOL     OW19918   1.649   0.790  16.368  0.7201  0.4593  0.1554
 2820SOL    HW119919   1.565   0.745  16.376  0.6022  0.5096 -0.7803
 2820SOL    HW219920   1.643   0.842  16.287  1.3366 -0.0597 -0.2192
 2821SOL     OW19921   3.343   0.884  15.495 -0.1256  0.4129  0.4303
 2821SOL    HW119922   3.412   0.853  15.438 -0.4062  0.6364 -0.0358
 2821SOL    HW219923   3.384   0.966  15.523  1.3595 -0.3209  0.4006
 2822SOL     OW19924   4.231   1.798   8.279 -0.0989 -0.0235 -0.7722
 2822SOL    HW119925   4.197   1.748   8.206 -0.2014 -0.0582 -0.7009
 2822SOL    HW219926   4.268   1.720   8.320 -2.5413 -1.1544 -0.7126
 2823SOL     OW19927   1.186   2.169   2.096  0.5408  0.5927 -0.2177
 2823SOL    HW119928   1.185   2.257   2.058  2.8240  0.3119 -0.9277
 2823SOL    HW219929   1.148   2.112   2.029 -0.7483 -0.0815  1.0794
 2824SOL     OW19930   2.076   1.613   8.934  0.2423 -0.9032  0.1841
 2824SOL    HW119931   2.032   1.697   8.920  2.5392  0.3978  0.6901
 2824SOL    HW219932   2.108   1.625   9.023 -0.6868  0.8013  0.2802
 2825SOL     OW19933   0.684   0.948   4.459  1.2462  0.2113 -0.3574
 2825SOL    HW119934   0.755   1.004   4.490  1.0049 -0.2028  0.9809
 2825SOL    HW219935   0.719   0.917   4.376  0.6447  1.6765 -1.1553
 2826SOL     OW19936   1.734   4.669  15.089  0.0509  0.0301  0.3879
 2826SOL    HW119937   1.793   0.009  15.049 -1.2380 -0.5142 -2.3775
 2826SOL    HW219938   1.788   4.635  15.161 -0.7648 -1.1024  0.4644
 2827SOL     OW19939   1.502   0.005   4.750  0.1498 -0.1128 -0.5617
 2827SOL    HW119940   1.576   0.052   4.789  0.7640 -0.9398 -0.7217
 2827SOL    HW219941   1.440   0.078   4.756  1.7027  1.1619  0.0724
 2828SOL     OW19942   3.819   3.824   5.152 -0.3619 -0.7716 -0.1942
 2828SOL    HW119943   3.741   3.769   5.149 -0.9486 -0.0840  2.3647
 2828SOL    HW219944   3.884   3.754   5.155 -0.9306 -1.1955  2.0439
 2829SOL     OW19945   3.691   3.876   6.189 -0.0885  0.0230  0.8081
 2829SOL    HW119946   3.670   3.867   6.096  2.3154 -1.3030  0.3870
 2829SOL    HW219947   3.778   3.914   6.183  0.0566 -0.3813  0.3575
 2830SOL     OW19948   4.621   0.106   2.265 -0.5428 -0.3009  0.1340
 2830SOL    HW119949   4.566   0.052   2.208 -0.7932  0.1265 -0.0353
 2830SOL    HW219950   4.613   0.071   2.353 -0.7200  1.5434  0.8463
 2831SOL     OW19951   0.836   4.148   5.018 -0.1241  0.2767 -0.8092
 2831SOL    HW119952   0.892   4.124   5.092 -2.5348 -0.5257  0.7217
 2831SOL    HW219953   0.884   4.226   4.989  0.4984 -0.9463 -3.0365
 2832SOL     OW19954   2.150   4.342   5.597 -0.6063 -0.1982  0.6325
 2832SOL    HW119955   2.194   4.426   5.612  1.8133 -0.9870 -1.9390
 2832SOL    HW219956   2.190   4.288   5.664  0.1090 -0.7146 -0.2071
 2833SOL     OW19957   4.410   3.137   2.554  0.1703 -0.1335 -0.7625
 2833SOL    HW119958   4.481   3.189   2.592  0.7946 -2.3513  1.1010
 2833SOL    HW219959   4.330   3.149   2.605  0.4484  1.0471 -0.5827
 2834SOL     OW19960   4.199   0.902   9.441  0.0820  0.2695 -0.8481
 2834SOL    HW119961   4.259   0.971   9.410  0.1933  1.3762  1.8230
 2834SOL    HW219962   4.267   0.847   9.480  0.5371 -1.5738 -4.2175
 2835SOL     OW19963   2.073   4.332   9.256 -0.1073 -0.2811 -0.0016
 2835SOL    HW119964   2.022   4.311   9.178  0.6433  1.3316 -0.9210
 2835SOL    HW219965   2.134   4.258   9.254 -0.3172 -0.4514 -0.0913
 2836SOL     OW19966   0.610   3.352   1.655  0.5049  0.0229 -0.3319
 2836SOL    HW119967   0.621   3.400   1.738  1.5194 -0.8006 -0.0021
 2836SOL    HW219968   0.537   3.291   1.664  0.0338  0.6093 -0.1347
 2837SOL     OW19969   3.612   3.850   3.239  0.7392  0.1450  0.3883
 2837SOL    HW119970   3.677   3.851   3.169  0.0925 -0.6870 -0.2239
 2837SOL    HW219971   3.534   3.839   3.184  1.9172 -0.3308 -1.1811
 2838SOL     OW19972   0.894   2.503   7.194 -0.0823  0.1394  0.4028
 2838SOL    HW119973   0.849   2.458   7.265  0.5946 -0.6876  0.2994
 2838SOL    HW219974   0.911   2.429   7.137 -0.1931  0.1530  0.3528
 2839SOL     OW19975   3.142   3.363  11.902 -0.0818 -0.6710  0.1283
 2839SOL    HW119976   3.228   3.391  11.932  0.3724 -2.1896  0.2374
 2839SOL    HW219977   3.143   3.403  11.815 -1.0126  0.5799  0.6945
 2840SOL     OW19978   1.742   3.197   1.673 -0.2500 -0.3252  0.4274
 2840SOL    HW119979   1.675   3.217   1.738  0.7572 -0.6496  1.5766
 2840SOL    HW219980   1.696   3.196   1.589  0.4975  0.6879  0.0012
 2841SOL     OW19981   2.419   2.766   4.908  0.4141 -0.0878  0.2927
 2841SOL    HW119982   2.401   2.826   4.836 -0.5095 -1.2707 -0.4654
 2841SOL    HW219983   2.330   2.739   4.927 -0.3424  0.0839 -3.0342
 2842SOL     OW19984   1.371   3.597   6.217  0.1343 -0.3390 -0.9287
 2842SOL    HW119985   1.384   3.517   6.166 -1.2671 -1.6587  0.7802
 2842SOL    HW219986   1.277   3.596   6.195  0.1187  2.4372 -1.0005
 2843SOL     OW19987   1.197   4.706  16.595  0.1440  0.2525 -0.1008
 2843SOL    HW119988   1.119   0.029  16.565  0.6756  1.0688 -0.2090
 2843SOL    HW219989   1.256   0.016  16.528  3.2338 -0.5744  2.2072
 2844SOL     OW19990   3.027   3.718  10.223 -0.0986 -0.2485 -0.0649
 2844SOL    HW119991   2.950   3.764  10.255  0.8006  2.7273 -2.1819
 2844SOL    HW219992   2.997   3.681  10.139  0.8995 -0.7972 -0.1840
 2845SOL     OW19993   1.216   3.849   4.615  0.3114 -0.1473  0.1470
 2845SOL    HW119994   1.211   3.893   4.700 -1.6794 -0.4125  0.1722
 2845SOL    HW219995   1.128   3.863   4.579 -0.2108  1.7912  2.2098
 2846SOL     OW19996   4.014   0.490   4.702  0.3360  0.0461  0.1303
 2846SOL    HW119997   4.030   0.418   4.641 -1.4447  0.4216 -0.7802
 2846SOL    HW219998   3.973   0.452   4.780  0.9096 -0.8368 -0.0012
 2847SOL     OW19999   2.411   3.847   2.955  0.1114 -0.2368 -0.7547
 2847SOL    HW120000   2.346   3.915   2.971  0.2273 -0.3153  0.0507
 2847SOL    HW220001   2.453   3.883   2.877  1.9844  0.9413  0.7819
 2848SOL     OW20002   1.994   0.434  12.691 -0.1693 -0.1907  0.2174
 2848SOL    HW120003   1.899   0.433  12.704 -0.3953  0.7776 -1.3363
 2848SOL    HW220004   2.017   0.521  12.724 -0.4588 -0.7295  1.8626
 2849SOL     OW20005   4.126   2.553   5.919  0.2022 -0.7416 -0.2555
 2849SOL    HW120006   4.125   2.527   6.011 -2.9108 -4.2414 -1.3002
 2849SOL    HW220007   4.172   2.480   5.877  1.2911 -0.7946  1.0228
 2850SOL     OW20008   2.721   3.473   9.057  0.4043 -0.0513 -0.2306
 2850SOL    HW120009   2.673   3.499   9.136  0.4621 -1.3608  0.2341
 2850SOL    HW220010   2.691   3.541   8.997 -2.1879  0.9484  2.1848
 2851SOL     OW20011   0.482   0.001  11.647 -0.2456 -0.2240  0.3248
 2851SOL    HW120012   0.571   0.012  11.613 -1.2875  4.4055 -0.8937
 2851SOL    HW220013   0.428   4.701  11.572 -0.3789  1.5325 -0.1342
 2852SOL     OW20014   1.048   4.421  11.099 -0.4261  0.1466 -0.0318
 2852SOL    HW120015   1.085   4.332  11.102 -2.0261 -0.5019  0.3002
 2852SOL    HW220016   1.016   4.436  11.188 -0.4752  1.0814 -0.2174
 2853SOL     OW20017   2.270   1.991  10.138 -0.2068 -0.1886 -0.3477
 2853SOL    HW120018   2.245   1.950  10.221  0.4969  0.3004  0.1072
 2853SOL    HW220019   2.184   2.004  10.097 -0.7770  1.1652  1.2706
 2854SOL     OW20020   0.540   3.555   2.285 -0.1041 -0.1387 -0.0127
 2854SOL    HW120021   0.454   3.519   2.305  0.4238  0.2487  2.8719
 2854SOL    HW220022   0.561   3.484   2.224  0.2737  1.3299 -1.6406
 2855SOL     OW20023   4.225   3.821   6.970 -0.1340 -0.4347 -0.2491
 2855SOL    HW120024   4.214   3.906   6.929  0.8938 -0.6929 -1.0434
 2855SOL    HW220025   4.165   3.771   6.914  1.5788  0.7466 -3.1122
 2856SOL     OW20026   0.584   4.439   4.070  0.3045  0.1908  0.3727
 2856SOL    HW120027   0.576   4.401   4.157  0.1892 -1.9878 -0.5728
 2856SOL    HW220028   0.550   4.528   4.081  1.4285  0.7313 -0.5374
 2857SOL     OW20029   1.725   3.848   7.131 -0.2111 -0.0947 -0.2037
 2857SOL    HW120030   1.720   3.930   7.181 -1.7873 -0.0043 -0.4892
 2857SOL    HW220031   1.781   3.801   7.193  1.2958  2.0626  0.0822
 2858SOL     OW20032   1.886   2.359   5.670 -0.0138 -0.6574  0.0250
 2858SOL    HW120033   1.970   2.374   5.714  0.6671 -0.5370 -1.3101
 2858SOL    HW220034   1.837   2.433   5.706 -1.7662 -1.3119 -1.0339
 2859SOL     OW20035   2.439   0.456   7.633  0.2198  0.3059  0.0368
 2859SOL    HW120036   2.391   0.476   7.714  1.6954  1.8622  0.5381
 2859SOL    HW220037   2.496   0.382   7.656  0.6847  0.2473 -1.3086
 2860SOL     OW20038   0.271   2.875  17.060 -0.3088 -0.2642 -0.2754
 2860SOL    HW120039   0.192   2.848  17.012  0.7330  0.8826 -2.6149
 2860SOL    HW220040   0.327   2.882  16.983  1.9886 -1.4501  1.2827
 2861SOL     OW20041   4.574   4.179   6.419 -0.0679  0.3004  0.4454
 2861SOL    HW120042   4.490   4.181   6.465 -1.4682 -2.5905 -1.9678
 2861SOL    HW220043   4.591   4.272   6.403 -1.7408  0.5520  0.1217
 2862SOL     OW20044   2.159   1.750  15.553  0.1320  0.0041 -0.5573
 2862SOL    HW120045   2.158   1.802  15.634 -0.2602 -0.2758 -0.3798
 2862SOL    HW220046   2.067   1.762  15.529 -0.3793 -0.3755  1.2115
 2863SOL     OW20047   0.450   1.667   5.498 -0.1947  0.2674 -0.0740
 2863SOL    HW120048   0.443   1.651   5.404 -0.4629  0.0506 -0.0179
 2863SOL    HW220049   0.447   1.576   5.528  0.9578  0.7330  1.4333
 2864SOL     OW20050   4.339   4.544   6.489 -0.2253 -0.4281 -0.4302
 2864SOL    HW120051   4.399   4.495   6.433 -1.1121 -1.6899 -0.2761
 2864SOL    HW220052   4.402   4.608   6.523  0.2948 -0.4330 -1.3629
 2865SOL     OW20053   2.022   2.076   1.593 -0.2254 -0.0415  0.5019
 2865SOL    HW120054   1.953   2.011   1.604 -1.8886  1.4782 -0.7943
 2865SOL    HW220055   2.054   2.044   1.509 -0.2210  0.8382  0.1621
 2866SOL     OW20056   0.724   3.083  12.470 -0.3465 -0.1001 -0.2333
 2866SOL    HW120057   0.691   3.171  12.452  1.9436  0.7908 -0.0320
 2866SOL    HW220058   0.640   3.037  12.474  0.4301 -1.5926 -1.0302
 2867SOL     OW20059   3.923   1.544   6.538  0.4967  0.1896 -0.0848
 2867SOL    HW120060   3.945   1.611   6.603  2.3684  1.6302 -2.2279
 2867SOL    HW220061   4.008   1.510   6.510  0.5511 -0.4217  0.7978
 2868SOL     OW20062   2.433   1.688   1.808 -0.0023 -0.8290 -0.8352
 2868SOL    HW120063   2.484   1.609   1.828  2.9571  0.7424 -2.1928
 2868SOL    HW220064   2.346   1.649   1.815 -0.2519 -0.1101  0.1156
 2869SOL     OW20065   1.139   0.039   8.274 -0.0915  0.4119 -0.2044
 2869SOL    HW120066   1.190   0.018   8.352 -3.0959 -0.5049  1.5175
 2869SOL    HW220067   1.181   4.719   8.200 -1.6205  0.9499 -1.4078
 2870SOL     OW20068   3.323   4.682   0.469  0.2057  0.2714  1.0562
 2870SOL    HW120069   3.291   4.610   0.523 -0.0660 -1.2840 -1.1663
 2870SOL    HW220070   3.319   0.040   0.518 -1.3130  0.4109  0.7128
 2871SOL     OW20071   0.507   3.995   1.165  0.0461  0.1584  0.4176
 2871SOL    HW120072   0.487   4.017   1.074  0.4584 -1.9589 -0.1886
 2871SOL    HW220073   0.583   4.052   1.176 -1.6688  2.3623  0.8009
 2872SOL     OW20074   3.177   4.200  12.917  0.3034  0.3430 -0.2409
 2872SOL    HW120075   3.158   4.269  12.980  0.0526  0.2681 -0.2322
 2872SOL    HW220076   3.171   4.121  12.971 -0.1793  2.1718  2.3889
 2873SOL     OW20077   1.893   3.603   2.767 -0.5234 -0.3935 -0.2910
 2873SOL    HW120078   1.893   3.693   2.736  0.3386 -0.5550 -0.7525
 2873SOL    HW220079   1.861   3.548   2.696 -1.2155  1.7064 -1.6046
 2874SOL     OW20080   4.352   0.178  14.951  0.1048  0.1945 -0.2625
 2874SOL    HW120081   4.291   0.139  14.889  0.3411 -0.6536  0.0478
 2874SOL    HW220082   4.320   0.136  15.031  0.3533  0.7631  0.1363
 2875SOL     OW20083   2.062   4.015   2.745  0.3158  0.2438 -0.2587
 2875SOL    HW120084   1.996   4.032   2.678 -2.0942 -0.7628  1.8504
 2875SOL    HW220085   2.138   3.990   2.691 -0.8909 -2.6586 -0.6401
 2876SOL     OW20086   2.579   0.674   7.513 -0.6928 -0.5305  0.3571
 2876SOL    HW120087   2.510   0.611   7.535  0.8296 -2.6155 -0.8628
 2876SOL    HW220088   2.653   0.615   7.530 -0.0493  0.1362 -0.2009
 2877SOL     OW20089   2.872   1.538  15.346  0.0645  0.1192 -0.0010
 2877SOL    HW120090   2.917   1.461  15.379  0.5129  0.9549  1.3679
 2877SOL    HW220091   2.812   1.498  15.283 -0.0160  2.5280 -1.4797
 2878SOL     OW20092   0.756   0.120  11.678  0.3873 -0.3880 -0.1266
 2878SOL    HW120093   0.703   0.178  11.734  0.0940  0.5096 -1.3354
 2878SOL    HW220094   0.768   0.041  11.730 -1.3191 -1.2855 -1.1265
 2879SOL     OW20095   4.596   3.928   1.776 -0.2952 -0.4987  0.3373
 2879SOL    HW120096   4.647   3.947   1.697  2.1919 -3.5033  1.2191
 2879SOL    HW220097   4.551   3.849   1.747  2.1168 -1.0937 -1.7390
 2880SOL     OW20098   4.610   1.587   1.200  0.6542 -0.3695  0.3708
 2880SOL    HW120099   4.597   1.604   1.107 -1.2976 -2.1025  0.3192
 2880SOL    HW220100   4.645   1.498   1.192 -0.8583 -0.9993  0.6267
 2881SOL     OW20101   0.605   1.987   7.776  0.4904  0.0387  0.3392
 2881SOL    HW120102   0.554   2.067   7.785 -0.7495 -0.6812 -0.1808
 2881SOL    HW220103   0.689   2.031   7.762  1.5806 -2.0568  0.2609
 2882SOL     OW20104   2.111   2.169   3.114  0.2392 -0.3524  0.5722
 2882SOL    HW120105   2.108   2.241   3.051  0.6670 -1.9361 -1.2525
 2882SOL    HW220106   2.148   2.098   3.063 -0.4028 -0.6471  0.5186
 2883SOL     OW20107   4.006   1.384   7.810  0.1876 -0.1685  0.5799
 2883SOL    HW120108   3.997   1.320   7.880 -1.4310 -0.6617 -0.0812
 2883SOL    HW220109   4.074   1.338   7.762  1.0239  0.3696  1.2476
 2884SOL     OW20110   2.544   3.918   8.080  0.2589  0.4821 -0.5181
 2884SOL    HW120111   2.482   3.990   8.085 -2.6247 -2.1664  1.9523
 2884SOL    HW220112   2.483   3.850   8.107  1.5846 -0.0494  1.2074
 2885SOL     OW20113   1.722   4.241  11.711 -0.3130 -0.1858 -0.2673
 2885SOL    HW120114   1.684   4.191  11.640 -0.7411  1.2365 -1.0487
 2885SOL    HW220115   1.742   4.321  11.662 -0.5074 -0.5755 -0.9796
 2886SOL     OW20116   0.680   1.486   3.841  0.0407  0.1621 -0.0503
 2886SOL    HW120117   0.676   1.554   3.774  1.9364  0.6097  0.2794
 2886SOL    HW220118   0.587   1.479   3.864 -0.0953 -0.7539 -0.9099
 2887SOL     OW20119   1.006   3.987   7.694 -0.2125  0.4499  0.1052
 2887SOL    HW120120   1.088   3.966   7.740 -0.1770  0.3044 -0.0225
 2887SOL    HW220121   1.025   4.077   7.667 -0.1165 -0.0433 -1.4503
 2888SOL     OW20122   3.108   2.496   5.157 -0.5752  0.1283  0.1614
 2888SOL    HW120123   3.127   2.530   5.070  0.4305 -1.0669 -0.0913
 2888SOL    HW220124   3.094   2.403   5.140 -0.9478  0.3415 -0.6811
 2889SOL     OW20125   0.743   2.911   1.245  0.2985 -0.3204  1.2433
 2889SOL    HW120126   0.814   2.936   1.305 -1.4324  1.4715  2.5607
 2889SOL    HW220127   0.774   2.827   1.212  0.3702  0.5624 -0.8892
 2890SOL     OW20128   4.303   0.349   0.985 -0.8738  0.8093  0.5002
 2890SOL    HW120129   4.310   0.396   1.068 -0.4872  0.6771  0.5428
 2890SOL    HW220130   4.389   0.309   0.980 -1.0834  0.2625  1.2668
 2891SOL     OW20131   0.032   0.281  13.931 -0.1657 -0.2452 -0.3272
 2891SOL    HW120132   4.677   0.249  13.888 -0.7242  3.1226 -1.8239
 2891SOL    HW220133   0.020   0.374  13.913 -0.0970 -0.3719 -1.0211
 2892SOL     OW20134   3.769   1.867   3.394 -0.4336 -0.8322 -0.9397
 2892SOL    HW120135   3.836   1.899   3.332 -1.8241  1.3764 -1.3122
 2892SOL    HW220136   3.790   1.774   3.396 -0.0147 -0.7564 -1.7364
 2893SOL     OW20137   1.110   1.070   5.873  0.5058  0.7975 -0.1968
 2893SOL    HW120138   1.106   0.985   5.830  1.2355  1.1333 -0.9341
 2893SOL    HW220139   1.041   1.045   5.933 -0.5012  1.7533 -0.9598
 2894SOL     OW20140   4.058   1.427  15.655 -0.4973  0.0032 -0.3486
 2894SOL    HW120141   3.986   1.488  15.637 -0.5811  0.1994  0.6354
 2894SOL    HW220142   4.121   1.497  15.671 -0.7963  0.2981 -0.4537
 2895SOL     OW20143   2.247   1.983   3.791 -0.0936 -0.3070 -0.3516
 2895SOL    HW120144   2.222   2.063   3.744  2.3964 -0.2678 -1.6226
 2895SOL    HW220145   2.342   1.995   3.792 -0.2379  0.7972  0.0319
 2896SOL     OW20146   0.559   3.897  15.227 -0.0519 -0.0779 -0.2982
 2896SOL    HW120147   0.648   3.861  15.233 -0.9992 -2.0975  1.3319
 2896SOL    HW220148   0.508   3.817  15.232  0.3024 -0.2144  1.0540
 2897SOL     OW20149   4.306   0.623   8.807  0.3983 -0.4268 -0.6802
 2897SOL    HW120150   4.347   0.699   8.850 -2.7019 -0.6227  2.5902
 2897SOL    HW220151   4.229   0.625   8.863 -0.4769 -1.9367 -1.8332
 2898SOL     OW20152   4.158   0.547   3.676 -0.3911 -0.1021 -0.4403
 2898SOL    HW120153   4.181   0.476   3.736 -0.6647  1.6549  1.7468
 2898SOL    HW220154   4.153   0.493   3.597  0.2512 -0.6526 -0.0987
 2899SOL     OW20155   2.551   2.103  15.468  0.0993 -0.0191  0.6001
 2899SOL    HW120156   2.624   2.163  15.483 -0.4974  0.4558  1.6482
 2899SOL    HW220157   2.489   2.176  15.472  1.0260  0.7306  1.2666
 2900SOL     OW20158   3.430   2.560  14.351 -0.0521 -0.1219 -0.5223
 2900SOL    HW120159   3.348   2.552  14.400 -0.7143 -0.4955 -1.7033
 2900SOL    HW220160   3.394   2.568  14.262  1.1167 -1.0622 -1.0748
 2901SOL     OW20161   2.607   4.385   6.827  0.6578  0.1421 -1.2191
 2901SOL    HW120162   2.683   4.442   6.819  0.9414  0.3395  3.0129
 2901SOL    HW220163   2.555   4.412   6.751 -0.5975 -2.0639 -1.1582
 2902SOL     OW20164   0.762   3.904   7.783  0.2103  0.0990 -0.3187
 2902SOL    HW120165   0.791   3.860   7.862  0.7852  1.0741  0.0060
 2902SOL    HW220166   0.844   3.947   7.760 -0.4333  0.3235 -2.2426
 2903SOL     OW20167   0.769   0.894   6.480 -0.3790  0.4857 -0.3912
 2903SOL    HW120168   0.763   0.919   6.572  0.8231 -1.7344  0.2855
 2903SOL    HW220169   0.865   0.890   6.474 -0.3871  0.3617 -0.4469
 2904SOL     OW20170   3.120   3.572  17.193  0.8275  0.1125 -0.0890
 2904SOL    HW120171   3.157   3.656  17.166 -0.1911  0.4392 -0.4678
 2904SOL    HW220172   3.132   3.511  17.120  0.2799  0.4835 -0.4911
 2905SOL     OW20173   3.999   3.331  17.432  0.8431 -0.3860  0.3365
 2905SOL    HW120174   3.958   3.255  17.391  1.0973 -1.1565  1.5365
 2905SOL    HW220175   3.927   3.390  17.410  1.7995  0.2034 -1.2715
 2906SOL     OW20176   0.260   4.469   9.577  0.3083  0.3866 -0.0200
 2906SOL    HW120177   0.179   4.419   9.583  1.2070 -1.2342 -1.5068
 2906SOL    HW220178   0.262   4.502   9.487 -0.3825  0.9081  0.1510
 2907SOL     OW20179   4.250   2.600   3.959 -0.3421 -0.1873 -0.1191
 2907SOL    HW120180   4.193   2.552   4.019 -1.3008 -0.9036 -1.6065
 2907SOL    HW220181   4.254   2.539   3.885 -1.0411 -0.0259 -0.2806
 2908SOL     OW20182   1.524   0.162   2.171  0.2043 -0.0477  0.5784
 2908SOL    HW120183   1.452   0.216   2.203  0.8668  1.6228 -0.7398
 2908SOL    HW220184   1.509   0.166   2.077  1.6734  1.4810  0.4189
 2909SOL     OW20185   2.339   3.618   1.866  0.7015 -0.9052  0.3938
 2909SOL    HW120186   2.393   3.652   1.938  1.8345 -1.9289  0.0329
 2909SOL    HW220187   2.275   3.573   1.921 -1.3263 -1.7209 -2.6718
 2910SOL     OW20188   0.633   1.665   3.650  0.1197  0.5487 -0.3713
 2910SOL    HW120189   0.553   1.653   3.599  0.6093 -1.5332 -0.6493
 2910SOL    HW220190   0.675   1.744   3.616 -0.4573  0.4690 -1.2552
 2911SOL     OW20191   3.053   0.837   3.350  0.6286 -0.3935 -0.3904
 2911SOL    HW120192   2.970   0.833   3.397  1.0870  2.1993  0.6275
 2911SOL    HW220193   3.069   0.930   3.362 -0.0983 -0.4060  0.6795
 2912SOL     OW20194   3.701   2.960  15.115  0.4746 -0.5779  0.0351
 2912SOL    HW120195   3.689   3.034  15.055 -1.2719  0.4470  1.6709
 2912SOL    HW220196   3.769   2.908  15.072 -0.5103 -0.2458 -1.9177
 2913SOL     OW20197   2.505   1.221   4.891  0.5162  0.0448  0.0788
 2913SOL    HW120198   2.480   1.206   4.799 -1.0102 -1.9168  0.8069
 2913SOL    HW220199   2.600   1.224   4.876  0.5464  1.9077  0.7005
 2914SOL     OW20200   3.197   0.875   8.989  0.3461 -0.4783  0.1465
 2914SOL    HW120201   3.282   0.863   8.946  0.2730  0.6695 -0.3151
 2914SOL    HW220202   3.200   0.967   9.014  0.5020 -1.3765  3.4950
 2915SOL     OW20203   4.003   0.767  17.681  0.2038  0.1002  0.1769
 2915SOL    HW120204   4.016   0.852  17.638 -1.1040 -0.0904 -0.6031
 2915SOL    HW220205   3.928   0.730  17.636  2.0316 -2.6295 -0.6319
 2916SOL     OW20206   2.958   4.352   5.744 -0.0986  0.1568 -0.1849
 2916SOL    HW120207   2.976   4.265   5.780 -1.1113 -0.1093 -0.2972
 2916SOL    HW220208   3.049   4.380   5.753  0.5879 -3.3513  3.9654
 2917SOL     OW20209   3.732   0.954   8.741 -0.4251  0.3686 -0.1813
 2917SOL    HW120210   3.790   0.995   8.805  1.6469 -1.9463 -0.5766
 2917SOL    HW220211   3.660   1.014   8.721  0.2633  1.5488  0.8747
 2918SOL     OW20212   3.117   0.411  17.000  0.5589 -0.0441  0.4006
 2918SOL    HW120213   3.074   0.333  17.034  0.0069  0.4340  0.8099
 2918SOL    HW220214   3.133   0.389  16.908 -0.1759  0.7494  0.0793
 2919SOL     OW20215   1.878   3.479   4.995 -0.2346  0.5060  0.1860
 2919SOL    HW120216   1.839   3.471   5.082  1.2037 -1.2882  0.6668
 2919SOL    HW220217   1.798   3.484   4.943  0.9217 -2.2757 -1.8709
 2920SOL     OW20218   0.453   1.158  14.299  0.2029 -0.2293 -0.2049
 2920SOL    HW120219   0.486   1.245  14.324  3.0653 -1.3643 -0.1044
 2920SOL    HW220220   0.363   1.191  14.298 -0.2951 -1.5305  2.5757
 2921SOL     OW20221   2.859   3.310  13.300 -0.3864 -0.4033  0.4779
 2921SOL    HW120222   2.873   3.403  13.283 -0.1624 -0.5043  0.1007
 2921SOL    HW220223   2.924   3.269  13.243  1.1278  2.5263  0.0984
 2922SOL     OW20224   0.272   1.618   8.211  0.0393  0.0929  0.0814
 2922SOL    HW120225   0.263   1.714   8.209 -1.5364 -0.0779 -1.5396
 2922SOL    HW220226   0.366   1.601   8.213 -0.1402 -1.0518 -1.1349
 2923SOL     OW20227   4.049   0.019  12.690  0.1139 -0.4981 -0.6892
 2923SOL    HW120228   3.954   0.006  12.694 -0.1001  1.0864 -0.2826
 2923SOL    HW220229   4.066   0.101  12.643  0.5324  1.5650  2.9507
 2924SOL     OW20230   2.636   4.528   5.790 -0.4049  0.0933  0.1110
 2924SOL    HW120231   2.617   4.522   5.884 -0.1242 -0.0861  0.1573
 2924SOL    HW220232   2.600   4.445   5.759  2.3403 -0.2040 -2.2749
 2925SOL     OW20233   2.053   4.434   5.225  0.2739 -0.1471 -0.6129
 2925SOL    HW120234   2.000   4.382   5.285 -0.6417  1.9857  0.4192
 2925SOL    HW220235   2.050   4.523   5.261  1.0995 -0.0113 -0.8776
 2926SOL     OW20236   3.624   2.370   4.321 -0.0092 -0.0323 -0.4659
 2926SOL    HW120237   3.677   2.292   4.306  0.4593 -0.4095  3.0447
 2926SOL    HW220238   3.678   2.424   4.378  0.5329  0.4279 -1.4249
 2927SOL     OW20239   4.007   3.929  15.197 -0.4357 -0.4438 -0.4206
 2927SOL    HW120240   3.969   3.869  15.262  2.0861  1.2972  2.6786
 2927SOL    HW220241   4.097   3.938  15.226 -1.1459  1.2274  1.3216
 2928SOL     OW20242   2.812   2.153  15.093 -0.1716 -0.2533  0.0345
 2928SOL    HW120243   2.855   2.138  15.009  2.7353  2.3878  1.0413
 2928SOL    HW220244   2.863   2.232  15.110  1.1658 -1.3134  0.9564
 2929SOL     OW20245   4.687   2.716  12.549 -0.2461  0.6938  0.0778
 2929SOL    HW120246   4.720   2.757  12.469  0.5551 -1.8307 -0.9052
 2929SOL    HW220247   4.617   2.673  12.500  0.0583 -2.3912  2.3484
 2930SOL     OW20248   3.656   4.446   4.878 -0.2581  0.1524  0.0822
 2930SOL    HW120249   3.677   4.521   4.935 -1.9117  1.3091 -0.8215
 2930SOL    HW220250   3.572   4.490   4.864 -0.7514 -0.8337 -0.0101
 2931SOL     OW20251   1.969   3.899   5.566 -0.1543 -0.0888  0.3898
 2931SOL    HW120252   1.998   3.826   5.620 -1.0433  0.4159  1.5618
 2931SOL    HW220253   1.879   3.908   5.596 -0.2696 -0.2002  0.0822
 2932SOL     OW20254   0.823   4.506   1.322 -0.4076  0.9469 -0.0413
 2932SOL    HW120255   0.738   4.525   1.361 -0.4896 -0.0175  0.2373
 2932SOL    HW220256   0.796   4.528   1.232 -1.2667  0.5711  0.1274
 2933SOL     OW20257   1.106   4.346   6.760  0.0369  0.1476  0.1198
 2933SOL    HW120258   1.148   4.296   6.830  0.3536  1.3776  0.8208
 2933SOL    HW220259   1.096   4.436   6.792 -0.1179  0.4207 -0.7091
 2934SOL     OW20260   0.711   4.448   3.469  0.2092  0.4069  0.1907
 2934SOL    HW120261   0.701   4.534   3.429 -0.7574  0.3753  0.3586
 2934SOL    HW220262   0.717   4.394   3.390  0.4553  0.3538  0.2448
 2935SOL     OW20263   3.914   0.342   2.311 -0.7593  0.3635  0.2315
 2935SOL    HW120264   3.861   0.423   2.304 -1.8087 -0.5885 -3.0804
 2935SOL    HW220265   3.848   0.278   2.336 -0.1591  0.6089  2.4101
 2936SOL     OW20266   3.236   0.477   7.922 -0.2400 -0.4344 -0.3420
 2936SOL    HW120267   3.165   0.498   7.861  3.2721  0.9551 -3.9420
 2936SOL    HW220268   3.192   0.412   7.977 -0.4820 -0.3396 -0.4224
 2937SOL     OW20269   1.771   3.410   8.258  0.6753 -0.2561  0.4031
 2937SOL    HW120270   1.839   3.361   8.305 -1.4132 -1.2745  2.3766
 2937SOL    HW220271   1.816   3.494   8.260 -2.2836  1.2527  2.0750
 2938SOL     OW20272   3.244   4.338   2.037 -0.5732 -0.5287  0.0937
 2938SOL    HW120273   3.153   4.370   2.038 -1.2063 -2.2996  1.1096
 2938SOL    HW220274   3.289   4.414   2.002 -1.9631  0.0695 -0.3904
 2939SOL     OW20275   4.261   2.792   5.422 -0.2004 -0.5490 -0.0175
 2939SOL    HW120276   4.343   2.842   5.428  0.2707 -1.4437  0.9608
 2939SOL    HW220277   4.252   2.800   5.327 -1.1627  0.3223  0.1484
 2940SOL     OW20278   4.454   0.403   6.488 -0.2626  0.6104 -0.0046
 2940SOL    HW120279   4.413   0.430   6.406 -0.6282 -2.4726 -0.8595
 2940SOL    HW220280   4.409   0.456   6.554  0.7586 -0.3781  1.4643
 2941SOL     OW20281   4.661   4.260   3.118  0.0131  0.6059 -0.3101
 2941SOL    HW120282   4.672   4.352   3.092  1.5015  0.4199 -0.3753
 2941SOL    HW220283   4.630   4.268   3.208 -0.3950  0.2159 -0.4199
 2942SOL     OW20284   2.192   0.970   2.213 -0.2475  0.2586 -0.2691
 2942SOL    HW120285   2.176   0.917   2.135  2.1556 -0.5730 -0.1814
 2942SOL    HW220286   2.255   0.920   2.264  2.8137  2.4304 -1.9258
 2943SOL     OW20287   0.107   2.418  11.188 -0.5087 -0.3117 -0.0508
 2943SOL    HW120288   0.066   2.504  11.179 -1.2696 -0.6630  0.0984
 2943SOL    HW220289   0.150   2.428  11.273  3.4025  3.9691 -2.5306
 2944SOL     OW20290   4.626   3.763   4.896 -0.3365  0.2075 -0.4248
 2944SOL    HW120291   4.540   3.799   4.913 -0.3733 -0.3617  0.6338
 2944SOL    HW220292   4.635   3.710   4.975  0.9325 -0.1958 -0.8305
 2945SOL     OW20293   2.880   2.357   3.834  0.0760 -0.5331 -0.7541
 2945SOL    HW120294   2.924   2.347   3.750  2.6996 -0.3870  0.5904
 2945SOL    HW220295   2.924   2.435   3.868 -0.6304 -0.3316 -0.3007
 2946SOL     OW20296   4.710   2.106   1.031  0.1448 -0.1793  0.0835
 2946SOL    HW120297   0.031   2.025   1.054  2.1589  0.1520 -2.6745
 2946SOL    HW220298   4.655   2.082   0.956  0.9899  2.2286 -1.3099
 2947SOL     OW20299   0.038   2.545   0.998  0.2119  0.1542  0.1457
 2947SOL    HW120300   4.707   2.546   1.076  1.3273 -0.2461  0.9484
 2947SOL    HW220301   0.093   2.623   1.007 -0.6953  0.6325  1.5534
 2948SOL     OW20302   0.765   3.172   1.113  0.5600  0.3345 -0.3172
 2948SOL    HW120303   0.814   3.213   1.183 -1.4746  0.9385  0.7712
 2948SOL    HW220304   0.762   3.082   1.146  2.0147  0.0499 -0.9657
 2949SOL     OW20305   1.398   4.570   3.915  0.5465 -0.4722 -0.4826
 2949SOL    HW120306   1.331   4.638   3.912 -0.0258 -1.0166  0.0750
 2949SOL    HW220307   1.355   4.507   3.973 -0.8583 -1.0447 -2.1568
 2950SOL     OW20308   1.743   3.006   2.453 -0.3254  0.4364  0.5566
 2950SOL    HW120309   1.793   2.956   2.389 -1.1909 -1.1560  1.1355
 2950SOL    HW220310   1.688   2.940   2.496 -0.5259  0.3423  0.1571
 2951SOL     OW20311   2.331   1.742   3.951 -0.0180  0.2571 -0.6735
 2951SOL    HW120312   2.292   1.825   3.921  0.1744 -0.0431 -1.7724
 2951SOL    HW220313   2.416   1.776   3.976 -0.5670  1.3098 -0.2569
 2952SOL     OW20314   0.244   0.571   7.652  0.8568 -0.3472  0.2214
 2952SOL    HW120315   0.191   0.647   7.678 -1.5367 -1.8590 -0.1843
 2952SOL    HW220316   0.205   0.501   7.705 -1.0472  0.7376  0.2783
 2953SOL     OW20317   4.406   2.666   1.554 -0.2416  0.1483 -0.0494
 2953SOL    HW120318   4.388   2.759   1.540 -2.4334  0.0786  2.3012
 2953SOL    HW220319   4.462   2.641   1.481  1.0179  2.0527  0.2529
 2954SOL     OW20320   2.040   0.406   2.541  0.6568  0.5845  0.3218
 2954SOL    HW120321   2.130   0.414   2.573  1.2134 -1.3675 -0.7063
 2954SOL    HW220322   2.054   0.336   2.477  0.8147  0.9203 -0.0159
 2955SOL     OW20323   3.323   3.330  16.835  0.4777  0.2426 -0.8231
 2955SOL    HW120324   3.349   3.406  16.888 -2.0464  0.4241  0.1788
 2955SOL    HW220325   3.375   3.340  16.756 -0.8583  1.4227 -1.5475
 2956SOL     OW20326   4.293   3.266  10.713  0.2126 -0.0211 -0.1128
 2956SOL    HW120327   4.354   3.288  10.783  0.0268 -1.7256  0.5717
 2956SOL    HW220328   4.341   3.217  10.647 -2.0663 -0.4544 -1.4559
 2957SOL     OW20329   2.835   1.506   7.902 -0.3972  0.6219  0.1411
 2957SOL    HW120330   2.906   1.508   7.837 -1.3372  2.9503 -0.8314
 2957SOL    HW220331   2.868   1.444   7.966  1.2862 -1.1559 -2.4442
 2958SOL     OW20332   2.955   0.027   9.479 -0.1850  0.0495 -0.2449
 2958SOL    HW120333   2.909   0.086   9.539  0.8744  0.0466  0.5729
 2958SOL    HW220334   2.948   4.667   9.525  1.9777 -0.4094 -0.7730
 2959SOL     OW20335   2.303   4.321   6.909 -0.3229 -0.0371  0.1111
 2959SOL    HW120336   2.294   4.271   6.828 -0.7071 -0.2127  0.2606
 2959SOL    HW220337   2.230   4.382   6.913 -0.0724  0.3165 -0.7910
 2960SOL     OW20338   1.583   0.967   3.130 -0.0933  0.2935  0.0033
 2960SOL    HW120339   1.541   0.930   3.052 -0.9007  0.1953  0.4799
 2960SOL    HW220340   1.637   1.035   3.090  1.2230  0.7508  2.5933
 2961SOL     OW20341   3.853   3.270   1.415 -0.0629 -0.1061  0.1708
 2961SOL    HW120342   3.905   3.190   1.402 -0.6208 -0.5096  0.3869
 2961SOL    HW220343   3.870   3.329   1.342 -0.0948 -0.8978 -0.4805
 2962SOL     OW20344   3.902   2.008   6.453  0.0353 -0.6758  0.3491
 2962SOL    HW120345   3.883   2.021   6.546 -0.2380 -1.0663  0.3478
 2962SOL    HW220346   3.841   2.069   6.412  1.9616  0.2561 -1.1136
 2963SOL     OW20347   4.450   4.158   8.889 -0.0532 -0.0243 -0.0142
 2963SOL    HW120348   4.391   4.212   8.941 -0.2826 -1.2344  0.9719
 2963SOL    HW220349   4.408   4.075   8.914 -3.4674  1.4703 -0.7092
 2964SOL     OW20350   4.374   2.191   4.001  0.5163 -0.4575  0.6930
 2964SOL    HW120351   4.379   2.202   4.096 -0.9969  0.6843  0.6580
 2964SOL    HW220352   4.436   2.120   3.984  1.4616  0.2201  1.2944
 2965SOL     OW20353   3.040   0.015  17.575  0.5355  0.0186  0.5891
 2965SOL    HW120354   2.966   4.707  17.524  1.3756 -1.2017  0.1303
 2965SOL    HW220355   3.014   0.105  17.594  0.9773  0.5363 -1.2470
 2966SOL     OW20356   0.088   0.115   9.597 -0.0121  0.0326 -0.3521
 2966SOL    HW120357   0.124   0.172   9.529  0.1523  1.8719  1.2434
 2966SOL    HW220358   0.062   0.180   9.663 -1.6491  0.2575 -1.2239
 2967SOL     OW20359   2.636   2.691   7.722  0.1293  1.1658 -0.2052
 2967SOL    HW120360   2.562   2.683   7.781 -1.0639  1.8075 -1.6199
 2967SOL    HW220361   2.591   2.670   7.640  0.4364  4.9902 -1.3331
 2968SOL     OW20362   3.872   4.539  16.396  0.0766 -0.1240  0.0535
 2968SOL    HW120363   3.800   4.601  16.402  2.0496  2.4061 -1.8492
 2968SOL    HW220364   3.911   4.555  16.482  2.9253 -0.9834 -1.0394
 2969SOL     OW20365   2.405   0.538   4.139  0.5081  0.4373 -0.0254
 2969SOL    HW120366   2.441   0.606   4.083 -1.1178  1.0040 -0.3821
 2969SOL    HW220367   2.342   0.590   4.189  0.7157  2.1700 -1.5529
 2970SOL     OW20368   4.287   1.626   4.162 -0.3518 -0.6963 -0.1072
 2970SOL    HW120369   4.307   1.719   4.150  1.7076 -1.2023 -0.6008
 2970SOL    HW220370   4.360   1.586   4.115  1.9791  0.2381  2.7469
 2971SOL     OW20371   3.768   4.592   3.800  0.1513 -0.0421  0.0876
 2971SOL    HW120372   3.685   4.562   3.764  0.0827 -0.6751  0.7798
 2971SOL    HW220373   3.737   4.670   3.846  0.0720  0.9768 -1.6644
 2972SOL     OW20374   0.581   3.141  10.717 -0.1814 -0.4367  0.9574
 2972SOL    HW120375   0.566   3.192  10.638  1.2422 -0.0525  0.9337
 2972SOL    HW220376   0.653   3.191  10.757  0.4339  0.9461 -1.8594
 2973SOL     OW20377   1.817   2.723   2.590 -0.0842 -0.1906 -0.0205
 2973SOL    HW120378   1.804   2.628   2.583  2.0685 -0.3692 -1.6310
 2973SOL    HW220379   1.878   2.730   2.664 -0.6529  0.7660  0.3587
 2974SOL     OW20380   0.939   3.971   6.784  0.0474 -0.8938 -0.4882
 2974SOL    HW120381   0.920   4.034   6.715  1.6850 -0.7012 -0.7772
 2974SOL    HW220382   1.033   3.970   6.766  0.4770 -2.1953  1.7722
 2975SOL     OW20383   0.094   0.848   4.135 -0.0016 -0.6833 -0.2892
 2975SOL    HW120384   0.127   0.929   4.174  0.6367 -0.9141 -0.3587
 2975SOL    HW220385   0.175   0.815   4.096 -0.1223 -3.2367  1.5837
 2976SOL     OW20386   2.977   4.421   2.046 -0.0625  0.5890  0.2664
 2976SOL    HW120387   2.915   4.463   1.985  1.9519  2.7198 -0.3247
 2976SOL    HW220388   3.021   4.504   2.064 -0.6986  0.8843  0.4861
 2977SOL     OW20389   3.007   2.444  10.126 -0.2989  0.5967  0.0811
 2977SOL    HW120390   3.039   2.377  10.066 -1.3662  0.6509 -0.5430
 2977SOL    HW220391   2.928   2.471  10.079 -0.4130  1.6481  0.8450
 2978SOL     OW20392   2.758   0.672   1.192 -0.0921 -0.2512  0.2732
 2978SOL    HW120393   2.816   0.611   1.238 -1.3622 -0.4506  1.5824
 2978SOL    HW220394   2.738   0.615   1.118 -3.3631  1.4066 -0.0994
 2979SOL     OW20395   4.523   3.933   7.781 -0.0154  0.0088  0.0784
 2979SOL    HW120396   4.558   4.018   7.810 -0.3502  0.4281 -0.7249
 2979SOL    HW220397   4.445   3.936   7.835  0.7231  0.1459  1.1334
 2980SOL     OW20398   2.918   4.247   6.153  0.3750 -0.0376 -0.7339
 2980SOL    HW120399   2.970   4.196   6.215  0.8831 -4.0026 -4.4214
 2980SOL    HW220400   2.950   4.216   6.068  0.2200  1.3266 -1.3074
 2981SOL     OW20401   3.472   0.602   7.899  0.1156 -0.2475 -0.1299
 2981SOL    HW120402   3.386   0.560   7.909 -0.0840 -0.1122 -1.3667
 2981SOL    HW220403   3.449   0.681   7.947 -2.0466 -1.0465  0.1581
 2982SOL     OW20404   1.068   4.532   7.099  0.0839  0.2837 -0.9030
 2982SOL    HW120405   1.089   4.444   7.070 -1.5563 -0.7393  1.0114
 2982SOL    HW220406   1.109   4.587   7.032  0.0651  0.0008 -1.1432
 2983SOL     OW20407   2.119   3.428   4.305  0.1173 -0.3405 -0.8705
 2983SOL    HW120408   2.211   3.444   4.283  0.7856 -0.5033  1.7559
 2983SOL    HW220409   2.079   3.515   4.314  2.2938  0.4577  1.2170
 2984SOL     OW20410   2.789   2.478   8.069  0.4347  0.4629  0.3082
 2984SOL    HW120411   2.787   2.463   8.164  3.2254  0.1623  0.3178
 2984SOL    HW220412   2.748   2.398   8.036  1.9273  1.1329 -3.1004
 2985SOL     OW20413   3.825   0.780   4.291  0.1538  0.1834  0.2721
 2985SOL    HW120414   3.806   0.872   4.310 -0.4707  0.3515 -1.1813
 2985SOL    HW220415   3.828   0.784   4.196  2.1600 -2.9887  0.2092
 2986SOL     OW20416   1.139   4.347   0.698 -0.0625  0.7593 -0.8578
 2986SOL    HW120417   1.224   4.317   0.730  0.6442  0.2768 -3.1906
 2986SOL    HW220418   1.137   4.303   0.613 -0.6742 -0.2207 -0.3382
 2987SOL     OW20419   3.416   0.330   1.500 -0.1723 -0.0794 -0.0827
 2987SOL    HW120420   3.321   0.328   1.503 -0.1884  0.2300 -0.5562
 2987SOL    HW220421   3.435   0.266   1.569  1.7590  2.8973  2.1787
 2988SOL     OW20422   1.534   2.378   5.448 -0.4260 -0.6667  0.2494
 2988SOL    HW120423   1.619   2.415   5.424  0.6464 -3.1532  0.2457
 2988SOL    HW220424   1.556   2.328   5.527  1.5576  1.3130  0.9680
 2989SOL     OW20425   2.856   3.565  10.566 -0.6802 -0.2861 -0.3135
 2989SOL    HW120426   2.929   3.579  10.506 -0.0494  1.4514  0.8538
 2989SOL    HW220427   2.905   3.499  10.614  0.1314  1.4080  1.1933
 2990SOL     OW20428   1.374   2.159   5.283 -0.2268  0.3007  0.4466
 2990SOL    HW120429   1.388   2.229   5.347  0.2515  1.3021 -0.7381
 2990SOL    HW220430   1.285   2.184   5.258 -0.0020 -1.5439 -2.2621
 2991SOL     OW20431   0.134   1.279   3.132 -0.0210  0.0748 -0.1771
 2991SOL    HW120432   0.149   1.250   3.222  0.4344  0.7867 -0.0233
 2991SOL    HW220433   0.107   1.196   3.092 -4.5163  1.3278  0.3535
 2992SOL     OW20434   2.899   3.590  13.323 -0.0793 -0.3463  0.0227
 2992SOL    HW120435   2.975   3.580  13.381 -0.5682 -2.0457  0.3674
 2992SOL    HW220436   2.855   3.667  13.358  1.9847  0.7798  0.1625
 2993SOL     OW20437   0.884   2.939   9.144 -0.0090 -0.2261 -0.5700
 2993SOL    HW120438   0.880   3.034   9.160  0.1029 -0.8760  3.3282
 2993SOL    HW220439   0.958   2.927   9.085  0.5874 -0.3903  0.2218
 2994SOL     OW20440   0.948   3.970   0.638 -0.0643  0.1929  0.5528
 2994SOL    HW120441   1.018   3.953   0.574  0.4778 -3.5029  2.1134
 2994SOL    HW220442   1.013   3.998   0.702 -0.0793  0.4387  0.4613
 2995SOL     OW20443   1.678   1.821   9.910 -0.2298  0.1644 -0.6518
 2995SOL    HW120444   1.760   1.794   9.952  0.1153  0.9410 -0.8367
 2995SOL    HW220445   1.662   1.746   9.852 -1.3978  1.5353 -2.0953
 2996SOL     OW20446   3.110   4.625   0.936  0.0267 -0.9755 -0.5907
 2996SOL    HW120447   3.121   4.711   0.896 -0.2517  0.6573  2.9076
 2996SOL    HW220448   3.127   4.641   1.029 -1.7322 -0.9967 -0.2632
 2997SOL     OW20449   1.425   0.623   8.496 -0.5915  0.1663 -0.3643
 2997SOL    HW120450   1.469   0.679   8.432  1.5753 -0.3664  0.6231
 2997SOL    HW220451   1.471   0.540   8.482  1.4070  0.8193  2.1220
 2998SOL     OW20452   0.145   1.589   5.520 -0.2172 -0.1920  0.0372
 2998SOL    HW120453   0.137   1.615   5.611  1.0490  1.1156 -0.2181
 2998SOL    HW220454   0.205   1.514   5.523 -0.6186 -0.4511  1.5321
 2999SOL     OW20455   3.962   4.594   7.006  0.0084 -0.0370  0.3161
 2999SOL    HW120456   4.018   4.665   7.036 -0.6867  1.1098 -1.0791
 2999SOL    HW220457   3.930   4.556   7.087  0.3039 -1.6470 -0.3269
 3000SOL     OW20458   4.436   2.397   4.554  0.1726  0.4996 -0.4973
 3000SOL    HW120459   4.467   2.346   4.479 -3.4645 -0.8203 -1.0891
 3000SOL    HW220460   4.396   2.471   4.508 -0.4763 -0.4161 -1.4052
 3001SOL     OW20461   2.812   2.915   6.719  0.7652  0.0850  0.4155
 3001SOL    HW120462   2.831   2.945   6.631  0.3602 -0.3121  0.1929
 3001SOL    HW220463   2.871   2.840   6.717  2.4312  1.3667  1.7746
 3002SOL     OW20464   0.953   0.914   1.811 -0.4624 -0.3921  0.5669
 3002SOL    HW120465   0.897   0.919   1.734  2.5800  4.9291 -1.3163
 3002SOL    HW220466   0.944   1.002   1.850  1.5207 -0.1695  0.5203
 3003SOL     OW20467   3.648   3.607   2.682  0.1290 -0.2763  0.1801
 3003SOL    HW120468   3.598   3.680   2.719  0.2978  0.0189 -0.1712
 3003SOL    HW220469   3.606   3.603   2.595 -0.8657  1.3879  0.5940
 3004SOL     OW20470   3.412   2.442   2.038 -0.6568  0.0790  0.2565
 3004SOL    HW120471   3.505   2.432   2.021 -0.4608 -1.1338  2.0486
 3004SOL    HW220472   3.400   2.493   2.118 -0.3454 -0.1688  0.4576
 3005SOL     OW20473   0.221   1.029   2.417  0.7945 -0.2770 -0.3440
 3005SOL    HW120474   0.249   0.943   2.449 -1.6833 -0.9830 -0.1126
 3005SOL    HW220475   0.195   1.007   2.328 -0.2302  1.6248 -0.5222
 3006SOL     OW20476   0.997   4.149   7.061  0.5240  0.0760 -0.1370
 3006SOL    HW120477   1.031   4.060   7.061 -2.2466 -0.9940  0.4760
 3006SOL    HW220478   1.073   4.207   7.058  1.2958 -0.8211  2.2194
 3007SOL     OW20479   2.674   1.261   7.852  0.2742 -0.0740 -0.6829
 3007SOL    HW120480   2.641   1.332   7.907  1.6386 -0.6116  0.8480
 3007SOL    HW220481   2.706   1.308   7.775 -1.6071  3.3193  0.5961
 3008SOL     OW20482   3.131   3.320  14.611  0.1005 -0.3940  0.0476
 3008SOL    HW120483   3.075   3.290  14.683 -1.7749  1.1630 -0.7516
 3008SOL    HW220484   3.075   3.384  14.566  1.8948  1.1015 -0.0673
 3009SOL     OW20485   2.195   3.628  17.142 -0.4956 -0.3284  0.9361
 3009SOL    HW120486   2.154   3.713  17.124  0.0565 -0.1923  0.3549
 3009SOL    HW220487   2.117   3.590  17.183 -0.5467  1.0986  2.1835
 3010SOL     OW20488   4.030   1.339   8.207  0.2513 -0.2772  0.0963
 3010SOL    HW120489   3.942   1.367   8.183  0.6429 -0.3241 -1.4007
 3010SOL    HW220490   4.020   1.327   8.301  1.5521  0.4469  0.3296
 3011SOL     OW20491   2.310   4.205   7.639 -0.2679  0.0915  0.3302
 3011SOL    HW120492   2.385   4.150   7.617 -1.3845 -1.5983  0.7196
 3011SOL    HW220493   2.319   4.281   7.582 -2.4768 -0.2061 -0.4184
 3012SOL     OW20494   1.400   2.350   4.172  0.3048  0.0353 -0.1171
 3012SOL    HW120495   1.395   2.369   4.078 -0.4862  3.0332  0.5538
 3012SOL    HW220496   1.454   2.418   4.211  0.9102 -0.2332 -0.4792
 3013SOL     OW20497   3.994   2.697   5.741 -0.0763  0.2748  0.6182
 3013SOL    HW120498   4.045   2.645   5.804 -0.2776  0.3934  0.8794
 3013SOL    HW220499   3.920   2.711   5.801 -0.0324  1.5965  0.3639
 3014SOL     OW20500   3.269   4.009  16.557  0.0702  0.3679 -0.2654
 3014SOL    HW120501   3.276   4.101  16.532  0.7682  0.6484  0.9565
 3014SOL    HW220502   3.354   3.976  16.530  0.7290  1.0470  0.9867
 3015SOL     OW20503   1.348   1.888   9.763 -0.0931  0.2877  0.0151
 3015SOL    HW120504   1.424   1.831   9.768 -1.1245 -1.0766  0.1725
 3015SOL    HW220505   1.360   1.946   9.839 -0.6989  1.7917 -1.0359
 3016SOL     OW20506   1.949   2.694  15.952  0.2184 -0.4126 -0.3606
 3016SOL    HW120507   1.914   2.767  16.003  1.5785  0.0680 -0.1182
 3016SOL    HW220508   2.043   2.713  15.956 -0.1966  1.4886  0.2448
 3017SOL     OW20509   3.233   2.525   2.410 -0.1074  0.0856  0.0982
 3017SOL    HW120510   3.171   2.472   2.461 -0.7819  0.6962 -0.0896
 3017SOL    HW220511   3.313   2.483   2.442 -0.2474  1.4890  2.2968
 3018SOL     OW20512   1.675   4.694   6.428  1.1140 -0.0281 -0.1241
 3018SOL    HW120513   1.720   0.040   6.476 -2.4365  2.0791  0.0635
 3018SOL    HW220514   1.598   4.687   6.483  0.9478  2.4830 -0.0304
 3019SOL     OW20515   2.505   4.150   9.133 -0.3279  0.2327 -0.0832
 3019SOL    HW120516   2.489   4.225   9.075 -1.3893  0.5796  0.6602
 3019SOL    HW220517   2.504   4.196   9.217  0.1223 -1.4212  0.8209
 3020SOL     OW20518   2.635   0.361   0.363 -0.3629 -0.2411  0.0157
 3020SOL    HW120519   2.724   0.392   0.345 -0.1061 -0.1878  1.4498
 3020SOL    HW220520   2.648   0.267   0.350  1.3080 -0.1786  1.2759
 3021SOL     OW20521   3.268   1.683  17.302 -0.2825  0.2468  0.6570
 3021SOL    HW120522   3.283   1.632  17.382  1.6056  0.5128  0.4789
 3021SOL    HW220523   3.174   1.670  17.292 -0.3618  0.0550  1.6399
 3022SOL     OW20524   4.067   3.239   7.100  0.5724  0.7022  0.1425
 3022SOL    HW120525   3.977   3.222   7.070 -0.9961  0.5444  4.8819
 3022SOL    HW220526   4.046   3.224   7.192  2.2869  0.9016  0.5593
 3023SOL     OW20527   3.153   4.498  11.370 -0.3237 -0.1881 -0.5423
 3023SOL    HW120528   3.070   4.518  11.413  1.1941 -0.7272  2.5964
 3023SOL    HW220529   3.185   4.586  11.351 -1.1097  0.3203  0.4747
 3024SOL     OW20530   2.337   0.374  11.831  0.4005  0.5100  0.0565
 3024SOL    HW120531   2.414   0.358  11.777 -0.9581 -0.5307 -1.5670
 3024SOL    HW220532   2.333   0.468  11.843  1.3880  0.8288 -2.0825
 3025SOL     OW20533   1.674   0.983   8.155  0.7335  0.0903 -0.1215
 3025SOL    HW120534   1.724   0.992   8.074  0.6057  0.1439 -0.1923
 3025SOL    HW220535   1.611   1.053   8.138  0.1814 -1.5417 -4.5673
 3026SOL     OW20536   0.898   4.691  10.564  0.2271  0.1540 -0.0638
 3026SOL    HW120537   0.974   0.008  10.604 -1.0951  2.1734  0.3830
 3026SOL    HW220538   0.946   4.614  10.535  0.6590 -0.1849  1.5708
 3027SOL     OW20539   3.384   3.221   6.332 -0.1549 -0.3698 -0.3547
 3027SOL    HW120540   3.305   3.268   6.358 -0.1111 -0.6012  0.1909
 3027SOL    HW220541   3.446   3.267   6.389 -0.9134  1.6782 -1.1583
 3028SOL     OW20542   2.549   4.169   6.966 -0.1160  0.0213 -0.9054
 3028SOL    HW120543   2.458   4.176   6.996  0.6225 -1.1060  1.6337
 3028SOL    HW220544   2.569   4.249   6.918 -1.0531  0.5456 -0.4428
 3029SOL     OW20545   2.444   4.366   3.562 -0.3399 -0.3208  0.4133
 3029SOL    HW120546   2.383   4.327   3.625 -1.7349  0.7300 -0.2787
 3029SOL    HW220547   2.494   4.287   3.540 -0.6710 -0.0178 -1.4482
 3030SOL     OW20548   0.584   0.083  14.980 -0.5311 -0.1343 -0.5112
 3030SOL    HW120549   0.628   0.088  15.065  2.7503 -0.7262 -2.1507
 3030SOL    HW220550   0.655   0.040  14.933 -0.8444 -0.8598 -0.3235
 3031SOL     OW20551   1.951   4.051   7.172 -0.0081 -0.5315  0.6627
 3031SOL    HW120552   2.022   4.062   7.236 -0.2174  0.5236  0.7070
 3031SOL    HW220553   1.981   3.980   7.115  0.3403 -0.9770  1.3932
 3032SOL     OW20554   0.663   0.433   0.568 -0.2798 -0.2593  0.2861
 3032SOL    HW120555   0.750   0.457   0.538  0.2116 -1.1651  1.0179
 3032SOL    HW220556   0.606   0.473   0.502 -2.0449  1.1633  2.6549
 3033SOL     OW20557   4.013   1.597   6.078  0.0140  0.1317  0.6250
 3033SOL    HW120558   4.033   1.545   6.001  0.4667  0.7084  0.3583
 3033SOL    HW220559   3.917   1.590   6.077  0.1357 -1.5703  1.0566
 3034SOL     OW20560   3.871   0.544   2.654  0.0793  0.0215 -0.2634
 3034SOL    HW120561   3.902   0.593   2.578  1.2867  1.3816  1.0906
 3034SOL    HW220562   3.875   0.603   2.729  0.1770 -0.4692  0.1154
 3035SOL     OW20563   4.121   3.180   7.673 -0.0544  0.0934  0.1152
 3035SOL    HW120564   4.163   3.164   7.758 -1.2567 -0.0444  0.6771
 3035SOL    HW220565   4.193   3.210   7.618  0.3934 -0.3821  0.4364
 3036SOL     OW20566   2.112   0.710   2.406 -0.4240 -0.3790 -0.1445
 3036SOL    HW120567   2.163   0.662   2.341  1.2629 -0.2040  1.0534
 3036SOL    HW220568   2.164   0.790   2.410  0.0800 -0.6746 -0.8156
 3037SOL     OW20569   0.157   1.024   3.597 -1.2134  0.1512  0.0860
 3037SOL    HW120570   0.193   0.936   3.613 -1.7036  0.2753  1.8735
 3037SOL    HW220571   0.175   1.072   3.678 -1.6537  1.5164 -0.6300
 3038SOL     OW20572   0.039   2.672   3.087 -0.2681 -0.0767 -0.1351
 3038SOL    HW120573   0.054   2.741   3.152  0.8227  0.4038 -0.8970
 3038SOL    HW220574   4.721   2.724   3.018 -4.0209  1.4267  3.2377
 3039SOL     OW20575   1.585   1.045   3.854 -0.0888 -0.6528 -0.1785
 3039SOL    HW120576   1.588   1.063   3.760  0.7127 -0.1671 -0.0624
 3039SOL    HW220577   1.670   1.085   3.870  0.5749 -1.1307 -2.5132
 3040SOL     OW20578   0.134   0.793   7.736  0.0967 -0.8714 -0.0337
 3040SOL    HW120579   0.105   0.851   7.806 -0.8861  0.4891 -1.6070
 3040SOL    HW220580   0.087   0.826   7.660 -0.9546  0.2946  1.1292
 3041SOL     OW20581   0.167   0.785   8.547  0.2882  0.6304 -0.3943
 3041SOL    HW120582   0.075   0.764   8.566  0.6642  2.9028  4.0427
 3041SOL    HW220583   0.210   0.701   8.532  1.5107  1.1371  0.3382
 3042SOL     OW20584   1.501   0.186   9.876  0.3011  0.0062 -0.7548
 3042SOL    HW120585   1.474   0.263   9.827  0.2305  0.2096 -0.3981
 3042SOL    HW220586   1.462   0.119   9.820 -0.6112  0.7853 -1.0568
 3043SOL     OW20587   0.065   2.746   2.423  0.7294  0.0227  0.8276
 3043SOL    HW120588   0.055   2.707   2.510  2.4178 -0.4732  0.7989
 3043SOL    HW220589   0.083   2.665   2.377  1.3470 -0.6458  2.2401
 3044SOL     OW20590   1.604   2.536   8.158  0.0660 -0.0729  0.3099
 3044SOL    HW120591   1.631   2.585   8.236  0.5595  1.7268 -0.9922
 3044SOL    HW220592   1.536   2.594   8.124  0.4726 -0.2196 -0.7565
 3045SOL     OW20593   2.535   2.487   5.827  0.5053  0.5260  0.0694
 3045SOL    HW120594   2.534   2.391   5.835  1.4486  0.6516  1.7155
 3045SOL    HW220595   2.508   2.491   5.736 -1.0289 -0.2200  0.5002
 3046SOL     OW20596   3.465   3.265   2.918  0.3208  0.3388 -0.7309
 3046SOL    HW120597   3.542   3.256   2.973 -0.5067  0.5105  0.4475
 3046SOL    HW220598   3.501   3.286   2.832  2.3819  0.5516  0.1960
 3047SOL     OW20599   0.790   0.012   8.667 -0.6055 -0.1974 -0.6519
 3047SOL    HW120600   0.743   0.087   8.701 -2.3691 -2.3849  1.7527
 3047SOL    HW220601   0.804   0.039   8.576 -2.4126 -0.1157 -0.9057
 3048SOL     OW20602   3.462   0.429   2.458 -0.5370 -0.3062  0.2900
 3048SOL    HW120603   3.419   0.380   2.388 -0.6498  0.7658 -0.4079
 3048SOL    HW220604   3.501   0.363   2.514  2.1225 -0.7372 -2.0826
 3049SOL     OW20605   2.814   2.837   2.700  0.2051  0.0844 -0.8250
 3049SOL    HW120606   2.876   2.845   2.773 -0.0827 -0.5757 -0.5082
 3049SOL    HW220607   2.796   2.743   2.705 -0.1890  0.2910  1.9108
 3050SOL     OW20608   4.501   0.969  11.274 -0.5544  0.4829  0.0718
 3050SOL    HW120609   4.540   1.057  11.273  0.8557 -0.1213  0.5708
 3050SOL    HW220610   4.477   0.958  11.183 -0.9153  1.4973  0.0527
 3051SOL     OW20611   3.089   0.109  15.777 -0.0007 -0.1620  0.1638
 3051SOL    HW120612   3.131   0.025  15.758  1.2035  0.8809 -1.7815
 3051SOL    HW220613   3.044   0.081  15.856  2.6111  0.4668  1.8934
 3052SOL     OW20614   0.970   4.656   2.962 -0.2322 -0.3592  0.0901
 3052SOL    HW120615   0.885   4.673   3.002 -0.4013 -1.9304  0.4225
 3052SOL    HW220616   0.967   4.695   2.875 -0.8447 -2.5835 -0.8927
 3053SOL     OW20617   0.578   2.081   2.486  0.3422  0.1737 -0.1358
 3053SOL    HW120618   0.522   2.136   2.540  1.9175  2.4264 -0.8168
 3053SOL    HW220619   0.523   2.003   2.476 -2.4900  2.2208 -0.5897
 3054SOL     OW20620   3.288   0.224   1.873 -0.0015  0.2651 -0.5508
 3054SOL    HW120621   3.283   0.312   1.912 -1.4466  0.9150 -2.1776
 3054SOL    HW220622   3.231   0.180   1.936  0.6942  1.5301  0.9615
 3055SOL     OW20623   0.356   1.287  13.673  0.8728 -0.5416  0.6572
 3055SOL    HW120624   0.326   1.367  13.716  0.1441 -0.6599  0.3599
 3055SOL    HW220625   0.450   1.304  13.665  0.2303  1.2208 -3.2285
 3056SOL     OW20626   4.167   3.385  13.682  0.2292 -0.0975  0.2273
 3056SOL    HW120627   4.100   3.318  13.666  0.3176  0.2422 -1.6002
 3056SOL    HW220628   4.209   3.352  13.761  0.1950 -1.1773 -0.1991
 3057SOL     OW20629   2.202   2.531   5.672 -0.2748 -0.0919  0.0913
 3057SOL    HW120630   2.177   2.528   5.580 -2.4323 -1.9113  0.7305
 3057SOL    HW220631   2.190   2.438   5.692  0.3342  0.0758  1.1851
 3058SOL     OW20632   4.298   4.142   2.194 -0.2622 -0.3581  0.1833
 3058SOL    HW120633   4.270   4.233   2.186  0.0331 -0.1587  1.4936
 3058SOL    HW220634   4.237   4.111   2.261  1.1774 -1.2090  1.0921
 3059SOL     OW20635   0.471   3.049  14.392 -0.0591 -0.2127  0.0612
 3059SOL    HW120636   0.411   3.122  14.404  1.3727  0.9408  0.1348
 3059SOL    HW220637   0.508   3.027  14.477 -0.4337 -1.4420 -0.0956
 3060SOL     OW20638   2.161   4.218  17.204  0.3765  0.1358  0.3951
 3060SOL    HW120639   2.233   4.271  17.239 -0.8020  2.9931 -1.5348
 3060SOL    HW220640   2.195   4.132  17.178 -1.7305 -0.1605 -1.3857
 3061SOL     OW20641   4.681   3.629   5.120  0.6488  0.3249 -0.7096
 3061SOL    HW120642   4.600   3.608   5.167  1.0890  3.5560  1.4601
 3061SOL    HW220643   4.712   3.691   5.186  0.1089 -0.6860  0.5029
 3062SOL     OW20644   2.248   3.520   7.172 -0.1846 -0.1580  0.1406
 3062SOL    HW120645   2.300   3.440   7.162 -1.4421 -1.1571  1.5898
 3062SOL    HW220646   2.286   3.573   7.242 -1.2687  1.1182 -0.2289
 3063SOL     OW20647   3.165   0.268  16.719  0.1437 -0.3247  0.4872
 3063SOL    HW120648   3.134   0.317  16.643 -0.6339 -0.9154  0.4236
 3063SOL    HW220649   3.196   0.190  16.672  0.5823  0.4892 -0.5629
 3064SOL     OW20650   2.876   1.939   5.098 -0.1951  0.6481 -0.3619
 3064SOL    HW120651   2.945   1.991   5.057 -0.6527  0.3844 -1.4462
 3064SOL    HW220652   2.925   1.871   5.144 -0.1313  0.3384 -0.8877
 3065SOL     OW20653   2.927   2.853   3.857  0.2965 -0.1237  0.3183
 3065SOL    HW120654   2.878   2.894   3.786  2.0303 -2.1003 -2.0326
 3065SOL    HW220655   2.915   2.919   3.924  1.1080 -1.0654  1.3970
 3066SOL     OW20656   0.697   2.590   5.881 -0.0216 -0.7176  0.0298
 3066SOL    HW120657   0.610   2.555   5.863  0.4922 -0.7329 -2.3839
 3066SOL    HW220658   0.719   2.536   5.958  0.9845  0.0281  0.2800
 3067SOL     OW20659   3.348   2.952   7.851  0.2829  0.2764  0.5822
 3067SOL    HW120660   3.271   2.992   7.892 -1.6085 -1.3090 -1.4233
 3067SOL    HW220661   3.382   3.025   7.800 -1.7347 -0.5021 -1.8946
 3068SOL     OW20662   1.331   0.021   4.321 -0.6599 -0.6373 -0.1395
 3068SOL    HW120663   1.426   0.029   4.308 -1.0893  2.8285 -1.2349
 3068SOL    HW220664   1.310   0.110   4.350  2.0311  0.3001 -1.0940
 3069SOL     OW20665   3.616   3.248  15.304  0.1253  0.3463  0.4599
 3069SOL    HW120666   3.611   3.253  15.209  1.4591 -0.3409  0.3630
 3069SOL    HW220667   3.588   3.159  15.323  1.2474 -0.0527  0.2014
 3070SOL     OW20668   3.570   3.273   2.662  0.4178  0.1805 -0.0742
 3070SOL    HW120669   3.534   3.268   2.573 -2.2627 -1.6059  1.1061
 3070SOL    HW220670   3.632   3.342   2.637  2.3133 -1.2795  0.5614
 3071SOL     OW20671   2.545   4.674  10.754 -0.2754  0.0155  0.3050
 3071SOL    HW120672   2.557   4.595  10.702 -1.9874  1.0789 -1.7530
 3071SOL    HW220673   2.574   4.639  10.838 -0.3407  0.5694  0.5615
 3072SOL     OW20674   0.477   3.615   5.962 -0.0053 -0.7366  0.0339
 3072SOL    HW120675   0.471   3.708   5.939  1.2381 -0.3531  1.2982
 3072SOL    HW220676   0.398   3.569   5.930  1.4282 -2.2740 -1.2990
 3073SOL     OW20677   0.919   4.150   2.081 -0.2640  0.7960 -0.3538
 3073SOL    HW120678   0.924   4.161   2.176 -0.5364  1.4307 -0.4138
 3073SOL    HW220679   0.958   4.063   2.078  0.6642  1.1921  0.1943
 3074SOL     OW20680   0.163   1.301   6.991  0.3821  0.1881  0.1467
 3074SOL    HW120681   0.233   1.261   6.938  1.0149  0.1492  1.0052
 3074SOL    HW220682   0.217   1.363   7.041 -0.2382  0.3651  0.5955
 3075SOL     OW20683   4.690   4.289  16.094  0.0237  0.0099  0.3989
 3075SOL    HW120684   4.685   4.271  16.001 -0.4763 -1.2081  0.6631
 3075SOL    HW220685   0.003   4.207  16.128  0.1087  0.0416  0.3822
 3076SOL     OW20686   1.381   0.334  14.652 -0.4640 -0.8789 -0.2855
 3076SOL    HW120687   1.306   0.373  14.607 -0.5485 -0.1660  0.4822
 3076SOL    HW220688   1.399   0.259  14.595 -0.2957  0.1891 -1.6577
 3077SOL     OW20689   0.173   4.401   7.102 -0.2382 -0.3250 -0.6394
 3077SOL    HW120690   0.078   4.398   7.111 -0.3167  2.7128 -0.6099
 3077SOL    HW220691   0.204   4.422   7.191 -2.3916 -1.9331  0.4885
 3078SOL     OW20692   0.161   4.668   5.156  0.2840 -0.3003 -0.0067
 3078SOL    HW120693   0.226   0.014   5.165 -1.6898  1.7265 -1.7665
 3078SOL    HW220694   0.108   4.685   5.234 -0.2874 -0.1085 -0.4431
 3079SOL     OW20695   3.424   2.221   8.433 -0.1742  0.2486  0.5557
 3079SOL    HW120696   3.343   2.200   8.388  0.9347 -1.5833 -0.5587
 3079SOL    HW220697   3.450   2.287   8.369  2.1905  0.8627  2.1479
 3080SOL     OW20698   1.957   1.608   9.743 -0.2276 -0.5487 -0.1421
 3080SOL    HW120699   1.981   1.631   9.833  0.1859  1.3283 -0.7301
 3080SOL    HW220700   1.909   1.531   9.770 -0.0230 -0.2986  0.9247
 3081SOL     OW20701   2.608   0.697   2.476 -0.0568 -0.1341 -0.0394
 3081SOL    HW120702   2.692   0.717   2.519 -0.2363  0.0551  0.2261
 3081SOL    HW220703   2.626   0.608   2.447  1.8617  0.1838  0.1507
 3082SOL     OW20704   4.468   3.159   4.167 -0.4979  0.3675 -0.1924
 3082SOL    HW120705   4.511   3.235   4.128  0.1301 -0.3931 -0.9812
 3082SOL    HW220706   4.401   3.193   4.227 -1.1252 -0.0801 -0.6427
 3083SOL     OW20707   3.178   4.087   2.809 -0.1888  0.4994  0.3006
 3083SOL    HW120708   3.161   4.107   2.717 -4.1215 -2.0874  0.4403
 3083SOL    HW220709   3.252   4.028   2.800 -0.8508 -0.6396  2.4323
 3084SOL     OW20710   0.817   1.508   9.550  0.6734 -0.2138  0.0536
 3084SOL    HW120711   0.796   1.422   9.585 -2.3364  0.9322  1.0597
 3084SOL    HW220712   0.855   1.538   9.632 -0.4708 -0.6249  0.7367
 3085SOL     OW20713   2.879   0.542  15.890  0.7088 -0.1523  0.6329
 3085SOL    HW120714   2.881   0.581  15.978 -2.5747 -1.1439  1.1490
 3085SOL    HW220715   2.843   0.458  15.918 -2.3255  1.5752  1.9803
 3086SOL     OW20716   3.437   4.028  14.951  0.2372  0.1330  0.2958
 3086SOL    HW120717   3.442   3.964  15.022  0.0066 -0.6178 -0.3727
 3086SOL    HW220718   3.342   4.033  14.938 -0.1402 -1.8985  2.3087
 3087SOL     OW20719   2.442   1.934   0.918  0.2039 -0.5135 -0.5296
 3087SOL    HW120720   2.359   1.907   0.958  0.4541  0.4164  0.6026
 3087SOL    HW220721   2.437   1.904   0.828  0.3940  0.0205 -0.7170
 3088SOL     OW20722   0.138   2.232   8.852  0.0901  0.0623 -0.5689
 3088SOL    HW120723   0.125   2.227   8.946  1.6242  0.1234 -0.3459
 3088SOL    HW220724   0.226   2.193   8.854  0.6274  1.3929  1.1662
 3089SOL     OW20725   3.366   3.205   0.522  0.5668  0.3518 -0.0159
 3089SOL    HW120726   3.410   3.134   0.475  0.2722  0.5423 -0.5772
 3089SOL    HW220727   3.282   3.205   0.476  1.1335  2.5030 -1.0323
 3090SOL     OW20728   3.888   0.669   6.529  0.2851 -0.4296  0.8552
 3090SOL    HW120729   3.922   0.749   6.490 -0.4207 -1.2530 -1.4171
 3090SOL    HW220730   3.855   0.634   6.446 -1.4641  1.6218  0.7023
 3091SOL     OW20731   3.068   2.575   3.823 -0.9948  0.2150  0.3369
 3091SOL    HW120732   3.053   2.670   3.818  3.9143  0.8727 -1.8312
 3091SOL    HW220733   3.142   2.595   3.881 -1.8169  1.4485  0.9518
 3092SOL     OW20734   3.687   4.669   3.425  0.4026  0.2186  0.0975
 3092SOL    HW120735   3.757   4.623   3.471 -0.6761 -1.6319 -0.1245
 3092SOL    HW220736   3.737   4.722   3.363 -0.4470  1.7731  0.7189
 3093SOL     OW20737   4.514   0.325   9.537 -0.3211  0.8492  0.0427
 3093SOL    HW120738   4.434   0.275   9.521  1.4340 -1.6330 -0.9968
 3093SOL    HW220739   4.538   0.321   9.629 -1.8106 -0.3371  0.3830
 3094SOL     OW20740   0.530   3.058   6.267  0.5899  0.3199  0.1516
 3094SOL    HW120741   0.525   3.057   6.362  0.9341 -1.1748  0.1658
 3094SOL    HW220742   0.452   3.108   6.244  0.6617  0.9676  1.3365
 3095SOL     OW20743   0.475   1.994   7.085  0.6514  0.2628  0.3832
 3095SOL    HW120744   0.503   1.939   7.012 -0.3538 -0.5264  0.5968
 3095SOL    HW220745   0.549   2.056   7.082  0.1316  0.8419 -0.6097
 3096SOL     OW20746   2.637   2.566   3.295  0.5428  0.2854 -0.2847
 3096SOL    HW120747   2.716   2.523   3.262 -1.7231 -2.8340 -1.6767
 3096SOL    HW220748   2.625   2.525   3.381  0.5291 -0.6505 -0.7298
 3097SOL     OW20749   3.605   4.213   7.520  0.2252 -0.2322  0.2785
 3097SOL    HW120750   3.582   4.300   7.487  0.7470 -0.6670 -1.2191
 3097SOL    HW220751   3.700   4.216   7.530  0.3231  0.0883 -0.8239
 3098SOL     OW20752   0.622   1.383  13.605  0.6955 -1.1626 -0.5986
 3098SOL    HW120753   0.677   1.314  13.568  1.3632 -0.4265 -0.9692
 3098SOL    HW220754   0.678   1.461  13.605  1.7006 -1.8746 -2.5524
 3099SOL     OW20755   1.662   2.164  15.101  0.0128  0.5540  0.0632
 3099SOL    HW120756   1.701   2.204  15.179  1.2101  0.3907 -0.4523
 3099SOL    HW220757   1.729   2.099  15.079  0.1796  0.0146  2.1347
 3100SOL     OW20758   0.015   0.463  17.305  0.0655  0.2065  0.2150
 3100SOL    HW120759   4.687   0.533  17.266  0.0834  1.4765  2.4926
 3100SOL    HW220760   0.033   0.492  17.394 -0.3655  1.2844 -0.0580
 3101SOL     OW20761   0.662   1.159   3.890 -0.2271 -0.1246  0.2974
 3101SOL    HW120762   0.679   1.186   3.980 -1.4813 -0.7002  0.7059
 3101SOL    HW220763   0.726   1.213   3.843 -1.1102 -1.1460 -2.0648
 3102SOL     OW20764   2.869   4.582  17.429 -0.4233 -0.4874 -0.3509
 3102SOL    HW120765   2.916   4.551  17.351  0.2291 -0.0317 -0.1404
 3102SOL    HW220766   2.884   4.506  17.485 -2.0089 -0.9887 -0.6124
 3103SOL     OW20767   0.179   3.917  10.341 -0.4943 -0.1400 -0.0643
 3103SOL    HW120768   0.148   4.004  10.365  0.2318  0.0893  0.0317
 3103SOL    HW220769   0.260   3.942  10.296 -1.9750  0.5827 -2.3462
 3104SOL     OW20770   2.671   3.624   7.148 -0.2980 -0.5955 -0.3060
 3104SOL    HW120771   2.639   3.637   7.059  0.8361 -0.1519 -0.6549
 3104SOL    HW220772   2.762   3.652   7.140 -0.2374 -0.5310  0.6856
 3105SOL     OW20773   4.062   3.071   4.167 -0.2835  0.5679 -0.3236
 3105SOL    HW120774   4.087   3.097   4.078 -0.5413 -0.5259 -0.7142
 3105SOL    HW220775   4.141   3.067   4.221 -0.3993  1.1246 -0.1102
 3106SOL     OW20776   3.719   0.762   0.451  0.2736 -0.2952  0.5540
 3106SOL    HW120777   3.782   0.696   0.479  3.5583  2.1330 -1.0601
 3106SOL    HW220778   3.760   0.842   0.483 -1.7068  0.7932  0.3720
 3107SOL     OW20779   1.132   2.124   8.409 -0.5026  0.6137 -0.1386
 3107SOL    HW120780   1.219   2.102   8.375  0.2426 -0.0869  2.2570
 3107SOL    HW220781   1.091   2.038   8.402  1.1209 -0.1521 -0.3000
 3108SOL     OW20782   4.008   1.593   4.966 -0.2410  0.2046 -0.9791
 3108SOL    HW120783   3.940   1.598   5.033  1.4838  1.1375  0.6955
 3108SOL    HW220784   3.994   1.656   4.896  0.4345  2.3494  0.8207
 3109SOL     OW20785   0.807   2.477   3.122  0.1945 -0.1567  0.7655
 3109SOL    HW120786   0.751   2.529   3.064  0.3837  0.9879  1.6054
 3109SOL    HW220787   0.886   2.481   3.068  0.5376 -1.7069  1.1569
 3110SOL     OW20788   1.236   4.593   2.541  0.3896  0.6840 -0.7009
 3110SOL    HW120789   1.288   4.569   2.463  0.7615 -1.0984  0.0955
 3110SOL    HW220790   1.294   4.572   2.614  0.8098  0.1195 -1.1908
 3111SOL     OW20791   4.024   3.458   6.684 -0.6438  0.4363 -0.0352
 3111SOL    HW120792   4.007   3.489   6.595 -1.9502  0.2836  0.1587
 3111SOL    HW220793   4.102   3.508   6.706  1.3377 -2.6421 -0.1005
 3112SOL     OW20794   4.273   4.036  10.204 -0.2550 -0.0684  0.6220
 3112SOL    HW120795   4.249   3.991  10.123  0.0564  0.8563  0.0124
 3112SOL    HW220796   4.275   3.963  10.265  2.0925 -0.0652  0.5496
 3113SOL     OW20797   2.293   1.837   8.565 -0.5606 -0.3776  0.1134
 3113SOL    HW120798   2.383   1.857   8.540 -1.1713  1.5545 -0.4683
 3113SOL    HW220799   2.291   1.741   8.564 -1.2867 -0.3546 -1.2658
 3114SOL     OW20800   3.065   2.780   8.709  0.3648 -0.6906  0.1508
 3114SOL    HW120801   2.985   2.827   8.734  1.0230  1.6417 -2.0764
 3114SOL    HW220802   3.096   2.853   8.655 -0.5389 -0.9132 -0.6723
 3115SOL     OW20803   1.394   4.249   0.737 -0.4886 -0.4872 -0.1989
 3115SOL    HW120804   1.405   4.184   0.667 -0.5077  1.3373 -1.9026
 3115SOL    HW220805   1.472   4.235   0.790  0.8584 -1.2811 -2.4169
 3116SOL     OW20806   3.822   3.117   7.666  0.1731  0.0585  0.1434
 3116SOL    HW120807   3.918   3.114   7.663 -0.0387 -3.6277 -2.3797
 3116SOL    HW220808   3.807   3.167   7.746  0.4311 -0.5751  0.5882
 3117SOL     OW20809   3.218   2.792  14.421  0.3630  0.1639 -0.2199
 3117SOL    HW120810   3.162   2.821  14.349 -1.7231  0.1565  1.4016
 3117SOL    HW220811   3.198   2.700  14.435 -0.6832  0.1093 -2.0855
 3118SOL     OW20812   2.783   0.766   8.251  0.0766 -1.0400  0.2610
 3118SOL    HW120813   2.803   0.843   8.197 -2.9816 -0.8545 -0.6036
 3118SOL    HW220814   2.819   0.696   8.196  2.0179 -0.2689  0.5669
 3119SOL     OW20815   2.797   3.961   4.219 -0.3939  0.9318 -0.3756
 3119SOL    HW120816   2.714   3.972   4.265 -0.7163  0.5416 -0.8560
 3119SOL    HW220817   2.827   4.051   4.211  0.4308  0.3361 -4.3911
 3120SOL     OW20818   0.697   2.022   3.673  0.1780 -0.6096 -0.1606
 3120SOL    HW120819   0.667   1.977   3.751  0.0169 -0.5195 -0.1691
 3120SOL    HW220820   0.626   2.087   3.665 -0.1723 -0.8678  0.8322
 3121SOL     OW20821   0.258   3.001  11.983  0.5985 -0.0951 -0.1032
 3121SOL    HW120822   0.291   3.033  12.066  1.5188  0.7279 -0.7887
 3121SOL    HW220823   0.279   2.908  11.995  1.0094  0.0707  0.4545
 3122SOL     OW20824   2.336   2.645  13.214  0.3834  0.5266  0.2746
 3122SOL    HW120825   2.425   2.622  13.239  0.2432  0.2212  0.4898
 3122SOL    HW220826   2.333   2.737  13.188  0.3351 -0.1639 -2.0989
 3123SOL     OW20827   3.543   0.690  13.890 -0.1185 -0.2863 -0.0062
 3123SOL    HW120828   3.541   0.595  13.898  1.1294 -0.2389  0.9040
 3123SOL    HW220829   3.602   0.710  13.963 -0.4412  1.5909 -0.2617
 3124SOL     OW20830   2.488   1.237  14.074 -0.4545 -0.4265  0.0878
 3124SOL    HW120831   2.555   1.168  14.079  0.2815  0.3555  1.1565
 3124SOL    HW220832   2.533   1.311  14.034 -1.1264  0.3666  0.7949
 3125SOL     OW20833   3.939   3.185   2.484 -0.2471 -0.5032 -0.4190
 3125SOL    HW120834   3.878   3.253   2.512 -0.8684 -0.8702 -0.8715
 3125SOL    HW220835   3.916   3.186   2.391  2.1352 -1.9925 -1.0174
 3126SOL     OW20836   3.334   2.930   4.617  0.4761  0.4794 -0.1418
 3126SOL    HW120837   3.392   2.984   4.563  2.1432  0.1291  1.3008
 3126SOL    HW220838   3.354   2.839   4.595  0.1148  0.4305 -0.2714
 3127SOL     OW20839   1.645   2.139   7.154 -0.8487 -0.3107 -0.1732
 3127SOL    HW120840   1.684   2.225   7.134 -1.2558 -0.4926 -1.7764
 3127SOL    HW220841   1.713   2.079   7.123  1.9359  2.7630 -0.0372
 3128SOL     OW20842   2.448   3.644   6.885  0.1596 -0.2577  0.0884
 3128SOL    HW120843   2.503   3.567   6.873  0.2556 -0.3081  0.8028
 3128SOL    HW220844   2.365   3.618   6.845 -0.6546  2.1411  0.2302
 3129SOL     OW20845   1.086   3.016   7.295  0.3933 -0.1846 -0.3916
 3129SOL    HW120846   1.163   3.052   7.339  0.8427 -0.9422 -0.5611
 3129SOL    HW220847   1.118   2.933   7.259  0.7264 -0.7225  1.1723
 3130SOL     OW20848   0.627   0.240   1.313  0.1563 -0.2225 -0.4152
 3130SOL    HW120849   0.683   0.278   1.382  0.3206  1.4028 -1.4435
 3130SOL    HW220850   0.693   0.187   1.268 -1.2127 -0.6145 -1.9449
 3131SOL     OW20851   2.035   4.170   4.023 -0.0066  0.0067 -0.1197
 3131SOL    HW120852   2.083   4.098   3.984  0.2174  0.4998 -0.7450
 3131SOL    HW220853   1.947   4.132   4.021 -0.4852  1.1310 -0.3286
 3132SOL     OW20854   4.099   1.819  11.454 -0.6458 -0.2809  0.0276
 3132SOL    HW120855   4.119   1.772  11.535 -2.3625 -1.3810 -0.1794
 3132SOL    HW220856   4.149   1.767  11.390 -0.6009 -0.2663  0.0510
 3133SOL     OW20857   3.441   2.468  15.032  0.2762 -0.0957 -0.4018
 3133SOL    HW120858   3.474   2.431  14.951 -2.5694 -2.0622 -0.6880
 3133SOL    HW220859   3.511   2.526  15.061 -0.0871 -0.9318  2.1784
 3134SOL     OW20860   1.919   1.060   7.665 -0.5707 -0.6481 -0.0266
 3134SOL    HW120861   1.873   1.143   7.654  2.8235  1.2185 -0.0165
 3134SOL    HW220862   1.952   1.053   7.576  0.6856 -0.5237  0.4383
 3135SOL     OW20863   1.841   3.642   4.582  0.2819 -0.3215  0.3412
 3135SOL    HW120864   1.919   3.637   4.525  1.4540  0.2222  1.8979
 3135SOL    HW220865   1.805   3.716   4.532 -1.7003 -1.6251 -0.1330
 3136SOL     OW20866   4.225   2.859   7.628  0.6391 -0.0976 -0.5427
 3136SOL    HW120867   4.184   2.797   7.688  0.8475  1.3004  1.0250
 3136SOL    HW220868   4.224   2.937   7.683 -0.1546 -0.3596 -0.1804
 3137SOL     OW20869   2.942   3.305   8.627  0.1809  0.3342  0.2144
 3137SOL    HW120870   2.959   3.351   8.710  0.0817 -0.8029  0.8566
 3137SOL    HW220871   2.911   3.221   8.659  0.3811 -0.4914 -1.7665
 3138SOL     OW20872   3.605   3.072   3.614 -0.5910 -0.3198  0.2778
 3138SOL    HW120873   3.655   3.084   3.533 -0.1535 -0.4015  0.5348
 3138SOL    HW220874   3.596   3.164   3.639 -1.1421 -0.0958 -0.7587
 3139SOL     OW20875   2.627   3.843   7.294 -0.6959 -0.2783  0.4320
 3139SOL    HW120876   2.667   3.826   7.379  1.7302  1.0323 -0.4345
 3139SOL    HW220877   2.643   3.759   7.250 -0.1916  0.0227  0.0493
 3140SOL     OW20878   1.297   1.307  15.489 -0.1417 -0.2577 -0.3023
 3140SOL    HW120879   1.299   1.303  15.394  3.3049 -0.4922 -0.2118
 3140SOL    HW220880   1.320   1.219  15.519  0.6198 -0.2412 -0.8518
 3141SOL     OW20881   3.855   2.323   4.063  0.1253 -0.2486  0.6688
 3141SOL    HW120882   3.909   2.258   4.107 -0.2557 -0.6972  0.4828
 3141SOL    HW220883   3.922   2.340   3.997  2.1489 -0.4992  2.6653
 3142SOL     OW20884   3.740   2.649   6.945 -0.5232  0.0180 -0.0678
 3142SOL    HW120885   3.684   2.701   7.004 -1.6131 -2.2952  0.9253
 3142SOL    HW220886   3.822   2.691   6.971 -0.4398  0.3673 -0.8910
 3143SOL     OW20887   1.675   3.577  11.380  0.1305  0.4102 -0.4202
 3143SOL    HW120888   1.622   3.639  11.330 -1.5466 -1.0941 -0.5030
 3143SOL    HW220889   1.703   3.636  11.450 -0.8644 -0.9590  1.1461
 3144SOL     OW20890   0.320   2.702   8.681 -0.2039  0.3669 -0.3541
 3144SOL    HW120891   0.405   2.719   8.722  0.5015 -1.9517 -0.8503
 3144SOL    HW220892   0.265   2.776   8.708 -0.4955 -0.3213  0.9786
 3145SOL     OW20893   3.240   4.636  17.415  0.0184  0.1523  0.4432
 3145SOL    HW120894   3.173   4.674  17.473 -2.6696 -0.1281 -2.4929
 3145SOL    HW220895   3.187   4.611  17.340 -2.0629 -1.0718  2.3175
 3146SOL     OW20896   4.644   4.123   6.095  0.2348 -0.4185  0.6266
 3146SOL    HW120897   0.004   4.099   6.055 -0.1629 -1.9952  0.7445
 3146SOL    HW220898   4.663   4.213   6.122 -0.5477  0.0979 -0.5707
 3147SOL     OW20899   4.674   0.547   7.840  0.1371 -0.0653 -0.1672
 3147SOL    HW120900   4.654   0.551   7.747  0.0543  0.3029 -0.1322
 3147SOL    HW220901   4.615   0.616   7.870  0.7260  1.0222 -1.5347
 3148SOL     OW20902   2.383   2.621   1.651  0.0809 -0.5483  0.2890
 3148SOL    HW120903   2.402   2.675   1.728  0.4744 -1.5190  0.8673
 3148SOL    HW220904   2.380   2.535   1.692  2.8017 -1.4619 -1.3847
 3149SOL     OW20905   1.267   1.606   3.873 -0.0238 -0.0275 -0.4941
 3149SOL    HW120906   1.337   1.545   3.850  0.9102  1.8420 -2.5883
 3149SOL    HW220907   1.310   1.691   3.871 -1.0965  0.4829 -1.3653
 3150SOL     OW20908   4.095   3.724   8.925 -0.1451 -0.0457 -0.2140
 3150SOL    HW120909   4.004   3.735   8.952 -0.0884  1.2451 -0.5723
 3150SOL    HW220910   4.127   3.647   8.971 -0.2304 -0.1773 -0.3717
 3151SOL     OW20911   3.213   2.698  16.559  0.1950 -0.2226  0.1128
 3151SOL    HW120912   3.280   2.765  16.545 -1.5063  1.3605 -0.2728
 3151SOL    HW220913   3.253   2.619  16.521  0.6375  1.2174 -2.3859
 3152SOL     OW20914   3.356   2.272   9.060  0.2193 -0.6279  0.3923
 3152SOL    HW120915   3.383   2.279   9.152  2.9178  1.1144 -0.5499
 3152SOL    HW220916   3.356   2.366   9.039  0.2749 -0.6705  0.2069
 3153SOL     OW20917   3.884   0.914   8.048 -0.2735 -0.4057 -0.6863
 3153SOL    HW120918   3.806   0.862   8.029  0.4550 -1.8688  0.3097
 3153SOL    HW220919   3.924   0.863   8.119  0.2814  1.8430  0.5953
 3154SOL     OW20920   0.096   3.300  15.682 -0.1698 -0.1177  0.4266
 3154SOL    HW120921   0.134   3.387  15.698  0.8145 -0.7300  1.3744
 3154SOL    HW220922   0.038   3.276  15.754  0.4313  0.7517  1.1993
 3155SOL     OW20923   1.492   4.259  17.686  0.0641 -0.3045 -0.2347
 3155SOL    HW120924   1.508   4.296  17.599  1.7552  0.0136  0.2122
 3155SOL    HW220925   1.563   4.303   0.036 -0.0181  1.1213 -1.4511
 3156SOL     OW20926   2.015   3.313  11.593  0.1018  0.1497  0.1208
 3156SOL    HW120927   1.981   3.232  11.632 -0.0063  1.9204  3.7024
 3156SOL    HW220928   1.955   3.316  11.518 -2.1432 -2.0006  1.8116
 3157SOL     OW20929   3.686   2.404   2.000 -0.2785  0.1111 -0.7220
 3157SOL    HW120930   3.734   2.486   1.991 -1.0015  0.7477  1.4474
 3157SOL    HW220931   3.728   2.361   1.925 -0.6317  1.6655 -1.8078
 3158SOL     OW20932   3.268   3.943  11.096 -0.3596 -0.0084 -0.5179
 3158SOL    HW120933   3.204   3.994  11.045 -0.9395  1.0172  1.2413
 3158SOL    HW220934   3.286   3.995  11.174 -1.5181 -1.0019  0.4048
 3159SOL     OW20935   1.746   3.991   9.463  0.4215  0.3556 -0.2406
 3159SOL    HW120936   1.694   3.957   9.535  0.5539  1.5144  0.4016
 3159SOL    HW220937   1.723   4.084   9.466  3.3206  1.0917  0.0782
 3160SOL     OW20938   0.722   0.746   8.059 -0.2841  0.3604  0.1246
 3160SOL    HW120939   0.661   0.690   8.011 -1.4836  1.3906  0.4576
 3160SOL    HW220940   0.741   0.821   8.003  2.2207 -0.6502 -0.3751
 3161SOL     OW20941   2.340   2.418   4.817 -0.3598 -0.4031 -0.0507
 3161SOL    HW120942   2.413   2.374   4.859 -0.7065 -0.9421 -0.0131
 3161SOL    HW220943   2.338   2.512   4.835 -1.0894 -0.6853  1.3496
 3162SOL     OW20944   1.672   1.447   7.326 -0.1243 -0.0017 -0.3144
 3162SOL    HW120945   1.579   1.451   7.351 -0.3149 -2.0145 -0.7529
 3162SOL    HW220946   1.691   1.355   7.339  1.6620  0.5423  0.8610
 3163SOL     OW20947   3.968   2.452   0.184 -0.1432  0.2527  0.3050
 3163SOL    HW120948   3.970   2.523   0.249  0.9839 -0.0622  0.6127
 3163SOL    HW220949   4.061   2.429   0.180 -0.7426 -1.8064 -1.7009
 3164SOL     OW20950   0.506   2.613   7.827  0.0046  0.0243  0.1554
 3164SOL    HW120951   0.515   2.702   7.860  1.3001 -0.1767  0.3456
 3164SOL    HW220952   0.533   2.574   7.910  3.9058  2.1610 -0.1363
 3165SOL     OW20953   4.140   3.095   1.914  0.1344 -0.1301  0.0526
 3165SOL    HW120954   4.133   3.043   1.994  1.1546  0.6114  0.6286
 3165SOL    HW220955   4.154   3.184   1.947  1.2173  0.3040 -1.5983
 3166SOL     OW20956   2.191   0.248   1.232 -0.2111  0.0359 -0.0919
 3166SOL    HW120957   2.287   0.246   1.235 -0.2037  0.0057 -0.2865
 3166SOL    HW220958   2.184   0.225   1.139 -5.4287  0.5622  0.1880
 3167SOL     OW20959   2.364   2.933   4.682 -0.0589 -0.2067 -0.2762
 3167SOL    HW120960   2.404   2.872   4.621  0.8071 -0.4208  0.4899
 3167SOL    HW220961   2.270   2.928   4.668 -0.1109 -0.6476  0.2269
 3168SOL     OW20962   3.810   0.700   8.669 -0.0046  0.1049 -0.4794
 3168SOL    HW120963   3.725   0.656   8.677  0.2888 -0.2364  0.6714
 3168SOL    HW220964   3.785   0.784   8.707 -1.8131 -0.1071 -1.1642
 3169SOL     OW20965   1.952   1.890   6.122 -0.3680 -0.2405 -0.0453
 3169SOL    HW120966   1.892   1.840   6.178 -1.0185 -0.1422 -0.6606
 3169SOL    HW220967   1.957   1.978   6.158  0.5890  0.0311 -0.8536
 3170SOL     OW20968   0.192   1.710  17.405  0.4693  0.0313  0.2131
 3170SOL    HW120969   0.233   1.710  17.319  1.9593 -0.4472  0.9248
 3170SOL    HW220970   0.147   1.627  17.390  2.2742 -0.6625 -1.4607
 3171SOL     OW20971   4.272   2.773   2.021  0.4609  0.2526 -0.9224
 3171SOL    HW120972   4.247   2.856   2.061  1.3459 -0.0982  0.3691
 3171SOL    HW220973   4.187   2.735   2.000 -0.7989  2.5867  0.0441
 3172SOL     OW20974   2.030   0.595   1.838  0.3222  0.2774  0.4245
 3172SOL    HW120975   1.941   0.560   1.839 -0.0909  1.2770 -1.4021
 3172SOL    HW220976   2.074   0.543   1.770 -0.2131  0.6927 -0.2400
 3173SOL     OW20977   3.481   3.482  12.492  0.1215  0.0993  0.0506
 3173SOL    HW120978   3.560   3.485  12.547 -0.4964 -2.4756  1.0554
 3173SOL    HW220979   3.494   3.550  12.426 -0.5597 -1.2264 -1.4378
 3174SOL     OW20980   2.379   0.529   3.333  0.0309 -0.4580 -0.1377
 3174SOL    HW120981   2.380   0.461   3.266  0.9002 -0.1054 -0.4797
 3174SOL    HW220982   2.438   0.486   3.395  0.0079  2.4175  1.9119
 3175SOL     OW20983   1.859   3.605   3.276 -0.3089  0.0839 -0.0352
 3175SOL    HW120984   1.884   3.520   3.314  0.0794 -0.9070 -2.5004
 3175SOL    HW220985   1.822   3.569   3.196 -0.2293 -0.1048  0.0134
 3176SOL     OW20986   3.500   0.418  13.950 -1.0575 -0.3316 -0.6133
 3176SOL    HW120987   3.583   0.397  13.994 -0.7322  1.7808 -0.2349
 3176SOL    HW220988   3.475   0.331  13.920  1.5252 -1.6245  0.9844
 3177SOL     OW20989   3.494   1.410   3.486  0.0023  0.1228 -0.0962
 3177SOL    HW120990   3.420   1.353   3.463 -0.3274 -0.3710  2.1909
 3177SOL    HW220991   3.551   1.382   3.414 -0.7717 -0.7803 -0.3599
 3178SOL     OW20992   1.974   4.388   0.417  0.8024 -0.1083  0.0670
 3178SOL    HW120993   2.067   4.384   0.394  0.9591 -1.8900  1.0365
 3178SOL    HW220994   1.972   4.333   0.496  0.4687 -1.2580 -0.7319
 3179SOL     OW20995   0.222   2.660   6.942 -0.1369 -0.2975 -0.7327
 3179SOL    HW120996   0.236   2.587   7.002  0.7700 -0.5563 -1.2722
 3179SOL    HW220997   0.217   2.737   7.000 -0.0170 -0.5554 -0.3802
 3180SOL     OW20998   1.749   0.649   3.794  0.1935 -1.1928  0.2172
 3180SOL    HW120999   1.675   0.592   3.814 -1.1947  0.6556  0.4267
 3180SOL    HW221000   1.809   0.575   3.781  2.5707  0.9303 -0.9816
 3181SOL     OW21001   2.225   3.918   3.561 -0.5271  0.3248  0.5671
 3181SOL    HW121002   2.175   3.836   3.561 -0.8317  0.5107  1.3397
 3181SOL    HW221003   2.188   3.967   3.487  2.0717 -1.0834 -1.6548
 3182SOL     OW21004   0.682   4.608   6.316 -0.2452 -0.3809  0.4712
 3182SOL    HW121005   0.627   4.550   6.264  1.4111 -3.1620  1.8294
 3182SOL    HW221006   0.615   4.648   6.372  0.7906  1.4734  0.3947
 3183SOL     OW21007   2.940   1.986   9.726  0.2574  0.3896  0.6194
 3183SOL    HW121008   2.847   1.997   9.742 -0.0500  0.2978 -1.1213
 3183SOL    HW221009   2.958   2.047   9.655 -0.0501  1.4302  1.4343
 3184SOL     OW21010   2.018   2.802  15.629 -0.4415  0.4131 -0.7969
 3184SOL    HW121011   1.944   2.743  15.616  0.8956 -1.2650 -0.7717
 3184SOL    HW221012   2.027   2.851  15.547 -2.1665  0.0640 -1.2073
 3185SOL     OW21013   3.827   3.590   3.747 -0.0948 -0.2516 -0.1600
 3185SOL    HW121014   3.916   3.555   3.742  0.9540  2.6409 -1.6078
 3185SOL    HW221015   3.811   3.608   3.654  0.9209 -0.2342 -0.3317
 3186SOL     OW21016   3.161   1.510   5.806  0.0570  0.3198 -0.2535
 3186SOL    HW121017   3.107   1.528   5.729  1.0979 -0.3075 -1.1219
 3186SOL    HW221018   3.226   1.451   5.768 -0.2641  1.1072 -2.0180
 3187SOL     OW21019   4.135   0.222   0.804  0.1385 -0.2435 -0.2024
 3187SOL    HW121020   4.181   0.139   0.805 -1.6428 -1.2463 -1.2867
 3187SOL    HW221021   4.186   0.270   0.869 -3.5666  0.3160  2.2963
 3188SOL     OW21022   2.401   3.127   1.111 -0.0406 -0.7680 -0.4567
 3188SOL    HW121023   2.488   3.153   1.141  0.1653 -3.2005  1.0119
 3188SOL    HW221024   2.408   3.036   1.139 -0.7129 -0.2142  1.5058
 3189SOL     OW21025   2.960   0.835   7.932 -0.0494 -0.2238 -0.3952
 3189SOL    HW121026   2.921   0.894   7.868  1.2736  0.8417 -0.2188
 3189SOL    HW221027   3.042   0.813   7.887  1.3593  1.4562  1.3452
 3190SOL     OW21028   0.035   3.629  13.111 -0.5113 -0.7063 -0.1085
 3190SOL    HW121029   0.069   3.628  13.200  0.4360 -0.3045 -0.4703
 3190SOL    HW221030   0.094   3.686  13.062 -0.4276 -2.1700 -1.7306
 3191SOL     OW21031   1.061   1.206  17.346 -0.2980  0.5363  0.2490
 3191SOL    HW121032   0.986   1.230  17.293  0.4147 -1.2164 -1.5493
 3191SOL    HW221033   1.023   1.188  17.432  1.0433 -0.1819  0.6980
 3192SOL     OW21034   2.313   4.311  12.763 -0.6012  0.2074  0.5936
 3192SOL    HW121035   2.241   4.346  12.709 -0.7473  0.1707  0.7644
 3192SOL    HW221036   2.284   4.221  12.778 -0.1785 -0.2077 -1.0280
 3193SOL     OW21037   4.443   0.287   6.904 -0.9191 -0.4167  0.2867
 3193SOL    HW121038   4.366   0.234   6.883 -1.0779 -0.0922  0.0556
 3193SOL    HW221039   4.410   0.368   6.864  1.9411  0.7587  0.2916
 3194SOL     OW21040   3.219   1.814   3.470  0.4080  0.3679 -0.2422
 3194SOL    HW121041   3.139   1.770   3.497  0.8166  1.4544  2.7657
 3194SOL    HW221042   3.210   1.816   3.375 -0.6609  0.2296 -0.1477
 3195SOL     OW21043   4.042   2.644   4.478  0.3608 -0.1108 -0.8895
 3195SOL    HW121044   4.077   2.573   4.533 -2.3748 -0.8747 -0.1318
 3195SOL    HW221045   4.129   2.660   4.441 -0.0677 -0.1850 -1.9190
 3196SOL     OW21046   1.577   1.738  11.713  0.4811 -0.2547 -0.2378
 3196SOL    HW121047   1.613   1.737  11.802 -1.1276 -1.5283  0.3829
 3196SOL    HW221048   1.655   1.751  11.659 -0.7129  2.9028 -1.2476
 3197SOL     OW21049   3.819   2.389  12.663  0.1334  0.1743  0.0063
 3197SOL    HW121050   3.892   2.357  12.610  0.6738  1.1859  0.1220
 3197SOL    HW221051   3.870   2.441  12.726 -2.5234  0.9112  1.5940
 3198SOL     OW21052   0.347   2.256  13.586 -0.2984 -0.0502 -0.0430
 3198SOL    HW121053   0.421   2.226  13.534 -0.2569  1.7731 -1.0333
 3198SOL    HW221054   0.396   2.267  13.667 -2.2326  2.7579  0.7531
 3199SOL     OW21055   0.588   0.918   2.189  0.4335 -0.2431  0.5491
 3199SOL    HW121056   0.513   0.859   2.174  0.0971  0.3889 -0.2886
 3199SOL    HW221057   0.654   0.855   2.217  0.2193  0.6031  2.8918
 3200SOL     OW21058   0.813   3.376   6.464 -0.4693  0.9886 -0.3999
 3200SOL    HW121059   0.898   3.394   6.425 -0.6180  1.8247 -0.3425
 3200SOL    HW221060   0.791   3.466   6.488 -2.2982 -0.1894  2.3873
 3201SOL     OW21061   0.805   2.833   3.289  0.2540  0.0126  0.5173
 3201SOL    HW121062   0.773   2.808   3.376 -0.0745  1.5635  0.8488
 3201SOL    HW221063   0.895   2.804   3.304  0.4150  0.5729  0.6390
 3202SOL     OW21064   2.638   1.941   5.873 -0.2058 -0.3215  0.3864
 3202SOL    HW121065   2.564   1.891   5.839  0.8073 -1.0653 -0.7242
 3202SOL    HW221066   2.668   1.988   5.796 -0.1415  1.3046  1.3931
 3203SOL     OW21067   4.154   1.414   6.870 -0.4386  0.0685  0.2258
 3203SOL    HW121068   4.236   1.416   6.821  0.1414  2.6574  1.2969
 3203SOL    HW221069   4.136   1.320   6.868 -1.1225  0.1495  2.4533
 3204SOL     OW21070   2.739   0.544   0.950  0.0691 -0.1181  0.0950
 3204SOL    HW121071   2.807   0.516   0.889 -0.2314  0.6852 -0.6086
 3204SOL    HW221072   2.693   0.602   0.889 -0.1741 -1.0611 -0.6165
 3205SOL     OW21073   1.540   2.100   5.971  0.2405  0.4646  0.3169
 3205SOL    HW121074   1.565   2.028   6.030 -1.3394 -0.4438 -0.1423
 3205SOL    HW221075   1.614   2.104   5.910 -0.3968  2.2070 -0.3389
 3206SOL     OW21076   1.849   0.899   4.386 -0.3823 -0.8741  0.3087
 3206SOL    HW121077   1.823   0.914   4.477 -0.3117  2.6423 -0.2289
 3206SOL    HW221078   1.824   0.976   4.334  0.0144 -1.6989 -1.1088
 3207SOL     OW21079   1.018   4.615   5.438 -0.2282  0.4660  0.9678
 3207SOL    HW121080   1.074   4.692   5.444  0.7346 -0.1686  0.2899
 3207SOL    HW221081   1.027   4.588   5.529 -0.7437 -0.2787  0.8010
 3208SOL     OW21082   0.937   4.100   8.378  0.5455 -0.1963  0.1418
 3208SOL    HW121083   0.944   4.005   8.391  0.1828  0.0554  2.2158
 3208SOL    HW221084   0.843   4.106   8.360  0.4285  0.2737  0.8932
 3209SOL     OW21085   0.375   1.091   3.905 -0.6714 -0.0446 -0.2427
 3209SOL    HW121086   0.463   1.124   3.923 -0.4249 -0.6790 -0.2844
 3209SOL    HW221087   0.403   1.017   3.852 -0.4707 -0.3782  0.3322
 3210SOL     OW21088   4.511   4.205  17.635 -0.3237 -0.1457 -0.3008
 3210SOL    HW121089   4.547   4.117  17.642 -0.0331 -0.1627 -1.9810
 3210SOL    HW221090   4.418   4.197  17.659 -1.2666 -0.1507 -3.9910
 3211SOL     OW21091   3.007   4.401   4.417 -1.2872 -0.0396  0.4821
 3211SOL    HW121092   3.043   4.477   4.463 -1.2173 -1.3559  2.5709
 3211SOL    HW221093   3.088   4.378   4.371 -0.9119  0.9317  0.6492
 3212SOL     OW21094   1.912   3.134  13.842 -0.3449 -0.2294  0.9114
 3212SOL    HW121095   1.941   3.115  13.753 -0.2878 -3.1819  1.5874
 3212SOL    HW221096   1.977   3.101  13.904  1.2343 -0.2531 -0.7493
 3213SOL     OW21097   4.446   3.738  15.135 -0.5643 -0.1227 -0.0217
 3213SOL    HW121098   4.370   3.697  15.093 -1.4415  0.1801  1.2770
 3213SOL    HW221099   4.435   3.722  15.228  1.5635  0.8821  0.3991
 3214SOL     OW21100   2.459   4.008   0.714 -0.2397  0.2675 -0.3900
 3214SOL    HW121101   2.504   3.952   0.777  0.2715  1.6469  0.4813
 3214SOL    HW221102   2.379   3.960   0.691  0.8946 -0.8798 -1.8911
 3215SOL     OW21103   3.078   4.028   9.279 -0.1930 -0.0890  0.6444
 3215SOL    HW121104   3.012   4.015   9.212  0.9534 -1.0047 -0.2955
 3215SOL    HW221105   3.089   3.936   9.303 -1.1789  0.0058  1.5044
 3216SOL     OW21106   4.619   4.278   3.388  0.4065 -0.1271  0.2086
 3216SOL    HW121107   4.532   4.292   3.424  0.7014  1.7206  0.2140
 3216SOL    HW221108   4.672   4.336   3.443  0.1734 -0.0908  0.3918
 3217SOL     OW21109   0.253   0.068  16.454  0.6940  0.3261  0.0356
 3217SOL    HW121110   0.245   0.130  16.382  0.2437 -0.6493 -0.7430
 3217SOL    HW221111   0.162   0.047  16.473  0.0411  0.6724 -2.8078
 3218SOL     OW21112   0.135   3.520   1.651  0.6212 -0.0321  0.2839
 3218SOL    HW121113   0.088   3.452   1.602 -1.8422  2.6203 -1.0173
 3218SOL    HW221114   0.199   3.544   1.584  1.9358 -2.6896  0.6072
 3219SOL     OW21115   2.542   4.513   8.059  0.3080 -0.2777  0.2956
 3219SOL    HW121116   2.540   4.541   8.150 -1.0023 -1.0757  0.5074
 3219SOL    HW221117   2.451   4.485   8.052  0.7765 -1.5953 -0.5676
 3220SOL     OW21118   1.098   2.347   8.980  0.1243  0.0080 -0.5181
 3220SOL    HW121119   1.160   2.317   9.046 -1.3255 -0.6955  0.5327
 3220SOL    HW221120   1.110   2.442   8.975 -0.8406  0.1092 -0.9746
 3221SOL     OW21121   0.005   0.460   4.007 -0.0363  0.4272  0.5901
 3221SOL    HW121122   4.721   0.504   4.092  0.7495 -1.2305  1.5074
 3221SOL    HW221123   4.639   0.440   3.979  0.4722 -0.3179 -0.5205
 3222SOL     OW21124   4.648   1.585  17.383  0.1841 -0.5534  1.0331
 3222SOL    HW121125   4.680   1.553  17.467 -0.6584 -3.6898  0.1676
 3222SOL    HW221126   4.635   1.497  17.347  0.6201  0.0692 -0.6485
 3223SOL     OW21127   3.028   0.969  15.465 -0.3990 -0.5104 -0.7052
 3223SOL    HW121128   3.064   1.058  15.463  1.7561 -1.3995 -1.5205
 3223SOL    HW221129   3.114   0.927  15.454  0.3983  0.5286  1.3875
 3224SOL     OW21130   2.884   0.905   6.179 -0.2491 -0.2696  0.0667
 3224SOL    HW121131   2.789   0.891   6.179 -0.7047  2.7866  0.8771
 3224SOL    HW221132   2.901   0.850   6.255  1.9508  1.4500  0.8267
 3225SOL     OW21133   0.630   0.264  11.443 -0.1881  0.7483  0.7168
 3225SOL    HW121134   0.673   0.347  11.463 -0.5410  1.1176 -0.0598
 3225SOL    HW221135   0.677   0.207  11.504  0.4980  0.5544  0.0096
 3226SOL     OW21136   3.565   0.466   0.362 -0.7462 -0.4422  0.5751
 3226SOL    HW121137   3.511   0.503   0.292  0.2561 -0.9610 -0.4620
 3226SOL    HW221138   3.618   0.538   0.396  0.2108  0.0598 -2.0153
 3227SOL     OW21139   0.559   3.351   3.735  0.4595  0.1573 -0.5582
 3227SOL    HW121140   0.586   3.391   3.653  0.6383 -0.3328 -0.7311
 3227SOL    HW221141   0.569   3.420   3.801  2.0446 -1.4414  0.8859
 3228SOL     OW21142   4.305   0.688   7.377  0.3308 -0.0283  0.0261
 3228SOL    HW121143   4.255   0.705   7.457  1.5686 -0.0804  0.8013
 3228SOL    HW221144   4.284   0.596   7.362 -0.0939  0.3493 -1.6188
 3229SOL     OW21145   2.015   2.116   7.664  0.5127  0.0295 -0.3402
 3229SOL    HW121146   1.991   2.182   7.728 -3.3581 -0.6844 -1.0638
 3229SOL    HW221147   2.049   2.046   7.720 -0.1648 -0.7243 -0.8738
 3230SOL     OW21148   1.906   0.046  10.876  0.4313 -0.3075 -0.3414
 3230SOL    HW121149   1.958   0.102  10.818  0.3746 -0.0567 -0.1483
 3230SOL    HW221150   1.978   0.021  10.934 -0.5939 -1.0123  0.6078
 3231SOL     OW21151   2.186   1.642   9.179  0.2446 -0.6908  0.0332
 3231SOL    HW121152   2.217   1.733   9.174 -2.6935  0.1958 -2.0273
 3231SOL    HW221153   2.272   1.602   9.197 -1.0643 -2.4976  2.1884
 3232SOL     OW21154   2.781   4.446  16.241 -0.0027  0.2645 -0.2069
 3232SOL    HW121155   2.765   4.353  16.228  0.0829 -0.0992  2.4144
 3232SOL    HW221156   2.868   4.455  16.202  0.0001  0.3370 -0.1839
 3233SOL     OW21157   4.041   3.757   2.634  0.0746  0.0727  0.4039
 3233SOL    HW121158   4.128   3.721   2.650  0.3283  1.4407  2.0646
 3233SOL    HW221159   4.031   3.718   2.546 -2.1055 -0.6244  0.9479
 3234SOL     OW21160   3.624   3.677   5.965  0.3699  0.1246 -0.4078
 3234SOL    HW121161   3.608   3.604   6.026  1.2356  0.8902  0.7296
 3234SOL    HW221162   3.703   3.653   5.916  2.6527  1.4860  2.5757
 3235SOL     OW21163   1.472   1.969   8.499 -0.1350  0.2221 -0.0937
 3235SOL    HW121164   1.450   1.891   8.550  1.1803  0.0262  0.1622
 3235SOL    HW221165   1.528   2.015   8.560  0.8456 -1.8808  0.5969
 3236SOL     OW21166   0.196   1.909   6.973 -0.5873 -0.4009  0.0827
 3236SOL    HW121167   0.169   1.843   7.036  0.5010 -1.6680 -0.7745
 3236SOL    HW221168   0.261   1.862   6.920 -2.0032 -2.2303  0.0129
 3237SOL     OW21169   3.621   4.290   0.395  0.6969  0.8145 -0.4046
 3237SOL    HW121170   3.667   4.332   0.323 -0.7053 -1.3188 -2.5655
 3237SOL    HW221171   3.647   4.198   0.402  1.1468  0.7592 -2.8137
 3238SOL     OW21172   1.616   1.013   2.118 -0.0041  0.1258 -0.2013
 3238SOL    HW121173   1.596   0.953   2.046 -3.0915  0.3029  0.4912
 3238SOL    HW221174   1.690   1.060   2.078  0.1504  0.7109  0.7874
 3239SOL     OW21175   0.961   0.596  10.604 -0.0751 -0.1607 -0.4281
 3239SOL    HW121176   0.974   0.503  10.621 -1.1898  0.0076  1.3553
 3239SOL    HW221177   0.884   0.619  10.655  0.1670 -2.4472  0.9745
 3240SOL     OW21178   2.526   1.952   4.190 -0.1089 -0.5596  0.3007
 3240SOL    HW121179   2.573   1.974   4.271 -0.1025 -2.0644  0.7170
 3240SOL    HW221180   2.432   1.958   4.207  0.0354 -1.8169  1.5474
 3241SOL     OW21181   0.277   3.285   6.779  0.0302  0.2886 -0.3065
 3241SOL    HW121182   0.272   3.345   6.853 -0.8916 -0.2418  0.0515
 3241SOL    HW221183   0.370   3.261   6.779 -0.2709 -0.8780 -2.0022
 3242SOL     OW21184   4.451   2.997  11.775 -0.2405 -0.1831 -0.6297
 3242SOL    HW121185   4.359   3.025  11.781 -1.1750 -3.3856 -0.3662
 3242SOL    HW221186   4.470   2.988  11.868  0.4945  3.1053 -0.4760
 3243SOL     OW21187   0.792   3.095   6.788  0.1840  0.4586 -0.3860
 3243SOL    HW121188   0.697   3.083   6.788  0.0507  1.4401  3.0834
 3243SOL    HW221189   0.794   3.177   6.836 -1.0175 -0.0172  0.4771
 3244SOL     OW21190   1.884   1.573  12.186 -0.6350  0.0074 -0.6062
 3244SOL    HW121191   1.935   1.563  12.106  0.7024  1.0311  0.1349
 3244SOL    HW221192   1.943   1.525  12.244 -1.3051 -1.0507 -0.7897
 3245SOL     OW21193   0.216   4.297   8.194  0.2784 -0.2806 -0.2541
 3245SOL    HW121194   0.159   4.235   8.148 -0.6950  1.1619 -0.9948
 3245SOL    HW221195   0.160   4.347   8.253 -0.4451  0.4122 -1.5034
 3246SOL     OW21196   3.995   3.109  15.940  0.4516 -0.6532 -0.9015
 3246SOL    HW121197   3.966   3.065  15.859 -2.2683  2.2304 -1.4921
 3246SOL    HW221198   3.909   3.116  15.983  1.3762  0.8728  0.6575
 3247SOL     OW21199   2.822   3.105   5.789 -0.0542 -0.3863  0.1314
 3247SOL    HW121200   2.819   3.105   5.694 -3.1658 -0.6253  0.2352
 3247SOL    HW221201   2.863   3.191   5.782 -1.3306  0.1682 -0.5803
 3248SOL     OW21202   4.241   4.148  12.977 -0.0385  0.0970  0.0232
 3248SOL    HW121203   4.248   4.233  12.932  0.1754  0.6472  1.0972
 3248SOL    HW221204   4.220   4.085  12.909 -0.7264  1.3769 -0.9649
 3249SOL     OW21205   3.329   4.120  15.611 -0.3865  0.3854  0.0219
 3249SOL    HW121206   3.411   4.167  15.621  0.3361 -0.6168 -1.2083
 3249SOL    HW221207   3.284   4.173  15.546 -1.2394 -1.6359 -1.0220
 3250SOL     OW21208   2.404   0.793   6.069  0.1059 -0.2257  0.3480
 3250SOL    HW121209   2.341   0.851   6.112  0.3058 -0.8065  1.4371
 3250SOL    HW221210   2.352   0.766   5.993  2.6930 -1.5409 -0.9451
 3251SOL     OW21211   3.125   1.468   2.217  0.1597  0.2923  0.5581
 3251SOL    HW121212   3.161   1.469   2.129 -0.3972 -2.7191  0.3013
 3251SOL    HW221213   3.191   1.410   2.257  2.8885  1.9689 -1.5136
 3252SOL     OW21214   0.801   2.747   4.726  0.2910  0.0216  0.2336
 3252SOL    HW121215   0.895   2.761   4.728  0.0604  1.5443 -0.0699
 3252SOL    HW221216   0.799   2.731   4.632  0.0223 -0.9886  0.4101
 3253SOL     OW21217   3.190   0.271  14.606  0.2080  1.0231 -0.7151
 3253SOL    HW121218   3.108   0.237  14.641  1.0872 -1.0799 -0.6518
 3253SOL    HW221219   3.193   0.361  14.638  0.5564  1.1993 -1.2499
 3254SOL     OW21220   4.685   4.020   4.640  0.1265  0.4097  0.7490
 3254SOL    HW121221   4.606   4.042   4.688  0.9191  1.9963  1.3188
 3254SOL    HW221222   4.719   4.109   4.645 -1.7724  1.2567 -1.7111
 3255SOL     OW21223   0.123   4.014   8.617 -0.2013 -0.1757 -0.0751
 3255SOL    HW121224   0.040   4.008   8.664 -0.6700 -1.6962 -1.0986
 3255SOL    HW221225   0.155   3.924   8.607  0.3180 -0.1049  0.9167
 3256SOL     OW21226   4.049   1.037  17.561  0.2266  0.1059 -0.5417
 3256SOL    HW121227   4.021   1.009  17.474  0.2531 -1.3811 -0.0606
 3256SOL    HW221228   4.047   1.133  17.553  2.2426 -0.0343 -2.6595
 3257SOL     OW21229   2.624   0.416   6.757 -0.0618 -0.2719  0.2806
 3257SOL    HW121230   2.649   0.453   6.672  0.6216 -4.0685 -1.1398
 3257SOL    HW221231   2.530   0.431   6.755  0.0120  0.0747 -0.4316
 3258SOL     OW21232   2.023   0.658   0.252 -0.5709 -0.4186 -0.2597
 3258SOL    HW121233   2.116   0.652   0.269 -0.5367  0.1011 -0.2710
 3258SOL    HW221234   1.983   0.592   0.309 -0.4757  1.4452  1.9668
 3259SOL     OW21235   3.148   3.815  17.578  0.4301  0.1577 -0.1569
 3259SOL    HW121236   3.079   3.807  17.643  1.6984 -0.7896  1.0775
 3259SOL    HW221237   3.115   3.888  17.525  0.0942  0.8301  0.9695
 3260SOL     OW21238   1.003   2.790   4.217 -0.0239  0.1328  0.5154
 3260SOL    HW121239   1.095   2.801   4.195 -0.0967 -0.0186  0.1399
 3260SOL    HW221240   0.991   2.696   4.201  2.3713  0.2161 -1.7078
 3261SOL     OW21241   3.866   2.625   7.937 -0.1716  0.4884  0.4901
 3261SOL    HW121242   3.832   2.701   7.890 -0.4451 -0.5070 -0.9134
 3261SOL    HW221243   3.807   2.621   8.012 -1.0260  1.1024 -0.1574
 3262SOL     OW21244   1.167   1.706  12.003 -0.4612  0.4099  0.3335
 3262SOL    HW121245   1.232   1.710  11.933 -2.2710  0.0246 -1.3903
 3262SOL    HW221246   1.186   1.786  12.052  0.6698  0.3110  0.0432
 3263SOL     OW21247   4.539   1.394   5.421 -0.2147  0.7811  0.2841
 3263SOL    HW121248   4.451   1.382   5.386 -0.6773  1.8810  1.0573
 3263SOL    HW221249   4.548   1.490   5.418  1.7892  0.5415 -1.5599
 3264SOL     OW21250   2.697   2.213   6.839  0.4108 -0.2291 -0.0995
 3264SOL    HW121251   2.723   2.173   6.756  0.6802  0.1215 -0.1851
 3264SOL    HW221252   2.703   2.308   6.825 -0.7062  0.2724  2.8050
 3265SOL     OW21253   0.015   2.501   1.678  0.1508 -0.2471 -0.1651
 3265SOL    HW121254   0.017   2.575   1.739 -1.2500  0.6375 -1.1906
 3265SOL    HW221255   0.099   2.509   1.633  0.7766  0.2208  1.0782
 3266SOL     OW21256   3.049   1.148  13.460 -0.2787  0.5137  0.6528
 3266SOL    HW121257   3.072   1.105  13.542 -0.5377 -2.6863 -0.9810
 3266SOL    HW221258   2.967   1.186  13.493 -0.3414 -0.1198  1.2146
 3267SOL     OW21259   2.516   3.141   6.943 -0.3391 -0.1262 -0.4512
 3267SOL    HW121260   2.573   3.106   6.875  1.7444 -1.7780  2.1501
 3267SOL    HW221261   2.479   3.063   6.985 -0.5135  0.0160 -0.3392
 3268SOL     OW21262   4.273   0.313   0.090 -0.0736 -0.2614  0.4777
 3268SOL    HW121263   4.182   0.287   0.076  0.0252  0.3283 -1.2624
 3268SOL    HW221264   4.321   0.261   0.026 -3.2599 -1.4101 -0.9725
 3269SOL     OW21265   0.989   0.528   2.671  0.2462 -0.1004  0.5459
 3269SOL    HW121266   1.052   0.477   2.722  0.2346 -0.5520  0.1071
 3269SOL    HW221267   1.042   0.534   2.592 -1.1652  2.3199 -0.2219
 3270SOL     OW21268   0.664   3.812   2.062  0.4502 -0.2511  0.0531
 3270SOL    HW121269   0.580   3.772   2.037 -0.8027  0.4195  3.2551
 3270SOL    HW221270   0.648   3.892   2.013  2.5203 -0.2654 -0.6532
 3271SOL     OW21271   4.589   0.122   1.602 -0.1276 -0.6456 -0.5844
 3271SOL    HW121272   4.683   0.133   1.621 -0.0057  0.4504 -1.8345
 3271SOL    HW221273   4.595   0.075   1.519  1.6432  0.0912 -0.8837
 3272SOL     OW21274   2.788   4.078  10.723 -0.1438 -0.4048 -0.3468
 3272SOL    HW121275   2.831   3.996  10.700  1.5650  0.2564  0.4695
 3272SOL    HW221276   2.697   4.050  10.715 -0.9392  1.3142  2.7595
 3273SOL     OW21277   1.842   4.583   7.132  0.1283  0.0529  0.6768
 3273SOL    HW121278   1.771   4.640   7.164 -0.0726 -0.1968  0.6768
 3273SOL    HW221279   1.837   4.513   7.197  1.3394 -0.7827 -0.1482
 3274SOL     OW21280   3.472   2.602   2.260  0.3480  0.0144  0.1875
 3274SOL    HW121281   3.525   2.613   2.339  1.0534  0.8536 -0.3960
 3274SOL    HW221282   3.383   2.612   2.291 -0.0096  1.4858 -1.3073
 3275SOL     OW21283   0.049   2.444   9.969 -0.3117 -0.0881 -0.3429
 3275SOL    HW121284   0.074   2.484   9.885  0.6484 -0.4015 -0.2145
 3275SOL    HW221285   0.137   2.449  10.007 -1.2338  0.1977  1.7114
 3276SOL     OW21286   1.135   3.125   5.037  0.1000  0.4790  0.0754
 3276SOL    HW121287   1.131   3.195   4.971  0.0513  0.9182  0.5455
 3276SOL    HW221288   1.065   3.067   5.006 -1.2792  1.9760  0.3432
 3277SOL     OW21289   4.409   2.000   7.740  0.7193 -0.2388  0.1275
 3277SOL    HW121290   4.486   2.053   7.758  0.6860  0.0507 -0.6128
 3277SOL    HW221291   4.366   2.000   7.826  0.6288 -0.2534  0.0830
 3278SOL     OW21292   4.703   1.813   3.542  0.3533  0.3715  0.0908
 3278SOL    HW121293   4.683   1.805   3.449  0.2140  1.3274  0.0301
 3278SOL    HW221294   4.634   1.755   3.573 -0.4954  1.0746 -0.4790
 3279SOL     OW21295   4.490   1.117  15.636 -0.0623 -0.2174 -0.5980
 3279SOL    HW121296   4.470   1.023  15.640  0.3518 -0.2526  0.6439
 3279SOL    HW221297   4.403   1.153  15.619  0.4817  0.4854 -1.8484
 3280SOL     OW21298   0.749   2.837   3.934  0.4270  0.1418 -0.1470
 3280SOL    HW121299   0.801   2.759   3.915 -2.0364 -2.2401  2.8629
 3280SOL    HW221300   0.670   2.814   3.885 -1.1633  0.6271  2.1765
 3281SOL     OW21301   0.652   0.506  10.068  0.1018 -0.0977  0.0849
 3281SOL    HW121302   0.738   0.496  10.026 -1.6898  0.7282 -3.6961
 3281SOL    HW221303   0.645   0.430  10.126 -3.5399 -1.1252 -1.7583
 3282SOL     OW21304   3.445   1.546   6.826 -0.1023  0.2125  0.4731
 3282SOL    HW121305   3.519   1.587   6.781  0.1020  2.8015  3.1174
 3282SOL    HW221306   3.415   1.484   6.760 -2.6765  1.9516  0.0342
 3283SOL     OW21307   3.325   4.084   5.895  0.8342  0.0709 -0.5866
 3283SOL    HW121308   3.347   3.992   5.910  0.0485  0.3700  2.2902
 3283SOL    HW221309   3.404   4.120   5.854  1.3086 -0.2739  0.0390
 3284SOL     OW21310   2.941   0.420  10.630  0.1644  0.1471 -0.2407
 3284SOL    HW121311   2.869   0.362  10.656  1.4475 -0.3692  2.1040
 3284SOL    HW221312   2.889   0.486  10.583  2.5186  2.8656  1.0378
 3285SOL     OW21313   2.531   4.231   1.308 -0.1036  0.0550  0.2757
 3285SOL    HW121314   2.508   4.158   1.251  0.1612 -1.9029  2.6953
 3285SOL    HW221315   2.463   4.296   1.293 -2.1891 -2.2018  0.0214
 3286SOL     OW21316   3.238   1.211   3.407 -0.2324 -0.5563  0.1777
 3286SOL    HW121317   3.189   1.205   3.325  1.8617  0.1531 -1.1275
 3286SOL    HW221318   3.200   1.295   3.432  0.6494 -0.1788  0.2331
 3287SOL     OW21319   1.634   4.551  10.560 -0.4120  0.5278  0.6876
 3287SOL    HW121320   1.684   4.471  10.575 -0.5977  0.5836  1.6148
 3287SOL    HW221321   1.672   4.620  10.614 -0.9242  1.1875  0.2085
 3288SOL     OW21322   3.841   4.110   9.572 -0.6859 -0.2305 -0.4340
 3288SOL    HW121323   3.755   4.071   9.591 -1.3352  1.4068 -0.0405
 3288SOL    HW221324   3.839   4.096   9.477  0.6344 -3.0805 -0.0318
 3289SOL     OW21325   2.478   1.802  10.104 -0.1281 -0.7395  0.4234
 3289SOL    HW121326   2.445   1.734  10.045  0.2725 -0.7343  0.1978
 3289SOL    HW221327   2.425   1.876  10.076  0.9761 -0.0957  0.0474
 3290SOL     OW21328   1.232   4.715   7.594  0.3039 -0.5861  0.0262
 3290SOL    HW121329   1.320   4.717   7.631  0.1140  2.1593  0.3805
 3290SOL    HW221330   1.249   0.042   7.515 -0.7522  0.0406  0.1947
 3291SOL     OW21331   4.147   1.515   6.331  0.4775 -0.3532 -0.2814
 3291SOL    HW121332   4.109   1.573   6.265 -0.1377  0.0211  0.4051
 3291SOL    HW221333   4.239   1.541   6.321 -0.0098  1.8589  1.0387
 3292SOL     OW21334   0.646   2.844   8.247  0.4531 -0.5255  0.3473
 3292SOL    HW121335   0.595   2.893   8.311  0.7941 -1.5656  1.4180
 3292SOL    HW221336   0.573   2.790   8.216  0.7979 -0.5586 -0.4141
 3293SOL     OW21337   1.828   2.126   9.803  0.0760 -0.3665  0.2745
 3293SOL    HW121338   1.814   2.143   9.710  0.6630 -0.8569  0.0929
 3293SOL    HW221339   1.915   2.088   9.795  0.6323  0.9661  0.1014
 3294SOL     OW21340   1.285   0.811   2.834 -0.0436  0.2419  0.0862
 3294SOL    HW121341   1.338   0.780   2.760  0.5029  2.4957 -0.4826
 3294SOL    HW221342   1.334   0.885   2.871 -0.6314  1.6618 -1.9693
 3295SOL     OW21343   4.492   1.765  15.763 -0.1501  0.6065  0.6113
 3295SOL    HW121344   4.573   1.732  15.802  1.8260  2.5173 -1.8774
 3295SOL    HW221345   4.529   1.832  15.705 -0.2366  1.6933  1.8129
 3296SOL     OW21346   1.954   0.407  14.793 -0.1384 -0.2305 -0.2656
 3296SOL    HW121347   2.048   0.392  14.783  0.3688  1.0693  2.5163
 3296SOL    HW221348   1.916   0.377  14.710 -1.8088  2.3303 -0.4408
 3297SOL     OW21349   2.000   1.095   1.063 -0.1102 -0.0002 -0.0474
 3297SOL    HW121350   1.966   1.100   1.152  0.1059  0.7330 -0.0026
 3297SOL    HW221351   1.928   1.114   1.002 -1.2987 -0.4260  1.2381
 3298SOL     OW21352   2.998   2.423   6.300  0.4580  0.1170 -0.2547
 3298SOL    HW121353   2.977   2.507   6.341  0.5622 -0.3486  0.7541
 3298SOL    HW221354   3.035   2.376   6.375 -0.1466 -1.2941 -0.8343
 3299SOL     OW21355   3.609   0.402   1.912  0.0660  0.3464 -0.1610
 3299SOL    HW121356   3.550   0.428   1.983 -0.6692  2.5218 -1.6075
 3299SOL    HW221357   3.619   0.307   1.925  2.0081  0.6051  0.2010
 3300SOL     OW21358   3.755   0.379   5.991 -0.0395 -0.0252  0.1965
 3300SOL    HW121359   3.677   0.431   6.010 -0.3115 -1.1233  2.1486
 3300SOL    HW221360   3.811   0.455   5.981  1.9108 -1.7650 -1.9746
 3301SOL     OW21361   3.877   1.274   9.146 -0.6541 -0.3209 -0.2744
 3301SOL    HW121362   3.822   1.313   9.078  0.1680  2.8444  0.8465
 3301SOL    HW221363   3.961   1.269   9.099  0.4202 -2.0347  1.8456
 3302SOL     OW21364   4.301   1.965  12.859 -0.0187  0.1153  0.1957
 3302SOL    HW121365   4.249   2.045  12.870  0.1962  0.4135 -0.9631
 3302SOL    HW221366   4.290   1.933  12.949 -4.6936 -2.9288 -1.4002
 3303SOL     OW21367   0.496   4.021   1.613  0.1810  0.4890 -0.2103
 3303SOL    HW121368   0.546   3.941   1.602  0.6210  0.7613 -0.2033
 3303SOL    HW221369   0.405   4.000   1.595  0.6855 -1.5044 -0.4081
 3304SOL     OW21370   0.586   3.125   3.602  0.2452 -0.1668 -0.4054
 3304SOL    HW121371   0.594   3.215   3.633  1.5603 -0.7118  0.8342
 3304SOL    HW221372   0.492   3.108   3.612  0.7105 -1.6149  1.5420
 3305SOL     OW21373   3.304   0.354   8.544 -0.5343  0.2168  0.5682
 3305SOL    HW121374   3.351   0.278   8.577 -1.4752 -1.0525 -0.9962
 3305SOL    HW221375   3.218   0.354   8.586  0.1264  2.8043  1.9481
 3306SOL     OW21376   1.860   3.204   9.543 -0.0913 -0.0322 -0.4676
 3306SOL    HW121377   1.922   3.248   9.485 -0.1153  1.2958  0.5168
 3306SOL    HW221378   1.804   3.155   9.483 -0.5277 -2.4905  1.9924
 3307SOL     OW21379   4.149   0.089   3.128  0.3111  0.2721  0.0498
 3307SOL    HW121380   4.225   0.143   3.109  0.4497 -0.5828 -1.8956
 3307SOL    HW221381   4.189   0.020   3.182 -0.3755 -0.9461 -0.9948
 3308SOL     OW21382   0.566   4.561   1.427 -0.1216 -0.5365 -0.2821
 3308SOL    HW121383   0.497   4.501   1.398 -0.3333 -0.6932  0.5477
 3308SOL    HW221384   0.561   4.562   1.523  0.7902 -0.7004 -0.2341
 3309SOL     OW21385   4.475   1.321   8.308 -0.4955 -0.0702  0.0940
 3309SOL    HW121386   4.491   1.415   8.301  1.1837 -0.3247  0.6851
 3309SOL    HW221387   4.431   1.316   8.393 -0.8143  1.1311  0.0028
 3310SOL     OW21388   2.491   2.459   2.232 -0.3512 -0.3641 -0.4689
 3310SOL    HW121389   2.453   2.402   2.165  2.0386 -0.3185 -1.8483
 3310SOL    HW221390   2.440   2.539   2.240  2.4901  1.4967 -1.0645
 3311SOL     OW21391   1.788   2.249  15.367  0.0878 -0.6028 -0.9770
 3311SOL    HW121392   1.755   2.337  15.386 -1.3511 -1.2124 -0.6938
 3311SOL    HW221393   1.883   2.261  15.378 -0.0546 -1.0895  0.9092
 3312SOL     OW21394   3.928   3.180   6.156  0.3126  0.3610 -0.3466
 3312SOL    HW121395   3.980   3.246   6.110  1.7887 -0.4420  0.1910
 3312SOL    HW221396   3.975   3.179   6.239 -2.0988  1.8159  1.0536
 3313SOL     OW21397   3.111   4.354   3.611 -0.0517  0.1023 -0.3342
 3313SOL    HW121398   3.080   4.359   3.702  1.2957  2.8991 -0.0268
 3313SOL    HW221399   3.178   4.422   3.610  0.7831 -0.7425 -3.0210
 3314SOL     OW21400   2.336   0.873  10.259 -0.8145 -0.0141  0.1613
 3314SOL    HW121401   2.308   0.910  10.176  1.2610  2.0315  0.3611
 3314SOL    HW221402   2.319   0.781  10.240 -0.0366  0.1573 -1.3897
 3315SOL     OW21403   3.793   1.018  14.202 -0.0357 -0.2398 -0.0150
 3315SOL    HW121404   3.711   1.061  14.229 -0.1221 -0.2007 -0.3440
 3315SOL    HW221405   3.814   0.965  14.279  1.2701  0.6512  0.2474
 3316SOL     OW21406   1.780   0.607  13.179  0.3673 -0.4329  0.5683
 3316SOL    HW121407   1.844   0.601  13.250  0.8481 -0.6305  0.1229
 3316SOL    HW221408   1.815   0.552  13.108  0.3516 -1.2508  1.1903
 3317SOL     OW21409   0.499   0.257  13.996  0.6156  0.7398  0.2479
 3317SOL    HW121410   0.545   0.205  14.062 -0.2493  0.6122  0.7530
 3317SOL    HW221411   0.411   0.237  14.027  0.4043 -0.0556 -0.8855
 3318SOL     OW21412   4.252   0.883  17.351 -0.1462 -0.2547  0.2837
 3318SOL    HW121413   4.187   0.915  17.289  0.7903  1.4550  0.1732
 3318SOL    HW221414   4.282   0.809  17.300  0.3304  0.0555  0.1123
 3319SOL     OW21415   4.036   3.784   1.124  0.0583  0.1839  0.0714
 3319SOL    HW121416   4.082   3.702   1.107 -0.0430  0.1984 -0.2776
 3319SOL    HW221417   3.949   3.761   1.156  0.8485 -0.0821  1.9750
 3320SOL     OW21418   2.510   1.188   7.581  0.3366  0.3760  0.1925
 3320SOL    HW121419   2.586   1.239   7.554  0.8551 -1.5824 -1.9996
 3320SOL    HW221420   2.538   1.097   7.571 -2.3524 -0.5194  0.9069
 3321SOL     OW21421   2.399   2.375   6.625  0.9933 -0.2357 -0.5221
 3321SOL    HW121422   2.373   2.319   6.697  1.3260  1.3642  0.8399
 3321SOL    HW221423   2.319   2.427   6.611  1.2342 -0.1962 -1.7752
 3322SOL     OW21424   3.617   0.310   5.275 -0.4674  0.2046  0.4812
 3322SOL    HW121425   3.637   0.235   5.331 -0.2462 -0.4360 -0.4564
 3322SOL    HW221426   3.644   0.273   5.191 -0.9118  1.7646 -0.3451
 3323SOL     OW21427   4.024   0.832   5.964 -0.0349  0.2136 -1.0208
 3323SOL    HW121428   4.016   0.897   6.033  0.5713 -0.9447  0.1429
 3323SOL    HW221429   4.058   0.876   5.886  2.7807 -0.9464 -0.4701
 3324SOL     OW21430   3.718   2.642  10.695 -0.1698  0.0254  0.0085
 3324SOL    HW121431   3.709   2.646  10.790 -3.1302  0.1805 -0.2769
 3324SOL    HW221432   3.745   2.733  10.678  0.7423 -0.4040 -0.8249
 3325SOL     OW21433   2.640   1.673   3.376 -0.1713 -0.7209 -0.2528
 3325SOL    HW121434   2.703   1.739   3.347  0.2193 -1.1101 -0.2904
 3325SOL    HW221435   2.592   1.720   3.444 -1.5656  0.3730 -2.0081
 3326SOL     OW21436   1.158   0.530   6.821  0.0199 -0.6137 -0.5656
 3326SOL    HW121437   1.072   0.568   6.807  0.3128 -0.9739 -3.3333
 3326SOL    HW221438   1.158   0.563   6.911  0.8752  0.8615 -1.1150
 3327SOL     OW21439   4.162   4.376   0.900 -0.3934 -0.3162  0.3176
 3327SOL    HW121440   4.248   4.414   0.918 -0.6779  0.6910 -0.4242
 3327SOL    HW221441   4.110   4.456   0.907  1.4081  0.8154  0.9104
 3328SOL     OW21442   3.438   3.744   4.933  0.2512 -0.4781  0.7658
 3328SOL    HW121443   3.344   3.759   4.934  0.4426  0.7764  0.4930
 3328SOL    HW221444   3.472   3.829   4.903  1.1162 -1.0706  0.0654
 3329SOL     OW21445   4.615   0.889   3.158 -0.4873  0.5554  0.0198
 3329SOL    HW121446   4.634   0.881   3.251 -0.8419  1.0092  0.1322
 3329SOL    HW221447   4.546   0.823   3.150 -0.6919  0.4173  2.9691
 3330SOL     OW21448   0.078   2.650   1.378  0.6523 -0.5823 -0.3648
 3330SOL    HW121449   4.714   2.615   1.385  0.5582 -0.2543  0.1305
 3330SOL    HW221450   0.130   2.570   1.382  0.1456 -1.0310 -2.8771
 3331SOL     OW21451   4.464   1.356   2.471  0.0567  0.1285  1.1870
 3331SOL    HW121452   4.424   1.425   2.525 -2.2817 -0.4515  0.1851
 3331SOL    HW221453   4.554   1.389   2.469 -0.1902  0.8111  1.0872
 3332SOL     OW21454   3.224   1.923  10.655  0.2634  0.4288  0.0593
 3332SOL    HW121455   3.302   1.913  10.709 -0.7877 -0.7376  1.3744
 3332SOL    HW221456   3.170   1.870  10.714  2.3878  1.4539  2.9036
 3333SOL     OW21457   3.355   4.402   5.246 -0.7315 -0.1019 -0.2649
 3333SOL    HW121458   3.352   4.352   5.327  0.6819 -0.5395 -0.4827
 3333SOL    HW221459   3.296   4.358   5.185  0.6314 -1.9827 -0.2243
 3334SOL     OW21460   1.549   4.327   4.476 -0.3846 -0.2785  0.7037
 3334SOL    HW121461   1.540   4.387   4.550  3.2612  1.1000  0.0241
 3334SOL    HW221462   1.562   4.246   4.524 -0.7602 -1.0371 -0.4687
 3335SOL     OW21463   2.884   1.037  16.457 -0.3015 -0.5661 -0.2122
 3335SOL    HW121464   2.847   0.949  16.451  1.2526 -1.2430  0.3265
 3335SOL    HW221465   2.845   1.064  16.541  1.0339  0.0057  0.2191
 3336SOL     OW21466   3.699   3.214   4.236 -0.1263 -0.2939  0.1691
 3336SOL    HW121467   3.618   3.190   4.192  0.2430  1.1972 -1.3530
 3336SOL    HW221468   3.698   3.310   4.239  0.3198 -0.2076 -2.8591
 3337SOL     OW21469   2.280   1.216   3.633 -0.0523  0.2833  0.1012
 3337SOL    HW121470   2.352   1.160   3.602 -0.3379 -0.9856  1.6977
 3337SOL    HW221471   2.248   1.162   3.706 -2.4776  0.6081 -0.7440
 3338SOL     OW21472   4.375   3.221   7.620  0.2520 -0.4832 -0.1158
 3338SOL    HW121473   4.408   3.186   7.537 -1.1188  1.1369 -1.3580
 3338SOL    HW221474   4.398   3.314   7.620 -0.9348 -0.1779  0.5540
 3339SOL     OW21475   3.339   1.431   6.524  0.2183 -0.0197 -0.5350
 3339SOL    HW121476   3.300   1.347   6.547 -0.2615  0.4666  0.4309
 3339SOL    HW221477   3.285   1.462   6.452 -0.6337  1.4946  0.7544
 3340SOL     OW21478   2.817   2.446  14.332 -0.1016 -0.3043  0.2445
 3340SOL    HW121479   2.749   2.390  14.295  0.0057 -1.3251  1.5918
 3340SOL    HW221480   2.769   2.521  14.367 -1.4960 -1.5583  0.9966
 3341SOL     OW21481   4.387   2.506   7.437 -0.4676  0.4239 -0.7639
 3341SOL    HW121482   4.332   2.497   7.515 -1.8992 -1.3579 -1.9830
 3341SOL    HW221483   4.368   2.423   7.394 -1.2725  0.3527 -0.2605
 3342SOL     OW21484   3.805   2.174   6.082  0.1432 -0.4408  0.9172
 3342SOL    HW121485   3.865   2.237   6.043 -0.8287 -0.7223 -1.0113
 3342SOL    HW221486   3.790   2.215   6.167 -1.5928  1.8177 -0.4718
 3343SOL     OW21487   3.588   4.451   8.111  0.3641  0.1061 -0.8759
 3343SOL    HW121488   3.588   4.515   8.040  1.0634  0.2086 -0.7891
 3343SOL    HW221489   3.505   4.456   8.158  1.3485  0.4283  0.8470
 3344SOL     OW21490   1.998   0.155   8.015 -0.2913 -0.1761  0.0927
 3344SOL    HW121491   2.000   0.229   8.076 -0.7157 -0.5429  0.5440
 3344SOL    HW221492   1.946   0.088   8.058  1.2504 -0.6310  1.2500
 3345SOL     OW21493   0.824   2.073   6.328  0.1467 -0.1821  0.2422
 3345SOL    HW121494   0.816   2.034   6.241 -3.0186  0.1017  0.4260
 3345SOL    HW221495   0.916   2.097   6.334  0.5199 -1.5171  0.0007
 3346SOL     OW21496   2.187   0.796   3.968 -0.0007  0.0206  0.1766
 3346SOL    HW121497   2.095   0.793   3.943 -0.7481 -0.0630  2.9301
 3346SOL    HW221498   2.181   0.822   4.060 -0.1335  0.7450 -0.0404
 3347SOL     OW21499   2.211   3.132   3.440  0.3657 -0.4772  0.1162
 3347SOL    HW121500   2.250   3.135   3.353  1.6811  0.5826  0.7449
 3347SOL    HW221501   2.129   3.088   3.420 -0.0841  0.3281  0.2116
 3348SOL     OW21502   3.748   4.233   3.122 -0.0278 -0.3984  0.2389
 3348SOL    HW121503   3.791   4.256   3.039 -1.4336 -1.2303 -0.7181
 3348SOL    HW221504   3.743   4.322   3.157 -1.0007 -0.0850 -0.6870
 3349SOL     OW21505   2.046   0.870   3.668 -0.5033 -0.2502 -0.2839
 3349SOL    HW121506   1.977   0.836   3.611 -1.3055  0.4482  0.2893
 3349SOL    HW221507   2.120   0.878   3.608 -0.9240 -1.3172 -0.9452
 3350SOL     OW21508   0.692   3.386   2.436 -0.1854 -0.9057  0.2824
 3350SOL    HW121509   0.634   3.448   2.391 -0.0429 -2.0215 -1.4524
 3350SOL    HW221510   0.771   3.437   2.453 -0.1283 -0.6731 -0.6859
 3351SOL     OW21511   2.815   3.819  10.918  0.0390  0.0027  0.6200
 3351SOL    HW121512   2.898   3.793  10.957 -0.1164  0.5868  1.3373
 3351SOL    HW221513   2.834   3.796  10.827  1.6255  0.1007  0.9300
 3352SOL     OW21514   4.210   0.870   9.820  0.6530 -0.7914  0.0090
 3352SOL    HW121515   4.231   0.824   9.902  0.5542  0.4519  0.7344
 3352SOL    HW221516   4.115   0.878   9.824  0.8393  0.6269  1.3609
 3353SOL     OW21517   2.698   4.392  14.934 -0.2795 -0.5872  0.0540
 3353SOL    HW121518   2.644   4.421  15.007  0.5609  1.0704  0.0052
 3353SOL    HW221519   2.660   4.431  14.855  1.6283 -0.3222 -0.7550
 3354SOL     OW21520   0.710   0.033   8.129  0.6196  0.1584  0.1623
 3354SOL    HW121521   0.729   0.070   8.215  1.2410 -1.6196  0.7827
 3354SOL    HW221522   0.776   0.073   8.071 -0.6176 -0.1439 -1.4566
 3355SOL     OW21523   2.239   3.057  11.678  0.2391  0.3326  0.3772
 3355SOL    HW121524   2.163   3.104  11.712  1.5868  0.6434  2.9637
 3355SOL    HW221525   2.258   2.994  11.748 -0.8582  0.1260  0.4936
 3356SOL     OW21526   1.418   2.400   6.616  0.6511  0.1829 -0.1146
 3356SOL    HW121527   1.431   2.488   6.653 -1.0726  0.5831 -0.4522
 3356SOL    HW221528   1.466   2.407   6.533 -0.5332  0.1971 -0.7994
 3357SOL     OW21529   4.547   3.752   6.600  0.5968 -0.1201  0.5777
 3357SOL    HW121530   4.573   3.843   6.584  0.4545  0.1072  1.6683
 3357SOL    HW221531   4.572   3.741   6.691  0.4060 -0.7009  0.5577
 3358SOL     OW21532   1.857   0.655   6.768 -0.5116  0.6702 -0.3018
 3358SOL    HW121533   1.822   0.586   6.825 -2.2429  1.0821 -0.8537
 3358SOL    HW221534   1.785   0.659   6.705 -0.6271 -2.6404 -0.3855
 3359SOL     OW21535   2.916   4.577   0.718  0.0238  0.8181  0.8594
 3359SOL    HW121536   2.992   4.519   0.703  0.2884  0.8728  2.0163
 3359SOL    HW221537   2.943   4.627   0.795  1.9183  1.0905  0.0433
 3360SOL     OW21538   4.430   4.116   6.957  0.0327  0.4698  0.4353
 3360SOL    HW121539   4.484   4.036   6.960  0.7233  0.9415  0.5399
 3360SOL    HW221540   4.484   4.171   7.012 -0.1939  0.3275  0.7974
 3361SOL     OW21541   4.469   2.589   2.090  0.0305 -0.0358 -0.0212
 3361SOL    HW121542   4.428   2.669   2.057  1.7402  0.5755 -0.6203
 3361SOL    HW221543   4.454   2.598   2.184 -0.9405  0.7493 -0.2523
 3362SOL     OW21544   0.240   3.502   1.917  0.4187 -0.3304 -0.4673
 3362SOL    HW121545   0.158   3.552   1.921  0.1291 -0.9769  1.6692
 3362SOL    HW221546   0.233   3.479   1.825 -0.9787 -0.7137 -0.2676
 3363SOL     OW21547   0.315   1.430   9.084  0.2544 -0.4161  0.5134
 3363SOL    HW121548   0.362   1.412   9.165 -1.3273  0.7274  1.6811
 3363SOL    HW221549   0.385   1.425   9.019  1.1174 -2.5158  1.6176
 3364SOL     OW21550   4.577   0.869   8.130 -0.1876  0.3960  1.0651
 3364SOL    HW121551   4.602   0.892   8.041  0.2436  2.2924  1.6875
 3364SOL    HW221552   4.657   0.837   8.171  0.8357 -1.0484 -2.0939
 3365SOL     OW21553   3.461   3.541   2.420  0.3100  0.1725  0.3269
 3365SOL    HW121554   3.455   3.447   2.403  0.8051 -0.1197  1.7434
 3365SOL    HW221555   3.534   3.560   2.362 -0.3051 -1.0583 -0.8494
 3366SOL     OW21556   0.868   1.308   9.274  0.6133  0.0345  0.1659
 3366SOL    HW121557   0.836   1.226   9.237 -0.0881 -0.5066  1.9675
 3366SOL    HW221558   0.825   1.300   9.359 -1.2437  0.5488 -0.7040
 3367SOL     OW21559   3.097   3.097   7.177  0.2024  0.4496 -0.0079
 3367SOL    HW121560   3.144   3.154   7.238 -0.6482 -0.0236  1.0782
 3367SOL    HW221561   3.068   3.166   7.117 -0.9505  0.4250  0.5201
 3368SOL     OW21562   2.031   3.154   7.831 -0.0425 -0.0940  0.2625
 3368SOL    HW121563   2.047   3.089   7.900  1.3401  0.2909  0.3105
 3368SOL    HW221564   1.960   3.205   7.869  0.3448  0.3064  0.4469
 3369SOL     OW21565   3.838   3.023   8.889  0.3608  0.1454 -0.2562
 3369SOL    HW121566   3.780   3.049   8.961 -0.2042  1.1652 -1.0930
 3369SOL    HW221567   3.892   2.958   8.935 -2.1907 -0.9062  1.2431
 3370SOL     OW21568   2.639   2.129   2.469  0.1750  0.0935 -0.2988
 3370SOL    HW121569   2.599   2.215   2.457  1.5236  0.5963 -1.2865
 3370SOL    HW221570   2.569   2.070   2.498  0.4894  1.8602  4.0352
 3371SOL     OW21571   4.469   2.515   6.006 -0.0252  0.1700 -0.5608
 3371SOL    HW121572   4.501   2.491   6.093  2.4289  0.9077 -1.2699
 3371SOL    HW221573   4.433   2.601   6.023 -1.9920 -0.6190 -0.7582
 3372SOL     OW21574   0.888   4.703   6.883 -0.4389 -0.7981 -0.2166
 3372SOL    HW121575   0.857   0.015   6.966  1.2169 -0.7128  0.3764
 3372SOL    HW221576   0.838   0.027   6.818  1.2786  0.2251 -0.7796
 3373SOL     OW21577   1.265   0.582   9.417  0.3576  0.4235  0.6048
 3373SOL    HW121578   1.214   0.546   9.489 -1.1108 -0.6827 -1.0033
 3373SOL    HW221579   1.224   0.545   9.340 -1.4930  0.4754  1.5605
 3374SOL     OW21580   2.229   2.846  12.323 -0.5950 -0.9866  0.1417
 3374SOL    HW121581   2.162   2.849  12.392 -1.6139  2.4436 -1.0043
 3374SOL    HW221582   2.191   2.917  12.271 -0.3727  1.0532  2.7307
 3375SOL     OW21583   0.348   1.679   6.431  0.1119  0.3184  0.0344
 3375SOL    HW121584   0.406   1.663   6.357 -1.3835 -0.0516 -1.0491
 3375SOL    HW221585   0.408   1.713   6.497 -1.7016 -1.0116  2.3638
 3376SOL     OW21586   1.813   0.180   5.170  0.0451  0.2921 -0.7766
 3376SOL    HW121587   1.794   0.184   5.076  0.1678  1.8847 -0.7267
 3376SOL    HW221588   1.908   0.182   5.156  0.3616 -0.3199  1.3144
 3377SOL     OW21589   3.301   1.095   2.925 -0.5634  0.3296 -0.4191
 3377SOL    HW121590   3.286   1.070   2.834  3.1254  0.8156 -1.1607
 3377SOL    HW221591   3.323   1.013   2.970 -0.0506  0.8258  0.2389
 3378SOL     OW21592   1.609   3.970  15.185  0.1791 -0.6783  0.0597
 3378SOL    HW121593   1.702   3.982  15.205  0.4917 -0.7526 -1.3689
 3378SOL    HW221594   1.566   3.971  15.271 -1.9516  1.6389 -1.0511
 3379SOL     OW21595   3.917   4.403   5.317  0.3594  0.0170 -0.0822
 3379SOL    HW121596   3.843   4.353   5.284  2.2860 -2.8355 -0.1497
 3379SOL    HW221597   3.887   4.444   5.398  1.2889  0.3645  0.0913
 3380SOL     OW21598   1.676   2.325   6.160 -0.8052 -0.1573  0.5887
 3380SOL    HW121599   1.752   2.295   6.210 -1.5825  0.2175  1.9908
 3380SOL    HW221600   1.657   2.252   6.101  1.4553  0.1244 -0.4769
 3381SOL     OW21601   1.874   2.829   4.323  0.2177 -0.4074  0.2859
 3381SOL    HW121602   1.859   2.734   4.316 -1.0149 -0.2639  0.9398
 3381SOL    HW221603   1.830   2.845   4.406  0.8368 -1.9990  0.9304
 3382SOL     OW21604   3.937   1.218   5.874 -0.6555  0.0070  0.0350
 3382SOL    HW121605   3.891   1.222   5.958 -1.3382  1.1467 -0.4043
 3382SOL    HW221606   3.989   1.299   5.874 -0.9055  0.1919  2.8329
 3383SOL     OW21607   1.436   1.079   1.188  0.5706 -0.0724 -0.0766
 3383SOL    HW121608   1.362   1.131   1.220  1.2644  1.6772 -1.3136
 3383SOL    HW221609   1.446   1.108   1.098 -0.9014 -0.4207 -0.3590
 3384SOL     OW21610   0.147   2.038   9.261  0.2450  0.2863  0.7769
 3384SOL    HW121611   0.221   1.993   9.219  0.0024  0.0737  0.5795
 3384SOL    HW221612   0.075   1.980   9.285 -1.3078  1.4529 -1.1157
 3385SOL     OW21613   2.726   0.519   3.241 -0.0870  0.2895  0.3026
 3385SOL    HW121614   2.697   0.597   3.194  1.7282  1.2736  0.8087
 3385SOL    HW221615   2.725   0.560   3.327  1.9140  0.9019  0.0309
 3386SOL     OW21616   1.638   4.526   5.642 -0.0181  0.8768  0.0773
 3386SOL    HW121617   1.620   4.537   5.548  2.5494 -0.2790 -0.5352
 3386SOL    HW221618   1.550   4.529   5.679 -0.5518 -0.0080 -1.1163
 3387SOL     OW21619   1.764   4.178   0.371 -0.3504  0.1306 -0.1725
 3387SOL    HW121620   1.798   4.267   0.384  2.0006 -0.3809 -2.6335
 3387SOL    HW221621   1.671   4.190   0.357 -0.5201 -1.8788 -0.7573
 3388SOL     OW21622   0.503   0.012   6.016 -0.8530 -0.2203  0.7074
 3388SOL    HW121623   0.533   0.078   6.080  0.4317  0.7357 -0.8932
 3388SOL    HW221624   0.408   0.018   6.007 -0.6828 -0.0227 -0.8311
 3389SOL     OW21625   4.048   1.273   6.287  0.1468 -0.3415  0.1869
 3389SOL    HW121626   4.005   1.321   6.216 -0.9521 -1.9601 -0.2242
 3389SOL    HW221627   4.099   1.346   6.323  0.9032 -0.6473 -0.2770
 3390SOL     OW21628   1.714   4.642   1.732  0.2544 -0.6032 -0.6671
 3390SOL    HW121629   1.767   4.575   1.688  0.3538 -0.5721 -0.5954
 3390SOL    HW221630   1.687   4.695   1.657  0.7390 -0.9516 -1.0936
 3391SOL     OW21631   0.196   3.016   2.505 -0.3581 -0.1184 -0.4391
 3391SOL    HW121632   0.154   2.932   2.486 -0.0379 -0.4937  0.5173
 3391SOL    HW221633   0.257   3.030   2.433 -1.7242  3.4218 -0.8994
 3392SOL     OW21634   4.002   1.887   8.447  0.2896  0.2627 -0.2948
 3392SOL    HW121635   3.982   1.981   8.442 -1.1703 -0.0147  0.3259
 3392SOL    HW221636   4.091   1.873   8.415  0.4080  1.4080 -0.4782
 3393SOL     OW21637   3.803   1.752   1.075  0.4425 -0.2802  0.1577
 3393SOL    HW121638   3.893   1.779   1.057 -0.0712  0.6203 -1.0968
 3393SOL    HW221639   3.755   1.772   0.994  0.2907  0.2585  0.3815
 3394SOL     OW21640   3.303   3.775  11.924 -0.5174 -0.0905 -0.3075
 3394SOL    HW121641   3.237   3.754  11.858 -0.8843  2.2209 -0.6587
 3394SOL    HW221642   3.354   3.846  11.886 -1.2623  1.1661  1.0934
 3395SOL     OW21643   1.788   1.686   9.036  0.3147  0.9435  0.0073
 3395SOL    HW121644   1.791   1.771   9.080 -0.7142 -0.9737  3.7585
 3395SOL    HW221645   1.787   1.708   8.942 -0.4563 -0.3140 -0.2729
 3396SOL     OW21646   0.807   3.697   8.238  0.0953  0.9841  0.2506
 3396SOL    HW121647   0.738   3.648   8.284 -0.6226 -0.2518 -2.1042
 3396SOL    HW221648   0.880   3.636   8.244  1.6903  2.8355 -0.3335
 3397SOL     OW21649   2.341   3.831  11.538 -0.1256 -0.6990  0.3118
 3397SOL    HW121650   2.249   3.855  11.522  0.2315  1.0857  0.9693
 3397SOL    HW221651   2.333   3.753  11.484 -2.2466 -0.1847 -0.1384
 3398SOL     OW21652   4.361   2.453  11.056  0.0879  0.2955 -0.1065
 3398SOL    HW121653   4.446   2.443  11.012  0.7566  0.6638  1.0824
 3398SOL    HW221654   4.295   2.419  10.996 -3.3199  0.2533  3.6917
 3399SOL     OW21655   4.450   1.877   4.179 -0.0837 -0.4175 -0.3024
 3399SOL    HW121656   4.535   1.885   4.223  0.6964 -3.0056 -1.3938
 3399SOL    HW221657   4.419   1.956   4.224 -0.3048 -0.5148 -0.2820
 3400SOL     OW21658   3.017   1.462   8.485  0.0779 -0.0203 -0.3484
 3400SOL    HW121659   3.099   1.506   8.463 -0.0834  0.9825  1.0283
 3400SOL    HW221660   2.967   1.462   8.403  0.3889  0.3495 -0.5417
 3401SOL     OW21661   1.607   3.546   7.213  0.0108  0.2243  0.3008
 3401SOL    HW121662   1.683   3.586   7.255 -0.7871  1.1005  0.9124
 3401SOL    HW221663   1.541   3.589   7.267  0.2590  0.4179  0.4506
 3402SOL     OW21664   0.326   1.430   4.808 -0.5286 -0.4624 -0.3711
 3402SOL    HW121665   0.267   1.506   4.811  0.6577  0.4465  0.0631
 3402SOL    HW221666   0.294   1.376   4.880  0.6544 -0.4560  0.1446
 3403SOL     OW21667   0.478   3.261   0.949 -0.1948  0.3489 -0.1999
 3403SOL    HW121668   0.562   3.262   0.903 -1.2806 -0.8755 -2.1788
 3403SOL    HW221669   0.477   3.352   0.978 -0.2307  0.7515 -1.4373
 3404SOL     OW21670   2.160   1.326   7.107  0.2785  0.1096 -0.5558
 3404SOL    HW121671   2.068   1.301   7.104 -0.0337  0.9868  1.9807
 3404SOL    HW221672   2.188   1.237   7.128  2.9356  1.1828  0.3779
 3405SOL     OW21673   2.586   3.024   3.467 -0.4360  0.1352 -0.5275
 3405SOL    HW121674   2.613   2.998   3.379  0.3383 -1.7761  0.2741
 3405SOL    HW221675   2.502   2.978   3.467 -2.2852  3.5181  2.9145
 3406SOL     OW21676   2.690   3.527   7.425  0.4611 -0.6329 -0.0161
 3406SOL    HW121677   2.731   3.442   7.410  0.1330 -0.9364  0.7931
 3406SOL    HW221678   2.635   3.539   7.348  0.8113  0.4043 -0.0980
 3407SOL     OW21679   3.708   4.088   1.861  0.1239  0.1970 -0.1385
 3407SOL    HW121680   3.789   4.132   1.886 -0.5496  1.7990 -0.7621
 3407SOL    HW221681   3.675   4.148   1.793  2.8511  1.0878 -0.6792
 3408SOL     OW21682   1.269   3.151   1.353  0.0507  0.3289 -0.1952
 3408SOL    HW121683   1.361   3.154   1.381 -0.5382  0.4327  1.7900
 3408SOL    HW221684   1.225   3.185   1.431  1.2303  0.1678  0.5438
 3409SOL     OW21685   1.286   1.198   0.948  0.3012  0.6607  0.4007
 3409SOL    HW121686   1.286   1.282   0.993 -0.6186  2.0961 -2.2797
 3409SOL    HW221687   1.350   1.216   0.879  1.4624  1.4762  1.6917
 3410SOL     OW21688   1.175   0.006   2.215 -0.0396  0.3231 -0.3268
 3410SOL    HW121689   1.232   0.076   2.248  0.4633 -0.6046  0.7873
 3410SOL    HW221690   1.138   0.048   2.137 -0.4896 -2.1730 -1.4417
 3411SOL     OW21691   2.769   3.346   2.893 -0.5610  0.2595  0.2343
 3411SOL    HW121692   2.854   3.350   2.938  1.1169 -1.8453 -2.7316
 3411SOL    HW221693   2.803   3.310   2.811  0.1687  0.8785  0.2608
 3412SOL     OW21694   3.247   1.709   4.352  0.3416 -0.4172  0.0423
 3412SOL    HW121695   3.324   1.659   4.324  2.1836  2.2485  0.3796
 3412SOL    HW221696   3.202   1.724   4.268  0.1955  2.0625  0.5744
 3413SOL     OW21697   0.386   2.223   3.299 -0.0369  0.1231  0.1157
 3413SOL    HW121698   0.434   2.268   3.369  0.6420  1.7929 -1.4173
 3413SOL    HW221699   0.303   2.197   3.338 -0.2496 -0.9687 -1.0778
 3414SOL     OW21700   3.132   4.050   4.406 -0.2824 -0.6838  0.8289
 3414SOL    HW121701   3.116   3.963   4.443  0.0288 -0.0789  2.4062
 3414SOL    HW221702   3.219   4.029   4.372 -1.8639 -2.0421 -2.3792
 3415SOL     OW21703   2.874   0.301   6.574 -0.0001 -0.3749  0.3087
 3415SOL    HW121704   2.814   0.318   6.502 -0.7320  0.3923  1.1027
 3415SOL    HW221705   2.943   0.257   6.525  0.4417  0.4811  0.1684
 3416SOL     OW21706   4.310   3.844  10.827  0.0433 -0.2126 -0.0290
 3416SOL    HW121707   4.385   3.904  10.826  0.9236 -1.3671 -2.7103
 3416SOL    HW221708   4.349   3.773  10.775  0.9493  0.2550  0.0083
 3417SOL     OW21709   0.401   1.559   3.526  0.3723 -0.5954 -0.0793
 3417SOL    HW121710   0.450   1.479   3.546 -0.6078 -1.0477  0.5659
 3417SOL    HW221711   0.310   1.533   3.540  0.0025 -0.8621 -2.9322
 3418SOL     OW21712   4.534   4.399   3.842  0.0225 -0.3141 -0.0700
 3418SOL    HW121713   4.628   4.418   3.848 -0.4969  2.5053 -0.8729
 3418SOL    HW221714   4.507   4.476   3.792 -1.2398 -0.9195 -0.3253
 3419SOL     OW21715   2.977   0.470   7.789 -0.2001 -0.1431 -0.3244
 3419SOL    HW121716   2.961   0.377   7.777  1.7476 -0.3107 -1.6694
 3419SOL    HW221717   2.940   0.496   7.873 -0.9689 -1.2390 -0.3240
 3420SOL     OW21718   3.701   1.594   6.150  0.2993 -0.2299  0.1917
 3420SOL    HW121719   3.703   1.523   6.085 -0.9878 -0.8257  0.7953
 3420SOL    HW221720   3.670   1.672   6.104 -1.5882  0.4325  2.5687
 3421SOL     OW21721   4.289   4.681   4.242 -0.0984  0.1829 -0.3320
 3421SOL    HW121722   4.371   4.656   4.199  0.2398  2.0473 -0.7938
 3421SOL    HW221723   4.288   4.612   4.308  2.0089  0.8697  0.4230
 3422SOL     OW21724   2.175   0.417  14.184  0.1847 -0.1411 -0.1161
 3422SOL    HW121725   2.177   0.407  14.279 -0.1606 -1.6009 -0.2681
 3422SOL    HW221726   2.106   0.482  14.172  1.8087  1.3346 -1.4440
 3423SOL     OW21727   0.031   3.477  12.565 -0.4339  0.2882  0.2403
 3423SOL    HW121728   0.072   3.485  12.479 -2.3477  0.5392 -0.6517
 3423SOL    HW221729   4.716   3.563  12.578  1.3581  0.8585  1.6998
 3424SOL     OW21730   2.573   3.268   3.533 -0.1903 -0.7353 -0.3561
 3424SOL    HW121731   2.536   3.302   3.451 -1.1275  0.2403  0.4644
 3424SOL    HW221732   2.563   3.174   3.517  0.4712 -1.1818  1.8981
 3425SOL     OW21733   4.061   1.711   7.938  0.3742 -0.6864  0.5227
 3425SOL    HW121734   4.104   1.657   8.004  0.5542  0.7784  1.5718
 3425SOL    HW221735   3.976   1.666   7.942 -0.1295  0.2050 -0.2575
 3426SOL     OW21736   0.932   3.846   3.338 -0.1579 -0.1828 -0.3666
 3426SOL    HW121737   0.881   3.875   3.414  0.6632  1.1587 -0.3261
 3426SOL    HW221738   0.886   3.763   3.321 -2.1862  0.5992  1.2647
 3427SOL     OW21739   0.473   0.609   5.343  0.3328  0.4751  0.8661
 3427SOL    HW121740   0.546   0.671   5.353 -1.1993  2.6969 -1.7147
 3427SOL    HW221741   0.522   0.529   5.322  0.6038  0.9010 -0.1292
 3428SOL     OW21742   2.361   3.268   7.146  0.2939 -0.0347 -0.4087
 3428SOL    HW121743   2.393   3.202   7.085 -1.1933 -2.3466  1.3069
 3428SOL    HW221744   2.334   3.214   7.220 -1.3870  1.1476 -0.1522
 3429SOL     OW21745   2.780   2.623   2.304 -0.0492 -0.3400  0.1541
 3429SOL    HW121746   2.818   2.551   2.254 -0.2655 -1.0663  1.0309
 3429SOL    HW221747   2.689   2.625   2.275  0.0672  0.2309 -0.1924
 3430SOL     OW21748   1.427   0.204   3.578  0.2620 -0.6142  0.6886
 3430SOL    HW121749   1.364   0.148   3.533  0.2984  0.2621 -0.4457
 3430SOL    HW221750   1.513   0.204   3.537  0.5936  0.6655  1.3659
 3431SOL     OW21751   0.552   0.299   3.198 -0.0463 -0.1242 -0.3888
 3431SOL    HW121752   0.567   0.274   3.107  1.2396 -0.3641 -0.1145
 3431SOL    HW221753   0.638   0.318   3.237 -0.0822 -2.3266  0.7663
 3432SOL     OW21754   4.694   1.686   6.323 -0.3581  0.5051  0.4177
 3432SOL    HW121755   0.052   1.677   6.274  0.3560 -0.2055  1.7469
 3432SOL    HW221756   0.009   1.724   6.402  1.3675  1.1286 -0.7290
 3433SOL     OW21757   0.760   4.003   5.796 -0.3921 -0.1776 -0.1068
 3433SOL    HW121758   0.853   4.027   5.798 -0.4630  0.2647 -2.3211
 3433SOL    HW221759   0.736   4.036   5.709  0.8024 -1.3114 -0.8665
 3434SOL     OW21760   0.209   0.955  11.603  0.2140  0.2123  0.5881
 3434SOL    HW121761   0.211   0.941  11.697  1.0896  3.1481  1.0034
 3434SOL    HW221762   0.229   1.048  11.594  1.1695 -0.1781 -1.2985
 3435SOL     OW21763   3.516   2.173   0.054 -0.1693 -0.4517  0.3556
 3435SOL    HW121764   3.585   2.108   0.039 -0.0620 -0.6293  1.6270
 3435SOL    HW221765   3.548   2.219   0.132 -1.0544 -0.6747  0.8466
 3436SOL     OW21766   3.920   1.255   3.092  0.1550 -0.4832  0.5612
 3436SOL    HW121767   3.899   1.264   2.999 -2.7311  0.1221  1.2809
 3436SOL    HW221768   4.005   1.211   3.097  0.0952 -0.5792  0.7144
 3437SOL     OW21769   2.045   4.381   4.696 -0.0161  0.2173 -0.1869
 3437SOL    HW121770   1.964   4.331   4.687 -1.0269  1.6281  1.2083
 3437SOL    HW221771   2.058   4.401   4.788  0.0449  0.9991 -0.3697
 3438SOL     OW21772   3.262   4.102  12.238  0.3268 -0.1673 -0.3047
 3438SOL    HW121773   3.237   4.010  12.251  1.1195 -0.1274  1.4615
 3438SOL    HW221774   3.288   4.097  12.146  2.0705 -1.9900  0.2696
 3439SOL     OW21775   1.197   2.752   2.009 -0.0558 -0.0662 -0.2657
 3439SOL    HW121776   1.162   2.839   1.992  1.1075  0.5921  0.7730
 3439SOL    HW221777   1.263   2.774   2.074 -0.0483 -0.7395 -0.0499
 3440SOL     OW21778   4.454   0.603   8.147 -0.3677  0.6492  0.2947
 3440SOL    HW121779   4.529   0.661   8.133  1.1216 -1.5748 -1.0217
 3440SOL    HW221780   4.483   0.575   8.233  1.7307  0.7245 -0.3984
 3441SOL     OW21781   2.937   2.633  17.458  0.5213  0.1476 -0.0472
 3441SOL    HW121782   2.865   2.576  17.433  0.0242  0.3111  1.0295
 3441SOL    HW221783   2.977   2.609  17.542  0.6612 -3.1010 -1.0598
 3442SOL     OW21784   3.723   2.378  14.325 -0.0281  0.0579 -0.0421
 3442SOL    HW121785   3.740   2.345  14.237 -1.8168  0.7284 -0.6381
 3442SOL    HW221786   3.708   2.293  14.367 -1.4996 -1.4100 -3.5046
 3443SOL     OW21787   3.454   2.652   6.329 -0.2182 -0.3788  0.7473
 3443SOL    HW121788   3.474   2.561   6.307  0.1946 -0.4847  1.5204
 3443SOL    HW221789   3.361   2.642   6.347 -0.3645 -1.0509 -0.4519
 3444SOL     OW21790   4.084   3.302   5.929  0.0888 -0.1578  0.7615
 3444SOL    HW121791   4.149   3.371   5.936 -1.1345  0.8745  1.7152
 3444SOL    HW221792   4.136   3.231   5.889  0.9975  0.6038  0.6049
 3445SOL     OW21793   4.057   3.829   2.253 -0.2204 -0.0665 -0.3252
 3445SOL    HW121794   4.127   3.766   2.236 -0.9704 -1.0724  0.2990
 3445SOL    HW221795   3.975   3.781   2.238 -1.3034  2.0604 -1.2342
 3446SOL     OW21796   1.041   3.263   6.106 -0.2927  0.1200  0.1293
 3446SOL    HW121797   0.977   3.312   6.053 -0.5660 -0.2238  0.1409
 3446SOL    HW221798   0.982   3.228   6.173  0.9502 -2.2673 -0.0249
 3447SOL     OW21799   2.913   2.951   2.207 -0.6076 -0.3588 -0.3476
 3447SOL    HW121800   2.912   2.954   2.111  1.9366  0.0361 -0.3566
 3447SOL    HW221801   2.904   2.856   2.215 -2.3771 -0.1997 -0.3935
 3448SOL     OW21802   4.716   0.807  11.363  0.1440 -0.4797 -0.4859
 3448SOL    HW121803   4.651   0.873  11.341 -2.7732 -2.9698  0.5891
 3448SOL    HW221804   0.027   0.796  11.275  3.7626  0.0275  0.9298
 3449SOL     OW21805   0.374   1.335  16.283  0.6198 -0.2890  0.0588
 3449SOL    HW121806   0.375   1.290  16.367 -0.9701  0.8118  0.6462
 3449SOL    HW221807   0.315   1.281  16.230  0.4180 -0.0003 -0.0136
 3450SOL     OW21808   2.388   4.150   6.688  0.7372  0.3841 -0.6084
 3450SOL    HW121809   2.429   4.203   6.756  2.8509  0.5459 -2.0325
 3450SOL    HW221810   2.428   4.067   6.713 -1.2507 -0.5588 -0.5012
 3451SOL     OW21811   1.018   4.259   4.227  0.3526 -0.3437 -0.0326
 3451SOL    HW121812   1.061   4.330   4.179 -0.6012  0.2971  0.0536
 3451SOL    HW221813   0.987   4.311   4.301 -2.0742  0.2932 -1.5132
 3452SOL     OW21814   0.788   0.869   1.573 -0.3005 -0.1999  0.3643
 3452SOL    HW121815   0.832   0.936   1.520 -2.3296 -0.2936 -1.3966
 3452SOL    HW221816   0.698   0.900   1.563 -1.0560 -2.7847 -0.7420
 3453SOL     OW21817   0.688   1.991   7.435  0.0662 -0.2676 -0.0805
 3453SOL    HW121818   0.635   1.920   7.471 -0.5210 -0.2725 -0.9503
 3453SOL    HW221819   0.774   1.964   7.466  0.3001  0.3770 -0.1717
 3454SOL     OW21820   2.862   3.120  13.886 -0.0673 -0.3402  0.3538
 3454SOL    HW121821   2.937   3.107  13.829  0.2725  1.7434  0.3368
 3454SOL    HW221822   2.800   3.165  13.828  1.8937 -0.0841 -1.5259
 3455SOL     OW21823   3.906   0.177   5.335 -0.6459 -0.0192  0.5678
 3455SOL    HW121824   3.933   0.148   5.248  3.4125  0.0761  1.7736
 3455SOL    HW221825   3.886   0.098   5.385 -0.9744 -0.2674  0.0440
 3456SOL     OW21826   1.348   2.659  15.215  0.0350 -0.5316 -0.1810
 3456SOL    HW121827   1.402   2.736  15.233 -0.2852  0.1775 -2.2883
 3456SOL    HW221828   1.260   2.690  15.194 -0.5878 -0.8089  1.9097
 3457SOL     OW21829   2.436   3.475   8.481 -0.5283 -0.8798  0.3063
 3457SOL    HW121830   2.521   3.432   8.479 -0.1477 -0.0121 -1.7484
 3457SOL    HW221831   2.417   3.493   8.389  2.3944 -0.2296 -0.1474
 3458SOL     OW21832   2.744   1.127   8.644  0.1690 -0.2287  0.1942
 3458SOL    HW121833   2.800   1.203   8.659 -1.5931  1.1209 -0.0519
 3458SOL    HW221834   2.676   1.142   8.710 -0.5014  0.7174 -0.7260
 3459SOL     OW21835   4.607   0.609   6.186 -0.5177 -0.3479  0.8777
 3459SOL    HW121836   4.549   0.650   6.122  0.5778  1.6586  1.1718
 3459SOL    HW221837   4.534   0.560   6.224 -4.0038  3.8362 -0.4286
 3460SOL     OW21838   0.546   1.848   1.666  0.4205  0.2866  0.2299
 3460SOL    HW121839   0.497   1.912   1.717  0.2938  0.6097 -0.2947
 3460SOL    HW221840   0.499   1.866   1.585  0.2527 -1.3847 -0.0417
 3461SOL     OW21841   3.849   0.645  15.475 -0.0516  0.4625 -0.8627
 3461SOL    HW121842   3.867   0.728  15.519  0.2941  0.8077 -1.6576
 3461SOL    HW221843   3.929   0.637  15.423  0.9901 -0.0315  0.8212
 3462SOL     OW21844   2.075   4.597   0.774 -0.3752 -1.1063  0.2278
 3462SOL    HW121845   2.065   4.565   0.864  0.0798  1.8590  1.3405
 3462SOL    HW221846   1.991   4.640   0.760  0.4263 -0.6721 -3.1684
 3463SOL     OW21847   2.524   0.712  11.212 -0.5465 -0.0060 -0.4049
 3463SOL    HW121848   2.598   0.750  11.165  0.7249  0.1470  1.7469
 3463SOL    HW221849   2.457   0.781  11.218  0.1430  0.4806  1.7684
 3464SOL     OW21850   0.215   1.986  17.417 -0.8245 -0.2031 -0.3790
 3464SOL    HW121851   0.285   1.998  17.480  0.5291  0.4357 -1.9959
 3464SOL    HW221852   0.210   1.891  17.403  0.9886 -0.4166  0.4218
 3465SOL     OW21853   2.490   1.646   5.680  0.9744  0.2717 -0.1359
 3465SOL    HW121854   2.542   1.589   5.624  0.2716 -1.0938  0.6108
 3465SOL    HW221855   2.482   1.720   5.620 -0.9320  0.6262  0.5505
 3466SOL     OW21856   0.883   0.020   2.675  0.1716 -0.4957  0.2655
 3466SOL    HW121857   0.916   4.709   2.591 -0.9470  2.5832 -1.4623
 3466SOL    HW221858   0.795   4.708   2.678  0.9629 -2.4056  0.3934
 3467SOL     OW21859   3.451   3.972  11.787  0.4206  0.4486  0.3543
 3467SOL    HW121860   3.391   3.992  11.715 -0.9712 -0.5122  1.2471
 3467SOL    HW221861   3.418   4.021  11.862 -0.5878 -0.7120  0.6590
 3468SOL     OW21862   0.232   0.975   8.722 -0.3829  0.3677  0.5750
 3468SOL    HW121863   0.250   0.920   8.798 -2.1056  0.2290  0.8917
 3468SOL    HW221864   0.216   0.908   8.656 -1.9879 -2.6849  4.0294
 3469SOL     OW21865   4.124   0.745   1.721  0.0159 -0.3737  0.2418
 3469SOL    HW121866   4.110   0.661   1.764 -1.9824 -0.2768 -0.2531
 3469SOL    HW221867   4.034   0.773   1.703 -0.3109 -1.4751  0.1903
 3470SOL     OW21868   3.814   1.048   5.706  0.4797 -0.6744 -0.0823
 3470SOL    HW121869   3.876   1.105   5.752  1.1559 -0.3437 -1.3783
 3470SOL    HW221870   3.857   0.963   5.712 -0.1759 -1.0369 -0.5069
 3471SOL     OW21871   1.056   3.905   2.111  0.5652  0.1146 -0.2141
 3471SOL    HW121872   1.149   3.914   2.090  0.9546 -0.2604  1.3593
 3471SOL    HW221873   1.053   3.810   2.123 -2.3572  0.6066  3.1151
 3472SOL     OW21874   0.735   2.765   3.532 -0.1647  0.2538 -0.5628
 3472SOL    HW121875   0.765   2.712   3.606  1.3564  0.1492 -1.2682
 3472SOL    HW221876   0.754   2.848   3.577  1.9402 -0.6760  0.2950
 3473SOL     OW21877   1.928   1.559   1.346  0.0539 -0.1963  0.2325
 3473SOL    HW121878   1.909   1.529   1.257 -0.6135 -1.6609  0.8632
 3473SOL    HW221879   1.851   1.540   1.399 -1.5013 -0.1513 -2.0438
 3474SOL     OW21880   2.966   1.370   9.873 -0.3800  0.1621 -0.0505
 3474SOL    HW121881   2.977   1.399   9.783  0.1606 -0.2969 -0.1367
 3474SOL    HW221882   3.059   1.374   9.895 -0.4069  2.1899 -0.2622
 3475SOL     OW21883   3.949   1.887   1.602  0.0438 -0.0031 -0.1141
 3475SOL    HW121884   3.906   1.808   1.566 -0.8978  0.8014 -0.7690
 3475SOL    HW221885   3.902   1.955   1.553 -1.3471 -0.4035  0.6425
 3476SOL     OW21886   2.713   2.756   6.964  0.0827  0.3278  0.2674
 3476SOL    HW121887   2.727   2.818   6.892 -1.6679 -1.2903 -1.4918
 3476SOL    HW221888   2.802   2.747   6.997  0.1784  1.4064  0.2978
 3477SOL     OW21889   4.415   1.892   6.503  0.0147 -0.1445  0.4292
 3477SOL    HW121890   4.396   1.800   6.486  1.7054 -0.6107  1.0010
 3477SOL    HW221891   4.410   1.894   6.598  0.4567  1.3047  0.4296
 3478SOL     OW21892   3.567   1.544   7.971  0.2305  0.1956  0.2749
 3478SOL    HW121893   3.562   1.448   7.974 -0.6003  0.2147 -0.6234
 3478SOL    HW221894   3.655   1.568   7.944  0.6368 -2.9287 -1.2046
 3479SOL     OW21895   3.574   0.861   5.076  0.4533  0.3058  0.0942
 3479SOL    HW121896   3.604   0.948   5.047  0.8653 -1.0061 -3.4035
 3479SOL    HW221897   3.478   0.862   5.074  0.4875  1.0591 -1.5006
 3480SOL     OW21898   1.821   2.224   6.890  0.3654  0.0845  0.5442
 3480SOL    HW121899   1.729   2.246   6.879  0.4570 -0.7781 -1.9908
 3480SOL    HW221900   1.814   2.131   6.914 -0.1693 -0.1922 -0.6650
 3481SOL     OW21901   0.581   2.485   3.788 -0.0618 -0.3980 -0.1914
 3481SOL    HW121902   0.640   2.424   3.743 -0.1607 -1.1701  0.7200
 3481SOL    HW221903   0.550   2.419   3.850 -2.6156 -0.7887 -1.8567
 3482SOL     OW21904   4.430   4.539  11.949  0.6492  0.3413 -0.4634
 3482SOL    HW121905   4.499   4.559  12.012 -1.0805  1.7526  0.9791
 3482SOL    HW221906   4.461   4.452  11.923  0.7386  1.4011 -3.9275
 3483SOL     OW21907   4.164   2.472  16.232 -0.4971 -0.1673 -0.5471
 3483SOL    HW121908   4.214   2.550  16.210 -0.8131  0.8033  2.0761
 3483SOL    HW221909   4.197   2.455  16.321  1.4485 -0.2798 -1.2972
 3484SOL     OW21910   4.653   1.405   1.472 -0.3959 -0.3539 -0.6642
 3484SOL    HW121911   4.694   1.328   1.512 -0.3378 -1.2562 -2.5027
 3484SOL    HW221912   4.586   1.427   1.537  0.6953 -0.4485  0.5133
 3485SOL     OW21913   1.734   2.007   2.231  0.2023  0.1677 -0.7709
 3485SOL    HW121914   1.704   1.983   2.319 -0.2227 -0.2651 -1.0277
 3485SOL    HW221915   1.673   2.078   2.211  0.7351  1.8062  3.3058
 3486SOL     OW21916   3.902   1.197   7.567  0.1544  0.1479 -0.2109
 3486SOL    HW121917   3.898   1.114   7.614 -0.3135  0.4838  0.3483
 3486SOL    HW221918   3.854   1.170   7.489  0.0256  1.6476 -0.6557
 3487SOL     OW21919   4.686   1.429  15.848 -0.2345  0.2202  0.2025
 3487SOL    HW121920   4.641   1.386  15.921  1.0616 -0.5067  0.5961
 3487SOL    HW221921   0.048   1.386  15.858 -0.5684 -0.2622  1.0051
 3488SOL     OW21922   0.452   3.734   6.683 -0.6913  0.2536  0.7891
 3488SOL    HW121923   0.513   3.692   6.743 -2.3188 -1.5304  1.1550
 3488SOL    HW221924   0.401   3.778   6.751 -0.1594 -2.6716  3.0381
 3489SOL     OW21925   1.622   1.759  15.248  0.2953 -0.5988 -0.0796
 3489SOL    HW121926   1.660   1.823  15.188 -1.8652  0.0020 -0.8170
 3489SOL    HW221927   1.663   1.804  15.323  2.2986  0.0928 -1.5798
 3490SOL     OW21928   0.869   2.836   6.799  0.1791 -0.3975 -0.7276
 3490SOL    HW121929   0.857   2.930   6.814  1.2404 -0.3841  0.0719
 3490SOL    HW221930   0.842   2.802   6.885  1.6554 -0.4294 -0.2722
 3491SOL     OW21931   3.108   1.527  17.529 -0.4157  0.3261  0.2610
 3491SOL    HW121932   3.086   1.598  17.469 -1.7606  0.3176  0.7374
 3491SOL    HW221933   3.030   1.514  17.583 -1.1019  1.5151 -0.4444
 3492SOL     OW21934   1.964   1.498   5.410 -0.6723  0.3339 -0.4677
 3492SOL    HW121935   1.956   1.423   5.350 -2.5827 -0.3927  0.7019
 3492SOL    HW221936   2.039   1.483   5.468 -0.4891 -1.6337 -1.1799
 3493SOL     OW21937   4.448   1.779   2.268  0.4775 -0.0489 -0.2186
 3493SOL    HW121938   4.395   1.852   2.234 -0.2890 -0.3484  0.3332
 3493SOL    HW221939   4.377   1.718   2.288  0.7152  0.2177  1.4350
 3494SOL     OW21940   2.263   3.270  10.359 -0.0195  0.4614 -0.0001
 3494SOL    HW121941   2.325   3.210  10.401 -1.5237 -1.1040  0.0170
 3494SOL    HW221942   2.248   3.226  10.275  1.4746 -0.7227  0.3587
 3495SOL     OW21943   0.046   2.098   5.773  0.1920  0.0355  0.4301
 3495SOL    HW121944   0.049   2.192   5.787 -1.2411  0.1654 -0.2203
 3495SOL    HW221945   0.138   2.073   5.760  0.1541  0.1540 -0.0596
 3496SOL     OW21946   1.842   2.625   8.644  0.0794 -0.0782  0.0171
 3496SOL    HW121947   1.771   2.594   8.587 -0.0612 -1.6789  1.0553
 3496SOL    HW221948   1.797   2.663   8.720  2.8426 -0.6582  1.9433
 3497SOL     OW21949   2.476   2.537  14.239  0.1050  0.4980  0.4860
 3497SOL    HW121950   2.494   2.484  14.316  0.9682  0.4915  0.2728
 3497SOL    HW221951   2.563   2.575  14.227  0.7469 -1.2437 -0.2500
 3498SOL     OW21952   1.717   0.184  13.144 -0.0616  0.6206  0.3388
 3498SOL    HW121953   1.795   0.150  13.102 -0.2986 -1.3036  1.4402
 3498SOL    HW221954   1.653   0.184  13.072  3.1649 -2.4422 -2.5051
 3499SOL     OW21955   0.582   4.684   2.356 -0.1991 -0.2691 -0.2031
 3499SOL    HW121956   0.593   0.048   2.321  2.3374 -0.5656 -0.1184
 3499SOL    HW221957   0.668   4.649   2.380 -0.7745 -0.9659  0.8390
 3500SOL     OW21958   3.160   0.610   4.809  0.1503  0.1473  0.2826
 3500SOL    HW121959   3.220   0.638   4.740 -1.0841  0.4068 -0.6930
 3500SOL    HW221960   3.217   0.560   4.868 -1.5228 -0.4924  1.3596
 3501SOL     OW21961   3.922   0.252   0.272  0.1710  0.0881 -0.4552
 3501SOL    HW121962   3.961   0.212   0.194 -0.8210 -1.4811 -0.1464
 3501SOL    HW221963   3.907   0.341   0.240 -0.6713 -0.2641 -1.0331
 3502SOL     OW21964   0.731   0.769  13.400 -0.0736 -0.9650 -0.7883
 3502SOL    HW121965   0.763   0.718  13.474 -1.1974  1.6064  1.4568
 3502SOL    HW221966   0.794   0.839  13.383 -2.7258  1.5112 -0.3768
 3503SOL     OW21967   0.166   2.244  15.529 -0.4298 -0.3478  0.1416
 3503SOL    HW121968   0.167   2.226  15.435 -2.1779 -1.2566  0.3024
 3503SOL    HW221969   0.195   2.334  15.515  2.2366 -1.3676 -0.7730
 3504SOL     OW21970   1.459   4.255   6.293  0.5052 -0.3642  0.3626
 3504SOL    HW121971   1.424   4.178   6.248 -0.0593 -0.4679  0.9903
 3504SOL    HW221972   1.408   4.318   6.241 -0.1544 -3.6326 -2.9474
 3505SOL     OW21973   1.834   3.537   8.605 -0.1112 -0.3898  0.1269
 3505SOL    HW121974   1.858   3.627   8.627  0.2926 -0.3227 -0.5798
 3505SOL    HW221975   1.910   3.487   8.634  0.0037 -0.5437 -0.4327
 3506SOL     OW21976   1.698   1.331   8.517 -0.1503  0.0933  0.7069
 3506SOL    HW121977   1.718   1.414   8.473  0.0299 -1.0161 -1.2879
 3506SOL    HW221978   1.765   1.278   8.473  1.0798 -0.7790  3.6487
 3507SOL     OW21979   1.527   3.338   3.262 -0.3365  0.1057  0.2159
 3507SOL    HW121980   1.453   3.278   3.269  1.1722 -1.6710  0.8452
 3507SOL    HW221981   1.558   3.334   3.352  2.6045 -3.3190 -0.9949
 3508SOL     OW21982   0.376   1.907   6.173 -0.2401 -0.2510  0.1991
 3508SOL    HW121983   0.426   1.826   6.183 -0.8753 -0.8591 -1.5977
 3508SOL    HW221984   0.404   1.965   6.243  0.1810 -0.8921  0.5656
 3509SOL     OW21985   4.275   2.215   1.346  0.0030  0.0756  0.0004
 3509SOL    HW121986   4.267   2.125   1.377 -1.7381  0.9281  2.0090
 3509SOL    HW221987   4.369   2.214   1.328  0.0787  3.5972  0.1186
 3510SOL     OW21988   2.956   2.257   5.656 -0.3961  0.1402 -0.4046
 3510SOL    HW121989   3.042   2.263   5.613  0.9695 -0.9718  2.2190
 3510SOL    HW221990   2.898   2.261   5.580 -0.2798 -0.5292 -0.5225
 3511SOL     OW21991   4.604   1.803   8.333 -0.2030 -0.3600  0.2452
 3511SOL    HW121992   4.660   1.748   8.389  1.0157  1.2210  0.5746
 3511SOL    HW221993   4.527   1.808   8.388  1.3054 -2.4199  2.5264
 3512SOL     OW21994   1.884   3.762   5.308 -0.0933  0.2251  0.2911
 3512SOL    HW121995   1.975   3.739   5.325 -0.2208 -0.6533 -0.1936
 3512SOL    HW221996   1.855   3.779   5.398 -1.0933  1.0497 -0.1905
 3513SOL     OW21997   3.203   2.326   6.456 -0.0486  0.6322  0.1570
 3513SOL    HW121998   3.218   2.275   6.535 -0.3550 -1.6221 -1.2498
 3513SOL    HW221999   3.232   2.260   6.393  0.8034  3.6726 -2.6528
 3514SOL     OW22000   0.097   2.075  12.713  0.3556 -0.1839 -0.2618
 3514SOL    HW122001   0.102   2.018  12.637  0.4967  0.8439 -1.0246
 3514SOL    HW222002   0.019   2.042  12.759  0.3190 -0.8745 -0.8228
 3515SOL     OW22003   4.690   2.174  13.406  0.4055 -0.0833 -0.6515
 3515SOL    HW122004   4.683   2.080  13.388  3.1307 -0.0165 -2.1312
 3515SOL    HW222005   4.692   2.170  13.502 -0.7618  2.0277 -0.5374
 3516SOL     OW22006   2.772   1.806  10.341  0.0145 -0.2708 -0.3198
 3516SOL    HW122007   2.812   1.724  10.368 -0.5892 -0.2374  0.6853
 3516SOL    HW222008   2.840   1.860  10.381  0.4118 -0.7023 -0.4153
 3517SOL     OW22009   2.969   3.239   2.232 -0.1530 -0.5592  0.2380
 3517SOL    HW122010   2.943   3.147   2.237  0.2171 -0.6832 -0.0978
 3517SOL    HW222011   2.950   3.257   2.140 -0.2059  1.8370  0.7064
 3518SOL     OW22012   3.037   0.906   7.187  0.2284  0.3880 -0.2527
 3518SOL    HW122013   3.041   0.815   7.216 -1.2344  0.7088  0.9412
 3518SOL    HW222014   3.004   0.944   7.268 -1.3024  2.8110 -1.9910
 3519SOL     OW22015   2.637   0.868   4.859 -0.4485  0.3496 -0.2028
 3519SOL    HW122016   2.708   0.910   4.908  0.1647 -0.2502 -0.5702
 3519SOL    HW222017   2.617   0.796   4.919 -0.6973 -0.5251 -1.3453
 3520SOL     OW22018   2.556   0.366   3.502 -0.5039 -0.2194 -0.4110
 3520SOL    HW122019   2.619   0.319   3.557  1.7060  0.9139 -1.9820
 3520SOL    HW222020   2.554   0.311   3.423 -1.2433 -0.5975 -0.1210
 3521SOL     OW22021   4.287   2.188   1.027  0.1461  0.0369 -0.0134
 3521SOL    HW122022   4.192   2.178   1.027  0.3348 -1.8660 -1.6413
 3521SOL    HW222023   4.300   2.252   1.097 -4.0847  0.7148  0.1417
 3522SOL     OW22024   4.441   1.694  16.901 -0.3911 -0.0178 -0.9103
 3522SOL    HW122025   4.459   1.601  16.914 -0.4294  0.3303  1.6497
 3522SOL    HW222026   4.503   1.707  16.830 -1.6656  0.3149 -1.9681
 3523SOL     OW22027   4.534   0.894   5.246 -0.0917 -0.3493 -0.1452
 3523SOL    HW122028   4.448   0.927   5.221 -0.3085 -2.4317 -2.0683
 3523SOL    HW222029   4.589   0.939   5.182 -1.9491  3.4522  0.8843
 3524SOL     OW22030   2.198   3.049   6.151 -0.0359  0.3523  0.2985
 3524SOL    HW122031   2.169   3.119   6.093  0.0337  1.1984  1.2938
 3524SOL    HW222032   2.259   3.100   6.204  1.0298 -2.6315  1.9585
 3525SOL     OW22033   2.626   4.684  17.438 -0.1640 -0.1613 -0.1065
 3525SOL    HW122034   2.707   4.654  17.397  0.6324 -2.2795  3.0342
 3525SOL    HW222035   2.582   4.599  17.443 -2.6073  1.2575  1.8717
 3526SOL     OW22036   2.966   4.590   1.327 -0.5338 -0.4838  0.2646
 3526SOL    HW122037   2.972   4.684   1.342  1.9205 -0.8826  1.7220
 3526SOL    HW222038   3.051   4.568   1.290 -0.6059 -1.0319  0.4295
 3527SOL     OW22039   1.036   4.361   4.972 -0.2307  0.4915  0.0730
 3527SOL    HW122040   1.129   4.363   4.994 -0.3967  0.3087  0.7803
 3527SOL    HW222041   0.998   4.444   5.002 -2.0428 -0.2624 -0.1363
 3528SOL     OW22042   3.146   2.817   3.586 -0.2484 -0.4649  0.2270
 3528SOL    HW122043   3.215   2.774   3.637 -1.4841 -1.6430  0.9329
 3528SOL    HW222044   3.146   2.903   3.627  2.3447 -0.6667  0.6756
 3529SOL     OW22045   1.738   1.958  15.413 -0.2323 -0.3999  0.3131
 3529SOL    HW122046   1.671   1.958  15.481 -1.8299 -0.7256 -1.2740
 3529SOL    HW222047   1.735   2.053  15.401  1.3941 -0.2895  0.7781
 3530SOL     OW22048   4.513   1.173   0.348  0.1972  0.4915 -0.2914
 3530SOL    HW122049   4.608   1.185   0.343  0.5658 -2.1964  0.4008
 3530SOL    HW222050   4.495   1.212   0.433 -2.2052 -0.4914 -0.3486
 3531SOL     OW22051   3.247   1.553   3.684 -0.0254  0.1449  0.4915
 3531SOL    HW122052   3.183   1.616   3.719  0.8125  0.3877  1.5724
 3531SOL    HW222053   3.328   1.600   3.704  0.3097 -0.1894 -0.1029
 3532SOL     OW22054   0.145   3.191   1.148  0.2318  0.6225 -0.2774
 3532SOL    HW122055   0.084   3.165   1.078  0.6227  3.4190 -1.6486
 3532SOL    HW222056   0.144   3.286   1.146 -3.3996  0.6359  0.8222
 3533SOL     OW22057   4.676   1.595   7.650 -0.4001  0.1645 -0.9436
 3533SOL    HW122058   4.633   1.511   7.636  1.8278 -1.2746  0.7275
 3533SOL    HW222059   4.724   1.559   7.725 -0.4959 -0.2728 -1.0927
 3534SOL     OW22060   0.089   0.934  17.611 -0.3507  0.6753 -0.5991
 3534SOL    HW122061   0.051   1.021  17.597 -0.6075  0.4923 -1.0375
 3534SOL    HW222062   0.182   0.954  17.625 -0.7624  1.5160  0.9531
 3535SOL     OW22063   2.473   1.911   3.084 -0.4348 -0.0448 -0.5634
 3535SOL    HW122064   2.413   1.910   3.159 -0.1691 -1.6311 -0.3794
 3535SOL    HW222065   2.446   1.985   3.028 -0.5050  1.2352  1.1713
 3536SOL     OW22066   4.047   3.854   1.433 -0.1752  0.2612 -0.1105
 3536SOL    HW122067   4.138   3.868   1.458 -0.3542 -0.6410  1.0409
 3536SOL    HW222068   4.037   3.924   1.368  1.6646  0.7244  0.0992
 3537SOL     OW22069   3.577   4.028   0.302  0.3633  0.5310 -0.0778
 3537SOL    HW122070   3.636   3.991   0.236  0.7784 -0.9703  1.1598
 3537SOL    HW222071   3.599   3.965   0.370 -0.2194  0.5091  0.0821
 3538SOL     OW22072   2.143   1.839   7.537  0.5046 -0.1325 -0.0151
 3538SOL    HW122073   2.202   1.914   7.523  0.4895  0.1619  1.4973
 3538SOL    HW222074   2.156   1.829   7.632  2.6602  0.0730 -0.2814
 3539SOL     OW22075   3.795   2.315   8.301 -0.0648  0.4801  0.7302
 3539SOL    HW122076   3.716   2.310   8.246  0.8454 -1.4735 -0.3997
 3539SOL    HW222077   3.849   2.376   8.251  0.4669 -0.7749 -0.2474
 3540SOL     OW22078   1.745   3.550  17.446  0.5748  0.2666 -0.0767
 3540SOL    HW122079   1.691   3.474  17.467  1.0809  0.3651  1.5196
 3540SOL    HW222080   1.693   3.579  17.371  1.1823 -2.7892 -1.6954
 3541SOL     OW22081   3.215   2.552   1.874  0.2075 -0.2753 -0.6687
 3541SOL    HW122082   3.295   2.528   1.922 -0.7387 -2.4597 -0.2092
 3541SOL    HW222083   3.220   2.490   1.801  0.8975 -0.4581 -0.4687
 3542SOL     OW22084   3.621   0.016   6.520 -0.1668 -0.3517 -0.6044
 3542SOL    HW122085   3.593   0.107   6.531  0.7355  0.1308 -2.2684
 3542SOL    HW222086   3.629   4.699   6.606 -1.2071 -2.5109 -1.5140
 3543SOL     OW22087   2.975   2.823   2.906  0.5107  0.1635 -1.1318
 3543SOL    HW122088   3.001   2.837   2.997  1.6293  0.3270 -1.4723
 3543SOL    HW222089   3.054   2.859   2.866  0.1162  2.0127 -0.2238
 3544SOL     OW22090   2.895   3.028   8.688  0.5558 -0.4541 -0.6607
 3544SOL    HW122091   2.879   3.011   8.596  0.2294 -1.0818 -0.4851
 3544SOL    HW222092   2.809   3.008   8.725 -0.1893  2.5386 -0.7849
 3545SOL     OW22093   3.930   1.392   9.581  0.1614  0.5085  0.4139
 3545SOL    HW122094   3.896   1.420   9.495 -0.4597 -0.2811  0.4054
 3545SOL    HW222095   4.000   1.333   9.554  1.2923  0.8796  2.5513
 3546SOL     OW22096   3.645   0.985   2.988 -0.2817  0.8768  0.2238
 3546SOL    HW122097   3.550   0.996   3.000  0.0140  3.2455  0.3610
 3546SOL    HW222098   3.666   1.018   2.900 -0.5110 -2.8984 -1.2584
 3547SOL     OW22099   3.508   0.531   6.024 -0.1324  0.3104  0.2049
 3547SOL    HW122100   3.500   0.598   6.092 -0.7130 -0.3422  0.7809
 3547SOL    HW222101   3.458   0.582   5.960  1.9138  1.5554 -0.3880
 3548SOL     OW22102   3.240   2.402   5.747 -0.4865 -0.0039 -0.2612
 3548SOL    HW122103   3.298   2.465   5.703  0.4552 -1.7526 -1.5148
 3548SOL    HW222104   3.187   2.457   5.804 -4.5043 -3.1767 -0.9886
 3549SOL     OW22105   1.811   1.796   5.815  0.0718  0.0638  0.1995
 3549SOL    HW122106   1.876   1.730   5.839 -1.7676 -2.3120 -1.3931
 3549SOL    HW222107   1.793   1.772   5.724 -1.4044 -0.7955  0.7406
 3550SOL     OW22108   0.042   0.850   2.832 -0.0654 -0.3318  0.3177
 3550SOL    HW122109   0.092   0.897   2.766  1.2204 -1.5139  0.4646
 3550SOL    HW222110   4.684   0.848   2.783 -1.1040  1.1999  1.9896
 3551SOL     OW22111   4.359   2.874   8.901 -0.2722 -0.3597 -0.3996
 3551SOL    HW122112   4.396   2.949   8.855 -1.7707 -0.1828 -1.3111
 3551SOL    HW222113   4.440   2.835   8.933 -0.0284  0.0020 -0.5798
 3552SOL     OW22114   2.562   4.448  15.163 -0.4833  0.2832 -0.0369
 3552SOL    HW122115   2.523   4.533  15.181  2.3209  1.8213 -1.1343
 3552SOL    HW222116   2.622   4.449  15.237 -1.2547 -0.7460  0.5922
 3553SOL     OW22117   2.110   2.129  11.265 -0.1465 -0.0563 -0.0373
 3553SOL    HW122118   2.132   2.216  11.232  2.1792  0.1778  2.1255
 3553SOL    HW222119   2.051   2.097  11.196 -0.0779 -0.2971  0.0168
 3554SOL     OW22120   2.867   0.696   1.510 -0.0495  0.0709  0.3641
 3554SOL    HW122121   2.882   0.790   1.523 -2.0359  0.5647 -1.0390
 3554SOL    HW222122   2.776   0.699   1.483  0.8482  0.3756 -2.6588
 3555SOL     OW22123   2.868   1.831  15.962  0.0399  0.0122 -0.7205
 3555SOL    HW122124   2.881   1.812  15.869  2.5686 -1.8385 -0.0129
 3555SOL    HW222125   2.814   1.908  15.945  1.0231  0.7422 -0.5499
 3556SOL     OW22126   3.888   0.365   6.833  0.1657  0.6838  0.1710
 3556SOL    HW122127   3.827   0.391   6.902  0.7461  0.0646  0.9121
 3556SOL    HW222128   3.851   0.411   6.758 -0.3308  1.0057  0.6170
 3557SOL     OW22129   2.482   2.214   5.870 -0.4920 -0.4352  0.3103
 3557SOL    HW122130   2.570   2.177   5.885 -1.3929 -2.9709 -0.5974
 3557SOL    HW222131   2.440   2.144   5.819  3.2024 -1.1632 -1.7511
 3558SOL     OW22132   4.548   0.776   4.600 -0.0701 -0.5538  0.4088
 3558SOL    HW122133   4.634   0.737   4.614  0.1983 -0.0225  0.2107
 3558SOL    HW222134   4.528   0.798   4.691  1.8145  2.1620  0.1544
 3559SOL     OW22135   3.552   2.867   4.027 -1.0353 -0.5230 -0.1715
 3559SOL    HW122136   3.608   2.886   3.952 -0.0122 -2.0085  0.2295
 3559SOL    HW222137   3.615   2.849   4.097 -2.8886 -0.0390  1.6370
 3560SOL     OW22138   3.177   3.448  16.248  0.0623  0.1539  0.0276
 3560SOL    HW122139   3.089   3.416  16.229  0.4521 -1.1871  0.4566
 3560SOL    HW222140   3.192   3.498  16.167 -0.1737 -1.2397 -0.8832
 3561SOL     OW22141   0.359   3.626   7.266  0.0761  0.8494  0.3660
 3561SOL    HW122142   0.367   3.532   7.254  1.3827  1.1156 -0.8907
 3561SOL    HW222143   0.449   3.652   7.283 -0.1523  1.3820  0.7587
 3562SOL     OW22144   3.810   2.303  14.911 -0.2491 -0.1034 -0.4399
 3562SOL    HW122145   3.778   2.279  14.824 -0.0848 -1.9787  0.0278
 3562SOL    HW222146   3.814   2.399  14.902 -0.0860 -0.0283  0.4156
 3563SOL     OW22147   0.441   0.090   1.480 -0.2654 -0.1197  0.0206
 3563SOL    HW122148   0.481   0.156   1.424  2.0672 -0.4066  1.3186
 3563SOL    HW222149   0.480   0.012   1.441  1.4767  1.8591 -2.1924
 3564SOL     OW22150   2.294   4.053  16.371 -0.2833  0.3588 -0.4423
 3564SOL    HW122151   2.286   4.101  16.288  1.0558 -0.3219 -0.9616
 3564SOL    HW222152   2.255   3.968  16.354 -0.8740  0.4902  0.2677
 3565SOL     OW22153   0.809   3.355   6.934 -0.3383  0.4533 -0.4045
 3565SOL    HW122154   0.877   3.410   6.896  1.5613 -2.6537 -1.4969
 3565SOL    HW222155   0.856   3.297   6.994 -1.5163 -0.9087 -0.8014
 3566SOL     OW22156   1.140   3.421   7.647  0.2007  0.0831 -0.3306
 3566SOL    HW122157   1.046   3.401   7.646  0.1320  0.5185 -2.0958
 3566SOL    HW222158   1.130   3.516   7.650  0.1203  0.1066 -1.6573
 3567SOL     OW22159   3.317   0.245   3.171 -0.1959 -0.0697 -0.0654
 3567SOL    HW122160   3.256   0.317   3.156  3.0512  2.4829 -0.7694
 3567SOL    HW222161   3.263   0.172   3.140 -0.1200 -0.3922  0.5630
 3568SOL     OW22162   3.570   2.193  15.342 -1.2100 -0.2453 -0.3425
 3568SOL    HW122163   3.660   2.201  15.311 -0.9152 -3.0235 -0.1672
 3568SOL    HW222164   3.552   2.287  15.345  0.0197 -0.0792  1.5506
 3569SOL     OW22165   3.170   1.279   8.803 -0.0725 -0.1071 -0.4977
 3569SOL    HW122166   3.203   1.242   8.885 -1.4253  3.0448  1.4503
 3569SOL    HW222167   3.195   1.207   8.744 -0.8625 -1.2554  0.5576
 3570SOL     OW22168   2.324   4.643   6.120 -0.4632 -0.4534 -0.7767
 3570SOL    HW122169   2.385   4.680   6.184 -2.2855  1.0385  0.0787
 3570SOL    HW222170   2.247   4.656   6.174  1.3861 -1.2271  2.0711
 3571SOL     OW22171   1.679   1.095  14.884 -0.3781 -0.7452  0.2741
 3571SOL    HW122172   1.607   1.121  14.941  2.3567  0.8787  3.0059
 3571SOL    HW222173   1.718   1.032  14.945 -0.2436  1.2459  2.2318
 3572SOL     OW22174   1.203   2.768   7.192 -0.1878 -0.5810 -0.9190
 3572SOL    HW122175   1.295   2.753   7.210  0.1975  3.1614  0.4390
 3572SOL    HW222176   1.166   2.706   7.255 -2.8540  0.9764 -0.9365
 3573SOL     OW22177   1.161   3.632  15.544 -0.4005 -0.3467  0.1294
 3573SOL    HW122178   1.204   3.659  15.625  1.8058 -4.9415  0.4881
 3573SOL    HW222179   1.184   3.706  15.489 -2.3599  0.6925  0.7199
 3574SOL     OW22180   4.675   3.055   4.587 -0.3447  0.2069  0.0178
 3574SOL    HW122181   4.625   3.022   4.512  2.8729 -2.9633 -0.6866
 3574SOL    HW222182   4.631   3.141   4.587 -0.5524  0.0974  0.5609
 3575SOL     OW22183   1.066   1.704   8.154 -0.0455  0.5212  0.4999
 3575SOL    HW122184   0.995   1.740   8.101  1.6313 -0.2710 -2.3320
 3575SOL    HW222185   1.090   1.627   8.101  1.5091  1.9998 -0.9263
 3576SOL     OW22186   1.944   3.243   4.377  0.5688 -0.0193 -0.3491
 3576SOL    HW122187   1.992   3.207   4.451  0.7096 -2.2221 -1.5123
 3576SOL    HW222188   2.004   3.315   4.356  0.0059  0.4525 -0.3211
 3577SOL     OW22189   2.763   4.269   3.144  0.2427 -0.2442  0.2954
 3577SOL    HW122190   2.834   4.222   3.100  1.4065  2.0582 -0.2509
 3577SOL    HW222191   2.762   4.350   3.094 -1.0427  0.1862  1.0099
 3578SOL     OW22192   1.115   4.190   0.432 -0.3265 -0.0083  0.2910
 3578SOL    HW122193   1.025   4.181   0.401  1.1393 -1.7038 -3.4352
 3578SOL    HW222194   1.159   4.168   0.350 -1.2271  0.4034 -0.3021
 3579SOL     OW22195   1.944   1.243   1.310  0.1817 -0.0830  0.6167
 3579SOL    HW122196   1.909   1.295   1.237 -0.5793 -2.1049 -0.4644
 3579SOL    HW222197   1.911   1.289   1.387 -2.5336  0.2946 -0.7582
 3580SOL     OW22198   4.547   0.058   7.968 -0.3655  0.0436 -0.2338
 3580SOL    HW122199   4.525   0.150   7.956  1.0325  0.3784 -0.2626
 3580SOL    HW222200   4.639   0.060   7.941 -0.4886 -0.0966 -0.6638
 3581SOL     OW22201   0.284   0.773   6.360 -0.7826  0.3948  0.2989
 3581SOL    HW122202   0.260   0.764   6.453  0.5062  1.4813  0.7296
 3581SOL    HW222203   0.213   0.825   6.322 -1.0116  0.5531  0.9263
 3582SOL     OW22204   2.178   0.157   4.620  0.5578 -0.3277  0.0293
 3582SOL    HW122205   2.134   0.215   4.558  0.7008  2.1824  2.2275
 3582SOL    HW222206   2.169   0.072   4.578  0.2816 -1.0722  1.6123
 3583SOL     OW22207   3.641   0.551   1.708 -0.1668 -0.5375  0.0199
 3583SOL    HW122208   3.547   0.547   1.689 -0.6933  0.3775  2.4822
 3583SOL    HW222209   3.642   0.501   1.789  0.0826  2.3451  1.7735
 3584SOL     OW22210   0.520   0.510   4.730 -0.4420  0.1568  0.0359
 3584SOL    HW122211   0.447   0.488   4.672  1.0270  0.3789 -1.8962
 3584SOL    HW222212   0.567   0.572   4.674 -0.8215  1.0771  0.7296
 3585SOL     OW22213   4.006   1.109   5.226  0.1956  0.2144 -0.5594
 3585SOL    HW122214   3.934   1.047   5.216  1.6729 -1.2505 -2.2573
 3585SOL    HW222215   4.006   1.152   5.140  0.0675  0.8110 -0.2631
 3586SOL     OW22216   3.763   1.582   8.709  0.2414 -0.3963 -0.4665
 3586SOL    HW122217   3.766   1.677   8.697 -2.7727  0.2990  4.2593
 3586SOL    HW222218   3.854   1.565   8.684 -0.0453 -0.5692 -1.3626
 3587SOL     OW22219   2.282   4.059  10.753  0.2612 -0.4732  0.2195
 3587SOL    HW122220   2.220   4.129  10.732  4.6073  2.7577 -1.9486
 3587SOL    HW222221   2.240   4.000  10.816 -0.2499  0.5094  0.8086
 3588SOL     OW22222   4.174   3.514   1.382 -0.1495  0.5322 -0.6295
 3588SOL    HW122223   4.147   3.505   1.291 -0.0029  2.1131 -0.8343
 3588SOL    HW222224   4.111   3.577   1.418 -1.0417 -0.8716  0.2499
 3589SOL     OW22225   1.414   1.429  10.310  0.6834 -0.4444  0.2353
 3589SOL    HW122226   1.406   1.523  10.324 -0.6380 -0.7251  1.4015
 3589SOL    HW222227   1.337   1.405  10.362  1.7362  0.7264  2.3487
 3590SOL     OW22228   3.235   1.852   9.041  0.4280 -0.5250  0.0374
 3590SOL    HW122229   3.234   1.932   8.988 -0.3512  0.9406  2.3059
 3590SOL    HW222230   3.170   1.872   9.108 -0.1085  0.9596 -0.9276
 3591SOL     OW22231   3.989   2.765   6.473 -0.0200  0.2553  0.1594
 3591SOL    HW122232   3.944   2.790   6.554 -1.0109  0.2490 -0.3874
 3591SOL    HW222233   4.004   2.672   6.489 -0.9675 -0.1650 -1.4163
 3592SOL     OW22234   0.069   1.643   6.809  0.1363  0.1155  0.2859
 3592SOL    HW122235   0.076   1.620   6.716  3.8502 -1.7186  1.0361
 3592SOL    HW222236   0.160   1.655   6.836 -0.7068  1.7082  2.4210
 3593SOL     OW22237   0.949   1.736   6.680 -0.2291  0.2137  0.1079
 3593SOL    HW122238   0.927   1.650   6.645  0.9527 -0.0592  0.0486
 3593SOL    HW222239   0.996   1.774   6.606  1.4544 -2.5023 -0.2103
 3594SOL     OW22240   4.260   2.094   2.477 -0.6856  0.1664 -0.1525
 3594SOL    HW122241   4.225   2.180   2.456 -0.0345  0.6601  0.7749
 3594SOL    HW222242   4.347   2.093   2.436 -0.6947  2.5725 -0.2540
 3595SOL     OW22243   0.364   4.122   3.379  0.4810  0.4149 -0.1957
 3595SOL    HW122244   0.294   4.101   3.317 -0.6416  1.8308  0.5872
 3595SOL    HW222245   0.373   4.217   3.369  3.2360  0.3004  1.0917
 3596SOL     OW22246   2.018   1.952  10.005  0.6266  0.3196  0.4806
 3596SOL    HW122247   2.015   1.983   9.915 -1.2574  2.6537  1.3266
 3596SOL    HW222248   1.947   1.998  10.050  0.4796 -0.3452  0.9309
 3597SOL     OW22249   4.580   2.810   9.422 -0.4736  0.3638 -0.4120
 3597SOL    HW122250   4.531   2.780   9.346  0.1516 -0.4056 -0.5135
 3597SOL    HW222251   4.651   2.749   9.405 -0.1363  0.2835  1.2331
 3598SOL     OW22252   0.253   3.386   5.393  0.1807 -0.0129  0.4043
 3598SOL    HW122253   0.208   3.438   5.460  1.0333 -0.4326  1.2996
 3598SOL    HW222254   0.290   3.454   5.337  2.1079 -2.4842 -1.3700
 3599SOL     OW22255   3.390   3.595   9.094  0.9712  0.2267 -0.5551
 3599SOL    HW122256   3.414   3.576   9.184 -1.8240  1.4125  0.4155
 3599SOL    HW222257   3.298   3.569   9.087  0.4784  1.7991  0.3106
 3600SOL     OW22258   3.211   4.108  10.714 -0.4437  0.1142 -0.7312
 3600SOL    HW122259   3.233   4.194  10.677 -0.1580  0.0966 -0.6031
 3600SOL    HW222260   3.198   4.065  10.630  1.4225 -1.1987 -0.3542
 3601SOL     OW22261   3.147   2.859   4.176 -0.5524  0.1135 -0.1285
 3601SOL    HW122262   3.219   2.856   4.239 -0.0090  0.6317 -0.7246
 3601SOL    HW222263   3.122   2.768   4.168 -1.7116  0.6697 -2.7231
 3602SOL     OW22264   3.529   3.792  15.477 -0.7264 -0.4388 -0.0438
 3602SOL    HW122265   3.546   3.718  15.418 -0.3601  0.0812 -0.5976
 3602SOL    HW222266   3.547   3.869  15.423  1.7048  0.8855  2.6819
 3603SOL     OW22267   0.999   4.416   8.247 -0.2920  0.2752  0.9183
 3603SOL    HW122268   1.041   4.330   8.252  0.2272  0.4162 -0.8869
 3603SOL    HW222269   1.050   4.462   8.180 -1.0266 -0.7070 -0.2967
 3604SOL     OW22270   0.702   1.915   9.463 -0.3245 -0.3371 -0.2602
 3604SOL    HW122271   0.708   2.010   9.467  0.7305 -0.4366  0.8697
 3604SOL    HW222272   0.792   1.881   9.463 -0.6010 -1.0957  1.0619
 3605SOL     OW22273   2.992   4.119   1.733  0.7260  0.1190  0.2092
 3605SOL    HW122274   2.977   4.202   1.687 -3.0522  0.0120  1.2036
 3605SOL    HW222275   2.985   4.057   1.661 -1.1110  0.6041 -0.0193
 3606SOL     OW22276   1.374   1.209  13.374  0.9221  0.4209  0.2394
 3606SOL    HW122277   1.303   1.248  13.323  1.2684 -0.3263 -0.8115
 3606SOL    HW222278   1.334   1.133  13.417  1.5203  1.5576  2.8311
 3607SOL     OW22279   0.356   1.346   2.857  0.8326  0.3402  0.2433
 3607SOL    HW122280   0.348   1.270   2.799 -0.3560  2.6756 -2.6264
 3607SOL    HW222281   0.451   1.352   2.843  0.9726  3.3322  2.6338
 3608SOL     OW22282   0.984   1.231  17.609 -0.0701 -0.6461  0.3990
 3608SOL    HW122283   1.004   1.224   0.005  1.6543  0.0400  0.0900
 3608SOL    HW222284   0.957   1.323  17.604 -2.8747 -1.4652  0.7555
 3609SOL     OW22285   1.865   4.395   7.353  0.0896  0.3685  0.5732
 3609SOL    HW122286   1.945   4.369   7.307 -0.8728  0.6310 -1.2859
 3609SOL    HW222287   1.820   4.317   7.385  1.1068 -0.7242 -0.6537
 3610SOL     OW22288   0.788   1.701  11.787  0.0256  0.0724 -0.4487
 3610SOL    HW122289   0.855   1.647  11.828 -0.5767  0.3859  0.9369
 3610SOL    HW222290   0.839   1.739  11.715  1.0756  1.4453  1.0127
 3611SOL     OW22291   2.955   2.656  10.290 -0.1333 -0.8397  0.4212
 3611SOL    HW122292   2.966   2.570  10.249  0.4707 -1.2819  1.5304
 3611SOL    HW222293   3.034   2.693  10.249 -0.6255 -1.4528 -1.0699
 3612SOL     OW22294   0.142   0.358   7.819 -0.2436  0.1432  0.0995
 3612SOL    HW122295   0.096   0.309   7.750  0.2688  1.1052 -0.9189
 3612SOL    HW222296   0.076   0.420   7.849  2.1954  1.5543  2.4452
 3613SOL     OW22297   3.938   0.490   1.737  0.1226 -0.0165  0.5094
 3613SOL    HW122298   3.981   0.412   1.774  0.6827 -0.1400 -0.3965
 3613SOL    HW222299   3.847   0.463   1.729  0.5666 -1.5821  0.6626
 3614SOL     OW22300   4.568   0.556   7.593  0.3059  0.2516  0.7631
 3614SOL    HW122301   4.473   0.551   7.606 -0.0025 -2.8710 -2.7383
 3614SOL    HW222302   4.583   0.504   7.514 -1.8392  0.3083  0.3193
 3615SOL     OW22303   2.621   3.090   5.345 -0.1409 -0.0203  0.9395
 3615SOL    HW122304   2.673   3.068   5.268 -1.0523  2.4802 -0.3932
 3615SOL    HW222305   2.628   3.005   5.388  2.2120 -0.6400 -0.6638
 3616SOL     OW22306   0.456   0.592   6.245 -0.0450  0.7248 -0.1274
 3616SOL    HW122307   0.408   0.516   6.212  0.3941  0.6824 -0.6710
 3616SOL    HW222308   0.392   0.655   6.279  0.0698  1.3430 -1.0626
 3617SOL     OW22309   3.267   2.882   2.267 -0.5093 -0.2285  0.3128
 3617SOL    HW122310   3.198   2.825   2.301 -2.1153  2.2764  1.2553
 3617SOL    HW222311   3.251   2.962   2.316  0.0557  0.1927 -0.1972
 3618SOL     OW22312   4.439   3.189   8.096  0.0941  0.4540 -0.0177
 3618SOL    HW122313   4.458   3.228   8.181 -2.8551  0.5680  0.5634
 3618SOL    HW222314   4.469   3.254   8.032 -2.3658  2.6090  1.0586
 3619SOL     OW22315   3.414   2.792   5.874  0.3729 -0.4234  0.4075
 3619SOL    HW122316   3.341   2.846   5.844 -0.0273 -0.1951  1.7703
 3619SOL    HW222317   3.456   2.863   5.922 -1.9102  0.2265  1.4882
 3620SOL     OW22318   1.346   3.335   5.378 -0.0299  0.6188  0.2553
 3620SOL    HW122319   1.306   3.304   5.460  0.4763  1.8098  0.9605
 3620SOL    HW222320   1.328   3.426   5.401 -3.2179 -0.0421  0.4195
 3621SOL     OW22321   1.488   2.848   5.896 -0.4307 -0.0661  0.0892
 3621SOL    HW122322   1.452   2.765   5.865 -2.3664  1.1397 -0.8917
 3621SOL    HW222323   1.399   2.881   5.910 -0.1230  0.5098  0.6780
 3622SOL     OW22324   3.918   4.250   4.557 -0.3982 -0.1316  0.4649
 3622SOL    HW122325   3.901   4.288   4.470 -1.4010  2.5460  1.8461
 3622SOL    HW222326   3.847   4.186   4.569 -0.3034  0.1220  2.2908
 3623SOL     OW22327   0.936   0.393   4.469  0.1216  0.4656 -0.5572
 3623SOL    HW122328   0.920   0.305   4.436 -1.2014  0.8121 -0.8722
 3623SOL    HW222329   0.882   0.442   4.407  0.2256  0.6670 -0.4888
 3624SOL     OW22330   4.696   0.445   6.608 -0.2670  0.0113 -0.7487
 3624SOL    HW122331   4.669   0.498   6.683 -1.1101  0.8181 -1.6182
 3624SOL    HW222332   4.614   0.429   6.562  0.1679 -3.9094 -0.1348
 3625SOL     OW22333   4.256   1.710  14.005  0.2080  0.7982 -0.0828
 3625SOL    HW122334   4.311   1.714  13.927 -0.3355  0.1636 -0.4961
 3625SOL    HW222335   4.181   1.764  13.978  0.0434 -0.0621 -1.3379
 3626SOL     OW22336   4.102   4.660   9.732 -0.0736 -0.0201  0.1098
 3626SOL    HW122337   4.064   4.704   9.808  0.9264 -0.0469  0.6274
 3626SOL    HW222338   4.185   4.706   9.740 -0.1604 -0.3493  2.9771
 3627SOL     OW22339   1.859   2.720   5.519  0.4866 -0.0469  0.0421
 3627SOL    HW122340   1.812   2.727   5.602 -1.0121 -0.5309 -0.7552
 3627SOL    HW222341   1.928   2.783   5.536  1.3629 -1.0691  0.3022
 3628SOL     OW22342   0.137   0.707   1.654 -0.0455  0.6925  0.1587
 3628SOL    HW122343   0.135   0.621   1.612  1.5772  1.4764 -1.5178
 3628SOL    HW222344   0.065   0.687   1.713 -1.2920  2.6005 -0.7559
 3629SOL     OW22345   1.005   2.199   6.796 -0.5991 -0.0049  0.1276
 3629SOL    HW122346   1.048   2.226   6.715  0.1247  1.5286  1.0164
 3629SOL    HW222347   1.033   2.259   6.865  0.0648 -1.2207  0.9345
 3630SOL     OW22348   2.338   1.751   7.857 -0.7030  0.4489 -0.4405
 3630SOL    HW122349   2.429   1.721   7.860 -1.1074 -0.4521  2.2589
 3630SOL    HW222350   2.300   1.663   7.856  0.4345 -0.0522 -1.6109
 3631SOL     OW22351   3.098   0.365  15.281  0.2952 -0.8236  0.4538
 3631SOL    HW122352   3.034   0.435  15.277 -0.8350 -1.8895 -0.0968
 3631SOL    HW222353   3.180   0.411  15.264 -0.3586  0.0198 -0.3921
 3632SOL     OW22354   3.667   0.341  16.152 -0.0752 -0.5157 -0.5432
 3632SOL    HW122355   3.718   0.422  16.147 -0.5271 -0.1989  0.0741
 3632SOL    HW222356   3.732   0.275  16.129 -0.9056 -1.1679 -1.0020
 3633SOL     OW22357   1.652   0.352  17.135  0.2035  0.1000  0.0824
 3633SOL    HW122358   1.729   0.379  17.185  0.7374 -0.6546 -0.3447
 3633SOL    HW222359   1.693   0.331  17.052  0.3557  0.5289  0.0481
 3634SOL     OW22360   0.452   4.549   8.254  0.1036 -0.1216 -0.1568
 3634SOL    HW122361   0.540   4.535   8.219 -0.0166 -1.1605 -0.0685
 3634SOL    HW222362   0.475   4.635   8.288  0.8380 -0.1120 -0.6679
 3635SOL     OW22363   2.465   4.634   1.316  0.1553  0.1722  0.5617
 3635SOL    HW122364   2.497   4.546   1.295 -0.2488  0.1560  0.0285
 3635SOL    HW222365   2.540   4.664   1.369  0.4011 -0.4086  0.5384
 3636SOL     OW22366   0.274   4.686   9.748  0.3217  0.4250  0.1954
 3636SOL    HW122367   0.212   0.029   9.719  1.7235  1.9324  0.6850
 3636SOL    HW222368   0.233   4.604   9.720  2.3702  0.1587 -2.0468
 3637SOL     OW22369   4.644   3.908   4.395  0.0868  0.1021  0.1032
 3637SOL    HW122370   4.556   3.933   4.369  0.1401  1.4683  1.2322
 3637SOL    HW222371   4.655   3.959   4.476 -0.1145 -0.4718  0.4918
 3638SOL     OW22372   4.251   3.434  10.427  0.5513 -0.3877  0.2444
 3638SOL    HW122373   4.204   3.360  10.464 -0.4121  0.3115  0.4017
 3638SOL    HW222374   4.342   3.416  10.453  1.3269  1.6086 -1.0804
 3639SOL     OW22375   2.019   4.420   4.040 -0.2400  0.1472  0.3637
 3639SOL    HW122376   2.097   4.453   3.996 -0.5016 -0.2355 -0.3818
 3639SOL    HW222377   2.027   4.325   4.041  1.2956  0.2736 -1.1005
 3640SOL     OW22378   2.187   1.860   1.028  0.0458 -0.1377  0.0024
 3640SOL    HW122379   2.095   1.839   1.042 -0.3016  1.7631  0.6058
 3640SOL    HW222380   2.222   1.777   1.059  3.6768  1.2467 -0.3583
 3641SOL     OW22381   1.749   2.483   3.285 -0.1188  0.0681 -0.4287
 3641SOL    HW122382   1.804   2.559   3.265  0.2832 -0.3203 -0.7976
 3641SOL    HW222383   1.808   2.411   3.266  0.3108 -0.4767  2.8579
 3642SOL     OW22384   1.935   0.972   2.182  0.8325  0.1123 -0.4745
 3642SOL    HW122385   2.029   0.979   2.166  0.7473 -1.0786 -1.5159
 3642SOL    HW222386   1.903   1.043   2.127  0.1581 -0.5953 -0.9919
 3643SOL     OW22387   2.007   1.648   1.001 -0.4467 -0.2362 -0.2532
 3643SOL    HW122388   2.035   1.561   1.029 -1.8359 -0.8700 -0.8403
 3643SOL    HW222389   2.011   1.658   0.906  2.4730  0.8511 -0.0091
 3644SOL     OW22390   0.688   1.197   8.829 -0.2355  0.0436  0.3423
 3644SOL    HW122391   0.614   1.141   8.854 -1.1232  0.7653 -0.6673
 3644SOL    HW222392   0.734   1.198   8.913  2.0059  0.1160 -0.8874
 3645SOL     OW22393   4.287   2.523   5.390 -0.8811  0.1045 -0.3915
 3645SOL    HW122394   4.200   2.489   5.368  0.6169 -2.4842 -2.2713
 3645SOL    HW222395   4.263   2.616   5.397  0.6970  0.5210 -0.6437
 3646SOL     OW22396   1.078   2.318   5.525 -0.4019 -0.3535 -0.0901
 3646SOL    HW122397   1.164   2.294   5.561 -0.5798 -1.3169 -0.3071
 3646SOL    HW222398   1.031   2.312   5.608  0.1691  1.0871  0.3339
 3647SOL     OW22399   2.938   1.386   5.180 -0.1989  0.1963 -0.2598
 3647SOL    HW122400   2.901   1.466   5.219  2.0767  2.3392 -2.4827
 3647SOL    HW222401   3.030   1.411   5.172  0.1377 -0.6892  0.9416
 3648SOL     OW22402   2.508   2.712  14.836 -0.4101  0.0008  0.1443
 3648SOL    HW122403   2.578   2.748  14.781  0.0965 -1.8894 -0.4697
 3648SOL    HW222404   2.537   2.725  14.926 -2.0156  3.3114  0.1884
 3649SOL     OW22405   3.210   2.966   5.844  0.4203 -0.2116  0.3114
 3649SOL    HW122406   3.186   2.920   5.924 -3.1638 -2.2360 -1.8563
 3649SOL    HW222407   3.151   3.041   5.844  3.4454  2.1458 -0.3255
 3650SOL     OW22408   2.236   3.488  15.361 -0.1629 -0.2695  0.1894
 3650SOL    HW122409   2.318   3.461  15.320 -0.8713 -1.4540 -0.4423
 3650SOL    HW222410   2.255   3.453  15.448 -1.1364 -0.1314  0.4626
 3651SOL     OW22411   4.040   3.655   5.183 -0.3161 -0.5815 -0.1500
 3651SOL    HW122412   4.059   3.622   5.271 -0.2305  2.9652  1.1731
 3651SOL    HW222413   4.043   3.571   5.137 -1.5337 -0.5264 -0.3062
 3652SOL     OW22414   2.183   0.213   0.892 -0.2957  0.1447  0.6654
 3652SOL    HW122415   2.228   0.172   0.818 -0.7986  0.0212  0.4317
 3652SOL    HW222416   2.223   0.300   0.895  0.3132 -0.1342  0.5947
 3653SOL     OW22417   1.524   3.913   3.627  0.2654  0.3092 -0.4178
 3653SOL    HW122418   1.523   3.889   3.535  1.5365 -2.1629  0.2134
 3653SOL    HW222419   1.481   3.843   3.676  1.1116  0.0342 -0.0809
 3654SOL     OW22420   0.597   2.724   7.254 -0.6202 -0.1842 -0.7823
 3654SOL    HW122421   0.633   2.783   7.320  1.0742 -1.0595 -0.9188
 3654SOL    HW222422   0.525   2.683   7.301 -0.9376 -0.3985 -1.4566
 3655SOL     OW22423   2.618   0.974   0.015 -0.8299  0.6492  0.5757
 3655SOL    HW122424   2.667   0.999  17.634 -2.7361 -0.3160 -0.9274
 3655SOL    HW222425   2.624   0.880  17.697  0.5151  0.8918 -0.3418
 3656SOL     OW22426   1.604   0.692   3.229  0.2419 -0.1709 -0.1639
 3656SOL    HW122427   1.523   0.647   3.255  0.0564  1.0664  1.3939
 3656SOL    HW222428   1.592   0.783   3.256  1.5795  1.0321 -3.5984
 3657SOL     OW22429   2.113   1.485   0.341  0.0702  0.0965 -0.4497
 3657SOL    HW122430   2.113   1.482   0.246 -0.5423  0.0588 -0.4458
 3657SOL    HW222431   2.168   1.559   0.368  2.8306 -2.1056 -0.1325
 3658SOL     OW22432   4.251   1.231  15.604  0.2329  0.6966 -0.0798
 3658SOL    HW122433   4.192   1.171  15.559 -1.0032  1.1515  0.9594
 3658SOL    HW222434   4.183   1.298  15.605 -0.5816 -0.1286  0.0050
 3659SOL     OW22435   1.012   4.293   4.696 -0.1410  0.0226 -0.8123
 3659SOL    HW122436   0.962   4.212   4.687  0.0229 -0.0995 -0.6088
 3659SOL    HW222437   1.024   4.307   4.790  1.3397  0.5464 -1.0747
 3660SOL     OW22438   0.262   3.322   7.501 -0.2448  0.3846  0.5435
 3660SOL    HW122439   0.167   3.328   7.510 -0.3806 -1.1428  0.1315
 3660SOL    HW222440   0.296   3.239   7.534 -2.0850 -0.3918  0.4894
 3661SOL     OW22441   0.707   3.486   4.573 -0.2853  0.1441  0.8230
 3661SOL    HW122442   0.745   3.469   4.486  0.0934 -3.0757  1.5953
 3661SOL    HW222443   0.634   3.545   4.556 -0.2329 -0.2875 -0.9975
 3662SOL     OW22444   0.675   0.642   7.264  0.2767 -0.0566  0.0562
 3662SOL    HW122445   0.743   0.661   7.328 -0.6930 -0.7051  1.2614
 3662SOL    HW222446   0.658   0.548   7.261  1.3398 -0.2780  1.2688
 3663SOL     OW22447   2.382   2.259   7.784 -0.3303  0.2404 -0.0308
 3663SOL    HW122448   2.450   2.281   7.848 -1.7004 -0.9193  1.8098
 3663SOL    HW222449   2.397   2.164   7.782  0.1238  0.2343  3.4099
 3664SOL     OW22450   3.408   3.112  13.520 -0.4307 -0.3508 -0.4301
 3664SOL    HW122451   3.373   3.137  13.606  1.0161 -1.5593  0.5026
 3664SOL    HW222452   3.500   3.099  13.542 -0.0975 -1.5886 -2.5283
 3665SOL     OW22453   0.264   2.392   3.929  0.8925 -1.1391 -0.1070
 3665SOL    HW122454   0.211   2.443   3.991 -0.6963 -0.3170 -2.1367
 3665SOL    HW222455   0.350   2.390   3.972 -0.0723  2.2049  2.0308
 3666SOL     OW22456   4.029   1.605   8.655 -0.0774  0.1072 -0.4433
 3666SOL    HW122457   4.071   1.555   8.725  2.5845 -3.3534 -4.4596
 3666SOL    HW222458   4.096   1.673   8.657  1.0977 -1.0286 -0.5798
 3667SOL     OW22459   2.776   3.008   5.126  0.2218  0.3687 -0.3776
 3667SOL    HW122460   2.704   2.984   5.067  0.3263 -0.2559 -0.2450
 3667SOL    HW222461   2.769   3.102   5.111  2.0738  0.6260  0.3808
 3668SOL     OW22462   1.481   3.335   5.008  0.3569 -0.1885 -0.4394
 3668SOL    HW122463   1.392   3.334   4.972 -1.1185  1.7084  3.0477
 3668SOL    HW222464   1.464   3.321   5.102  0.0073 -0.9541 -0.6155
 3669SOL     OW22465   1.731   0.955  14.360  0.1048 -0.1144 -0.8763
 3669SOL    HW122466   1.780   0.897  14.418 -2.0734 -0.0678  1.0063
 3669SOL    HW222467   1.801   1.019  14.344 -1.3891  0.7617 -4.0529
 3670SOL     OW22468   4.311   1.759   4.754  0.0163 -0.3718  0.4177
 3670SOL    HW122469   4.220   1.740   4.774  0.1545  0.5837  1.9866
 3670SOL    HW222470   4.299   1.828   4.689  0.0639 -1.2851 -0.5637
 3671SOL     OW22471   1.835   3.477   5.787  0.7392 -0.1365 -0.7612
 3671SOL    HW122472   1.836   3.404   5.849  0.8391  0.4093 -0.1085
 3671SOL    HW222473   1.773   3.455   5.718 -0.1027  2.0226 -0.6985
 3672SOL     OW22474   1.785   1.649   5.221 -0.7336  0.3198 -0.5361
 3672SOL    HW122475   1.818   1.588   5.287 -1.4103 -0.7182 -1.1458
 3672SOL    HW222476   1.870   1.676   5.187  0.3654 -1.3564  0.8810
 3673SOL     OW22477   1.828   0.390   0.077  0.4945  0.5227 -0.0550
 3673SOL    HW122478   1.796   0.365   0.164 -3.2015 -0.1917 -1.6445
 3673SOL    HW222479   1.763   0.348   0.021  1.6672 -1.2512 -0.1169
 3674SOL     OW22480   0.739   1.407  17.273  0.2758 -0.1245  0.3068
 3674SOL    HW122481   0.796   1.447  17.339 -0.6538 -0.0683  1.0756
 3674SOL    HW222482   0.660   1.386  17.323  0.7126 -1.0935  0.5827
 3675SOL     OW22483   3.660   0.449   8.033  0.3498 -0.2381  0.0535
 3675SOL    HW122484   3.621   0.496   8.107  0.6572  0.9923 -0.5818
 3675SOL    HW222485   3.601   0.484   7.966  0.2999 -1.8676 -0.7505
 3676SOL     OW22486   4.605   1.932   4.476  0.0773  0.0206 -0.0538
 3676SOL    HW122487   4.657   1.863   4.435  2.1606  0.6935  1.4820
 3676SOL    HW222488   4.676   1.976   4.522 -1.8545  1.1433  1.8745
 3677SOL     OW22489   4.634   2.638   7.485  0.7146 -0.2754  0.3950
 3677SOL    HW122490   4.687   2.565   7.518  0.5943 -0.6197 -0.1777
 3677SOL    HW222491   4.549   2.600   7.467  0.2897  1.7045 -1.7832
 3678SOL     OW22492   3.623   1.695   7.470  0.3902  0.6454 -0.3377
 3678SOL    HW122493   3.660   1.642   7.541  1.5001  0.4815 -1.0461
 3678SOL    HW222494   3.697   1.754   7.454  1.9275 -1.5276 -1.2838
 3679SOL     OW22495   2.207   1.685   2.528 -0.0109 -0.2237 -0.0508
 3679SOL    HW122496   2.269   1.658   2.596 -0.4459 -1.2775 -0.0752
 3679SOL    HW222497   2.210   1.614   2.464 -1.5546 -0.8811  0.6109
 3680SOL     OW22498   4.292   3.987  15.122  0.0243  0.6446 -0.2904
 3680SOL    HW122499   4.245   3.945  15.051  0.6819 -1.6559  0.6475
 3680SOL    HW222500   4.362   3.922  15.133 -0.7835 -0.3840 -1.3190
 3681SOL     OW22501   3.405   0.623   7.295 -0.2602  0.6191  0.1608
 3681SOL    HW122502   3.414   0.661   7.382 -0.2908  3.0612 -0.8684
 3681SOL    HW222503   3.463   0.548   7.309 -0.9968  0.4106  2.0059
 3682SOL     OW22504   1.520   0.272   5.808  0.2978  0.1229  0.1657
 3682SOL    HW122505   1.554   0.285   5.719  1.5831  0.2164  0.6729
 3682SOL    HW222506   1.559   0.188   5.830 -1.9311 -0.5890  1.4157
 3683SOL     OW22507   2.881   3.724   4.791  0.5235 -0.3475 -0.1063
 3683SOL    HW122508   2.841   3.660   4.733  2.1016  0.3540 -1.9959
 3683SOL    HW222509   2.810   3.723   4.855  0.1873  1.1770 -0.4665
 3684SOL     OW22510   4.655   2.154   8.696 -0.2919 -0.7272  0.2464
 3684SOL    HW122511   4.622   2.103   8.770  0.4475 -1.1820  0.2567
 3684SOL    HW222512   0.021   2.169   8.722  0.5227 -0.7456 -2.5790
 3685SOL     OW22513   0.989   0.673   1.946 -0.5608 -0.1609 -0.4291
 3685SOL    HW122514   0.992   0.757   1.902 -3.1635 -0.3991 -1.0281
 3685SOL    HW222515   0.917   0.626   1.904 -0.5414  0.8211 -1.5534
 3686SOL     OW22516   3.487   1.899   3.765  0.1173  0.2865  0.0761
 3686SOL    HW122517   3.404   1.919   3.721  0.9239 -0.1274 -1.6132
 3686SOL    HW222518   3.529   1.828   3.717  1.4419  1.3010 -0.2626
 3687SOL     OW22519   0.504   0.664   1.443 -0.1407  0.2917  0.7331
 3687SOL    HW122520   0.598   0.663   1.459 -0.1019  0.4025  0.5205
 3687SOL    HW222521   0.480   0.753   1.469  0.3404  1.3015 -2.2176
 3688SOL     OW22522   1.430   1.101  14.982  0.0956 -0.0884 -0.1575
 3688SOL    HW122523   1.424   1.197  14.983  0.2415 -0.0708 -0.8937
 3688SOL    HW222524   1.358   1.080  15.041  1.2873  3.2915  2.4865
 3689SOL     OW22525   1.726   2.094   1.540  0.6873  0.2117 -0.6557
 3689SOL    HW122526   1.756   2.003   1.533 -0.0939 -0.2046  1.3255
 3689SOL    HW222527   1.793   2.132   1.596  1.1951 -0.8374 -0.5470
 3690SOL     OW22528   2.992   3.490  10.779 -0.5927  0.0847 -0.1473
 3690SOL    HW122529   2.959   3.479  10.868  1.4314 -1.0871  0.4471
 3690SOL    HW222530   3.086   3.499  10.794 -0.4426  1.6033 -1.9936
 3691SOL     OW22531   2.630   2.530  16.869  0.3341 -0.0731  0.4887
 3691SOL    HW122532   2.630   2.622  16.845  0.1623  0.3010  1.8903
 3691SOL    HW222533   2.675   2.489  16.795 -1.5946  0.2606 -0.8482
 3692SOL     OW22534   0.571   3.596   2.878 -0.2814  0.6378  0.3338
 3692SOL    HW122535   0.571   3.690   2.863 -0.6132  0.3877 -1.2005
 3692SOL    HW222536   0.564   3.562   2.789  1.1341  0.6185  0.2305
 3693SOL     OW22537   1.974   0.510   5.400  0.2909  0.5271  0.1247
 3693SOL    HW122538   1.948   0.566   5.326  3.3270  1.7729  0.0161
 3693SOL    HW222539   1.934   0.552   5.476 -1.2497  1.6484 -1.2965
 3694SOL     OW22540   0.432   2.628   2.349 -0.1686 -0.0820 -0.6227
 3694SOL    HW122541   0.347   2.649   2.312  0.2571 -0.9811 -2.0925
 3694SOL    HW222542   0.460   2.549   2.303  1.7058  0.2517 -0.0460
 3695SOL     OW22543   3.023   3.435  17.420 -0.1619 -0.4291  0.4108
 3695SOL    HW122544   3.058   3.467  17.338  1.3542  0.6391  1.4799
 3695SOL    HW222545   3.091   3.371  17.441  0.7365  0.6275  0.7218
 3696SOL     OW22546   0.648   4.078   1.974  0.6594  0.0671 -0.0280
 3696SOL    HW122547   0.725   4.122   2.010 -0.3038  1.2267  0.5993
 3696SOL    HW222548   0.642   4.125   1.891 -0.7266 -2.2366 -1.2295
 3697SOL     OW22549   1.652   3.078   5.164  0.1115  0.2214  0.2059
 3697SOL    HW122550   1.569   3.125   5.158  0.0266  0.2971  1.8804
 3697SOL    HW222551   1.645   3.061   5.258 -0.5634  0.0776  0.1260
 3698SOL     OW22552   3.285   2.593  14.107 -0.1631 -0.0321 -0.2797
 3698SOL    HW122553   3.194   2.577  14.080 -0.2280 -1.1034  0.5830
 3698SOL    HW222554   3.326   2.650  14.042 -0.3019  1.0019  0.5402
 3699SOL     OW22555   1.647   4.424   1.017 -0.4576  0.1119  0.2395
 3699SOL    HW122556   1.651   4.503   0.963  0.9827 -0.0422  0.1100
 3699SOL    HW222557   1.587   4.434   1.091 -1.3678  0.0262 -0.4894
 3700SOL     OW22558   0.498   1.841   6.609 -0.1869 -0.2423 -0.4816
 3700SOL    HW122559   0.551   1.875   6.681  0.5240 -1.3820 -0.4747
 3700SOL    HW222560   0.477   1.924   6.566  0.4849  0.6332  0.8903
 3701SOL     OW22561   0.343   3.545   1.379 -0.4734 -0.1365 -0.0256
 3701SOL    HW122562   0.264   3.528   1.328 -1.1730 -1.1029  1.3997
 3701SOL    HW222563   0.366   3.629   1.338  1.6133 -0.8806 -0.4198
 3702SOL     OW22564   2.183   4.079   1.520  0.3594  0.4792 -0.0370
 3702SOL    HW122565   2.224   3.998   1.549  1.3410  0.6978 -0.7987
 3702SOL    HW222566   2.160   4.053   1.431 -0.0403  0.2575  0.1317
 3703SOL     OW22567   2.893   4.125   8.474  0.7513  0.3337  0.3740
 3703SOL    HW122568   2.815   4.072   8.458  1.8110 -0.7354 -1.3652
 3703SOL    HW222569   2.941   4.085   8.546  1.2700  0.4860  0.1149
 3704SOL     OW22570   0.778   3.709   7.601  0.8392 -0.8104  0.1331
 3704SOL    HW122571   0.838   3.748   7.538  0.9007 -0.1785  0.5853
 3704SOL    HW222572   0.755   3.786   7.652 -0.1359 -1.8015  1.1910
 3705SOL     OW22573   1.574   3.816   4.891 -0.5782 -0.3880  0.4971
 3705SOL    HW122574   1.656   3.828   4.938 -0.8731 -0.0310  0.9297
 3705SOL    HW222575   1.585   3.878   4.818  0.7570 -1.2889 -0.0546
 3706SOL     OW22576   0.688   3.215  11.840  0.1318  0.7603  0.6160
 3706SOL    HW122577   0.653   3.209  11.929  0.3090 -0.0595  0.6297
 3706SOL    HW222578   0.603   3.214  11.796  0.5910 -1.4700 -0.2284
 3707SOL     OW22579   0.185   3.304   4.541  0.1867  0.2714 -0.1875
 3707SOL    HW122580   0.254   3.371   4.541  2.1411 -1.7451 -0.0241
 3707SOL    HW222581   0.145   3.303   4.627  0.5933 -1.1150 -0.0291
 3708SOL     OW22582   2.021   3.011   6.344 -0.1741 -0.3506  0.1978
 3708SOL    HW122583   2.018   3.092   6.395 -1.1715  1.3749 -2.6139
 3708SOL    HW222584   2.085   3.020   6.275 -0.8436  1.8548 -0.1280
 3709SOL     OW22585   1.912   4.592   1.338 -0.5562 -0.1001 -0.0931
 3709SOL    HW122586   1.991   4.595   1.391 -0.3762  0.1153 -0.3689
 3709SOL    HW222587   1.947   4.579   1.249 -1.4011 -1.6571 -0.1892
 3710SOL     OW22588   2.111   3.365  14.726 -0.6006 -0.4581  0.0261
 3710SOL    HW122589   2.139   3.418  14.652 -1.6983  1.8201  1.2363
 3710SOL    HW222590   2.115   3.420  14.804 -0.9440  1.6008 -1.4190
 3711SOL     OW22591   4.223   2.213  10.391  0.2462 -0.0829  0.0736
 3711SOL    HW122592   4.281   2.174  10.457  0.0947  0.6879  0.6655
 3711SOL    HW222593   4.214   2.148  10.321  0.3320  0.3555 -0.3393
 3712SOL     OW22594   4.708   1.158   4.942 -0.1497  0.3384  0.0287
 3712SOL    HW122595   4.627   1.114   4.917 -0.7103  2.2806 -1.5427
 3712SOL    HW222596   4.664   1.242   4.958  0.3843  0.4234  1.0487
 3713SOL     OW22597   2.216   3.940   8.162  0.1556 -0.2371  0.7279
 3713SOL    HW122598   2.202   3.876   8.231 -0.1107  0.4954  1.3486
 3713SOL    HW222599   2.244   4.017   8.211  1.3774  0.3789 -0.9255
 3714SOL     OW22600   0.438   3.454  15.851  0.5195 -0.1851  0.6636
 3714SOL    HW122601   0.444   3.528  15.911 -1.6724  1.1460 -0.7637
 3714SOL    HW222602   0.506   3.482  15.789 -1.6454  1.5815 -0.9070
 3715SOL     OW22603   0.696   4.628   5.366 -0.3710  0.0013  0.1255
 3715SOL    HW122604   0.773   4.622   5.423 -0.5093  2.5421  0.5812
 3715SOL    HW222605   0.620   4.612   5.421 -1.6326 -0.0942 -1.6478
 3716SOL     OW22606   4.654   0.921   3.743 -0.3845  0.3054 -0.3530
 3716SOL    HW122607   4.685   0.960   3.825 -1.7668  2.3350 -0.8063
 3716SOL    HW222608   4.713   0.937   3.670  3.2759  1.7420  2.8794
 3717SOL     OW22609   0.059   4.607   4.122  0.0634  0.4552 -0.5091
 3717SOL    HW122610   0.103   4.614   4.207  0.5185  1.4918 -0.8372
 3717SOL    HW222611   0.107   4.676   4.077  1.5208 -0.6516 -0.6663
 3718SOL     OW22612   0.064   3.134   1.647 -1.1256 -0.0049 -0.1910
 3718SOL    HW122613   0.002   3.149   1.576 -1.0014 -0.2981 -0.3608
 3718SOL    HW222614   0.128   3.085   1.597  1.8772  0.7509  2.8608
 3719SOL     OW22615   0.124   3.975   7.969 -0.4030 -0.0052 -0.5617
 3719SOL    HW122616   0.046   4.028   7.952 -1.1421 -0.4601  1.4552
 3719SOL    HW222617   0.189   4.041   7.945 -0.7797  1.4178  2.3724
 3720SOL     OW22618   2.312   3.121   6.678  0.2991 -0.0945  0.1305
 3720SOL    HW122619   2.408   3.123   6.679  0.3013  1.4962 -2.3485
 3720SOL    HW222620   2.300   3.026   6.685  3.9960 -0.9791 -5.3777
 3721SOL     OW22621   1.979   0.531   2.934 -0.1159 -0.1720  0.7892
 3721SOL    HW122622   1.939   0.613   2.961 -1.5706  0.1946 -2.4219
 3721SOL    HW222623   2.010   0.551   2.846 -1.3147  1.4628  0.7544
 3722SOL     OW22624   3.072   0.282   5.134 -0.7521 -0.5778  0.0816
 3722SOL    HW122625   3.017   0.251   5.206 -0.9126  1.9282  1.0244
 3722SOL    HW222626   3.154   0.307   5.176  0.3978 -2.4968 -0.9853
 3723SOL     OW22627   1.346   1.911   2.445  0.2975  0.3949  0.1539
 3723SOL    HW122628   1.265   1.960   2.464  0.4382 -0.3078  2.5213
 3723SOL    HW222629   1.400   1.938   2.519 -0.6456 -1.4565  1.5139
 3724SOL     OW22630   4.634   2.022   6.214  0.0311  0.3371  0.1739
 3724SOL    HW122631   4.683   2.096   6.178  0.7359 -1.2855 -2.2130
 3724SOL    HW222632   4.701   1.954   6.221 -0.3877 -0.1968 -0.8766
 3725SOL     OW22633   2.850   0.938   3.612 -0.2936 -0.3938 -0.2227
 3725SOL    HW122634   2.835   1.009   3.675 -2.0604  1.3279 -2.5880
 3725SOL    HW222635   2.808   0.859   3.647  0.1142 -0.6286 -0.2599
 3726SOL     OW22636   3.317   2.825  11.863  0.2044 -0.2830 -0.0134
 3726SOL    HW122637   3.404   2.835  11.825 -0.5221  1.7037 -1.1184
 3726SOL    HW222638   3.278   2.760  11.804 -0.9081 -1.4623  1.9881
 3727SOL     OW22639   0.362   4.346   9.969  0.0622 -0.4688  0.2179
 3727SOL    HW122640   0.392   4.419   9.916 -1.8200 -0.5131 -0.9076
 3727SOL    HW222641   0.287   4.379  10.018  0.2044  1.2213 -0.7207
 3728SOL     OW22642   1.058   4.122  17.058 -0.0443 -0.2843 -0.2776
 3728SOL    HW122643   1.106   4.138  16.977  1.4989  0.8943  0.8801
 3728SOL    HW222644   1.021   4.035  17.043  0.6524 -0.5607 -0.3685
 3729SOL     OW22645   4.217   1.310   2.407 -0.6456 -0.2726  0.3815
 3729SOL    HW122646   4.235   1.219   2.429  0.4274  0.3802  2.2211
 3729SOL    HW222647   4.300   1.349   2.434  0.2398 -1.7594 -0.2314
 3730SOL     OW22648   1.890   2.461   3.018 -0.5310 -0.4715  0.4951
 3730SOL    HW122649   1.971   2.471   3.068  0.2608 -1.7046 -0.5503
 3730SOL    HW222650   1.865   2.374   3.047 -1.9836 -0.4331 -0.6281
 3731SOL     OW22651   1.129   0.939   9.615  0.0204 -0.2006 -0.0915
 3731SOL    HW122652   1.206   0.921   9.669 -0.5249 -2.5838 -0.0892
 3731SOL    HW222653   1.163   1.003   9.552  0.2598 -0.6198 -0.3898
 3732SOL     OW22654   1.610   2.961   6.147  0.0412 -0.3783 -0.4110
 3732SOL    HW122655   1.685   2.903   6.134  1.1676  1.0383 -0.2668
 3732SOL    HW222656   1.574   2.949   6.060  0.0857  0.6966 -0.5782
 3733SOL     OW22657   4.431   4.117  11.986  0.2894  0.1755 -0.0450
 3733SOL    HW122658   4.354   4.166  12.015 -0.5111 -0.8614 -0.4257
 3733SOL    HW222659   4.478   4.195  11.958 -2.8617  2.4328  0.8991
 3734SOL     OW22660   1.404   0.368  11.726 -0.4088  0.1427 -0.1769
 3734SOL    HW122661   1.481   0.314  11.712 -1.2043 -0.8715 -0.5921
 3734SOL    HW222662   1.347   0.342  11.654 -1.1189 -1.5872  1.0362
 3735SOL     OW22663   2.133   1.523  15.126 -0.2508 -0.2511  0.1198
 3735SOL    HW122664   2.176   1.442  15.154 -0.5540 -0.7943 -1.0010
 3735SOL    HW222665   2.087   1.548  15.206 -2.8821 -0.3933 -1.3680
 3736SOL     OW22666   4.607   2.840   5.125  0.3299 -0.1665 -0.2791
 3736SOL    HW122667   4.562   2.760   5.100 -1.6901  0.9684 -0.3139
 3736SOL    HW222668   4.581   2.848   5.217  2.8914  2.3375  0.2134
 3737SOL     OW22669   0.658   0.764   0.232  0.0930  0.1117  0.3332
 3737SOL    HW122670   0.751   0.746   0.243  0.0851  0.5674  1.1507
 3737SOL    HW222671   0.621   0.777   0.319 -3.0209 -3.2636 -0.4772
 3738SOL     OW22672   1.754   1.399  10.645 -0.7437 -0.0974 -0.5745
 3738SOL    HW122673   1.699   1.477  10.645  0.9319  1.0733 -2.0819
 3738SOL    HW222674   1.692   1.330  10.667 -4.6617  2.7361 -2.7915
 3739SOL     OW22675   3.771   3.823   4.634  0.0760 -0.0789  0.2016
 3739SOL    HW122676   3.845   3.795   4.687 -0.4953 -0.3145  0.8655
 3739SOL    HW222677   3.720   3.744   4.614  0.9267 -0.7253  0.5744
 3740SOL     OW22678   2.414   3.101   7.386 -0.4968  0.3097 -0.1637
 3740SOL    HW122679   2.500   3.105   7.345 -0.5102 -0.3272 -0.2498
 3740SOL    HW222680   2.436   3.083   7.477  1.2681 -1.9162 -1.0417
 3741SOL     OW22681   1.072   3.282   1.051  0.3026 -0.0651  0.0563
 3741SOL    HW122682   1.098   3.321   1.134 -1.1084 -0.2036  0.5577
 3741SOL    HW222683   1.003   3.227   1.087  2.0644 -1.7725  0.7840
 3742SOL     OW22684   2.581   1.486   9.641 -0.4163  0.4603 -0.3856
 3742SOL    HW122685   2.501   1.436   9.656  0.1149 -0.2359  0.1376
 3742SOL    HW222686   2.639   1.417   9.674 -2.0403 -0.9758 -0.5248
 3743SOL     OW22687   2.425   4.227   2.746 -0.2835 -0.1805  0.2651
 3743SOL    HW122688   2.442   4.294   2.812 -1.0813  0.8787 -0.6117
 3743SOL    HW222689   2.459   4.277   2.672 -1.0024 -0.4116 -0.2264
 3744SOL     OW22690   3.761   1.409   9.347 -0.7273  0.5933  0.7575
 3744SOL    HW122691   3.809   1.380   9.269 -0.5048  0.1739  1.0514
 3744SOL    HW222692   3.693   1.466   9.312 -0.0359 -0.2811 -2.0369
 3745SOL     OW22693   2.498   2.896   3.848  0.3174  0.1248 -0.8102
 3745SOL    HW122694   2.533   2.930   3.930 -0.0766 -1.6371  0.1084
 3745SOL    HW222695   2.464   2.971   3.799  1.0542 -2.1396 -4.8038
 3746SOL     OW22696   3.535   0.680   4.230  0.6757  0.6563  0.5590
 3746SOL    HW122697   3.460   0.723   4.271  0.2258 -0.3563  0.7957
 3746SOL    HW222698   3.609   0.712   4.282  0.5344  1.9923 -0.0512
 3747SOL     OW22699   3.659   0.754   6.212 -0.1417 -0.1455  0.4453
 3747SOL    HW122700   3.568   0.777   6.231  0.5338  1.1325  2.1208
 3747SOL    HW222701   3.695   0.834   6.173 -1.4430  0.0474 -0.3672
 3748SOL     OW22702   0.375   3.979  17.087 -0.3231 -0.3716 -0.0057
 3748SOL    HW122703   0.365   4.036  17.010 -0.3189  2.2998  1.9596
 3748SOL    HW222704   0.308   4.012  17.147 -0.9069 -3.5796  1.0834
 3749SOL     OW22705   1.191   0.350   6.309  0.5844 -0.2036  0.2032
 3749SOL    HW122706   1.162   0.431   6.266  0.2224 -0.2391  0.3777
 3749SOL    HW222707   1.113   0.297   6.296  1.4710 -1.0389 -1.7037
 3750SOL     OW22708   2.465   2.091   7.117 -0.4542  0.2580 -0.0440
 3750SOL    HW122709   2.428   2.114   7.202  0.3740 -0.6411  0.5464
 3750SOL    HW222710   2.454   2.178   7.078 -0.3121  0.7772  1.0929
 3751SOL     OW22711   2.218   1.255   6.758 -0.1782  0.0344  0.3624
 3751SOL    HW122712   2.123   1.243   6.762  0.0153 -0.8019  2.7360
 3751SOL    HW222713   2.218   1.349   6.744 -0.2609 -0.6189 -3.9277
 3752SOL     OW22714   4.246   3.658   4.987  0.5405  0.5536 -0.6779
 3752SOL    HW122715   4.323   3.614   5.024  0.0622  0.5257  0.2828
 3752SOL    HW222716   4.180   3.630   5.051  0.3937 -0.2178 -1.1622
 3753SOL     OW22717   1.522   0.013  17.385  0.0937  0.5511 -0.1578
 3753SOL    HW122718   1.460   0.070  17.430  0.2498 -1.7572  2.9798
 3753SOL    HW222719   1.602   0.042  17.429 -0.1263  1.5035 -0.4030
 3754SOL     OW22720   0.512   1.962   3.314 -0.2197 -0.6149 -0.3358
 3754SOL    HW122721   0.515   1.928   3.225  0.5693 -2.4171  0.4027
 3754SOL    HW222722   0.467   2.045   3.294  0.7014  0.1817  0.9129
 3755SOL     OW22723   0.542   3.869   8.541 -0.2589  0.1475 -0.0272
 3755SOL    HW122724   0.546   3.805   8.470 -0.9779 -0.1625  0.2125
 3755SOL    HW222725   0.605   3.936   8.515  0.2971 -0.4562 -0.2215
 3756SOL     OW22726   1.293   0.161   6.109 -0.2912  0.1350  0.4320
 3756SOL    HW122727   1.367   0.101   6.096  1.2658  1.4648  3.1791
 3756SOL    HW222728   1.323   0.229   6.168  0.9062  0.2184 -0.2770
 3757SOL     OW22729   2.399   1.955   2.536 -0.3929  0.0823  0.3274
 3757SOL    HW122730   2.370   1.869   2.567  1.8502 -0.0382  2.1349
 3757SOL    HW222731   2.341   1.968   2.461 -0.0770  0.6429  0.1843
 3758SOL     OW22732   2.121   1.953  10.427  0.0702  0.2536  0.5501
 3758SOL    HW122733   2.159   1.865  10.422 -0.5232  0.1444 -2.3343
 3758SOL    HW222734   2.123   1.956  10.523  0.3443  0.0034  0.5510
 3759SOL     OW22735   3.194   1.923   8.224  0.2896  0.3532  0.6697
 3759SOL    HW122736   3.191   2.005   8.175  0.4879 -0.8543 -1.3495
 3759SOL    HW222737   3.146   1.941   8.305 -1.9845 -1.7627 -0.2499
 3760SOL     OW22738   4.359   1.394   3.444 -0.2841  0.9741  0.0089
 3760SOL    HW122739   4.279   1.373   3.492  0.0940 -0.9456 -0.1980
 3760SOL    HW222740   4.407   1.312   3.431  0.9233  2.0767 -2.4630
 3761SOL     OW22741   3.547   0.308   3.948 -0.4344 -0.5342  0.0798
 3761SOL    HW122742   3.625   0.348   3.909  0.3400 -0.0927  2.0876
 3761SOL    HW222743   3.486   0.381   3.948  2.0391  1.5452 -0.5620
 3762SOL     OW22744   0.614   3.789   5.390  0.0366 -0.0634  0.2108
 3762SOL    HW122745   0.596   3.882   5.406  0.9857  0.2403 -0.5007
 3762SOL    HW222746   0.625   3.760   5.481 -0.2611 -0.9439 -0.0394
 3763SOL     OW22747   4.111   1.950   2.939  0.5908 -0.0420 -0.1568
 3763SOL    HW122748   4.147   1.983   3.022  2.4499  1.5108 -1.5721
 3763SOL    HW222749   4.126   1.856   2.941  1.1693  0.0712  1.3732
 3764SOL     OW22750   1.864   2.410  11.464 -0.6566  0.4163  0.4697
 3764SOL    HW122751   1.819   2.484  11.423  0.2103  0.1634 -0.9489
 3764SOL    HW222752   1.796   2.394  11.529  1.2310  2.8009  2.9803
 3765SOL     OW22753   2.701   0.677   3.461  0.1057  0.3443  0.0711
 3765SOL    HW122754   2.611   0.688   3.494 -1.1865 -1.6472 -2.8264
 3765SOL    HW222755   2.743   0.674   3.547  0.1977  2.5666  0.1011
 3766SOL     OW22756   1.723   1.447   4.981  0.1724 -0.3939  0.5745
 3766SOL    HW122757   1.777   1.461   4.904 -0.0051  1.9469  0.8763
 3766SOL    HW222758   1.790   1.474   5.044  1.2704 -1.3037 -0.2158
 3767SOL     OW22759   2.988   2.190   2.850 -0.8378 -0.2916  0.1558
 3767SOL    HW122760   3.048   2.263   2.866 -1.0921 -0.3800  1.4821
 3767SOL    HW222761   3.012   2.154   2.765 -0.0101  0.3884  0.1089
 3768SOL     OW22762   4.347   2.741   6.367  0.0925  0.0091 -0.2427
 3768SOL    HW122763   4.288   2.808   6.400 -0.0347 -0.7905  1.1548
 3768SOL    HW222764   4.364   2.687   6.444 -0.8779 -2.3980 -1.7076
 3769SOL     OW22765   4.489   1.343   9.971  0.2781  0.2592 -0.4318
 3769SOL    HW122766   4.403   1.385   9.966  0.3507  0.5076  0.3108
 3769SOL    HW222767   4.467   1.250   9.972  1.4919 -0.0295 -0.3308
 3770SOL     OW22768   3.493   2.306  14.780 -0.3991 -0.1025 -0.1881
 3770SOL    HW122769   3.432   2.273  14.714  1.5479  0.2633 -2.1660
 3770SOL    HW222770   3.565   2.247  14.760 -1.2372 -0.9248 -0.8392
 3771SOL     OW22771   4.589   0.912   9.820 -0.2778  0.5598  0.1000
 3771SOL    HW122772   4.595   0.841   9.884  0.7820 -0.6548 -1.3683
 3771SOL    HW222773   4.637   0.979   9.868 -1.4647  1.2107  0.3719
 3772SOL     OW22774   1.452   4.218   1.365 -0.1092  0.1523  0.1466
 3772SOL    HW122775   1.504   4.296   1.384  1.2189 -0.5372 -0.6250
 3772SOL    HW222776   1.518   4.174   1.311  0.8226  0.4340  1.0369
 3773SOL     OW22777   0.230   2.714   7.820 -0.1186 -0.4468 -0.1428
 3773SOL    HW122778   0.216   2.706   7.914  1.4903  2.9230  0.4047
 3773SOL    HW222779   0.297   2.648   7.802 -0.4544 -0.6925 -0.4917
 3774SOL     OW22780   0.928   3.397   7.410 -0.2403  0.2999  0.2757
 3774SOL    HW122781   0.863   3.354   7.466  2.2985 -2.1711  1.3315
 3774SOL    HW222782   0.869   3.411   7.335  1.0596  0.8349 -0.6516
 3775SOL     OW22783   1.807   4.121   0.820  0.3750 -0.0109 -0.4612
 3775SOL    HW122784   1.845   4.033   0.814  1.1363  0.3346 -0.7330
 3775SOL    HW222785   1.720   4.098   0.852  0.2957 -0.3794 -0.9433
 3776SOL     OW22786   4.031   1.566  13.539  0.4416 -0.5362  0.1890
 3776SOL    HW122787   4.034   1.526  13.452  2.0586 -1.6633  0.7558
 3776SOL    HW222788   4.047   1.659  13.524  1.3083 -0.4294  1.7753
 3777SOL     OW22789   1.108   1.519   5.561  0.1864 -0.3534 -0.2268
 3777SOL    HW122790   1.018   1.488   5.567  0.0662  0.0941  0.2108
 3777SOL    HW222791   1.135   1.471   5.482 -0.0809 -3.3657  1.5229
 3778SOL     OW22792   1.530   0.820   4.255  0.0141  0.2644  0.0193
 3778SOL    HW122793   1.559   0.736   4.290  0.9427  0.4957 -0.1814
 3778SOL    HW222794   1.540   0.806   4.160  1.0226 -0.4780  0.2408
 3779SOL     OW22795   0.878   1.787   3.799  0.1908  0.1711  0.1238
 3779SOL    HW122796   0.809   1.803   3.863  0.3261  0.1435  0.2782
 3779SOL    HW222797   0.923   1.717   3.846  2.2057  1.2388 -0.1978
 3780SOL     OW22798   2.615   0.080   6.586  0.1693 -0.0180  0.6100
 3780SOL    HW122799   2.527   0.053   6.563  0.2682  0.8637 -0.8789
 3780SOL    HW222800   2.660   0.010   6.538 -1.1164  0.2728 -1.0268
 3781SOL     OW22801   4.714   1.719  10.420  0.3817 -1.0587  0.0182
 3781SOL    HW122802   4.695   1.643  10.365 -0.9363 -2.8090  2.8814
 3781SOL    HW222803   4.648   1.776  10.380 -0.4443 -3.0367 -1.4730
 3782SOL     OW22804   4.599   4.203  17.295 -0.0150 -0.3740 -0.3465
 3782SOL    HW122805   4.643   4.179  17.377  0.4585  1.5699 -0.0246
 3782SOL    HW222806   4.519   4.243  17.330  1.4666  0.9030  1.6610
 3783SOL     OW22807   0.241   1.795   8.942  0.7356 -0.2671 -0.7740
 3783SOL    HW122808   0.312   1.824   8.998  0.4365 -0.1423 -0.4560
 3783SOL    HW222809   0.205   1.724   8.995 -1.0382 -0.3985 -2.1345
 3784SOL     OW22810   2.688   0.621   9.417  0.2708 -0.0571  0.3173
 3784SOL    HW122811   2.735   0.704   9.423 -0.0653  0.1304  0.3350
 3784SOL    HW222812   2.642   0.635   9.334 -0.2570  0.0862  0.6372
 3785SOL     OW22813   2.821   0.758  11.528 -0.5914 -0.3393 -0.6501
 3785SOL    HW122814   2.731   0.781  11.506 -0.4834  2.0608  1.3953
 3785SOL    HW222815   2.828   0.664  11.511 -0.5142 -0.4432 -0.0488
 3786SOL     OW22816   1.606   1.778   9.463 -0.2958  0.3904 -0.3501
 3786SOL    HW122817   1.536   1.781   9.398 -0.6392  2.3981  0.1085
 3786SOL    HW222818   1.677   1.815   9.410 -0.7801 -0.0322 -1.2930
 3787SOL     OW22819   2.324   0.071  15.035 -0.5979 -0.5177  0.3892
 3787SOL    HW122820   2.238   0.073  15.077 -0.5002 -0.3001  0.5734
 3787SOL    HW222821   2.299   0.023  14.956 -0.0191 -0.7559  0.3473
 3788SOL     OW22822   0.800   3.971   7.491 -0.2887  0.2368  0.5823
 3788SOL    HW122823   0.845   4.042   7.538 -0.7090  0.1248  1.1577
 3788SOL    HW222824   0.797   4.011   7.404 -3.0825 -0.1274  0.5081
 3789SOL     OW22825   4.217   0.971   7.978  0.3625 -0.5957  0.4408
 3789SOL    HW122826   4.248   1.022   8.053  1.2772 -2.8807  1.6193
 3789SOL    HW222827   4.127   1.003   7.979  0.5741 -0.0186  1.6822
 3790SOL     OW22828   2.047   0.371   2.167 -0.2429  0.7196  0.0908
 3790SOL    HW122829   2.078   0.313   2.237  0.3302  0.9994  0.0671
 3790SOL    HW222830   1.968   0.395   2.214  0.6024  3.0682  0.2827
 3791SOL     OW22831   2.649   0.101   8.345 -0.0116 -0.4953 -0.0646
 3791SOL    HW122832   2.720   0.056   8.390  0.7976  0.2829 -0.5783
 3791SOL    HW222833   2.662   0.193   8.365 -0.5721 -0.6422  1.0200
 3792SOL     OW22834   4.053   3.095   3.745  0.3012  0.6419  0.5937
 3792SOL    HW122835   4.063   3.129   3.834  2.1464  2.8094 -0.4308
 3792SOL    HW222836   4.005   3.167   3.705  1.9163  0.7683 -1.1366
 3793SOL     OW22837   3.309   4.527   5.978  0.1008 -0.2743  0.0985
 3793SOL    HW122838   3.233   4.579   5.951  0.5468  0.0547 -0.5377
 3793SOL    HW222839   3.273   4.447   6.016  0.5574 -0.5441 -0.0512
 3794SOL     OW22840   3.683   0.023  12.043 -0.5222  0.1905  0.7853
 3794SOL    HW122841   3.611   4.708  11.993 -1.0250 -0.6556  2.1399
 3794SOL    HW222842   3.662   0.116  12.036 -1.7678 -0.2625 -1.4084
 3795SOL     OW22843   2.837   1.947   2.577  0.5190  0.4061 -0.5045
 3795SOL    HW122844   2.783   1.997   2.516 -0.7880 -2.0446 -1.3858
 3795SOL    HW222845   2.892   2.024   2.592  1.1023  0.4967 -3.0652
 3796SOL     OW22846   4.444   2.468  11.357 -0.1169  0.3674  0.7221
 3796SOL    HW122847   4.519   2.430  11.311 -0.4054  1.7049 -0.8244
 3796SOL    HW222848   4.377   2.401  11.340 -0.1081  0.2968  0.9547
 3797SOL     OW22849   4.611   2.183   5.156  0.3950 -0.3130  0.2072
 3797SOL    HW122850   4.540   2.224   5.107  0.5948 -1.2870 -0.8774
 3797SOL    HW222851   4.662   2.258   5.187  1.9512 -0.6377 -1.5572
 3798SOL     OW22852   0.230   4.102   4.998 -0.2319 -0.4612  0.1278
 3798SOL    HW122853   0.300   4.081   4.936  0.5541 -2.4315  1.6345
 3798SOL    HW222854   0.233   4.196   5.015  0.2656 -0.7225  1.5025
 3799SOL     OW22855   2.098   1.080   4.122 -0.1129 -0.0513 -0.4113
 3799SOL    HW122856   2.027   1.118   4.175 -0.8294 -0.9892 -0.6969
 3799SOL    HW222857   2.129   1.008   4.175  1.7298 -0.2883 -1.8220
 3800SOL     OW22858   3.282   1.643   2.661  0.1977 -0.0827  0.1000
 3800SOL    HW122859   3.197   1.686   2.675 -0.1102 -0.7114  0.1473
 3800SOL    HW222860   3.266   1.556   2.698 -0.5629 -0.5984 -1.4367
 3801SOL     OW22861   2.974   2.359   6.731  0.0053  0.7148  0.1645
 3801SOL    HW122862   2.923   2.314   6.663  0.4524  0.8995 -0.2962
 3801SOL    HW222863   2.915   2.431   6.750 -1.0870 -0.4535  1.2433
 3802SOL     OW22864   0.730   0.454  11.619 -0.1173 -0.5405 -0.2264
 3802SOL    HW122865   0.703   0.387  11.682 -1.1633  0.3529  0.2974
 3802SOL    HW222866   0.651   0.508  11.627  0.7800  0.5500  1.2203
 3803SOL     OW22867   3.109   0.915   8.145  0.2675  0.1971 -0.1134
 3803SOL    HW122868   3.041   0.888   8.083 -0.3828 -1.3170  1.2804
 3803SOL    HW222869   3.075   0.876   8.225 -1.0062  2.4504  0.4107
 3804SOL     OW22870   1.945   1.003   2.623  0.0196 -0.1216 -0.1629
 3804SOL    HW122871   1.889   0.993   2.546 -0.4384 -4.7039  0.7907
 3804SOL    HW222872   1.880   1.006   2.692 -0.3726 -1.0537 -0.5009
 3805SOL     OW22873   0.502   1.184   7.496 -0.2914  0.0515  0.1787
 3805SOL    HW122874   0.419   1.215   7.460 -0.1077  0.0191 -0.2631
 3805SOL    HW222875   0.533   1.134   7.421 -0.5116 -0.5742  0.5005
 3806SOL     OW22876   3.133   0.997   2.580 -0.3840 -0.0723 -0.1386
 3806SOL    HW122877   3.191   1.072   2.564  2.3394 -1.8340  1.4322
 3806SOL    HW222878   3.194   0.950   2.637 -0.6646  0.1858  0.3730
 3807SOL     OW22879   4.172   3.385   8.396  0.8709  0.4886 -0.4256
 3807SOL    HW122880   4.217   3.456   8.350 -1.4730  2.6567  0.6410
 3807SOL    HW222881   4.227   3.372   8.474 -0.2901 -1.5035  0.0435
 3808SOL     OW22882   0.624   2.934  13.300  0.3867  0.0676 -0.1663
 3808SOL    HW122883   0.657   3.006  13.355  1.2412 -0.6512  0.2600
 3808SOL    HW222884   0.534   2.918  13.329  0.2442  1.2992  0.0950
 3809SOL     OW22885   1.757   2.643  11.384  0.4450 -0.2039 -0.0997
 3809SOL    HW122886   1.825   2.651  11.316  1.8712 -1.1723  1.2242
 3809SOL    HW222887   1.690   2.703  11.350 -1.9815 -1.0708  3.1472
 3810SOL     OW22888   3.031   1.709   3.746 -0.3870 -0.3808  0.1815
 3810SOL    HW122889   2.965   1.640   3.751  0.3232 -0.9842  1.2277
 3810SOL    HW222890   2.971   1.783   3.734 -0.3582  0.1194  2.9404
 3811SOL     OW22891   4.298   1.959   4.531  0.2467 -0.1914 -0.6453
 3811SOL    HW122892   4.307   2.046   4.570  0.2622 -0.9598  1.0842
 3811SOL    HW222893   4.389   1.932   4.525  0.3060 -0.2355  0.4261
 3812SOL     OW22894   1.331   2.425   8.385 -0.2353  0.7478  0.4057
 3812SOL    HW122895   1.361   2.447   8.297  1.7048  0.5475  1.0162
 3812SOL    HW222896   1.296   2.509   8.414  0.2845 -0.3769  4.3205
 3813SOL     OW22897   0.834   1.370   6.260  0.6336  0.0265  0.5515
 3813SOL    HW122898   0.748   1.358   6.219  0.7952  0.5616  0.0630
 3813SOL    HW222899   0.843   1.465   6.265  0.1929  0.0647  0.6516
 3814SOL     OW22900   2.643   2.794   8.451  0.8124 -0.2005 -0.1901
 3814SOL    HW122901   2.660   2.778   8.358 -1.5310 -0.4347 -0.5864
 3814SOL    HW222902   2.719   2.850   8.466 -0.5285  1.4858  0.2574
 3815SOL     OW22903   2.946   3.035   4.100 -0.4126  0.1885  0.1825
 3815SOL    HW122904   2.974   3.100   4.164  1.0599  0.0048 -0.2730
 3815SOL    HW222905   3.012   2.968   4.117  0.3570  1.5104  2.3035
 3816SOL     OW22906   3.374   3.827   2.752 -0.2471  0.0900 -0.3536
 3816SOL    HW122907   3.340   3.759   2.693  1.3191 -0.3915 -0.6984
 3816SOL    HW222908   3.441   3.868   2.697  0.4617 -2.5855 -1.5208
 3817SOL     OW22909   2.876   3.251  13.618 -0.3573  0.3128  0.0030
 3817SOL    HW122910   2.808   3.316  13.601  1.9434  2.6016 -0.5220
 3817SOL    HW222911   2.872   3.189  13.546  0.1589  1.0959 -0.7023
 3818SOL     OW22912   1.432   2.337  10.369  0.0542 -0.0573 -0.3629
 3818SOL    HW122913   1.339   2.339  10.346 -0.3301 -0.0783  1.1757
 3818SOL    HW222914   1.430   2.315  10.462  0.7510 -3.4832 -1.1456
 3819SOL     OW22915   3.597   3.683   5.151  0.6179  0.5972  0.1036
 3819SOL    HW122916   3.540   3.615   5.185  0.7791 -0.9570 -2.7754
 3819SOL    HW222917   3.552   3.706   5.071  0.9602  1.2405  0.0926
 3820SOL     OW22918   3.817   0.235  13.973  0.1739 -0.4571  0.6563
 3820SOL    HW122919   3.757   0.198  14.038  2.1166 -1.6629  1.7750
 3820SOL    HW222920   3.762   0.238  13.895 -1.0322  1.4858  1.5848
 3821SOL     OW22921   3.925   3.642  15.953 -0.2756  0.5971  0.2789
 3821SOL    HW122922   3.838   3.611  15.974 -0.3317  0.1945 -0.5413
 3821SOL    HW222923   3.945   3.582  15.881  0.7338 -0.4105  1.3914
 3822SOL     OW22924   4.340   0.051  16.250 -0.0999  0.4333  0.2187
 3822SOL    HW122925   4.413   0.005  16.292 -0.3190  0.3335  0.4915
 3822SOL    HW222926   4.374   0.140  16.247  0.4595  0.1355 -2.0198
 3823SOL     OW22927   3.195   0.294   5.988  0.6161  0.3431 -0.4681
 3823SOL    HW122928   3.263   0.320   6.049  0.6582  1.2087 -0.8898
 3823SOL    HW222929   3.192   0.198   5.991 -0.5718  0.4476  2.2021
 3824SOL     OW22930   0.202   3.722   8.024 -0.3888  0.1797 -0.4011
 3824SOL    HW122931   0.215   3.689   7.935  1.3202 -0.1166 -0.0429
 3824SOL    HW222932   0.193   3.813   7.995  0.4293  0.1996 -0.5878
 3825SOL     OW22933   3.045   2.405  15.847  0.9179 -0.6910  0.1116
 3825SOL    HW122934   2.988   2.342  15.804  2.0872 -0.3768 -1.8828
 3825SOL    HW222935   3.112   2.351  15.890  0.5024 -1.4250 -0.1507
 3826SOL     OW22936   1.952   1.647   9.312  0.1012  0.5240  0.4166
 3826SOL    HW122937   2.043   1.645   9.283 -0.6970  0.1060 -2.0586
 3826SOL    HW222938   1.961   1.674   9.403  1.0738 -0.7510  0.6848
 3827SOL     OW22939   1.855   2.581   0.671  0.1833 -0.5099  0.2590
 3827SOL    HW122940   1.887   2.671   0.678  0.8623 -0.6228 -1.2681
 3827SOL    HW222941   1.884   2.540   0.752  1.0610 -1.2116 -0.3982
 3828SOL     OW22942   0.536   1.332   7.730  0.6969 -0.1630  0.2617
 3828SOL    HW122943   0.612   1.309   7.785 -0.3043  1.7299  2.4431
 3828SOL    HW222944   0.517   1.268   7.662  0.1952 -0.6070  0.8221
 3829SOL     OW22945   1.476   3.536   8.492  0.0199 -0.3213  0.1828
 3829SOL    HW122946   1.504   3.458   8.445 -2.8870 -0.9179 -0.5534
 3829SOL    HW222947   1.503   3.528   8.583  2.2481  1.6588 -0.2966
 3830SOL     OW22948   2.844   2.443   8.338  0.1344  0.5381  0.4859
 3830SOL    HW122949   2.773   2.414   8.396 -0.6395  0.2009 -0.6355
 3830SOL    HW222950   2.863   2.519   8.395  2.5348  1.0708 -1.0291
 3831SOL     OW22951   4.000   0.513   0.125  0.0913  0.2941 -0.1856
 3831SOL    HW122952   3.982   0.597   0.082  0.1754  1.0237  1.2155
 3831SOL    HW222953   4.021   0.548   0.211  0.9282 -1.4291  0.3034
 3832SOL     OW22954   2.816   0.838  15.599 -0.4474  0.0855 -0.1486
 3832SOL    HW122955   2.875   0.903  15.558  2.2741 -0.6779  2.5448
 3832SOL    HW222956   2.864   0.819  15.680 -0.8878 -2.4262 -0.4916
 3833SOL     OW22957   2.771   3.241   6.094  0.2088  0.3212  0.3181
 3833SOL    HW122958   2.791   3.198   6.177  1.4585  2.9848  1.4069
 3833SOL    HW222959   2.696   3.195   6.058 -0.1294  1.1622 -0.0679
 3834SOL     OW22960   2.597   3.968   0.443 -0.1567  0.5132  0.2632
 3834SOL    HW122961   2.590   4.057   0.411  3.0094  0.4726 -0.4691
 3834SOL    HW222962   2.583   3.975   0.538  0.8239  0.1450  0.4352
 3835SOL     OW22963   0.439   3.929  12.428  0.7926  0.1691 -0.0977
 3835SOL    HW122964   0.508   3.865  12.412  1.5135  1.1493 -0.9251
 3835SOL    HW222965   0.492   4.001  12.463  0.3762  0.6326 -0.4124
 3836SOL     OW22966   2.727   0.774   6.437  0.4067 -0.0662  0.0652
 3836SOL    HW122967   2.715   0.820   6.354  1.0715  0.0134  0.0169
 3836SOL    HW222968   2.739   0.847   6.497 -1.2988  0.3526 -0.1171
 3837SOL     OW22969   1.096   2.591   2.655  0.1683 -0.3938 -0.4986
 3837SOL    HW122970   1.035   2.564   2.586 -3.1202  0.3858  2.1119
 3837SOL    HW222971   1.067   2.525   2.718  0.8249  0.4360  0.6696
 3838SOL     OW22972   2.080   2.922   5.582  0.7788 -0.0962  0.3334
 3838SOL    HW122973   2.081   3.008   5.623  1.5656  0.4071 -0.7377
 3838SOL    HW222974   2.162   2.881   5.609  0.2298 -3.1283 -2.7398
 3839SOL     OW22975   0.520   1.419  14.399  0.9103  0.1790 -0.3951
 3839SOL    HW122976   0.505   1.482  14.469  1.2412  0.0323 -0.1940
 3839SOL    HW222977   0.470   1.453  14.325 -1.0993 -0.6825  0.5509
 3840SOL     OW22978   4.501   3.205   5.796  0.1051  0.2388  0.0471
 3840SOL    HW122979   4.557   3.179   5.723 -0.0656  1.0639 -0.3873
 3840SOL    HW222980   4.415   3.172   5.769  0.8036 -1.1536 -0.4922
 3841SOL     OW22981   2.111   0.136   4.335 -0.4843  0.1808 -0.4356
 3841SOL    HW122982   2.201   0.110   4.317 -0.4056  0.8922 -1.0594
 3841SOL    HW222983   2.052   0.078   4.287 -1.1071  0.1781  0.3206
 3842SOL     OW22984   3.536   0.642   5.603 -0.1990  0.4303 -0.5164
 3842SOL    HW122985   3.618   0.642   5.652 -2.0089 -1.0090  2.4567
 3842SOL    HW222986   3.504   0.724   5.640 -1.7013 -1.0279  1.3467
 3843SOL     OW22987   0.878   3.660   9.079 -0.4255 -0.3479 -0.4348
 3843SOL    HW122988   0.798   3.655   9.130 -1.0697 -0.4232 -1.4466
 3843SOL    HW222989   0.928   3.695   9.153 -0.3781  0.0993 -0.6777
 3844SOL     OW22990   3.982   0.066   5.785 -0.1789  0.4859 -0.2510
 3844SOL    HW122991   3.894   0.070   5.821  0.1465  0.5711  0.5223
 3844SOL    HW222992   4.021   4.722   5.839  0.6749  1.4702  0.3845
 3845SOL     OW22993   2.637   0.336   5.662 -0.0147  0.3204 -0.4735
 3845SOL    HW122994   2.622   0.247   5.692  1.4883  0.2691  0.1427
 3845SOL    HW222995   2.729   0.332   5.636  0.5778  1.8137  1.3450
 3846SOL     OW22996   2.547   3.197  17.675 -0.2041  0.3110  0.3684
 3846SOL    HW122997   2.551   3.271  17.614 -2.6203 -0.3282 -0.5407
 3846SOL    HW222998   2.585   3.128  17.621  0.8613 -1.5973  3.5748
 3847SOL     OW22999   0.386   2.310   4.209 -0.0239  0.7484 -0.8794
 3847SOL    HW123000   0.399   2.239   4.272 -0.4839  1.3399 -0.1334
 3847SOL    HW223001   0.337   2.372   4.262 -0.7250 -1.1572  0.6974
 3848SOL     OW23002   2.916   3.720   4.256 -0.0178 -0.3673 -0.2836
 3848SOL    HW123003   2.931   3.696   4.164  1.2258 -0.3258 -0.0860
 3848SOL    HW223004   2.873   3.805   4.245 -1.3711 -1.0694 -0.3832
 3849SOL     OW23005   0.803   2.316   5.198  0.4348 -0.3332  0.6718
 3849SOL    HW123006   0.887   2.273   5.216  0.7351  0.2525  0.6769
 3849SOL    HW223007   0.755   2.249   5.148 -1.0241  1.8634 -0.8841
 3850SOL     OW23008   3.930   4.357   6.066 -0.1643  0.4880 -0.3308
 3850SOL    HW123009   3.903   4.276   6.022 -1.4418  1.3318 -1.0932
 3850SOL    HW223010   3.912   4.345   6.159 -1.3741  1.1841 -0.4838
 3851SOL     OW23011   2.008   1.667  10.613  1.0261 -0.0466 -0.7215
 3851SOL    HW123012   2.081   1.670  10.551  2.3078  0.7114  0.8160
 3851SOL    HW223013   1.937   1.672  10.549  1.5166  0.1773 -1.2471
 3852SOL     OW23014   0.350   1.462   7.136  0.3758 -0.1844 -0.2297
 3852SOL    HW123015   0.420   1.404   7.168 -1.7373 -1.4261  2.1735
 3852SOL    HW223016   0.400   1.540   7.112  1.3272 -0.7116  0.0317
 3853SOL     OW23017   3.738   4.597   5.730 -0.0707  0.5963 -0.0945
 3853SOL    HW123018   3.740   4.678   5.781  0.5224  0.1524  0.5915
 3853SOL    HW223019   3.668   4.551   5.775  1.8009 -2.3416 -0.1520
 3854SOL     OW23020   3.099   3.512  11.244 -0.5688 -0.0157  0.1606
 3854SOL    HW123021   3.139   3.594  11.273  0.5797 -0.1344 -1.0531
 3854SOL    HW223022   3.152   3.448  11.290  2.1532  0.6444 -2.0228
 3855SOL     OW23023   4.119   3.573   7.821  0.3606  0.2327 -0.0863
 3855SOL    HW123024   4.156   3.515   7.755  1.2558  1.9589 -1.1033
 3855SOL    HW223025   4.023   3.566   7.813  0.4194 -0.3824 -0.2672
 3856SOL     OW23026   2.593   1.822   6.343  0.5634  0.5817 -0.2848
 3856SOL    HW123027   2.651   1.774   6.403  2.0451 -0.3946 -2.4959
 3856SOL    HW223028   2.560   1.749   6.291  0.2215  0.5640 -0.0418
 3857SOL     OW23029   0.408   2.009   3.837  0.0920  0.6837  0.4458
 3857SOL    HW123030   0.433   1.995   3.746  0.7921  0.4347  0.6722
 3857SOL    HW223031   0.321   1.974   3.822  1.2670 -1.8739 -0.2951
 3858SOL     OW23032   2.500   0.503  17.600  0.2961 -0.1424 -0.6776
 3858SOL    HW123033   2.457   0.470  17.678  1.4519  0.7363  0.3358
 3858SOL    HW223034   2.532   0.422  17.561  1.7636 -0.6874  1.6845
 3859SOL     OW23035   4.188   0.533   5.227  0.2074 -0.6876 -0.0314
 3859SOL    HW123036   4.280   0.556   5.213  0.4167 -1.3145  0.3556
 3859SOL    HW223037   4.176   0.477   5.150  2.4635  0.5722 -1.3023
 3860SOL     OW23038   0.458   0.549   8.387 -0.0087  0.4771 -0.0037
 3860SOL    HW123039   0.514   0.486   8.341 -0.8374  1.8126 -2.8578
 3860SOL    HW223040   0.485   0.630   8.342  0.5010  0.6955  0.6980
 3861SOL     OW23041   3.331   4.170  15.334  0.4054  0.2621 -0.0697
 3861SOL    HW123042   3.305   4.229  15.263  1.2743 -1.2426 -1.6311
 3861SOL    HW223043   3.259   4.110  15.313  1.2799 -0.9941  0.4688
 3862SOL     OW23044   2.990   0.578  15.544  0.3633  0.1560  0.6979
 3862SOL    HW123045   2.935   0.633  15.488  0.1067 -0.9393 -0.1197
 3862SOL    HW223046   3.071   0.626  15.526 -1.7216  3.5272  0.2040
 3863SOL     OW23047   4.009   1.052  12.800  0.0526 -0.3509 -0.2074
 3863SOL    HW123048   4.080   1.019  12.855  1.2381 -1.6998 -2.5709
 3863SOL    HW223049   3.998   0.981  12.737 -0.7895 -0.6544  0.2921
 3864SOL     OW23050   0.934   1.995   7.573 -0.0171  0.2058  0.6577
 3864SOL    HW123051   0.964   1.936   7.641  0.3427 -0.0589  0.2663
 3864SOL    HW223052   0.879   2.052   7.626 -0.3433  1.0295 -0.5504
 3865SOL     OW23053   0.650   4.672   0.546 -0.2364  0.1544 -0.0753
 3865SOL    HW123054   0.689   0.027   0.584 -0.6258  0.1985  0.2364
 3865SOL    HW223055   0.555   4.681   0.549 -0.2971 -0.8066  0.9867
 3866SOL     OW23056   3.593   4.155   9.109  0.0700  0.3097  0.2311
 3866SOL    HW123057   3.523   4.172   9.173  0.7983 -0.4072  1.2214
 3866SOL    HW223058   3.557   4.096   9.043  1.8628  1.5645 -1.8480
 3867SOL     OW23059   1.535   2.520   1.699 -0.0099 -0.4653 -0.4177
 3867SOL    HW123060   1.475   2.493   1.630  0.2282 -0.2973 -0.6904
 3867SOL    HW223061   1.473   2.553   1.765  0.0254 -1.2753  0.0129
 3868SOL     OW23062   1.979   1.545  16.255  0.0154  0.0691 -0.1561
 3868SOL    HW123063   1.950   1.565  16.344 -1.7588  0.2717 -0.7715
 3868SOL    HW223064   2.068   1.517  16.274 -0.3119 -1.8972 -1.5711
 3869SOL     OW23065   3.987   3.714   6.173 -0.3419 -0.3175  0.6484
 3869SOL    HW123066   3.942   3.791   6.138  2.3818  0.6650 -0.6623
 3869SOL    HW223067   4.076   3.730   6.143 -0.5470 -2.1238 -0.9379
 3870SOL     OW23068   0.769   3.267   4.035 -0.1709 -0.5210  0.9179
 3870SOL    HW123069   0.730   3.221   4.109 -1.1138 -0.1870  0.6146
 3870SOL    HW223070   0.756   3.358   4.060  1.7355  0.7027 -2.5521
 3871SOL     OW23071   0.293   2.022   4.082 -0.7498  0.4145  0.0316
 3871SOL    HW123072   0.351   2.034   4.157 -2.0722  4.4418  0.4259
 3871SOL    HW223073   0.352   2.035   4.008 -0.2141 -0.4346  0.3163
 3872SOL     OW23074   3.991   2.813   1.893 -0.2722  0.4167  0.6508
 3872SOL    HW123075   4.058   2.814   1.825 -0.2547  0.5226  0.6711
 3872SOL    HW223076   3.967   2.905   1.901  1.7133  0.7910  2.2479
 3873SOL     OW23077   3.216   4.390   8.509 -0.3624 -0.0755  0.0512
 3873SOL    HW123078   3.250   4.309   8.472 -0.8016  0.1640 -0.8828
 3873SOL    HW223079   3.161   4.369   8.585  2.5689 -1.6452  1.7461
 3874SOL     OW23080   0.888   1.710   0.930  0.2293 -0.3893  0.1308
 3874SOL    HW123081   0.933   1.794   0.942 -2.4865  1.0338  0.2146
 3874SOL    HW223082   0.950   1.652   0.975  1.8455  2.2498  1.3298
 3875SOL     OW23083   1.965   2.678  11.191 -0.1310  0.2725 -0.1084
 3875SOL    HW123084   2.004   2.713  11.111 -0.7401 -0.3009 -0.6521
 3875SOL    HW223085   2.033   2.615  11.214  1.6409  2.7728  1.6240
 3876SOL     OW23086   1.772   4.443  16.832  0.4044  0.1014  0.1162
 3876SOL    HW123087   1.736   4.490  16.907 -1.8738  1.1858 -1.6556
 3876SOL    HW223088   1.857   4.483  16.813  0.8774 -1.5502 -1.3472
 3877SOL     OW23089   3.743   3.659   6.375 -0.2759  0.0582 -0.8259
 3877SOL    HW123090   3.692   3.717   6.319 -0.3108  0.1486 -0.7008
 3877SOL    HW223091   3.668   3.616   6.416  0.4377  2.9050  3.3723
 3878SOL     OW23092   2.871   0.216  11.513  0.4962  0.8237  0.0195
 3878SOL    HW123093   2.925   0.173  11.580  1.7787 -0.2037 -1.6685
 3878SOL    HW223094   2.901   0.169  11.436  1.0760  1.5883 -0.2312
 3879SOL     OW23095   4.288   3.713   8.640 -0.1332  0.1812  0.1689
 3879SOL    HW123096   4.226   3.749   8.577 -1.5029 -1.5134  0.5575
 3879SOL    HW223097   4.373   3.715   8.595 -1.4123  0.7778 -2.2400
 3880SOL     OW23098   0.117   3.316   4.822 -0.4174 -0.4564 -0.1112
 3880SOL    HW123099   0.161   3.261   4.887  1.0112 -0.7218 -1.3235
 3880SOL    HW223100   0.121   3.398   4.872  1.9093  0.5469 -1.9075
 3881SOL     OW23101   2.164   0.332  11.012  0.0577  0.2812 -0.1977
 3881SOL    HW123102   2.177   0.245  11.049  0.2216  0.2864 -0.2458
 3881SOL    HW223103   2.248   0.342  10.967  0.7462  0.9437  1.2548
 3882SOL     OW23104   4.573   1.397   3.738  0.0129 -0.3352 -0.2293
 3882SOL    HW123105   4.659   1.373   3.772 -0.0359  0.9536  0.7922
 3882SOL    HW223106   4.556   1.313   3.695 -0.2743 -0.4241  0.0550
 3883SOL     OW23107   2.030   3.137  14.597 -0.1537  0.0269  0.1776
 3883SOL    HW123108   2.063   3.077  14.664  0.8151  1.9208  1.3670
 3883SOL    HW223109   2.065   3.223  14.618  3.5694 -1.6646  0.9971
 3884SOL     OW23110   2.392   3.285   4.298 -0.3633 -0.2563 -0.1997
 3884SOL    HW123111   2.334   3.226   4.249  1.1202 -0.4328 -1.7379
 3884SOL    HW223112   2.475   3.293   4.251 -0.2092  0.6040  0.2148
 3885SOL     OW23113   1.998   1.363   5.157  0.4834 -0.4936  1.1023
 3885SOL    HW123114   2.062   1.434   5.147  0.3278 -0.1993  2.2746
 3885SOL    HW223115   2.037   1.297   5.099  1.2319  1.5938 -0.7729
 3886SOL     OW23116   2.078   1.283   2.516  0.5233  0.0581  0.0184
 3886SOL    HW123117   2.052   1.192   2.529 -0.9259  0.2373 -1.6111
 3886SOL    HW223118   2.116   1.271   2.429  3.3905  1.2489  1.0959
 3887SOL     OW23119   0.043   1.656   0.340  0.2640  0.1367 -0.6464
 3887SOL    HW123120   0.049   1.561   0.338 -0.7031  0.0409  0.9794
 3887SOL    HW223121   4.699   1.670   0.274 -0.9656  0.4491  0.6684
 3888SOL     OW23122   1.520   4.361  13.605  0.4957  0.0464 -0.6816
 3888SOL    HW123123   1.578   4.332  13.534  1.4858  1.2273 -0.3424
 3888SOL    HW223124   1.538   4.455  13.605  0.4247  0.0583  0.2680
 3889SOL     OW23125   1.253   4.615  10.455 -0.3018  1.2087  0.0705
 3889SOL    HW123126   1.209   4.689  10.498 -1.1643  0.4838  0.4413
 3889SOL    HW223127   1.174   4.561  10.456  0.9722 -0.6377  1.4011
 3890SOL     OW23128   4.664   2.880   8.189 -0.7620 -0.1020 -0.4512
 3890SOL    HW123129   4.574   2.890   8.157 -0.8247  0.5159 -0.1012
 3890SOL    HW223130   4.652   2.909   8.280 -1.3660  1.4590 -1.0141
 3891SOL     OW23131   1.490   3.314   4.521  0.4712 -0.4986 -0.4062
 3891SOL    HW123132   1.440   3.394   4.504  0.3045 -0.2673  1.2217
 3891SOL    HW223133   1.569   3.343   4.566  0.0103 -0.9093  0.6661
 3892SOL     OW23134   0.246   1.906   2.875 -0.2380  0.2318 -0.3537
 3892SOL    HW123135   0.213   1.842   2.939 -0.6008 -1.4044 -2.1667
 3892SOL    HW223136   0.281   1.975   2.931 -0.0375  0.4712 -0.7712
 3893SOL     OW23137   0.429   4.035   5.414  0.3541  0.2911 -0.2051
 3893SOL    HW123138   0.415   4.030   5.509 -1.5017  0.8369 -0.4567
 3893SOL    HW223139   0.465   4.123   5.410  0.3037  0.3014 -0.4520
 3894SOL     OW23140   1.144   2.482  15.109 -0.1015 -0.4891 -0.0349
 3894SOL    HW123141   1.216   2.495  15.172  0.1664 -0.3450 -0.3733
 3894SOL    HW223142   1.079   2.514  15.172 -0.2473 -0.3729 -0.2475
 3895SOL     OW23143   3.729   4.262   4.146  0.0084  0.4445  0.2302
 3895SOL    HW123144   3.728   4.177   4.103 -2.1963  1.1044 -1.0476
 3895SOL    HW223145   3.659   4.257   4.211 -0.2217 -3.3379 -0.3082
 3896SOL     OW23146   3.312   4.116   2.153 -0.4885  0.3148  0.1480
 3896SOL    HW123147   3.300   4.201   2.110 -0.9385 -0.7059 -1.7575
 3896SOL    HW223148   3.227   4.101   2.193 -1.0269  2.6794 -0.0616
 3897SOL     OW23149   1.925   2.342  10.658  0.0980  0.2719  0.5541
 3897SOL    HW123150   1.857   2.400  10.692  0.7293  1.1752  0.2778
 3897SOL    HW223151   1.990   2.361  10.726  0.1065 -1.1498  0.9397
 3898SOL     OW23152   3.938   2.618   4.022 -0.3527  0.3269  0.1145
 3898SOL    HW123153   3.898   2.669   4.093 -0.6735  0.9693 -0.5283
 3898SOL    HW223154   3.926   2.530   4.058  1.6642  0.2352  0.5310
 3899SOL     OW23155   1.521   3.746   2.442  0.1429  0.0771 -0.2753
 3899SOL    HW123156   1.466   3.730   2.518  0.9174  0.1083  0.3008
 3899SOL    HW223157   1.502   3.837   2.421  1.0571  0.5639  1.0254
 3900SOL     OW23158   3.534   4.541  11.565 -0.1797  0.5851 -0.0201
 3900SOL    HW123159   3.452   4.491  11.571  0.7392 -0.8738  0.1634
 3900SOL    HW223160   3.540   4.541  11.470 -0.4687 -0.6132 -0.0399
 3901SOL     OW23161   4.357   0.999   2.961 -0.1863  0.3498 -0.1025
 3901SOL    HW123162   4.371   0.975   2.869  0.8436  0.7934 -0.0700
 3901SOL    HW223163   4.444   0.979   2.995  0.4888 -2.6917 -3.6436
 3902SOL     OW23164   2.626   3.445  10.672 -0.2246 -0.3394  0.5727
 3902SOL    HW123165   2.629   3.418  10.764  0.4310 -1.9926  0.0641
 3902SOL    HW223166   2.714   3.473  10.649 -1.4883  4.1271  1.3103
 3903SOL     OW23167   1.735   2.108   5.794  0.0894  0.0954  0.0878
 3903SOL    HW123168   1.805   2.046   5.776  0.8247  1.4769 -1.8314
 3903SOL    HW223169   1.780   2.189   5.768  0.5996 -0.9703 -2.2983
 3904SOL     OW23170   3.755   3.536   0.824  0.4570 -0.5042  0.2148
 3904SOL    HW123171   3.806   3.490   0.757  0.5116  0.4102 -0.3754
 3904SOL    HW223172   3.799   3.621   0.823 -0.3462 -0.0890 -0.0652
 3905SOL     OW23173   1.388   4.698   1.006 -0.4061 -0.6858  0.2795
 3905SOL    HW123174   1.481   4.710   0.988 -0.8211  2.2364 -0.0113
 3905SOL    HW223175   1.388   0.008   1.095  0.1822  1.7486 -0.6154
 3906SOL     OW23176   0.297   4.134   2.816 -0.2637 -0.0309  0.0578
 3906SOL    HW123177   0.357   4.083   2.761 -0.6345 -0.0248 -0.3601
 3906SOL    HW223178   0.339   4.220   2.820  2.7613 -1.4591 -0.6266
 3907SOL     OW23179   3.214   3.782   9.649  0.5276 -0.0763  0.2414
 3907SOL    HW123180   3.156   3.721   9.695 -0.4189  2.5784  2.5641
 3907SOL    HW223181   3.180   3.779   9.560  0.9104  1.3678  0.0570
 3908SOL     OW23182   0.002   1.793   4.246 -0.0576 -0.2705 -0.1070
 3908SOL    HW123183   4.711   1.698   4.243  0.5434 -0.4026  1.1160
 3908SOL    HW223184   0.036   1.798   4.156  0.9810 -2.3275  0.1528
 3909SOL     OW23185   0.196   0.568   8.364  0.1983  0.1465 -1.0954
 3909SOL    HW123186   0.289   0.550   8.376 -0.1040 -1.3479 -0.9328
 3909SOL    HW223187   0.167   0.492   8.415  2.1603 -1.6014 -2.5756
 3910SOL     OW23188   2.895   0.083   2.329  0.6199  0.9561  0.3173
 3910SOL    HW123189   2.944   0.086   2.412  0.2203  0.0436  0.5899
 3910SOL    HW223190   2.888   0.178   2.320 -3.8841  0.6365  0.5094
 3911SOL     OW23191   3.022   1.294   2.895  0.3216  0.2811  0.0106
 3911SOL    HW123192   2.973   1.223   2.853  1.0992 -0.6696  0.6878
 3911SOL    HW223193   3.050   1.345   2.819 -0.3869  0.5502 -0.0623
 3912SOL     OW23194   2.539   0.915   7.319 -0.4580  0.0562 -0.1045
 3912SOL    HW123195   2.528   0.928   7.413  1.5119  1.4677 -0.0748
 3912SOL    HW223196   2.525   0.821   7.317  0.8776 -0.0718 -4.0412
 3913SOL     OW23197   3.967   4.293  17.656  0.2531 -0.7906 -0.1498
 3913SOL    HW123198   3.901   4.352  17.693 -0.3933 -3.3955  2.8674
 3913SOL    HW223199   3.947   4.204  17.686 -1.3423 -1.0517 -2.0285
 3914SOL     OW23200   0.486   3.853  14.115  0.5640  0.4404 -0.6895
 3914SOL    HW123201   0.447   3.876  14.031 -1.1956 -1.9444 -0.5155
 3914SOL    HW223202   0.412   3.803  14.150  0.7938  0.7553  0.2475
 3915SOL     OW23203   2.206   0.496  10.590 -0.4085 -0.5006 -0.5222
 3915SOL    HW123204   2.288   0.540  10.568 -0.7389  0.5897  0.4031
 3915SOL    HW223205   2.150   0.570  10.613  0.8628  0.3291 -0.0784
 3916SOL     OW23206   3.981   0.246   2.928  0.2302  0.0311 -0.2980
 3916SOL    HW123207   4.067   0.207   2.910  0.6563  0.5013  0.7015
 3916SOL    HW223208   3.994   0.324   2.981 -0.8137  0.2431 -0.3587
 3917SOL     OW23209   0.990   1.283   0.206  0.2977  0.0032  0.0172
 3917SOL    HW123210   0.950   1.332   0.278 -1.7480  1.1146 -1.8709
 3917SOL    HW223211   1.084   1.290   0.223  0.8148 -3.3933 -1.5373
 3918SOL     OW23212   0.276   3.007  11.333  0.7696 -0.6563 -0.1781
 3918SOL    HW123213   0.334   2.951  11.282 -0.8467 -3.2229  0.7901
 3918SOL    HW223214   0.338   3.080  11.325  1.0738 -1.0384 -1.2796
 3919SOL     OW23215   1.951   1.261   7.417 -0.0044 -0.0577  0.3139
 3919SOL    HW123216   2.028   1.316   7.430 -0.2359  0.5695 -0.8805
 3919SOL    HW223217   1.908   1.302   7.492  1.1985  0.9506  0.4550
 3920SOL     OW23218   1.782   1.843  13.138 -0.1029  0.3161 -0.6154
 3920SOL    HW123219   1.723   1.769  13.122  0.0289  0.4351 -1.6379
 3920SOL    HW223220   1.719   1.889  13.194  1.4653 -1.0861  2.3165
 3921SOL     OW23221   2.680   3.129  12.161 -0.5893 -0.1228 -0.3668
 3921SOL    HW123222   2.752   3.178  12.201  0.9643 -0.7433 -2.3623
 3921SOL    HW223223   2.610   3.194  12.158 -1.1877 -0.6684  1.8949
 3922SOL     OW23224   3.463   3.819   3.467 -0.3252  0.0865  0.5519
 3922SOL    HW123225   3.436   3.910   3.467  0.0505  0.1999  0.4568
 3922SOL    HW223226   3.519   3.815   3.390 -0.4903 -4.3672  0.6296
 3923SOL     OW23227   4.127   2.361  14.922  0.2813  0.2227 -0.2121
 3923SOL    HW123228   4.054   2.347  14.862  1.3914  0.9337 -1.6984
 3923SOL    HW223229   4.200   2.396  14.871  0.7460 -1.2424 -0.5358
 3924SOL     OW23230   3.019   4.682   5.442  0.0477 -0.3537  0.1863
 3924SOL    HW123231   2.966   4.642   5.510  0.0118  1.4973  1.2488
 3924SOL    HW223232   3.046   4.609   5.386  0.7448  0.1114 -0.0942
 3925SOL     OW23233   0.989   1.317  13.521  0.1814  0.2008 -0.1808
 3925SOL    HW123234   0.994   1.304  13.616  0.3895 -0.9860 -0.3569
 3925SOL    HW223235   0.905   1.278  13.495  1.6290 -2.3062 -1.1354
 3926SOL     OW23236   2.729   0.986   9.551  0.2711  0.0010 -0.2793
 3926SOL    HW123237   2.749   0.957   9.462  0.8536  2.2041 -0.8568
 3926SOL    HW223238   2.752   0.912   9.606 -1.2190 -0.0165  0.3189
 3927SOL     OW23239   4.147   2.943   9.077  0.1569  0.0921 -0.4706
 3927SOL    HW123240   4.131   3.033   9.105 -1.7140 -1.1366  2.4288
 3927SOL    HW223241   4.202   2.958   9.000  1.1920  1.6071  0.5947
 3928SOL     OW23242   0.017   0.567   9.794 -0.0505  0.4544  1.1262
 3928SOL    HW123243   0.103   0.602   9.767  0.3003 -1.9439 -0.8529
 3928SOL    HW223244   4.684   0.609   9.730 -0.0761  0.7278  1.3291
 3929SOL     OW23245   0.789   0.229   1.780  0.0352 -0.0907 -0.1727
 3929SOL    HW123246   0.839   0.150   1.758  0.2906 -0.4783  1.7611
 3929SOL    HW223247   0.704   0.188   1.796 -0.6515  1.4488  0.1182
 3930SOL     OW23248   4.162   2.774   1.693 -0.1623  0.5021  0.1854
 3930SOL    HW123249   4.256   2.753   1.693  0.4041  2.9797 -0.4461
 3930SOL    HW223250   4.121   2.703   1.645  2.8395 -0.7519 -0.5129
 3931SOL     OW23251   0.352   0.489  15.577  0.2450  0.1133 -0.2067
 3931SOL    HW123252   0.397   0.574  15.577 -1.5179  1.0714  1.5649
 3931SOL    HW223253   0.413   0.434  15.529 -0.7591  0.9373 -2.4326
 3932SOL     OW23254   2.978   3.771   1.671  0.1189  0.7458 -0.6017
 3932SOL    HW123255   3.040   3.791   1.741 -0.2779  2.1686 -0.6741
 3932SOL    HW223256   3.018   3.816   1.598  1.8852  0.0477 -0.0660
 3933SOL     OW23257   2.660   2.811   5.497  0.6230  0.1250 -0.5381
 3933SOL    HW123258   2.624   2.865   5.567  2.2320 -0.3013  0.6015
 3933SOL    HW223259   2.736   2.768   5.536  0.3302  0.3262  0.2379
 3934SOL     OW23260   3.404   1.516  16.133 -0.3557  0.1716 -0.5694
 3934SOL    HW123261   3.358   1.600  16.131  0.5740  0.7323  2.4512
 3934SOL    HW223262   3.393   1.483  16.222  0.4958 -3.8984 -1.9532
 3935SOL     OW23263   0.957   4.181   2.865  0.0362 -0.2663 -0.6792
 3935SOL    HW123264   0.983   4.104   2.916  0.9336  1.2399  1.1574
 3935SOL    HW223265   0.929   4.135   2.785 -2.2153 -2.4285  1.3449
 3936SOL     OW23266   0.143   4.231   6.657 -0.9565 -0.3896 -0.6989
 3936SOL    HW123267   0.138   4.209   6.750  1.6829 -0.5692 -0.6115
 3936SOL    HW223268   0.088   4.162   6.619 -0.2355 -0.5884 -1.3794
 3937SOL     OW23269   0.145   1.233   6.070  0.5685 -0.9601 -0.2584
 3937SOL    HW123270   0.098   1.289   6.009  2.5546 -0.3838 -1.2641
 3937SOL    HW223271   0.197   1.178   6.011  1.9930 -0.8509  0.9090
 3938SOL     OW23272   4.703   1.161   6.294  0.1798 -0.2794 -0.5770
 3938SOL    HW123273   0.054   1.197   6.247 -0.6648 -0.6998 -2.2358
 3938SOL    HW223274   0.019   1.076   6.313 -0.2586 -0.4238 -0.2927
 3939SOL     OW23275   1.182   0.517   5.225 -0.0962  0.0878  0.1971
 3939SOL    HW123276   1.221   0.451   5.282 -0.5635  0.2146  0.6541
 3939SOL    HW223277   1.092   0.487   5.216  0.0800 -0.6624  0.9969
 3940SOL     OW23278   2.089   2.202   6.799  0.0559 -0.3558  0.2433
 3940SOL    HW123279   2.002   2.210   6.838  0.0381 -2.0461  0.5468
 3940SOL    HW223280   2.091   2.289   6.760  0.8483 -0.1431  0.7769
 3941SOL     OW23281   1.794   1.568   2.054  0.0315 -0.4660 -0.5673
 3941SOL    HW123282   1.766   1.477   2.058 -0.7302 -0.2391 -0.8277
 3941SOL    HW223283   1.716   1.623   2.059 -0.7830 -1.4795 -1.9427
 3942SOL     OW23284   4.505   0.568   6.762 -0.5337  0.0083 -0.1858
 3942SOL    HW123285   4.526   0.614   6.843 -0.1145  1.2979 -1.0198
 3942SOL    HW223286   4.413   0.594   6.755 -0.3987  0.5712  0.1259
 3943SOL     OW23287   0.901   0.574   8.246  0.2725  0.1630  0.1772
 3943SOL    HW123288   0.916   0.481   8.226  1.8360  0.8515 -1.9077
 3943SOL    HW223289   0.895   0.615   8.159  0.8894 -1.1254 -0.4736
 3944SOL     OW23290   3.026   2.264   9.619 -0.2009 -0.4179  0.1468
 3944SOL    HW123291   3.071   2.278   9.536  1.3811  1.1813  1.2875
 3944SOL    HW223292   3.035   2.350   9.659  0.0749  1.2611 -3.5200
 3945SOL     OW23293   1.155   2.718  13.929 -0.7022  0.4456  0.1208
 3945SOL    HW123294   1.104   2.739  14.007  0.4934  0.4162  0.9068
 3945SOL    HW223295   1.211   2.795  13.920  1.5502 -0.9785  2.0569
 3946SOL     OW23296   2.577   3.405   6.935 -0.0066  0.7039 -0.3525
 3946SOL    HW123297   2.499   3.407   6.991  1.1035 -1.4857  1.2904
 3946SOL    HW223298   2.571   3.310   6.921  1.0802  0.3049  1.8466
 3947SOL     OW23299   3.455   0.498  10.579  0.1867  0.0444 -0.4400
 3947SOL    HW123300   3.365   0.493  10.609 -0.2915  0.6529 -1.7482
 3947SOL    HW223301   3.515   0.474  10.650 -1.3374  1.4099  1.2817
 3948SOL     OW23302   1.415   4.507   2.322 -0.3953 -0.3333 -0.2911
 3948SOL    HW123303   1.444   4.418   2.344  1.1252  0.0741 -0.6577
 3948SOL    HW223304   1.391   4.496   2.230 -3.3444  0.5631  0.3787
 3949SOL     OW23305   0.256   0.756   8.893 -0.7896  0.0812  0.1353
 3949SOL    HW123306   0.319   0.708   8.839 -0.8839  1.4622 -1.2188
 3949SOL    HW223307   0.196   0.686   8.917  1.2332 -1.9888 -0.8240
 3950SOL     OW23308   1.003   0.807   8.390 -0.7272 -0.3101 -0.1998
 3950SOL    HW123309   1.017   0.791   8.484  3.0222 -0.5633 -0.8154
 3950SOL    HW223310   0.959   0.728   8.358 -1.0892  0.2131 -0.9980
 3951SOL     OW23311   4.061   0.377   3.450  0.1950  0.5957 -0.1395
 3951SOL    HW123312   4.146   0.395   3.410 -0.2146  0.4193 -1.0893
 3951SOL    HW223313   4.002   0.387   3.376  0.8081  1.6872 -0.4836
 3952SOL     OW23314   0.851   3.457   2.882 -0.3150 -0.4187  0.0960
 3952SOL    HW123315   0.821   3.412   2.961  0.0643  0.8044  0.9470
 3952SOL    HW223316   0.784   3.525   2.879  1.4480  1.2673 -1.1452
 3953SOL     OW23317   3.029   3.346   1.643  0.1626  0.2879  0.0551
 3953SOL    HW123318   2.956   3.356   1.581  1.5703  1.9793 -1.3290
 3953SOL    HW223319   3.079   3.270   1.614  0.7622  0.3466  0.9334
 3954SOL     OW23320   4.707   0.216   4.268  0.2771  0.0393 -0.4784
 3954SOL    HW123321   4.647   0.216   4.193 -0.4130 -0.6250  0.0713
 3954SOL    HW223322   4.643   0.219   4.339  2.2837  1.5083  1.2745
 3955SOL     OW23323   4.424   2.440   3.419 -0.0765  0.2596  0.0018
 3955SOL    HW123324   4.460   2.404   3.500  0.5810  0.0046 -0.4044
 3955SOL    HW223325   4.342   2.476   3.453  0.4887  0.9279  0.6717
 3956SOL     OW23326   4.310   3.579   6.707 -0.3438  0.2246 -0.4216
 3956SOL    HW123327   4.373   3.642   6.674  1.8046 -0.8696  1.6095
 3956SOL    HW223328   4.350   3.544   6.787 -1.6064 -0.5102 -0.0915
 3957SOL     OW23329   2.455   3.185   8.233  0.5389  0.5230 -0.0025
 3957SOL    HW123330   2.438   3.106   8.181  1.1449  0.7835 -0.5799
 3957SOL    HW223331   2.453   3.159   8.325 -0.1260 -0.4611 -0.2902
 3958SOL     OW23332   4.445   3.790   2.490 -0.4289  0.1321  0.2838
 3958SOL    HW123333   4.469   3.760   2.577 -0.7206  1.0442  0.6737
 3958SOL    HW223334   4.390   3.716   2.467 -1.3633  1.6598 -2.4559
 3959SOL     OW23335   2.582   1.476  12.343 -0.3675 -0.0546  0.7777
 3959SOL    HW123336   2.589   1.545  12.409  0.4519  1.5358 -0.9628
 3959SOL    HW223337   2.537   1.515  12.268  0.3493 -2.1383 -0.7357
 3960SOL     OW23338   1.552   1.224  10.670 -0.1605  0.6088 -0.5631
 3960SOL    HW123339   1.545   1.129  10.674  0.9991  0.5092 -0.8372
 3960SOL    HW223340   1.464   1.252  10.693  0.1315 -0.0708  1.4086
 3961SOL     OW23341   4.425   1.481   7.883 -0.2006 -0.0470 -0.1005
 3961SOL    HW123342   4.422   1.565   7.929 -1.7331 -1.0729  1.6285
 3961SOL    HW223343   4.386   1.503   7.798 -2.5196 -1.6359  0.5557
 3962SOL     OW23344   1.519   3.821   6.101  0.2941 -0.4349  0.1124
 3962SOL    HW123345   1.608   3.810   6.135  1.1319 -1.9617 -2.4875
 3962SOL    HW223346   1.465   3.753   6.142  1.5514 -1.6015 -0.1503
 3963SOL     OW23347   3.357   4.094   3.444  0.2054  0.0642 -0.8124
 3963SOL    HW123348   3.382   4.122   3.533  0.3321 -1.1761 -0.4602
 3963SOL    HW223349   3.423   4.128   3.384 -1.5795 -0.3355 -2.9928
 3964SOL     OW23350   4.647   1.414   6.893  0.3636 -0.2292  0.7181
 3964SOL    HW123351   4.718   1.380   6.947  0.5317  0.7882  1.1381
 3964SOL    HW223352   4.686   1.490   6.849 -0.5499 -0.6264 -0.7677
 3965SOL     OW23353   1.864   2.645   1.673 -0.6240  0.5399 -0.5982
 3965SOL    HW123354   1.927   2.659   1.744 -1.7252 -0.6118  0.6051
 3965SOL    HW223355   1.926   2.663   1.602 -0.4953 -0.0874 -0.6451
 3966SOL     OW23356   3.757   2.637   0.634  0.0160 -0.2408  0.0999
 3966SOL    HW123357   3.825   2.623   0.700 -1.9750 -1.5713  1.8525
 3966SOL    HW223358   3.678   2.596   0.670 -1.1488  1.7686 -0.1992
 3967SOL     OW23359   3.279   1.190   7.311 -0.0111  0.1437 -0.2825
 3967SOL    HW123360   3.235   1.191   7.226 -0.2693 -2.1887 -0.1724
 3967SOL    HW223361   3.291   1.283   7.330 -0.3904  0.2027 -0.3257
 3968SOL     OW23362   3.648   2.263   3.895  0.0100  0.5802  0.5986
 3968SOL    HW123363   3.617   2.354   3.894  1.5851  1.0883 -1.3013
 3968SOL    HW223364   3.714   2.286   3.961 -0.1670  1.7608  0.3599
 3969SOL     OW23365   4.295   1.286  13.310  0.0879  0.5138 -0.2708
 3969SOL    HW123366   4.225   1.262  13.250  0.9070  1.1168 -1.4729
 3969SOL    HW223367   4.271   1.243  13.392  0.5712 -2.3331 -1.5855
 3970SOL     OW23368   2.549   0.644   3.702  0.2836 -0.1502 -0.4333
 3970SOL    HW123369   2.561   0.659   3.796 -1.2342  0.9333 -0.4030
 3970SOL    HW223370   2.516   0.556   3.689 -0.6593 -0.0807  1.4915
 3971SOL     OW23371   0.911   4.160  10.024  0.2863  0.3703 -0.3946
 3971SOL    HW123372   0.904   4.166  10.119  1.0345 -1.4711 -0.2245
 3971SOL    HW223373   0.994   4.203  10.002  0.2884  0.2192 -0.6865
 3972SOL     OW23374   2.185   0.998  13.563 -0.2097 -0.0017  0.5278
 3972SOL    HW123375   2.114   0.969  13.619 -0.0665  0.4035  0.9162
 3972SOL    HW223376   2.184   1.093  13.577 -0.9190 -0.2981  2.4084
 3973SOL     OW23377   0.333   0.232   5.032 -0.4671 -0.2101 -0.1864
 3973SOL    HW123378   0.321   0.324   5.057  0.5534 -0.5706  1.6471
 3973SOL    HW223379   0.303   0.233   4.942  2.3461  0.1761 -1.1243
 3974SOL     OW23380   3.395   3.505  11.937  0.0579  0.1566 -0.8819
 3974SOL    HW123381   3.454   3.533  12.007  0.0189  1.0848 -1.2170
 3974SOL    HW223382   3.347   3.582  11.905  0.5316  1.5593  1.7786
 3975SOL     OW23383   0.233   2.448  10.408 -0.0406 -0.2484  0.2908
 3975SOL    HW123384   0.226   2.543  10.411 -0.0044 -0.2349 -0.0515
 3975SOL    HW223385   0.321   2.435  10.374  0.4192  0.6004  1.1554
 3976SOL     OW23386   2.453   1.318  13.426 -0.1549 -0.0823  0.6887
 3976SOL    HW123387   2.513   1.249  13.396  0.0105  0.4399 -0.1789
 3976SOL    HW223388   2.515   1.383  13.460 -0.8935  1.1030 -0.2506
 3977SOL     OW23389   3.690   4.241   5.160 -0.0515 -0.5235 -0.2312
 3977SOL    HW123390   3.615   4.203   5.205 -0.1647 -0.3413 -0.2633
 3977SOL    HW223391   3.756   4.194   5.211 -1.0718 -1.5809  0.1028
 3978SOL     OW23392   2.057   2.243   3.360 -0.0484 -0.8208  0.0862
 3978SOL    HW123393   1.968   2.279   3.357  0.5963  0.7208 -0.5834
 3978SOL    HW223394   2.077   2.227   3.268  0.7089 -1.3376  0.3357
 3979SOL     OW23395   2.616   1.716  15.805 -0.2935  0.2913  0.1734
 3979SOL    HW123396   2.708   1.724  15.780 -0.2017  2.1001  1.0707
 3979SOL    HW223397   2.571   1.786  15.758  0.1982  1.6671  1.7552
 3980SOL     OW23398   4.444   3.771  11.362  0.1041 -1.1615  0.2918
 3980SOL    HW123399   4.431   3.839  11.296 -2.6486  0.0603  2.0783
 3980SOL    HW223400   4.373   3.784  11.425  0.6391 -2.8700  1.2432
 3981SOL     OW23401   3.705   3.869   8.665  0.0911  0.0841  0.0744
 3981SOL    HW123402   3.799   3.857   8.678  0.1283 -1.3080 -1.5841
 3981SOL    HW223403   3.686   3.816   8.588  1.2637  0.8490 -0.7467
 3982SOL     OW23404   4.055   3.459   3.794  0.5583 -0.2572  0.0127
 3982SOL    HW123405   4.116   3.387   3.812  0.1301 -0.3911  0.9321
 3982SOL    HW223406   3.995   3.438   3.866 -0.6226 -3.2887 -1.8930
 3983SOL     OW23407   2.043   0.042   2.654 -0.9780  0.0644  0.5051
 3983SOL    HW123408   1.976   4.701   2.677 -0.3507 -0.6080  0.4134
 3983SOL    HW223409   2.125   4.717   2.653 -0.8463  0.3470 -3.8048
 3984SOL     OW23410   0.501   2.945  12.421 -0.5630  0.0224 -0.0719
 3984SOL    HW123411   0.458   2.932  12.505  0.5188  0.3908  0.5414
 3984SOL    HW223412   0.510   2.853  12.398 -2.1725  1.1180 -4.9706
 3985SOL     OW23413   4.675   2.509   5.798  0.3948 -0.6147  0.2113
 3985SOL    HW123414   4.594   2.546   5.764  1.4701  1.2207 -0.3202
 3985SOL    HW223415   4.650   2.495   5.890 -1.4441 -1.5779 -0.4285
 3986SOL     OW23416   1.726   4.231  15.414 -0.6566  0.1989  0.0489
 3986SOL    HW123417   1.637   4.194  15.421 -0.2926 -0.9645 -1.2957
 3986SOL    HW223418   1.708   4.320  15.384  0.4315  0.4720  0.2017
 3987SOL     OW23419   3.480   2.707   7.923 -0.1514 -0.8202 -0.0842
 3987SOL    HW123420   3.440   2.791   7.943  2.9368  0.9656 -1.3394
 3987SOL    HW223421   3.420   2.652   7.972  2.2987 -1.6687  1.9885
 3988SOL     OW23422   3.524   2.859  16.232  0.0296 -0.3362 -0.3935
 3988SOL    HW123423   3.609   2.896  16.207  1.4048 -3.1607  0.0811
 3988SOL    HW223424   3.465   2.899  16.169 -0.2214 -0.1209 -0.0232
 3989SOL     OW23425   0.559   2.519   8.076 -0.3102  0.2923 -0.7747
 3989SOL    HW123426   0.519   2.561   8.152 -2.1859  2.0640 -2.7404
 3989SOL    HW223427   0.495   2.448   8.068 -0.2988  0.3776 -1.6371
 3990SOL     OW23428   4.258   3.826  10.349 -0.4032  0.1436 -0.2693
 3990SOL    HW123429   4.174   3.782  10.335  1.9382 -3.9434 -1.5555
 3990SOL    HW223430   4.294   3.784  10.427  2.0102  3.7444  0.5306
 3991SOL     OW23431   2.872   2.438   3.180  0.3005  0.8612  0.7824
 3991SOL    HW123432   2.811   2.389   3.123 -1.2684  0.1422  3.0668
 3991SOL    HW223433   2.933   2.475   3.117  1.3237 -1.0912  0.6262
 3992SOL     OW23434   0.433   2.493   5.868 -0.9447 -0.2203  1.0292
 3992SOL    HW123435   0.353   2.502   5.816  1.9897  0.5884 -3.3407
 3992SOL    HW223436   0.445   2.401   5.844 -0.5713  0.5069 -1.6275
 3993SOL     OW23437   3.335   2.603  12.279 -0.3266  0.7883 -0.6867
 3993SOL    HW123438   3.362   2.614  12.370  1.1045  1.9384 -1.2616
 3993SOL    HW223439   3.259   2.662  12.273 -0.8465 -0.1088 -2.6833
 3994SOL     OW23440   1.690   3.303   2.933 -0.0939 -0.3720 -0.4386
 3994SOL    HW123441   1.733   3.221   2.911  0.8029  0.5207 -1.9645
 3994SOL    HW223442   1.636   3.325   2.857  0.5002  3.5155  0.2431
 3995SOL     OW23443   4.102   0.834   4.359  0.6134 -0.3741 -0.0047
 3995SOL    HW123444   4.030   0.771   4.353  0.9030 -0.5206 -2.0562
 3995SOL    HW223445   4.156   0.786   4.421 -0.9915 -2.2094 -0.0270
 3996SOL     OW23446   4.583   1.027   6.750  0.0071 -0.4395 -0.2914
 3996SOL    HW123447   4.566   0.962   6.681  3.0632 -1.3486 -0.2185
 3996SOL    HW223448   4.654   0.978   6.792  1.0025  1.1558 -0.1389
 3997SOL     OW23449   4.205   3.206   9.093 -0.2568  0.0046  0.2746
 3997SOL    HW123450   4.169   3.232   9.009  1.2136  1.6376  0.1616
 3997SOL    HW223451   4.291   3.246   9.090  0.1017 -0.6994  1.1484
 3998SOL     OW23452   4.344   1.232   9.583 -0.3136 -0.6941 -0.7817
 3998SOL    HW123453   4.351   1.323   9.611 -0.7580 -1.0614  0.5208
 3998SOL    HW223454   4.352   1.191   9.669  1.3169  4.5169  1.5631
 3999SOL     OW23455   2.015   3.780   8.629 -0.1843 -0.6488 -0.2202
 3999SOL    HW123456   2.105   3.762   8.600 -0.8388 -2.0508 -1.3263
 3999SOL    HW223457   2.024   3.792   8.724 -1.1184  0.7548 -0.2991
 4000SOL     OW23458   4.232   1.043  13.771 -0.8490  0.0546 -0.1180
 4000SOL    HW123459   4.287   0.975  13.731  0.5464  0.9976  0.2110
 4000SOL    HW223460   4.182   1.014  13.847 -0.5129 -1.3037 -0.4079
 4001SOL     OW23461   1.249   0.738   8.220 -0.4891  0.1734  0.8760
 4001SOL    HW123462   1.337   0.752   8.255 -0.0219 -0.4064 -0.0473
 4001SOL    HW223463   1.202   0.815   8.252 -0.5515 -0.1355  1.5061
 4002SOL     OW23464   1.840   2.717   1.260  0.0495 -0.5261 -0.6123
 4002SOL    HW123465   1.757   2.684   1.295  0.4449  1.2800  2.0305
 4002SOL    HW223466   1.801   2.792   1.215 -1.0685 -0.6747  0.0956
 4003SOL     OW23467   1.711   1.049   6.608 -0.1941 -0.2107  0.1988
 4003SOL    HW123468   1.694   1.001   6.528  0.3116 -1.8219  1.0626
 4003SOL    HW223469   1.666   0.988   6.666 -0.9863  0.4243  0.2611
 4004SOL     OW23470   4.720   4.088   4.218  0.0451  0.4477 -0.1464
 4004SOL    HW123471   4.653   4.146   4.255 -0.3312  0.1662 -0.3861
 4004SOL    HW223472   4.704   4.012   4.274 -2.4404  0.4560 -0.8671
 4005SOL     OW23473   3.053   3.007  15.169 -0.1455 -0.0366 -0.6159
 4005SOL    HW123474   3.088   3.034  15.254 -0.7563 -1.4191  0.0758
 4005SOL    HW223475   3.123   3.023  15.105  1.0872  0.0356  0.7595
 4006SOL     OW23476   4.172   4.143   5.831  0.0965 -0.1091 -0.0060
 4006SOL    HW123477   4.171   4.235   5.807  0.8487 -0.3969 -1.1361
 4006SOL    HW223478   4.208   4.153   5.919 -2.0772  3.2377  0.5076
 4007SOL     OW23479   4.571   3.314   4.600  0.8987  0.1427 -0.3310
 4007SOL    HW123480   4.520   3.375   4.547  0.7622 -2.6217 -3.3291
 4007SOL    HW223481   4.630   3.384   4.628  0.1665 -0.0373  1.6968
 4008SOL     OW23482   2.478   0.100   1.767  0.2728 -0.2786  0.2044
 4008SOL    HW123483   2.459   0.173   1.708  1.7733  0.7387  0.9809
 4008SOL    HW223484   2.498   0.028   1.707 -3.3363 -1.1448  0.0675
 4009SOL     OW23485   1.458   0.935   4.677  0.0659 -0.2707 -0.3396
 4009SOL    HW123486   1.464   0.840   4.666  1.6767 -0.5233  2.5774
 4009SOL    HW223487   1.446   0.940   4.772  1.1356  0.7206 -0.2706
 4010SOL     OW23488   4.044   3.810   9.630 -0.2099  0.0960 -0.2737
 4010SOL    HW123489   3.999   3.752   9.691  1.1983 -0.2336  0.4721
 4010SOL    HW223490   4.136   3.792   9.654 -1.2202 -1.9668  2.0743
 4011SOL     OW23491   2.853   4.113   1.299 -0.4168 -0.0695  0.1722
 4011SOL    HW123492   2.788   4.178   1.327  0.4228  0.3800  1.0801
 4011SOL    HW223493   2.817   4.086   1.214 -1.2044  0.9054  0.1941
 4012SOL     OW23494   2.038   2.532   5.065 -0.0682 -0.2416  0.6372
 4012SOL    HW123495   2.120   2.493   5.095  0.2728  1.0860  1.4409
 4012SOL    HW223496   1.978   2.478   5.117  1.3539 -2.0916  0.3477
 4013SOL     OW23497   2.561   1.241   3.381  0.2316  0.6121  0.3376
 4013SOL    HW123498   2.589   1.156   3.415 -1.8532 -0.2640 -0.1273
 4013SOL    HW223499   2.498   1.223   3.312  0.1586 -0.5834  0.7144
 4014SOL     OW23500   3.048   0.316   8.095  0.3057 -0.2580 -0.4206
 4014SOL    HW123501   3.010   0.232   8.122  1.7699 -0.4348  1.1052
 4014SOL    HW223502   2.978   0.375   8.122  0.3300  0.1232 -1.1989
 4015SOL     OW23503   4.552   0.347   7.952  0.0548  0.4407  0.0066
 4015SOL    HW123504   4.597   0.409   7.895  0.5679 -0.1849 -0.2680
 4015SOL    HW223505   4.532   0.403   8.027 -0.7235  1.0147 -0.6319
 4016SOL     OW23506   3.677   3.618  14.725 -0.1926  0.0695 -0.1139
 4016SOL    HW123507   3.621   3.619  14.647 -0.1079 -3.2248 -0.2299
 4016SOL    HW223508   3.619   3.589  14.796  2.7835 -1.6648  1.5772
 4017SOL     OW23509   0.650   4.414   2.029 -0.4167 -0.2984  0.2490
 4017SOL    HW123510   0.743   4.406   2.050 -1.0156 -2.4377  2.1372
 4017SOL    HW223511   0.645   4.369   1.944 -0.2642 -0.7547  0.4822
 4018SOL     OW23512   0.921   0.135   3.972  0.5571 -0.5592 -0.1121
 4018SOL    HW123513   0.974   0.209   4.001  1.1835  0.5435 -4.1392
 4018SOL    HW223514   0.837   0.179   3.988  0.4441 -1.2787  1.2989
 4019SOL     OW23515   1.078   0.194   2.022  0.1668 -0.2653  0.5322
 4019SOL    HW123516   1.107   0.286   2.029 -2.6944  0.6149  0.6771
 4019SOL    HW223517   1.137   0.155   1.958 -1.9390 -0.9051 -1.0152
 4020SOL     OW23518   1.423   1.147   8.225 -0.5520 -0.1368  0.2010
 4020SOL    HW123519   1.360   1.075   8.226  0.7997 -1.3663 -1.8546
 4020SOL    HW223520   1.457   1.136   8.314  0.9622  0.8405 -0.2458
 4021SOL     OW23521   4.583   2.352   1.934 -0.2921  0.5913  0.2513
 4021SOL    HW123522   4.598   2.447   1.934  1.6580  0.2875  1.5066
 4021SOL    HW223523   4.489   2.349   1.954 -0.1687  0.8013  0.8443
 4022SOL     OW23524   2.540   0.639   2.154 -0.0230  0.0954  0.4915
 4022SOL    HW123525   2.606   0.587   2.199  1.8839  2.6184  0.5551
 4022SOL    HW223526   2.547   0.724   2.196 -1.8368  0.9674 -0.9467
 4023SOL     OW23527   3.207   2.195   0.426 -0.3307 -0.1907 -0.3581
 4023SOL    HW123528   3.188   2.104   0.448 -0.1619 -0.0458  0.3837
 4023SOL    HW223529   3.178   2.240   0.505 -4.4532 -1.3117 -1.2291
 4024SOL     OW23530   2.130   1.932   7.865 -0.0616  0.0036  0.2230
 4024SOL    HW123531   2.195   1.866   7.891  1.2704  1.0265 -0.4694
 4024SOL    HW223532   2.148   1.999   7.932 -0.9093  0.3792  0.0736
 4025SOL     OW23533   1.954   3.148   2.995 -0.7730  0.2648  0.5215
 4025SOL    HW123534   1.981   3.061   2.967  0.2239  0.3202  1.3032
 4025SOL    HW223535   2.032   3.197   2.969 -0.1839 -0.1273  1.5165
 4026SOL     OW23536   3.057   2.682   2.284  0.4323  0.6489 -0.1754
 4026SOL    HW123537   3.104   2.600   2.295 -1.6401 -0.2729  1.8152
 4026SOL    HW223538   2.971   2.649   2.308 -0.2652  0.6258 -2.7088
 4027SOL     OW23539   4.155   3.001   2.169 -0.6925  0.2407 -0.0955
 4027SOL    HW123540   4.231   3.055   2.190  0.1692 -0.0420 -2.5168
 4027SOL    HW223541   4.125   2.987   2.259 -1.8647 -0.1113 -0.5338
 4028SOL     OW23542   2.104   4.452   3.636 -0.3508 -0.1704 -0.0768
 4028SOL    HW123543   2.112   4.362   3.667 -0.3178 -0.3985 -0.7677
 4028SOL    HW223544   2.127   4.496   3.718 -1.0550  0.5211 -0.2475
 4029SOL     OW23545   2.315   3.096   3.173 -0.1902  0.3364 -0.4661
 4029SOL    HW123546   2.275   3.167   3.122  2.0909  1.6725 -0.4102
 4029SOL    HW223547   2.365   3.054   3.103  3.0256  1.8847  0.8945
 4030SOL     OW23548   4.147   1.469   5.379  0.0813  0.1523  0.2117
 4030SOL    HW123549   4.200   1.391   5.393  1.1334  1.1102  1.5152
 4030SOL    HW223550   4.069   1.431   5.338  1.5824 -0.6590 -1.8854
 4031SOL     OW23551   0.619   0.122   4.377  0.2486  0.5744  0.0421
 4031SOL    HW123552   0.712   0.139   4.395 -0.3000  1.5814  1.9112
 4031SOL    HW223553   0.580   0.103   4.463  0.2651 -0.5018 -0.1835
 4032SOL     OW23554   2.168   0.558   3.774  0.1662 -0.1622 -0.0837
 4032SOL    HW123555   2.187   0.585   3.684 -0.1101  1.5536  0.3657
 4032SOL    HW223556   2.219   0.621   3.825 -0.6744 -0.4207  1.0901
 4033SOL     OW23557   0.345   1.470   3.102  0.5394 -0.5020  0.5324
 4033SOL    HW123558   0.354   1.451   3.008  1.3039  1.3079  0.2384
 4033SOL    HW223559   0.267   1.426   3.136  0.7213 -1.8902 -0.8337
 4034SOL     OW23560   4.007   1.727   4.720  0.0791 -0.0317 -0.2247
 4034SOL    HW123561   3.967   1.811   4.745 -0.1282 -0.3513  0.5173
 4034SOL    HW223562   3.973   1.723   4.630 -0.9891 -1.4729  0.2375
 4035SOL     OW23563   3.720   3.990  12.334 -0.4658 -0.5369 -0.5691
 4035SOL    HW123564   3.758   3.949  12.256  1.9686 -2.4255  1.6017
 4035SOL    HW223565   3.777   4.067  12.345  0.2562 -1.1354 -0.1005
 4036SOL     OW23566   3.536   4.544  15.785  0.6703 -0.0585 -0.1537
 4036SOL    HW123567   3.610   4.493  15.817  0.2893 -0.1965  0.5142
 4036SOL    HW223568   3.550   4.633  15.816 -2.4657  0.1176  0.7563
 4037SOL     OW23569   0.512   1.192   2.246  0.0956 -0.1502 -0.1603
 4037SOL    HW123570   0.436   1.191   2.188  0.2154 -1.2085 -0.2892
 4037SOL    HW223571   0.517   1.097   2.257 -1.1380 -0.2289 -0.2707
 4038SOL     OW23572   3.800   0.981   0.817  0.3982 -0.0059 -0.0493
 4038SOL    HW123573   3.770   1.071   0.832  2.5510  0.3660  1.9361
 4038SOL    HW223574   3.802   0.946   0.906  1.5878 -0.6269 -0.3278
 4039SOL     OW23575   2.476   2.592   2.851 -0.1503  0.6173 -0.4352
 4039SOL    HW123576   2.479   2.607   2.945  0.5770  0.8520 -0.4977
 4039SOL    HW223577   2.414   2.659   2.821 -0.9406 -0.1293 -0.4596
 4040SOL     OW23578   0.994   2.040   3.963  0.2124  0.1907  0.3394
 4040SOL    HW123579   1.018   2.099   3.892 -0.7609 -1.4573 -1.3667
 4040SOL    HW223580   0.901   2.061   3.966 -0.1619 -1.0962 -2.0871
 4041SOL     OW23581   0.154   3.174   3.275  0.2584 -0.0087 -0.1954
 4041SOL    HW123582   0.201   3.198   3.195  1.3235 -1.7841 -0.0934
 4041SOL    HW223583   0.206   3.212   3.346 -0.1077 -1.1315  0.6782
 4042SOL     OW23584   1.322   1.150   9.976  0.4136  0.7274  0.5104
 4042SOL    HW123585   1.292   1.237   9.951 -0.6478 -0.5008 -2.4153
 4042SOL    HW223586   1.416   1.172   9.980  0.3227  1.0541  0.8688
 4043SOL     OW23587   2.769   1.601  11.964  0.0933 -0.0190 -0.0207
 4043SOL    HW123588   2.795   1.614  12.056 -0.3479  1.0120 -0.0379
 4043SOL    HW223589   2.838   1.655  11.925 -0.5174 -0.0657 -1.1732
 4044SOL     OW23590   0.354   4.476   7.988  0.6248  0.3722  0.1652
 4044SOL    HW123591   0.428   4.416   7.984  1.8090  1.9650 -1.8119
 4044SOL    HW223592   0.353   4.477   8.083  2.2809  1.9401  0.1689
 4045SOL     OW23593   2.829   1.837  16.316  0.3332  0.1507  0.0548
 4045SOL    HW123594   2.889   1.887  16.260 -0.1970 -0.2658 -0.8811
 4045SOL    HW223595   2.748   1.812  16.273  1.0412  3.2521 -3.0871
 4046SOL     OW23596   0.766   2.385   7.401  0.1134 -0.0480 -0.0346
 4046SOL    HW123597   0.689   2.329   7.408  0.8891 -1.0943  0.1178
 4046SOL    HW223598   0.743   2.449   7.468  1.4752  0.1758  0.2032
 4047SOL     OW23599   2.826   0.850   9.341  0.7419 -0.2818 -0.0522
 4047SOL    HW123600   2.905   0.796   9.332  0.3327 -0.6318 -1.4528
 4047SOL    HW223601   2.832   0.906   9.264  0.3306 -1.2828 -0.8074
 4048SOL     OW23602   2.277   2.669   8.724 -0.6868 -0.7331 -0.0828
 4048SOL    HW123603   2.277   2.626   8.810 -1.0895 -0.0578  0.2475
 4048SOL    HW223604   2.249   2.757   8.746 -0.4966 -0.8759  0.7384
 4049SOL     OW23605   0.805   3.985  10.603 -0.2000 -0.1768 -0.1129
 4049SOL    HW123606   0.736   4.049  10.617 -1.7610 -2.2449  1.6249
 4049SOL    HW223607   0.840   4.021  10.521 -2.3255 -3.6027 -2.5566
 4050SOL     OW23608   3.260   1.518   4.567  0.9493 -0.2168  0.3136
 4050SOL    HW123609   3.355   1.521   4.580  1.0610 -0.4222 -0.4593
 4050SOL    HW223610   3.252   1.574   4.490  1.2977 -0.1820  0.3033
 4051SOL     OW23611   2.246   3.090   4.200 -0.0390 -0.0083  0.2265
 4051SOL    HW123612   2.153   3.085   4.178  0.2585  0.2825 -1.1152
 4051SOL    HW223613   2.279   3.007   4.166 -0.5332  0.5749 -1.7009
 4052SOL     OW23614   0.543   1.575   3.247  0.6459  0.8955  0.6841
 4052SOL    HW123615   0.473   1.535   3.195  0.9762  0.9486  0.2024
 4052SOL    HW223616   0.494   1.588   3.329  2.4154 -0.8052  1.9870
 4053SOL     OW23617   2.666   4.690  16.180  0.2568 -0.3395 -0.5106
 4053SOL    HW123618   2.576   4.659  16.165  0.2341 -0.9025  0.7865
 4053SOL    HW223619   2.713   4.613  16.212 -0.7644  0.0439  1.9209
 4054SOL     OW23620   2.593   1.637   7.886 -0.0659  0.3400  0.6257
 4054SOL    HW123621   2.564   1.560   7.937 -0.2012 -0.7827 -1.1453
 4054SOL    HW223622   2.686   1.622   7.900 -0.3289 -1.4485  0.5663
 4055SOL     OW23623   0.749   2.299   2.272  0.5604  0.2510  0.1096
 4055SOL    HW123624   0.700   2.374   2.305  1.0613  0.0037  1.4615
 4055SOL    HW223625   0.680   2.252   2.225  3.0367 -1.2999 -1.9857
 4056SOL     OW23626   4.169   4.071  14.528 -0.3809 -0.1382  0.1841
 4056SOL    HW123627   4.149   4.163  14.513 -1.2405 -0.2734  0.4645
 4056SOL    HW223628   4.248   4.061  14.475  0.3536  0.5689  1.1460
 4057SOL     OW23629   2.885   2.030   3.058  0.6733 -0.5897 -0.2676
 4057SOL    HW123630   2.942   2.066   2.990  0.7281  0.2385  0.2205
 4057SOL    HW223631   2.813   2.091   3.065 -0.2779 -1.4692 -2.3837
 4058SOL     OW23632   3.519   2.325   6.916 -0.5995  0.0901 -0.7637
 4058SOL    HW123633   3.511   2.246   6.969 -3.2022  0.4949 -0.5250
 4058SOL    HW223634   3.609   2.319   6.886  0.1386 -2.7583  2.0455
 4059SOL     OW23635   4.486   0.538   4.397 -0.6455 -0.3040  0.5591
 4059SOL    HW123636   4.558   0.565   4.341 -0.9485 -0.5432  0.0563
 4059SOL    HW223637   4.474   0.603   4.467 -0.3053  0.6480 -0.2734
 4060SOL     OW23638   1.930   4.580  15.283 -0.0174 -0.2961 -0.7381
 4060SOL    HW123639   1.875   4.577  15.361  0.8855 -0.2738 -0.1033
 4060SOL    HW223640   1.969   4.493  15.276 -0.2766 -0.2427 -2.7806
 4061SOL     OW23641   3.063   4.611   6.728  0.2911 -0.4708  0.0401
 4061SOL    HW123642   3.071   4.517   6.709 -1.7026 -1.1252  2.4852
 4061SOL    HW223643   3.152   4.645   6.722  0.8515 -1.8019  0.7929
 4062SOL     OW23644   2.958   3.816  15.397  0.0308  0.0774 -0.0257
 4062SOL    HW123645   2.908   3.786  15.473  0.5569 -2.7656 -0.8240
 4062SOL    HW223646   3.045   3.825  15.435  0.2309  0.4269 -0.5671
 4063SOL     OW23647   3.541   4.398  12.408 -0.6345  0.0962  0.6078
 4063SOL    HW123648   3.484   4.428  12.478 -0.5285 -1.5467  1.3960
 4063SOL    HW223649   3.547   4.305  12.429 -0.4334  0.2186  1.0904
 4064SOL     OW23650   0.503   3.108   4.412 -0.1164 -0.6606 -0.3526
 4064SOL    HW123651   0.497   3.125   4.318  0.3424  0.3445 -0.2026
 4064SOL    HW223652   0.427   3.054   4.432 -0.4718 -0.4264 -1.0813
 4065SOL     OW23653   3.800   3.513  14.411 -0.3130  0.3299  0.1501
 4065SOL    HW123654   3.856   3.501  14.334  0.5139 -0.3165  0.8600
 4065SOL    HW223655   3.810   3.422  14.439 -1.5338  0.1608  0.0399
 4066SOL     OW23656   1.961   0.824  11.263  0.0013  0.3071  0.1545
 4066SOL    HW123657   2.000   0.859  11.343 -1.3453  3.5232 -0.6195
 4066SOL    HW223658   2.020   0.754  11.235 -1.4305  0.5401 -3.4277
 4067SOL     OW23659   3.738   2.199  14.689  0.0870  0.1298 -0.0300
 4067SOL    HW123660   3.739   2.196  14.594 -0.1283 -0.8589 -0.0021
 4067SOL    HW223661   3.807   2.137  14.711  0.6331 -0.2697 -2.9385
 4068SOL     OW23662   4.287   4.318   9.037  0.0863  0.0153  0.3402
 4068SOL    HW123663   4.334   4.375   9.097 -1.7242  1.3465  0.4922
 4068SOL    HW223664   4.195   4.328   9.064  0.0728  0.3971  0.1449
 4069SOL     OW23665   2.085   4.321   6.214 -0.5593  0.4326  0.0912
 4069SOL    HW123666   2.120   4.268   6.141  1.1794  2.0935 -0.2786
 4069SOL    HW223667   2.107   4.413   6.202 -0.3200  0.0883 -2.1358
 4070SOL     OW23668   2.689   1.131   6.809  0.2341 -0.0463 -0.2610
 4070SOL    HW123669   2.616   1.187   6.781 -1.1451 -0.2169  2.9331
 4070SOL    HW223670   2.680   1.116   6.903 -0.3287  0.4951 -0.2225
 4071SOL     OW23671   3.472   1.678   3.591  0.5214  0.0969  0.2758
 4071SOL    HW123672   3.399   1.716   3.541  0.4420  1.2181  1.2520
 4071SOL    HW223673   3.483   1.593   3.548  1.2521 -1.1664  2.9423
 4072SOL     OW23674   1.710   3.565  14.618 -0.0272  0.5655  0.4990
 4072SOL    HW123675   1.625   3.574  14.662 -0.4728  1.8590 -0.6268
 4072SOL    HW223676   1.675   3.522  14.540  1.2844 -1.6688  1.1778
 4073SOL     OW23677   3.619   1.600   7.141  0.1293 -0.3086 -0.0934
 4073SOL    HW123678   3.659   1.544   7.207  0.9006  0.2290 -0.1069
 4073SOL    HW223679   3.682   1.597   7.069  0.5150  0.9518  0.1874
 4074SOL     OW23680   1.684   2.845   6.424 -0.6453  0.0635  0.0581
 4074SOL    HW123681   1.637   2.891   6.494 -0.3674 -0.0953  0.3470
 4074SOL    HW223682   1.617   2.852   6.356  0.1244 -0.5387 -0.7653
 4075SOL     OW23683   1.340   0.623   3.911  0.2391 -0.0244 -0.5388
 4075SOL    HW123684   1.327   0.562   3.983 -0.0024  1.6865  0.8411
 4075SOL    HW223685   1.345   0.560   3.838 -3.3852  2.3704 -2.8251
 4076SOL     OW23686   2.871   0.707   2.274 -0.2169  0.2662 -0.1233
 4076SOL    HW123687   2.897   0.645   2.342  1.2531 -1.7671 -2.5333
 4076SOL    HW223688   2.894   0.793   2.310  0.9079  0.3538 -1.0572
 4077SOL     OW23689   0.339   3.475   8.478  0.6725  0.0447  0.6339
 4077SOL    HW123690   0.338   3.460   8.383  1.3794 -0.7095  0.7436
 4077SOL    HW223691   0.380   3.562   8.481  2.0341 -0.5246 -1.3088
 4078SOL     OW23692   0.262   0.940   4.317  0.2714 -0.1990 -0.6827
 4078SOL    HW123693   0.188   0.998   4.334 -0.0037 -1.1371  1.2515
 4078SOL    HW223694   0.325   1.004   4.350  0.2995  0.5234 -2.1327
 4079SOL     OW23695   0.388   4.455   6.941 -0.3522  0.4857 -0.0417
 4079SOL    HW123696   0.297   4.451   6.971 -0.5431  1.8748 -0.4448
 4079SOL    HW223697   0.434   4.496   7.014  0.8143 -3.1072  1.2028
 4080SOL     OW23698   1.732   4.023  11.089 -0.2685 -0.7133  0.1290
 4080SOL    HW123699   1.822   4.034  11.117 -0.0861  0.3594 -0.9300
 4080SOL    HW223700   1.747   4.048  10.998  1.6281  1.7213  1.1170
 4081SOL     OW23701   0.031   2.248   9.539 -0.0259 -0.2923  0.1961
 4081SOL    HW123702   0.115   2.294   9.533 -1.1349  1.6613 -0.2255
 4081SOL    HW223703   0.046   2.205   9.624 -1.6706 -1.7521 -0.2586
 4082SOL     OW23704   3.878   0.373   3.259 -0.1140 -0.2705 -0.5297
 4082SOL    HW123705   3.787   0.351   3.239 -0.1850 -0.0218 -0.4693
 4082SOL    HW223706   3.900   0.421   3.179 -1.8648 -0.4515 -1.1368
 4083SOL     OW23707   1.368   3.420   3.052  0.3462 -0.4393 -0.0376
 4083SOL    HW123708   1.306   3.348   3.064 -0.3183  0.0761 -0.3808
 4083SOL    HW223709   1.429   3.405   3.124 -1.0750 -0.1648  1.2449
 4084SOL     OW23710   1.226   3.202   3.134 -0.1001 -0.3023 -0.1257
 4084SOL    HW123711   1.256   3.156   3.212  0.8848  2.5195  1.1436
 4084SOL    HW223712   1.135   3.172   3.139  0.5176 -1.7849  2.1348
 4085SOL     OW23713   3.644   0.046   2.901  0.0006 -0.1817  0.1093
 4085SOL    HW123714   3.629   4.721   2.819 -0.6724 -1.0798  0.7654
 4085SOL    HW223715   3.595   0.127   2.891 -1.3692 -0.6273  3.2787
 4086SOL     OW23716   4.238   3.242  13.925 -0.1634 -0.5582  0.4050
 4086SOL    HW123717   4.172   3.229  13.992 -0.1731  0.4028  0.5845
 4086SOL    HW223718   4.296   3.170  13.951 -2.7440 -2.7082  0.1749
 4087SOL     OW23719   1.826   0.849   2.407  0.3117  0.3743  0.0462
 4087SOL    HW123720   1.846   0.892   2.324  1.2718 -1.0177 -0.4507
 4087SOL    HW223721   1.732   0.833   2.406  0.1797  1.1559  0.1343
 4088SOL     OW23722   3.844   0.450   7.837 -0.1296  0.3123 -0.4939
 4088SOL    HW123723   3.785   0.402   7.780 -1.8233  1.5506  0.2226
 4088SOL    HW223724   3.788   0.458   7.915  1.4154 -0.4776  0.6903
 4089SOL     OW23725   3.064   2.129   4.511 -0.2524  0.0991  0.1039
 4089SOL    HW123726   3.147   2.167   4.483 -0.7916  0.9802 -0.3207
 4089SOL    HW223727   3.053   2.163   4.599  0.3086 -1.6446  0.8427
 4090SOL     OW23728   3.154   4.554   3.858 -0.2476  0.2994  0.2097
 4090SOL    HW123729   3.230   4.554   3.916  1.8609 -1.0620 -2.5425
 4090SOL    HW223730   3.201   4.544   3.775 -1.6534  0.7229 -0.6270
 4091SOL     OW23731   1.833   3.058   7.345 -0.4749 -0.1038 -0.0217
 4091SOL    HW123732   1.883   3.004   7.406  0.6539  2.2282  1.0952
 4091SOL    HW223733   1.889   3.135   7.345 -0.4079 -0.1521 -0.1596
 4092SOL     OW23734   1.054   2.085   9.233  0.4799  0.0702 -0.0986
 4092SOL    HW123735   1.015   2.142   9.300  0.8495  0.0573  0.1266
 4092SOL    HW223736   0.979   2.039   9.196 -0.7147  0.9844  1.1938
 4093SOL     OW23737   3.965   1.988   5.426 -0.3157  0.0266  0.3083
 4093SOL    HW123738   3.887   1.932   5.416  0.1024 -0.5203  0.0954
 4093SOL    HW223739   3.917   2.054   5.476  1.3232  3.2141 -2.3586
 4094SOL     OW23740   0.107   3.535   2.527 -0.2756  0.1475  0.0699
 4094SOL    HW123741   0.147   3.620   2.548  1.6954 -1.2425  1.9843
 4094SOL    HW223742   0.181   3.476   2.542 -1.0360 -0.8476 -0.0756
 4095SOL     OW23743   0.227   1.021  13.640  0.0354 -0.1187  0.1426
 4095SOL    HW123744   0.179   1.007  13.559 -1.7061 -0.1137  1.1858
 4095SOL    HW223745   0.228   1.116  13.650  4.2551 -0.2167  0.9453
 4096SOL     OW23746   2.240   1.063   6.507 -0.1424  0.4163 -0.1319
 4096SOL    HW123747   2.266   1.064   6.599 -0.8299  2.3114  0.0279
 4096SOL    HW223748   2.236   1.156   6.485  1.6077  0.5445  0.0667
 4097SOL     OW23749   4.329   4.670  13.644  0.2380 -0.4505  0.9183
 4097SOL    HW123750   4.257   4.610  13.665  2.9110 -3.9215  0.2525
 4097SOL    HW223751   4.290   0.032  13.661  1.8143  0.2466  1.0474
 4098SOL     OW23752   1.467   1.326   5.295 -0.3930 -0.6122 -0.0218
 4098SOL    HW123753   1.480   1.348   5.202 -0.6467  3.1601  0.8382
 4098SOL    HW223754   1.501   1.237   5.295  1.5648  0.1488 -1.2679
 4099SOL     OW23755   2.991   1.097   9.621 -0.2158 -0.8197  0.2838
 4099SOL    HW123756   2.979   1.011   9.663  1.8179 -0.9094  0.7249
 4099SOL    HW223757   3.056   1.084   9.552 -0.1308 -0.8130  0.3618
 4100SOL     OW23758   4.207   3.469   7.428 -0.5779  0.0096  0.3603
 4100SOL    HW123759   4.300   3.467   7.449 -0.9505  1.3839  2.1726
 4100SOL    HW223760   4.196   3.532   7.356 -1.0130  0.1498  0.5482
 4101SOL     OW23761   1.641   2.080   5.028  0.0271 -0.4908  0.0446
 4101SOL    HW123762   1.699   2.018   4.983  1.3176  1.7642 -1.3865
 4101SOL    HW223763   1.623   2.028   5.107 -2.2370  2.0084  1.1875
 4102SOL     OW23764   0.343   4.700   2.476 -0.3177  0.8483  0.1117
 4102SOL    HW123765   0.384   0.053   2.516  3.8022 -0.6739 -1.0935
 4102SOL    HW223766   0.410   4.682   2.410 -0.2210  1.2216  0.1063
 4103SOL     OW23767   0.702   4.092   8.669 -0.0798  0.3953 -0.4421
 4103SOL    HW123768   0.637   4.152   8.705 -0.1431 -0.5658  1.0522
 4103SOL    HW223769   0.778   4.145   8.643 -0.2408  1.5422  1.4588
 4104SOL     OW23770   4.247   1.454   4.997 -0.0572  0.4537 -0.4445
 4104SOL    HW123771   4.162   1.492   4.975 -0.7593 -0.3054  0.8958
 4104SOL    HW223772   4.306   1.529   5.006  0.5406 -0.2877  1.8919
 4105SOL     OW23773   2.740   4.389  11.341 -0.1134 -0.3117 -0.1171
 4105SOL    HW123774   2.690   4.315  11.377 -0.4588  0.4112  0.9199
 4105SOL    HW223775   2.701   4.399  11.254  0.6734 -1.3641 -0.5915
 4106SOL     OW23776   2.775   3.472   5.924 -0.0124  0.3952  0.2144
 4106SOL    HW123777   2.739   3.545   5.975  1.0804  0.4648  0.8943
 4106SOL    HW223778   2.767   3.392   5.974 -0.3286 -0.9514 -1.9855
 4107SOL     OW23779   0.767   0.027   7.123  0.5285  0.7174  0.5120
 4107SOL    HW123780   0.756   4.660   7.152  1.9506  0.1888 -0.5759
 4107SOL    HW223781   0.793   0.076   7.201  1.6665  0.6920  0.1385
 4108SOL     OW23782   3.216   2.222   8.255 -0.0611  0.1306 -0.2689
 4108SOL    HW123783   3.124   2.247   8.254  0.1860  1.1426  1.6056
 4108SOL    HW223784   3.240   2.233   8.163 -0.2626 -3.1218 -0.7214
 4109SOL     OW23785   3.852   3.580   7.729 -0.0886 -0.2582 -0.2117
 4109SOL    HW123786   3.852   3.560   7.636  0.2751  1.3020 -0.5419
 4109SOL    HW223787   3.825   3.671   7.729 -2.7751 -1.0458 -1.2820
 4110SOL     OW23788   1.050   3.725   9.291 -1.0000  0.0364  0.3377
 4110SOL    HW123789   1.070   3.710   9.383 -0.0992 -1.2425 -0.0653
 4110SOL    HW223790   1.093   3.810   9.282 -1.0317  0.0988  0.8130
 4111SOL     OW23791   3.722   1.308   2.413 -0.1804  0.1746 -0.0469
 4111SOL    HW123792   3.801   1.347   2.377  0.4857 -0.2647  0.9296
 4111SOL    HW223793   3.698   1.241   2.349  1.3450  0.0834 -0.5143
 4112SOL     OW23794   3.456   3.447  11.671  0.6517  0.8659  0.5127
 4112SOL    HW123795   3.527   3.496  11.628  0.3531 -0.5214 -1.5379
 4112SOL    HW223796   3.470   3.459  11.765  0.0427  1.8901  0.4729
 4113SOL     OW23797   3.766   0.596   5.748  0.0224 -0.4341  0.0349
 4113SOL    HW123798   3.799   0.519   5.703 -0.0442 -0.1581 -0.4888
 4113SOL    HW223799   3.794   0.586   5.839 -0.0646 -0.1550  0.0933
 4114SOL     OW23800   4.073   3.402   2.100  0.2293 -1.1630  0.2010
 4114SOL    HW123801   4.101   3.350   2.175 -1.4598 -0.4763  1.3052
 4114SOL    HW223802   4.160   3.439   2.081  1.0244 -3.6064 -0.8898
 4115SOL     OW23803   3.952   2.160   4.527  0.0663  0.0076 -0.4751
 4115SOL    HW123804   3.933   2.101   4.600  1.1252  0.2567  0.0076
 4115SOL    HW223805   3.899   2.110   4.466  1.8167 -0.6111 -1.4882
 4116SOL     OW23806   1.409   2.499  11.715  0.3428 -0.3206 -0.1967
 4116SOL    HW123807   1.363   2.562  11.660 -1.5104 -0.2648  1.4584
 4116SOL    HW223808   1.369   2.504  11.801 -0.8954  0.1196 -0.8030
 4117SOL     OW23809   3.240   0.523   2.692  0.1225  0.5118 -0.4029
 4117SOL    HW123810   3.328   0.529   2.730 -0.7090  0.3894  1.5155
 4117SOL    HW223811   3.208   0.438   2.721  0.2163 -0.1204 -2.1872
 4118SOL     OW23812   0.717   2.231   1.083  0.6722 -0.7846  0.5952
 4118SOL    HW123813   0.742   2.262   1.170 -0.2445  0.5048  0.3932
 4118SOL    HW223814   0.626   2.254   1.064  1.9051  2.2388 -1.6764
 4119SOL     OW23815   1.447   1.878   6.601 -0.4858 -0.4806 -0.1938
 4119SOL    HW123816   1.505   1.954   6.604 -1.4040  0.0885  3.3325
 4119SOL    HW223817   1.444   1.856   6.508 -0.1987 -0.2627 -0.2572
 4120SOL     OW23818   1.924   0.756   3.990 -0.4096  0.2982 -0.1823
 4120SOL    HW123819   1.887   0.706   3.917  1.9188 -1.7477  0.0176
 4120SOL    HW223820   1.869   0.834   3.990  0.9721  1.2778  2.0461
 4121SOL     OW23821   1.442   4.710  16.872 -0.0632  0.1587 -0.8129
 4121SOL    HW123822   1.408   4.622  16.891  1.0986 -0.1730 -0.2316
 4121SOL    HW223823   1.500   4.722  16.947  0.1619 -1.3230 -0.7360
 4122SOL     OW23824   2.677   4.216   7.933 -0.1891 -0.4330  0.6590
 4122SOL    HW123825   2.589   4.194   7.964  0.0926 -1.3250  0.8217
 4122SOL    HW223826   2.666   4.215   7.838 -0.2303 -2.0209  0.6853
 4123SOL     OW23827   0.327   0.224   7.167 -0.5603  0.1618  0.0569
 4123SOL    HW123828   0.299   0.141   7.204 -3.2694  1.8836  1.9110
 4123SOL    HW223829   0.273   0.280   7.223  0.8565  1.9690 -0.3917
 4124SOL     OW23830   2.288   4.066   9.641  0.1827  0.0487  0.4615
 4124SOL    HW123831   2.246   4.123   9.705 -0.9732  1.2868 -1.3994
 4124SOL    HW223832   2.219   4.027   9.588  1.9701 -2.2987 -0.1241
 4125SOL     OW23833   4.192   3.727  15.860 -0.1472 -0.7255  0.5356
 4125SOL    HW123834   4.245   3.742  15.938  1.6885  0.5894 -0.9657
 4125SOL    HW223835   4.109   3.692  15.894 -0.5171 -2.8651 -2.5923
 4126SOL     OW23836   2.994   4.224  11.337 -0.2791  0.3923 -0.5860
 4126SOL    HW123837   2.939   4.263  11.269 -1.5172  0.7121  0.6152
 4126SOL    HW223838   2.987   4.130  11.319 -1.5339  0.1106  1.4571
 4127SOL     OW23839   2.366   3.043   7.904 -0.0439 -0.2911 -0.0839
 4127SOL    HW123840   2.278   3.021   7.935  0.0028 -0.5951 -0.1665
 4127SOL    HW223841   2.424   3.003   7.969  1.4711  1.6506 -0.2504
 4128SOL     OW23842   0.047   3.776   5.588 -0.8841  0.1734  0.1345
 4128SOL    HW123843   4.706   3.749   5.653  0.8756 -3.3882  0.3832
 4128SOL    HW223844   0.072   3.860   5.627  1.9899 -0.5568 -0.1652
 4129SOL     OW23845   0.535   0.402  13.350  0.0784  0.5474 -0.2078
 4129SOL    HW123846   0.623   0.402  13.388 -0.3537 -1.4442  0.7883
 4129SOL    HW223847   0.486   0.360  13.421  1.8010 -0.7219  0.2335
 4130SOL     OW23848   4.295   2.086   8.286  0.3809  0.7663  0.6505
 4130SOL    HW123849   4.281   1.992   8.294 -0.4998  0.7815 -0.9037
 4130SOL    HW223850   4.263   2.125   8.368  1.1820 -1.2212  1.9140
 4131SOL     OW23851   4.505   2.660   9.939  0.0260  0.3743  0.1366
 4131SOL    HW123852   4.507   2.619   9.852  0.0801 -0.1841  0.4024
 4131SOL    HW223853   4.593   2.696   9.949  1.3018 -2.6535 -0.2596
 4132SOL     OW23854   0.946   2.030   8.847 -0.0329 -0.0778  0.2919
 4132SOL    HW123855   0.933   2.058   8.757 -1.0548  3.3906  1.5080
 4132SOL    HW223856   0.896   2.102   8.886  1.8889  0.8751  1.0262
 4133SOL     OW23857   4.199   2.393   4.132  0.0245 -0.6967  0.3814
 4133SOL    HW123858   4.158   2.343   4.203 -1.8159 -0.7246 -0.6992
 4133SOL    HW223859   4.239   2.323   4.081  1.4869  1.2326 -1.1257
 4134SOL     OW23860   4.479   4.379   8.049 -0.5084 -0.1457 -0.3321
 4134SOL    HW123861   4.416   4.442   8.014 -0.0262 -0.9960 -2.7136
 4134SOL    HW223862   4.524   4.438   8.109  2.1095 -0.2380 -2.2112
 4135SOL     OW23863   1.551   3.170   1.379  0.4291  0.0047  0.3166
 4135SOL    HW123864   1.511   3.206   1.458  0.0359  0.7377 -0.2227
 4135SOL    HW223865   1.589   3.252   1.349  1.4376 -0.0188  1.5529
 4136SOL     OW23866   2.223   3.550   6.792  0.3858  0.3605 -0.7220
 4136SOL    HW123867   2.155   3.590   6.739 -1.2283 -0.6533  0.5806
 4136SOL    HW223868   2.196   3.458   6.797  1.2910  0.1075 -0.4165
 4137SOL     OW23869   4.126   0.569   8.093  0.0568 -0.2362  0.1609
 4137SOL    HW123870   4.215   0.552   8.125  0.4281  1.0244 -0.1999
 4137SOL    HW223871   4.107   0.631   8.163  1.6979  0.3312  0.1096
 4138SOL     OW23872   2.563   1.972   5.222 -0.4478  0.4787 -0.1352
 4138SOL    HW123873   2.652   1.996   5.197 -1.6493  2.5700 -2.3801
 4138SOL    HW223874   2.523   2.057   5.240 -0.5772  0.1069  1.3454
 4139SOL     OW23875   2.069   2.494  16.642 -0.8766  0.5042  0.0357
 4139SOL    HW123876   2.077   2.573  16.695 -2.1903  1.0937 -0.6583
 4139SOL    HW223877   1.995   2.451  16.686 -1.8061  3.7103  1.6280
 4140SOL     OW23878   1.153   1.172   8.831  0.3353 -0.2666 -0.2994
 4140SOL    HW123879   1.183   1.081   8.821  0.7123 -0.0787 -0.8571
 4140SOL    HW223880   1.232   1.207   8.873  0.4596 -0.7743 -0.1122
 4141SOL     OW23881   1.635   2.871   1.872 -0.2530  0.5155  0.0399
 4141SOL    HW123882   1.711   2.909   1.917  2.8623 -3.7042 -1.6361
 4141SOL    HW223883   1.676   2.836   1.793 -1.8829  0.9902 -1.0119
 4142SOL     OW23884   2.134   3.668   2.457  0.0873  0.1308 -0.4107
 4142SOL    HW123885   2.081   3.698   2.383  0.4555  0.4608 -0.5440
 4142SOL    HW223886   2.085   3.691   2.536  0.0102 -1.8469  0.1092
 4143SOL     OW23887   3.770   3.721  10.482 -0.5272 -0.6500  0.2834
 4143SOL    HW123888   3.848   3.777  10.484 -0.1815 -1.1945  1.8009
 4143SOL    HW223889   3.739   3.722  10.573 -0.9252  2.0678  0.1154
 4144SOL     OW23890   0.739   1.932  15.799  0.5326  0.1620 -0.3265
 4144SOL    HW123891   0.646   1.939  15.819  0.4288 -0.4951 -0.5918
 4144SOL    HW223892   0.775   2.007  15.846 -0.4985 -0.8279  2.0108
 4145SOL     OW23893   2.263   4.656   4.464 -0.6110 -0.0830 -0.0328
 4145SOL    HW123894   2.320   4.694   4.397  1.3719  0.8006  2.1513
 4145SOL    HW223895   2.301   4.572   4.488  0.7223 -0.2838 -2.9504
 4146SOL     OW23896   3.921   1.251  11.245 -0.3500  0.5806  0.1113
 4146SOL    HW123897   3.905   1.315  11.176  0.1846  0.4701 -0.1174
 4146SOL    HW223898   3.969   1.297  11.314  0.9943 -1.0058  0.2351
 4147SOL     OW23899   4.032   2.099   9.316  0.3854 -0.4595 -0.4133
 4147SOL    HW123900   3.985   2.027   9.358  0.4970 -0.0292  0.4568
 4147SOL    HW223901   4.121   2.078   9.344  0.1204  0.3921  1.0620
 4148SOL     OW23902   0.321   3.048   3.617 -0.0962  0.4549 -0.4889
 4148SOL    HW123903   0.336   2.976   3.555 -1.0494  0.2172 -0.4434
 4148SOL    HW223904   0.228   3.030   3.625  0.2236 -0.2291  1.7824
 4149SOL     OW23905   1.396   0.958  10.896  0.2893 -0.1403  0.4511
 4149SOL    HW123906   1.340   0.900  10.845 -2.6464  3.6749 -0.6287
 4149SOL    HW223907   1.469   0.963  10.834 -0.9452  0.2915 -0.9648
 4150SOL     OW23908   1.094   3.721   2.531 -0.2356  0.0620 -0.7500
 4150SOL    HW123909   1.134   3.800   2.567  0.1871 -0.2455 -0.5450
 4150SOL    HW223910   1.100   3.665   2.608  1.7874  2.4294  0.8215
 4151SOL     OW23911   0.912   0.276   6.764 -0.2842 -0.3013  0.4712
 4151SOL    HW123912   0.901   0.332   6.841 -0.8311  1.9394 -1.2396
 4151SOL    HW223913   0.822   0.284   6.733 -0.7188 -0.4035  1.7291
 4152SOL     OW23914   4.064   4.092   2.359  0.7159 -0.0127 -0.5077
 4152SOL    HW123915   3.980   4.114   2.320  1.4928  0.3240 -1.9920
 4152SOL    HW223916   4.070   4.003   2.324 -0.5418 -0.3461  0.1206
 4153SOL     OW23917   1.479   1.453   5.551 -0.0468 -0.0246 -0.0055
 4153SOL    HW123918   1.470   1.406   5.468 -2.0406 -0.2550  0.3546
 4153SOL    HW223919   1.563   1.415   5.578 -0.7380 -1.6901 -0.1642
 4154SOL     OW23920   2.148   1.423   7.492 -0.1144 -0.4591  1.0974
 4154SOL    HW123921   2.218   1.372   7.449  1.2362  2.2140  0.1364
 4154SOL    HW223922   2.149   1.377   7.576 -0.5028 -0.9466  0.8395
 4155SOL     OW23923   2.861   3.643   6.780 -0.6860 -0.2650 -0.1353
 4155SOL    HW123924   2.796   3.712   6.762 -1.2522 -0.1149  2.4771
 4155SOL    HW223925   2.925   3.655   6.710  1.9089  1.5397  2.5050
 4156SOL     OW23926   0.540   2.751   8.826  0.1843  0.3433 -0.3626
 4156SOL    HW123927   0.493   2.677   8.863  1.5387  0.4412  1.5684
 4156SOL    HW223928   0.604   2.771   8.895 -0.3493 -1.7351  0.7119
 4157SOL     OW23929   2.234   0.163  11.957  0.2611 -0.9873 -0.3245
 4157SOL    HW123930   2.179   0.217  12.013  0.5505 -1.4557  0.4123
 4157SOL    HW223931   2.254   0.230  11.891 -0.7000  1.1649  1.5980
 4158SOL     OW23932   1.157   3.203   4.467 -0.1032  0.4688 -0.2974
 4158SOL    HW123933   1.093   3.256   4.515 -1.7539  0.3048 -2.2973
 4158SOL    HW223934   1.106   3.174   4.392  0.0371 -1.5716  0.4007
 4159SOL     OW23935   3.922   4.526   4.705 -0.2038 -0.2115  0.0043
 4159SOL    HW123936   3.877   4.594   4.654 -2.2461 -1.3518  0.3074
 4159SOL    HW223937   3.904   4.450   4.649 -0.3716  0.1393 -0.4178
 4160SOL     OW23938   1.367   2.425   1.501 -0.0888  0.2653  0.0890
 4160SOL    HW123939   1.402   2.336   1.508 -1.5152 -0.2573  0.5196
 4160SOL    HW223940   1.295   2.423   1.564 -1.6193 -0.4878 -1.6948
 4161SOL     OW23941   3.831   1.219  13.337  0.2502 -0.2541 -0.3892
 4161SOL    HW123942   3.753   1.219  13.282 -0.1920  2.7712  0.2449
 4161SOL    HW223943   3.832   1.124  13.353  1.0598 -0.3498 -0.9938
 4162SOL     OW23944   2.760   0.033   7.046  0.1706 -0.0691 -0.2723
 4162SOL    HW123945   2.726   4.679   7.091 -0.8667  0.0018 -0.9595
 4162SOL    HW223946   2.820   4.713   6.985  0.6490 -1.1381  0.9416
 4163SOL     OW23947   3.048   0.085   5.755  0.0245  0.1808  0.3074
 4163SOL    HW123948   2.989   0.010   5.747 -0.9688  0.7820  1.9767
 4163SOL    HW223949   3.113   0.054   5.818  2.0500  0.1585 -1.8150
 4164SOL     OW23950   2.174   4.603   7.793  0.1908 -0.4185 -0.1233
 4164SOL    HW123951   2.207   4.658   7.864 -1.6468 -0.5561  0.8392
 4164SOL    HW223952   2.246   4.547   7.764 -0.2014  0.3713 -2.6061
 4165SOL     OW23953   0.400   1.561   0.841  0.0120 -0.4830  0.4106
 4165SOL    HW123954   0.412   1.632   0.778 -2.0147  0.6309  1.2605
 4165SOL    HW223955   0.318   1.584   0.885 -0.8240  0.2506 -1.4859
 4166SOL     OW23956   1.104   1.529   1.004  0.0795  0.5083 -0.3468
 4166SOL    HW123957   1.068   1.458   0.951  2.6791 -0.0520 -1.3555
 4166SOL    HW223958   1.092   1.498   1.094  0.3483  0.7186 -0.2375
 4167SOL     OW23959   2.136   4.032  13.308  0.2041  0.8126  0.2269
 4167SOL    HW123960   2.221   4.036  13.352  0.4926 -0.1846 -0.2495
 4167SOL    HW223961   2.167   3.984  13.232  1.6323  0.9262  0.7383
 4168SOL     OW23962   2.163   1.534   1.819  0.4768 -0.0005  0.0186
 4168SOL    HW123963   2.100   1.598   1.852 -1.6020 -1.8368 -0.4241
 4168SOL    HW223964   2.102   1.478   1.772  1.3476 -3.3188  2.7881
 4169SOL     OW23965   3.938   2.456  14.634 -0.3850 -0.1318 -0.6585
 4169SOL    HW123966   3.907   2.365  14.629  0.6652 -0.7390  3.4731
 4169SOL    HW223967   3.889   2.492  14.708  0.1833  1.2667 -0.9558
 4170SOL     OW23968   2.852   3.341   6.840  0.0737 -0.1582 -0.6646
 4170SOL    HW123969   2.883   3.430   6.822  2.8626 -0.6193  1.8308
 4170SOL    HW223970   2.761   3.357   6.866  0.2743  3.6058 -2.2803
 4171SOL     OW23971   4.440   4.551   3.490  0.4481 -0.0908  0.3065
 4171SOL    HW123972   4.530   4.520   3.502  0.3962 -0.1565  0.5195
 4171SOL    HW223973   4.441   4.617   3.560 -0.2298  2.1820 -1.8095
 4172SOL     OW23974   2.390   3.549  15.021  0.0158 -0.2224 -0.0606
 4172SOL    HW123975   2.480   3.561  14.992  0.5771 -1.5268  1.1640
 4172SOL    HW223976   2.415   3.495  15.096  0.1652 -0.9660 -0.6490
 4173SOL     OW23977   3.828   2.977   7.261  0.2080  0.2762 -0.3232
 4173SOL    HW123978   3.814   3.067   7.290  2.7223  1.0776 -1.5881
 4173SOL    HW223979   3.900   2.957   7.321 -0.1634  0.2470  0.1153
 4174SOL     OW23980   0.453   4.012  14.820 -0.4326 -0.2836 -0.2373
 4174SOL    HW123981   0.494   4.057  14.747 -0.6183 -0.7733 -0.6415
 4174SOL    HW223982   0.369   4.055  14.837  0.1376 -0.0263  1.9618
 4175SOL     OW23983   0.564   4.376   0.960 -0.4029  0.0811 -0.2756
 4175SOL    HW123984   0.470   4.362   0.946 -0.4151 -0.5935  0.4825
 4175SOL    HW223985   0.597   4.411   0.878 -0.7565 -0.1039 -0.5010
 4176SOL     OW23986   2.286   4.225   5.902 -0.4290  0.6048  0.5742
 4176SOL    HW123987   2.367   4.186   5.866 -0.8819 -0.9990  1.2828
 4176SOL    HW223988   2.324   4.267   5.978  2.1090  0.8625 -0.8124
 4177SOL     OW23989   3.194   3.558   1.667  0.4938 -0.2557 -0.2689
 4177SOL    HW123990   3.136   3.634   1.665  0.6195 -0.2065 -1.7476
 4177SOL    HW223991   3.133   3.489   1.640  1.4270 -1.3896  0.5065
 4178SOL     OW23992   1.570   0.718   6.193  0.2703  0.1220 -0.5649
 4178SOL    HW123993   1.524   0.733   6.110  1.7350 -2.6510 -1.8711
 4178SOL    HW223994   1.640   0.662   6.159 -0.1133 -1.3499  1.0916
 4179SOL     OW23995   3.159   3.993  15.082  0.3062 -0.0237 -0.0381
 4179SOL    HW123996   3.160   3.982  14.987  1.0682 -0.6831  0.0475
 4179SOL    HW223997   3.157   4.089  15.083  1.4298 -0.0036  0.3634
 4180SOL     OW23998   3.682   2.489   0.923  0.0175 -0.8331 -0.6995
 4180SOL    HW123999   3.653   2.406   0.961 -0.1206  0.3421  1.7581
 4180SOL    HW224000   3.628   2.489   0.844  2.1183  0.3915 -2.1237
 4181SOL     OW24001   3.003   3.373   2.496 -0.5904 -0.7303  0.5377
 4181SOL    HW124002   3.034   3.453   2.453  0.7784 -1.1548  0.7493
 4181SOL    HW224003   2.973   3.322   2.420 -0.0061  0.3607 -0.4328
 4182SOL     OW24004   3.034   4.204   7.403 -0.1944  0.3136  0.0078
 4182SOL    HW124005   3.033   4.289   7.447 -4.9647  0.6900 -0.8672
 4182SOL    HW224006   3.091   4.151   7.459  0.9995 -0.4479 -1.9220
 4183SOL     OW24007   1.655   3.744   7.920 -0.1793 -0.4060 -0.0881
 4183SOL    HW124008   1.566   3.765   7.893 -0.5464  2.2452  3.1984
 4183SOL    HW224009   1.703   3.770   7.842 -0.9651 -1.1261 -0.8096
 4184SOL     OW24010   4.543   2.355   1.122 -0.0108 -0.5710 -0.3678
 4184SOL    HW124011   4.587   2.308   1.193  0.2916  0.8431  0.3623
 4184SOL    HW224012   4.534   2.290   1.052  0.0853 -0.1047 -0.8121
 4185SOL     OW24013   3.711   1.322   8.603 -0.0345  0.0424  0.0761
 4185SOL    HW124014   3.646   1.272   8.651  0.3689  1.1687  1.7915
 4185SOL    HW224015   3.706   1.406   8.649  0.6881  0.8484 -1.3075
 4186SOL     OW24016   3.949   1.430  10.753 -0.2979  0.0962  0.0901
 4186SOL    HW124017   4.019   1.393  10.700 -1.3122 -2.2480  0.3623
 4186SOL    HW224018   3.876   1.453  10.696 -0.2345  0.2952  0.0892
 4187SOL     OW24019   1.279   2.995   8.610 -0.1557  0.0084  0.2632
 4187SOL    HW124020   1.291   3.090   8.609  1.9831 -0.2809 -1.7299
 4187SOL    HW224021   1.186   2.993   8.635 -0.6842  2.8211 -1.4430
 4188SOL     OW24022   4.022   0.683   2.458 -0.5253  0.1198  0.1889
 4188SOL    HW124023   4.055   0.699   2.370  1.5209 -0.5035  0.8312
 4188SOL    HW224024   4.107   0.660   2.495 -0.4444 -2.5516 -1.6632
 4189SOL     OW24025   0.218   3.234   2.679 -0.5987  0.2941  0.1011
 4189SOL    HW124026   0.150   3.258   2.742 -1.7301 -2.1562 -0.1936
 4189SOL    HW224027   0.179   3.159   2.635  2.4315 -0.1010 -1.9281
 4190SOL     OW24028   1.380   3.395   3.751 -0.6464  0.5095  0.3498
 4190SOL    HW124029   1.342   3.325   3.697  3.2482  1.1525 -3.2197
 4190SOL    HW224030   1.390   3.361   3.840  0.7001  1.2643  0.4863
 4191SOL     OW24031   4.594   3.990   8.732  0.2128 -0.1250 -0.2306
 4191SOL    HW124032   4.557   4.063   8.782  1.0423 -0.1735  0.4653
 4191SOL    HW224033   4.515   3.937   8.727  0.3009 -0.0668 -2.0707
 4192SOL     OW24034   1.859   0.139  16.060 -1.0056 -0.4308 -0.1925
 4192SOL    HW124035   1.888   0.099  16.143  0.3336 -0.0696 -0.4960
 4192SOL    HW224036   1.849   0.226  16.097 -0.9609 -0.8080  0.7142
 4193SOL     OW24037   0.426   2.539   2.032  0.0228 -0.2501  0.2366
 4193SOL    HW124038   0.392   2.627   2.049  2.4151 -0.2569  4.9591
 4193SOL    HW224039   0.354   2.479   2.053  0.3171 -0.7559 -0.1907
 4194SOL     OW24040   3.162   1.821   2.386  0.0828 -0.1409 -0.3789
 4194SOL    HW124041   3.191   1.754   2.448  0.7254  0.2487 -0.2618
 4194SOL    HW224042   3.162   1.899   2.441  0.7303  1.6695 -2.9844
 4195SOL     OW24043   3.011   2.149   7.805 -0.5838  0.3641  0.3202
 4195SOL    HW124044   2.999   2.139   7.711  0.4816  0.2079  0.2020
 4195SOL    HW224045   3.012   2.244   7.817  0.9786  0.4720 -0.6802
 4196SOL     OW24046   0.875   2.432  15.566 -0.5463  0.1396 -0.0886
 4196SOL    HW124047   0.826   2.428  15.484  0.2468 -0.1125 -0.5537
 4196SOL    HW224048   0.816   2.485  15.620 -0.6084  2.2118 -2.1818
 4197SOL     OW24049   3.005   0.114   1.425 -0.4013  0.4052  0.3753
 4197SOL    HW124050   3.055   0.189   1.391 -0.8670  0.3758 -0.3728
 4197SOL    HW224051   2.936   0.161   1.472 -0.8798  0.1267 -0.0526
 4198SOL     OW24052   0.588   3.466   4.229  0.3983 -0.3799  0.2556
 4198SOL    HW124053   0.634   3.403   4.284  1.8113 -0.4491 -0.9879
 4198SOL    HW224054   0.659   3.521   4.196  2.3730 -2.6260  0.7892
 4199SOL     OW24055   1.557   3.534   6.543 -0.2385 -0.6740  0.3046
 4199SOL    HW124056   1.646   3.539   6.577  0.1428  3.0486 -1.1604
 4199SOL    HW224057   1.571   3.586   6.464  1.2050 -1.2472  0.1968
 4200SOL     OW24058   4.012   4.206   3.540  0.6342 -0.2945  0.0723
 4200SOL    HW124059   3.976   4.117   3.538 -0.0974  0.0702 -2.7825
 4200SOL    HW224060   4.065   4.213   3.461  0.9868 -0.6397  0.2810
 4201SOL     OW24061   0.831   3.348   9.996  0.4797  0.0345  0.3995
 4201SOL    HW124062   0.823   3.306   9.910 -0.2018  2.4888 -0.7337
 4201SOL    HW224063   0.830   3.442   9.979  1.1419  0.1322  0.9281
 4202SOL     OW24064   3.517   3.607   3.909 -0.1660  0.1960 -0.4199
 4202SOL    HW124065   3.452   3.580   3.974 -0.3127  0.4834 -0.4479
 4202SOL    HW224066   3.485   3.697   3.894 -1.4949 -0.0872  0.6954
 4203SOL     OW24067   0.833   2.772   0.058 -0.1018  0.3678 -0.4423
 4203SOL    HW124068   0.745   2.790   0.093 -0.3216 -0.8220 -0.3891
 4203SOL    HW224069   0.831   2.827  17.677  0.9788 -1.9495 -2.0837
 4204SOL     OW24070   1.106   3.645   6.157  0.5493  0.9468 -0.4192
 4204SOL    HW124071   1.036   3.703   6.187  1.4210  1.1971  1.1447
 4204SOL    HW224072   1.069   3.642   6.069 -0.1241 -1.4490 -0.0261
 4205SOL     OW24073   4.466   1.999   3.567  0.0380 -0.6754  0.5824
 4205SOL    HW124074   4.506   1.934   3.625 -0.0638 -1.5900 -0.3494
 4205SOL    HW224075   4.489   1.971   3.478 -1.1505 -2.1520  0.7216
 4206SOL     OW24076   1.002   0.024   9.553 -0.0198  1.1002  0.5012
 4206SOL    HW124077   1.051   0.052   9.629  0.8596 -1.0665  0.7434
 4206SOL    HW224078   1.024   0.096   9.494  1.1967  1.3589  1.2859
 4207SOL     OW24079   4.267   3.540   5.930  0.1074  0.0923 -0.1829
 4207SOL    HW124080   4.291   3.592   6.006 -1.4224  0.5882 -0.0450
 4207SOL    HW224081   4.183   3.580   5.906 -0.2775 -0.6870 -0.1350
 4208SOL     OW24082   4.548   3.919  12.149 -0.4326  0.4876 -0.2560
 4208SOL    HW124083   4.510   3.996  12.106 -3.2957 -2.2331 -2.6166
 4208SOL    HW224084   4.541   3.950  12.239  0.0102 -0.6703  0.1809
 4209SOL     OW24085   0.318   4.303  14.243  0.2932 -0.3477  0.1397
 4209SOL    HW124086   0.241   4.348  14.276 -0.6637 -1.2235 -0.9134
 4209SOL    HW224087   0.279   4.231  14.194 -0.9420  0.9782 -0.8568
 4210SOL     OW24088   2.035   0.642   8.161  0.0413 -0.5215 -0.4187
 4210SOL    HW124089   1.988   0.626   8.243 -0.3206  1.6239 -0.2046
 4210SOL    HW224090   1.966   0.620   8.100  0.9458 -0.1330 -1.5865
 4211SOL     OW24091   3.527   4.520   8.655  0.5430  0.1009 -0.2302
 4211SOL    HW124092   3.538   4.607   8.694  0.7067  0.1716 -0.4317
 4211SOL    HW224093   3.451   4.529   8.597  1.4218 -0.5111 -1.4828
 4212SOL     OW24094   0.886   0.495   4.221 -0.3591  0.0984 -0.0528
 4212SOL    HW124095   0.844   0.508   4.135  0.8353  0.2393 -0.6115
 4212SOL    HW224096   0.976   0.519   4.197 -0.0226 -0.6331  0.4901
 4213SOL     OW24097   4.372   0.229   3.039 -0.0175  0.5285 -0.2512
 4213SOL    HW124098   4.362   0.301   2.977 -0.8766  0.8456  0.2614
 4213SOL    HW224099   4.460   0.236   3.077  0.1158 -3.1840  0.0582
 4214SOL     OW24100   2.248   1.395   8.097 -0.3821  0.0858 -0.2575
 4214SOL    HW124101   2.188   1.385   8.023  0.1080  1.6598 -0.8716
 4214SOL    HW224102   2.223   1.314   8.141  0.9868  0.0609  0.4610
 4215SOL     OW24103   0.225   3.198   4.267  0.0430  0.4011  0.7237
 4215SOL    HW124104   0.201   3.223   4.357 -1.1956 -0.5024  0.6581
 4215SOL    HW224105   0.199   3.106   4.265  0.0378  0.3736  1.9107
 4216SOL     OW24106   2.291   1.608   5.162 -0.4853  0.1978 -0.3343
 4216SOL    HW124107   2.300   1.580   5.253  0.4780  0.1992 -0.4293
 4216SOL    HW224108   2.379   1.640   5.143 -1.2058  2.6263  0.3929
 4217SOL     OW24109   2.702   2.676  17.107 -0.0012  0.4789 -0.0112
 4217SOL    HW124110   2.792   2.661  17.077  0.0862  1.0811 -0.0552
 4217SOL    HW224111   2.648   2.630  17.043 -2.1650  3.0449 -0.0326
 4218SOL     OW24112   1.285   1.778   1.855 -0.2247  0.0685  0.2301
 4218SOL    HW124113   1.264   1.714   1.924 -2.4588  0.1961 -0.3420
 4218SOL    HW224114   1.345   1.834   1.904  0.0292  1.1044 -1.2640
 4219SOL     OW24115   0.989   0.631   7.101  0.3473 -0.1748  0.4548
 4219SOL    HW124116   1.080   0.621   7.128  0.0830  0.3011  1.5395
 4219SOL    HW224117   0.968   0.704   7.160  1.6811  0.3624  0.2572
 4220SOL     OW24118   0.429   0.462   3.638  0.1466  0.2623  0.1165
 4220SOL    HW124119   0.375   0.424   3.568  0.3422 -0.0387  0.1267
 4220SOL    HW224120   0.356   0.490   3.693 -1.8572  0.2350 -2.4840
 4221SOL     OW24121   2.758   3.536  10.312 -0.1482  0.4226 -0.0371
 4221SOL    HW124122   2.795   3.536  10.400 -1.4102 -1.6235  0.4968
 4221SOL    HW224123   2.767   3.626  10.281 -1.3004  1.0276  1.3574
 4222SOL     OW24124   3.240   1.601   8.926 -0.5472  0.4064 -0.4338
 4222SOL    HW124125   3.176   1.615   8.857 -1.6789 -0.5333  0.4146
 4222SOL    HW224126   3.266   1.687   8.958 -0.3129 -0.2841  1.2497
 4223SOL     OW24127   2.215   1.950   1.787 -0.7702  0.1165  0.5492
 4223SOL    HW124128   2.199   1.868   1.741  1.1024  0.1031 -0.0874
 4223SOL    HW224129   2.208   2.018   1.721 -2.1114 -0.4439  0.1163
 4224SOL     OW24130   0.554   0.235   4.699  0.0803  0.3958 -0.4633
 4224SOL    HW124131   0.607   0.196   4.768  2.5290 -1.0163 -3.1191
 4224SOL    HW224132   0.549   0.321   4.740  2.1389  0.4936 -0.4250
 4225SOL     OW24133   0.292   3.523  15.505 -0.1296 -0.0570 -0.2628
 4225SOL    HW124134   0.239   3.602  15.495 -2.2560 -1.4253  0.2371
 4225SOL    HW224135   0.263   3.491  15.591  0.0733  0.0143 -0.1684
 4226SOL     OW24136   0.994   1.300   1.801  0.5067  0.2218  0.1050
 4226SOL    HW124137   1.075   1.259   1.832  0.8755  1.1173  0.3232
 4226SOL    HW224138   1.035   1.386   1.797  3.8799 -1.3886 -0.3104
 4227SOL     OW24139   2.049   1.586  15.368  0.3418  0.4054  0.1084
 4227SOL    HW124140   2.107   1.624  15.434  1.2442  0.1779 -0.5433
 4227SOL    HW224141   1.962   1.593  15.408  0.0500  0.6551 -0.5702
 4228SOL     OW24142   2.773   0.400   2.033  0.6512  0.5282  0.0376
 4228SOL    HW124143   2.868   0.411   2.040  0.5392  2.6822 -1.5675
 4228SOL    HW224144   2.753   0.477   1.978  0.6025 -0.5648 -1.4672
 4229SOL     OW24145   1.248   4.068   3.609  1.3284  0.2212 -0.1203
 4229SOL    HW124146   1.291   4.001   3.555 -2.3094 -1.0083 -1.4872
 4229SOL    HW224147   1.196   4.122   3.550  0.2769 -0.3753  0.2647
 4230SOL     OW24148   4.219   0.659  15.130  0.4952  0.2348 -0.1836
 4230SOL    HW124149   4.184   0.653  15.041  2.6374  0.3570 -1.0162
 4230SOL    HW224150   4.297   0.708  15.106  2.6916 -1.5974  3.1011
 4231SOL     OW24151   4.558   3.303  10.628  0.0622  0.6349 -0.0526
 4231SOL    HW124152   4.609   3.371  10.672 -2.2530  1.8383  0.7748
 4231SOL    HW224153   4.617   3.229  10.643  1.2490  1.2975 -1.3802
 4232SOL     OW24154   3.425   3.912  10.711 -0.0072  0.2536  0.6213
 4232SOL    HW124155   3.350   3.961  10.744 -0.8695 -0.5375 -0.1512
 4232SOL    HW224156   3.443   3.860  10.788 -1.5937 -0.6112  0.4219
 4233SOL     OW24157   4.673   1.240   5.727  0.5839 -0.0063  0.5449
 4233SOL    HW124158   0.013   1.309   5.746 -0.0578  0.8834 -0.5894
 4233SOL    HW224159   0.011   1.179   5.687  0.7893 -0.0028  0.8556
 4234SOL     OW24160   1.758   4.338   7.990  0.1693  0.3910 -0.2210
 4234SOL    HW124161   1.710   4.401   8.043  2.6807 -0.7142  3.4173
 4234SOL    HW224162   1.741   4.377   7.905  0.3609  0.7313 -0.1030
 4235SOL     OW24163   0.468   3.990  10.318 -0.0857 -0.0206  0.0319
 4235SOL    HW124164   0.486   4.080  10.346  0.6611 -0.1266 -0.1038
 4235SOL    HW224165   0.508   3.939  10.389 -2.0668  0.7892  1.7205
 4236SOL     OW24166   1.176   3.843   0.449  0.0025 -0.3259 -0.3203
 4236SOL    HW124167   1.259   3.861   0.405 -0.8375  1.6147 -1.1227
 4236SOL    HW224168   1.118   3.818   0.378 -0.8708  1.9831 -0.4289
 4237SOL     OW24169   3.058   1.407   8.088  0.0292  0.5153  0.2638
 4237SOL    HW124170   3.096   1.349   8.154  2.3502  0.5377 -1.0584
 4237SOL    HW224171   3.074   1.493   8.126  0.8896  0.4091  0.1421
 4238SOL     OW24172   2.948   0.593   0.549 -0.1421  0.1297  0.3019
 4238SOL    HW124173   3.011   0.523   0.561  0.0713  0.4631  1.1483
 4238SOL    HW224174   2.939   0.625   0.639 -1.3708 -1.8303  0.8704
 4239SOL     OW24175   1.893   0.652  13.465 -0.9694 -0.5159  0.3697
 4239SOL    HW124176   1.961   0.620  13.405  2.6062  2.7366  2.7420
 4239SOL    HW224177   1.941   0.630  13.544 -0.0644 -0.4184 -0.1597
 4240SOL     OW24178   1.522   3.623   0.245  0.3205 -0.1206 -0.3134
 4240SOL    HW124179   1.527   3.588   0.334 -1.2745  0.0489 -0.1453
 4240SOL    HW224180   1.448   3.569   0.217  2.7651 -2.3449 -2.3861
 4241SOL     OW24181   1.423   2.790   8.126 -0.5630  0.0800  0.0855
 4241SOL    HW124182   1.332   2.820   8.135 -0.4417  1.0202 -1.9376
 4241SOL    HW224183   1.462   2.855   8.185  0.5585 -0.9964  0.5236
 4242SOL     OW24184   0.652   2.910  13.670  0.3424  0.2354 -0.5272
 4242SOL    HW124185   0.557   2.905  13.680  0.5144 -0.4326  0.8036
 4242SOL    HW224186   0.669   2.956  13.752  0.6001 -0.6204 -0.0883
 4243SOL     OW24187   4.517   3.319   8.343  0.3046  0.3025  0.4739
 4243SOL    HW124188   4.544   3.409   8.324  0.4202 -0.2459 -1.9000
 4243SOL    HW224189   4.480   3.331   8.431 -1.3269  0.8383 -0.2972
 4244SOL     OW24190   1.882   1.211   8.351  0.6150 -0.6466 -0.4161
 4244SOL    HW124191   1.958   1.208   8.409 -0.9985 -0.4012  1.7099
 4244SOL    HW224192   1.858   1.119   8.345 -1.0200 -0.3124  1.0889
 4245SOL     OW24193   4.468   1.487   2.039 -0.9569 -0.5061  0.6072
 4245SOL    HW124194   4.383   1.519   2.070 -1.1240  1.6004 -2.0049
 4245SOL    HW224195   4.441   1.402   2.004 -0.1029  0.2849 -1.9523
 4246SOL     OW24196   4.588   0.382   1.982  0.1906 -0.3228  0.5727
 4246SOL    HW124197   4.600   0.299   1.935 -3.2393  0.2197 -1.2884
 4246SOL    HW224198   4.507   0.367   2.031  0.3809 -0.8955  0.7143
 4247SOL     OW24199   3.092   3.072   4.679 -0.1664 -0.6799  0.2900
 4247SOL    HW124200   3.040   2.995   4.706  0.0534 -2.1072 -3.4344
 4247SOL    HW224201   3.168   3.032   4.638  0.0024  1.1729 -1.1553
 4248SOL     OW24202   1.630   1.025   3.558  0.1112  0.1977 -0.6341
 4248SOL    HW124203   1.690   1.012   3.485  0.4431 -0.2987 -0.2716
 4248SOL    HW224204   1.606   0.933   3.567 -0.7765  0.5785  0.8624
 4249SOL     OW24205   3.671   4.485   7.763 -0.0415 -0.3575  0.0012
 4249SOL    HW124206   3.689   4.526   7.678 -6.3341 -2.2210 -2.2190
 4249SOL    HW224207   3.707   4.551   7.823  1.5893  0.7899 -2.2342
 4250SOL     OW24208   4.185   1.465   3.752 -0.1395 -0.7925 -0.7618
 4250SOL    HW124209   4.249   1.535   3.764 -0.4037 -0.3274 -2.1717
 4250SOL    HW224210   4.103   1.506   3.779  0.7517 -0.0253  0.7858
 4251SOL     OW24211   4.662   1.010  10.231  0.0039  0.0462  0.1853
 4251SOL    HW124212   0.019   1.035  10.276  0.1086 -0.4445  0.2716
 4251SOL    HW224213   4.637   0.936  10.285 -0.1195 -0.0571 -0.0144
 4252SOL     OW24214   3.833   2.901   4.935  0.3718 -0.1450 -0.0400
 4252SOL    HW124215   3.837   2.918   5.029  0.0748  1.1080 -0.2571
 4252SOL    HW224216   3.836   2.806   4.942 -0.0272 -0.2603 -1.4219
 4253SOL     OW24217   0.840   0.824   5.569  0.4176 -0.3203  0.3675
 4253SOL    HW124218   0.862   0.732   5.584 -1.5815 -0.7575  0.7110
 4253SOL    HW224219   0.812   0.848   5.657 -0.2973  0.1418  0.0198
 4254SOL     OW24220   4.291   0.162   4.670  0.4484  0.1793 -0.2465
 4254SOL    HW124221   4.319   0.071   4.660  1.0108  0.2004  1.1718
 4254SOL    HW224222   4.195   0.167   4.678  0.5696 -0.1636  1.5120
 4255SOL     OW24223   1.643   4.162   6.940 -0.0962 -0.1028  0.2457
 4255SOL    HW124224   1.577   4.133   6.877  1.0868  0.1167 -1.1035
 4255SOL    HW224225   1.720   4.122   6.900  0.8543  0.6261  1.3513
 4256SOL     OW24226   3.988   3.935   3.647 -0.3262 -0.1241  0.1628
 4256SOL    HW124227   3.991   3.964   3.738 -0.4821 -3.1646  1.1378
 4256SOL    HW224228   4.048   3.860   3.649 -0.7303 -0.4698 -0.6917
 4257SOL     OW24229   2.738   0.289   4.029  0.1254  0.1818 -0.0183
 4257SOL    HW124230   2.790   0.212   4.007 -0.2086  0.6522 -2.3901
 4257SOL    HW224231   2.812   0.343   4.057  1.5052 -2.7520  2.0387
 4258SOL     OW24232   0.530   1.786   3.064  0.1093 -0.8612 -0.1592
 4258SOL    HW124233   0.512   1.740   2.982 -1.5053 -0.4236 -0.0613
 4258SOL    HW224234   0.526   1.717   3.129 -0.9346  0.0045  0.7055
 4259SOL     OW24235   2.792   1.958   7.319  0.0897  0.2448 -0.0482
 4259SOL    HW124236   2.887   1.954   7.332  0.0396 -1.0353 -0.1000
 4259SOL    HW224237   2.774   1.960   7.225 -2.3287 -1.3748  0.3709
 4260SOL     OW24238   2.555   1.518  11.352 -0.0557 -0.2131  0.2646
 4260SOL    HW124239   2.538   1.607  11.322 -1.6264 -0.1417  1.4080
 4260SOL    HW224240   2.540   1.467  11.272  1.5823  0.3732 -0.4287
 4261SOL     OW24241   2.280   2.978   9.776 -0.1398  0.3005 -0.3069
 4261SOL    HW124242   2.360   2.933   9.803  0.6631  0.9672 -1.6141
 4261SOL    HW224243   2.227   2.986   9.855 -0.2597 -0.4846 -0.3089
 4262SOL     OW24244   3.374   4.568   3.996 -0.2927 -0.2308 -0.3066
 4262SOL    HW124245   3.463   4.548   4.022 -0.0164  0.7881 -0.4775
 4262SOL    HW224246   3.349   4.614   4.076 -0.6791  0.1406 -0.6373
 4263SOL     OW24247   0.295   4.429   8.451  0.3869 -0.0935 -0.1058
 4263SOL    HW124248   0.341   4.474   8.381  0.6577 -0.0969  0.0696
 4263SOL    HW224249   0.361   4.424   8.520  1.1804  1.3152 -0.7694
 4264SOL     OW24250   4.461   4.571   8.275  0.0349  0.3040 -0.0805
 4264SOL    HW124251   4.451   4.597   8.366 -1.3796 -0.5147  0.0004
 4264SOL    HW224252   4.393   4.623   8.232  0.2720  1.2325  0.6702
 4265SOL     OW24253   1.482   4.147  11.547  0.0195 -0.2954 -0.3515
 4265SOL    HW124254   1.437   4.205  11.485  0.8924  1.6095  0.8013
 4265SOL    HW224255   1.409   4.127  11.605  0.8765 -0.1543  0.7571
 4266SOL     OW24256   2.290   3.791   7.072 -0.5025 -0.2378  0.0703
 4266SOL    HW124257   2.348   3.753   7.006  0.5724 -0.3835  1.0908
 4266SOL    HW224258   2.255   3.711   7.113 -0.0396 -0.6545 -0.3492
 4267SOL     OW24259   0.363   0.798   3.545  0.5605 -0.2893  0.0967
 4267SOL    HW124260   0.340   0.729   3.483 -2.7357  0.3197  0.6114
 4267SOL    HW224261   0.407   0.857   3.483 -0.0878 -1.1269 -1.1637
 4268SOL     OW24262   1.736   2.978   3.794  1.2483  0.3150 -0.1362
 4268SOL    HW124263   1.726   3.067   3.763 -0.3782 -0.8091 -2.8217
 4268SOL    HW224264   1.655   2.929   3.778  0.8185  1.3152 -0.9759
 4269SOL     OW24265   2.156   2.747   7.521  0.2800  0.1402 -0.1137
 4269SOL    HW124266   2.142   2.838   7.545  0.2549 -0.3147  1.6265
 4269SOL    HW224267   2.174   2.711   7.608  2.5981  0.9941 -0.2484
 4270SOL     OW24268   0.810   3.984  17.200  0.1274 -0.4798  0.1140
 4270SOL    HW124269   0.880   3.923  17.176  1.1957 -0.1279  2.3228
 4270SOL    HW224270   0.767   3.947  17.277  0.8152 -0.3787  0.5493
 4271SOL     OW24271   1.077   1.777   6.141  0.3676  0.0025 -0.2900
 4271SOL    HW124272   1.156   1.727   6.122 -0.6940 -2.0083  0.6095
 4271SOL    HW224273   1.123   1.854   6.175  0.5795  0.2163 -1.0657
 4272SOL     OW24274   3.401   3.055   1.158 -0.1161 -0.2641  0.0987
 4272SOL    HW124275   3.474   2.993   1.159 -1.0944 -1.4130  0.5849
 4272SOL    HW224276   3.438   3.140   1.135  1.2081 -0.7689  0.3770
 4273SOL     OW24277   2.332   0.294   5.035  0.2536  0.0380 -0.1592
 4273SOL    HW124278   2.331   0.388   5.013  0.9996 -0.0380 -0.5123
 4273SOL    HW224279   2.426   0.277   5.032  0.2676 -0.1605  1.3680
 4274SOL     OW24280   0.150   1.271  13.206  0.0358 -0.1440  0.2627
 4274SOL    HW124281   0.123   1.346  13.154  0.6146  0.0074  0.1778
 4274SOL    HW224282   0.199   1.315  13.275  0.7085 -0.5559  0.0523
 4275SOL     OW24283   0.947   0.903  13.295 -0.1357  1.1363  0.1684
 4275SOL    HW124284   0.925   0.870  13.208 -2.7417  0.5380  1.0608
 4275SOL    HW224285   0.997   0.981  13.270 -0.0122  0.4861 -1.6004
 4276SOL     OW24286   3.389   0.275   8.173  0.1227 -0.0952  0.0062
 4276SOL    HW124287   3.295   0.292   8.172  0.0376 -0.4443  1.4483
 4276SOL    HW224288   3.427   0.357   8.204 -1.0906  0.4505  0.0537
 4277SOL     OW24289   1.729   1.183   9.410  0.0929  0.2103 -0.2016
 4277SOL    HW124290   1.681   1.256   9.371 -1.9273 -0.6049  0.7504
 4277SOL    HW224291   1.807   1.220   9.452  1.3757 -1.9912 -0.6719
 4278SOL     OW24292   2.273   2.774   7.792  0.1515  0.3846  0.0360
 4278SOL    HW124293   2.265   2.679   7.787  1.5137  0.3198 -0.8295
 4278SOL    HW224294   2.359   2.789   7.832 -0.4790  0.5281  1.3634
 4279SOL     OW24295   1.624   4.043   1.210  0.0260  0.0049  0.6634
 4279SOL    HW124296   1.556   3.977   1.203  0.4351 -0.4612  1.1133
 4279SOL    HW224297   1.700   3.993   1.241 -2.1133 -4.2314 -0.9072
 4280SOL     OW24298   1.843   3.356   3.376  0.4562 -0.2945 -0.2841
 4280SOL    HW124299   1.822   3.291   3.310  0.1146  1.2766 -1.7238
 4280SOL    HW224300   1.880   3.300   3.445 -0.7626  1.6695  1.9777
 4281SOL     OW24301   1.696   4.584   6.894  0.3006  0.2947 -0.0720
 4281SOL    HW124302   1.759   4.527   6.851 -0.5975 -1.8197  1.3925
 4281SOL    HW224303   1.730   4.575   6.983  1.3800 -1.7150 -0.6909
 4282SOL     OW24304   3.257   2.147   7.988 -0.8418  0.9959  1.0357
 4282SOL    HW124305   3.325   2.175   7.927  0.8501  1.2908  3.0663
 4282SOL    HW224306   3.194   2.120   7.920 -0.4113 -0.5789  1.2593
 4283SOL     OW24307   2.538   3.366  10.347 -0.6048  0.2311  0.1353
 4283SOL    HW124308   2.525   3.339  10.257 -0.2845  0.0706  0.1405
 4283SOL    HW224309   2.622   3.411  10.347 -0.2602 -0.4426 -1.7963
 4284SOL     OW24310   0.380   0.211  12.693 -0.2993  0.6121  0.2952
 4284SOL    HW124311   0.367   0.167  12.778 -0.7218  2.9513  1.4388
 4284SOL    HW224312   0.392   0.135  12.636 -1.4781  0.3605  0.3759
 4285SOL     OW24313   1.620   2.435   3.851 -0.2436  0.6440  0.1937
 4285SOL    HW124314   1.667   2.503   3.898 -0.7010  1.2166 -0.1783
 4285SOL    HW224315   1.661   2.452   3.766 -0.3717  1.3625  0.2763
 4286SOL     OW24316   0.485   2.422  14.647 -0.2670 -0.6426  0.2749
 4286SOL    HW124317   0.457   2.339  14.609  0.4079 -1.3908  1.4161
 4286SOL    HW224318   0.518   2.387  14.730  0.3070  0.9443  0.7154
 4287SOL     OW24319   3.681   2.862   5.681 -0.4491 -0.2761  0.1579
 4287SOL    HW124320   3.719   2.819   5.757 -2.4094 -1.7002  0.3237
 4287SOL    HW224321   3.608   2.899   5.729 -0.1870  0.4045  0.0402
 4288SOL     OW24322   3.954   3.485  17.660  0.2596 -0.0374 -0.0535
 4288SOL    HW124323   3.859   3.490  17.668  0.2449 -0.4221  0.0296
 4288SOL    HW224324   3.964   3.413  17.597  0.1492 -0.6656  0.6436
 4289SOL     OW24325   3.412   1.558   8.208 -0.3184 -0.0241  0.4968
 4289SOL    HW124326   3.494   1.521   8.240 -0.4358 -1.1790 -0.5123
 4289SOL    HW224327   3.425   1.549   8.113  0.9698  1.3402  0.5497
 4290SOL     OW24328   3.315   0.472  10.042  0.0416  0.0278 -0.0235
 4290SOL    HW124329   3.302   0.396  10.100  0.3970  0.7149  0.9618
 4290SOL    HW224330   3.383   0.440   9.983 -1.2280 -3.3151  0.3347
 4291SOL     OW24331   3.617   0.968  16.897 -0.1121 -0.2981  0.5185
 4291SOL    HW124332   3.617   0.979  16.802  0.1070 -2.1381  0.3121
 4291SOL    HW224333   3.659   1.052  16.917 -0.5560 -0.2633  1.3047
 4292SOL     OW24334   0.331   0.178   6.381  0.4135 -0.0158  0.2078
 4292SOL    HW124335   0.393   0.107   6.399 -0.2103  0.1590  3.0256
 4292SOL    HW224336   0.321   0.212   6.470 -3.4623  0.5825 -0.4787
 4293SOL     OW24337   4.354   4.448   7.674 -0.0670 -0.2250  0.0142
 4293SOL    HW124338   4.397   4.506   7.612 -1.6729  0.5112 -0.4072
 4293SOL    HW224339   4.311   4.388   7.612 -1.9547  1.8674 -0.6842
 4294SOL     OW24340   0.084   4.017   8.309 -0.2238  0.3157 -0.2067
 4294SOL    HW124341   0.063   4.020   8.402 -2.8448 -2.2182 -0.6926
 4294SOL    HW224342   0.079   4.112   8.302  2.6581  0.4408 -0.3219
 4295SOL     OW24343   3.520   4.636   4.487  0.3435  0.0237  0.2155
 4295SOL    HW124344   3.509   4.543   4.509  2.6193 -0.6941 -1.7788
 4295SOL    HW224345   3.430   4.668   4.495  1.1907  1.7002  3.1253
 4296SOL     OW24346   0.838   3.087   3.432  0.2358 -0.0802 -0.0571
 4296SOL    HW124347   0.849   3.028   3.507 -0.8714  2.1498  1.8909
 4296SOL    HW224348   0.744   3.099   3.425  0.0651 -1.3788 -0.0410
 4297SOL     OW24349   3.285   2.563   3.007 -0.0262 -0.1020 -0.3233
 4297SOL    HW124350   3.195   2.529   3.006  0.3601 -1.0706 -1.5602
 4297SOL    HW224351   3.286   2.601   2.920  2.7671  0.8539  0.1436
 4298SOL     OW24352   0.404   3.477  11.731 -0.9269  0.4449  0.2667
 4298SOL    HW124353   0.431   3.426  11.654  1.0575  0.6232  0.8454
 4298SOL    HW224354   0.345   3.413  11.770  1.9657 -2.3699  0.1120
 4299SOL     OW24355   1.641   1.288   1.830  0.4376 -0.1248 -0.5353
 4299SOL    HW124356   1.578   1.359   1.818 -1.1852 -1.2903  1.1600
 4299SOL    HW224357   1.650   1.250   1.743  1.1527  2.0634 -1.4107
 4300SOL     OW24358   1.474   2.437   3.233  0.5006  0.0766  0.0792
 4300SOL    HW124359   1.564   2.453   3.260 -0.0278  3.4403 -0.1396
 4300SOL    HW224360   1.479   2.342   3.221  0.2410  0.1547 -0.6167
 4301SOL     OW24361   4.028   4.547   7.469  0.2382  0.3231 -0.1982
 4301SOL    HW124362   4.113   4.509   7.447  0.9697  2.2269 -0.6240
 4301SOL    HW224363   4.032   4.532   7.563 -1.0767 -0.7993 -0.3298
 4302SOL     OW24364   1.228   1.431   4.339  0.6064  0.3886  0.2580
 4302SOL    HW124365   1.290   1.362   4.315 -1.2394 -0.4378 -2.0598
 4302SOL    HW224366   1.252   1.491   4.269  2.1209  1.6717  1.9040
 4303SOL     OW24367   1.645   3.624   3.456 -0.0958 -0.1237  0.4907
 4303SOL    HW124368   1.726   3.629   3.405  0.4248  2.2841  1.5592
 4303SOL    HW224369   1.585   3.660   3.392  0.5485  2.7804  1.5486
 4304SOL     OW24370   0.581   4.247  11.536  0.1292 -0.1458  0.6757
 4304SOL    HW124371   0.586   4.220  11.628 -1.2273 -0.2317  0.7282
 4304SOL    HW224372   0.629   4.329  11.545  0.8737 -0.4210 -0.8123
 4305SOL     OW24373   2.421   4.324  10.275  0.2542 -0.2139 -0.3634
 4305SOL    HW124374   2.445   4.412  10.245  0.5700 -0.1769 -0.0058
 4305SOL    HW224375   2.428   4.288  10.187 -0.3716 -0.9994 -0.0833
 4306SOL     OW24376   2.457   1.303   8.347  0.2465  0.6246 -0.8460
 4306SOL    HW124377   2.434   1.210   8.348  2.4734  0.1084  1.4708
 4306SOL    HW224378   2.543   1.306   8.307  0.6661 -0.5518 -0.0134
 4307SOL     OW24379   4.539   3.804   7.537  0.3586 -0.6064 -0.4251
 4307SOL    HW124380   4.542   3.829   7.629 -0.6955 -2.3620  0.1018
 4307SOL    HW224381   4.630   3.784   7.516  0.8437 -0.5259  1.5989
 4308SOL     OW24382   1.020   3.856   8.423  0.1068  0.0389 -0.8993
 4308SOL    HW124383   1.081   3.783   8.430 -0.3079 -0.2591 -0.3715
 4308SOL    HW224384   0.957   3.815   8.363  0.5103  1.0056 -1.9750
 4309SOL     OW24385   3.705   3.440   1.634 -0.0851 -0.3186  0.3634
 4309SOL    HW124386   3.776   3.386   1.601 -0.1355 -0.8569  1.1338
 4309SOL    HW224387   3.632   3.379   1.629 -0.5530  0.2598  0.0771
 4310SOL     OW24388   0.292   4.471   5.920 -0.7229  0.4190  0.3904
 4310SOL    HW124389   0.203   4.475   5.954 -1.2862  2.2887 -1.2879
 4310SOL    HW224390   0.314   4.564   5.927 -1.4573  0.7073 -1.0627
 4311SOL     OW24391   0.065   1.745   3.104  0.3114  0.0713 -0.4787
 4311SOL    HW124392   4.716   1.731   3.164 -0.5656 -2.2695 -2.1129
 4311SOL    HW224393   0.125   1.794   3.161 -1.4488  1.5880  0.0513
 4312SOL     OW24394   3.230   2.347   3.258  1.0540  0.8966  0.3696
 4312SOL    HW124395   3.174   2.398   3.316 -1.3667 -1.2536 -0.0748
 4312SOL    HW224396   3.223   2.263   3.304  3.8743  0.5726  0.2233
 4313SOL     OW24397   3.836   1.689   5.156  0.2495  0.0693 -0.0749
 4313SOL    HW124398   3.817   1.619   5.219  0.1678  1.0295  0.9820
 4313SOL    HW224399   3.896   1.748   5.201  0.3516 -0.5142  0.5579
 4314SOL     OW24400   1.568   1.106   5.360  0.1071  0.7041  0.2794
 4314SOL    HW124401   1.537   1.048   5.430  1.2941 -1.0098 -0.6263
 4314SOL    HW224402   1.656   1.133   5.384  0.6838 -0.6762 -0.2922
 4315SOL     OW24403   4.624   3.263   2.682  0.3670 -0.2189  0.3470
 4315SOL    HW124404   4.592   3.352   2.667 -0.6874 -0.7825 -0.8095
 4315SOL    HW224405   4.580   3.251   2.766 -0.5406  2.0479  0.1930
 4316SOL     OW24406   3.297   4.637   5.119 -0.3540 -0.9287  0.4417
 4316SOL    HW124407   3.304   4.681   5.203 -0.6435 -2.0306  1.0454
 4316SOL    HW224408   3.324   4.549   5.148  0.4050 -0.8363  0.0175
 4317SOL     OW24409   0.538   1.374   1.847  0.9014  0.5997  0.1818
 4317SOL    HW124410   0.477   1.314   1.889  0.3655  0.5375 -0.7021
 4317SOL    HW224411   0.532   1.450   1.905 -1.9062  0.4479  0.0903
 4318SOL     OW24412   0.712   3.871   6.462 -0.0287 -0.0671 -0.3280
 4318SOL    HW124413   0.768   3.948   6.475  0.1930  0.1205 -2.3421
 4318SOL    HW224414   0.629   3.899   6.499 -0.5428 -3.2991  0.9489
 4319SOL     OW24415   0.378   2.353  11.669 -0.3724  0.1401  0.3044
 4319SOL    HW124416   0.350   2.342  11.760  0.3731 -1.9768  0.2782
 4319SOL    HW224417   0.417   2.267  11.651 -1.4371  0.0757 -1.7179
 4320SOL     OW24418   3.084   3.557   2.325  0.2257  0.0541 -0.0301
 4320SOL    HW124419   3.140   3.545   2.248 -0.9908  2.2644 -1.2267
 4320SOL    HW224420   2.996   3.570   2.292  1.1266  3.6211 -1.0098
 4321SOL     OW24421   3.029   3.782   3.739 -0.1791 -0.0123 -0.3261
 4321SOL    HW124422   2.947   3.766   3.693  1.4764 -1.1825 -2.8936
 4321SOL    HW224423   3.088   3.741   3.676 -1.0398 -1.4861 -0.1766
 4322SOL     OW24424   0.446   4.107   5.683 -0.4938  0.1662  0.7705
 4322SOL    HW124425   0.486   4.180   5.637  0.4595 -1.2270 -0.6049
 4322SOL    HW224426   0.433   4.147   5.769  1.1052  0.2954  0.9429
 4323SOL     OW24427   3.682   2.376   8.955  0.2679 -0.0311  0.1090
 4323SOL    HW124428   3.612   2.441   8.945 -0.7008 -0.9470  1.0266
 4323SOL    HW224429   3.665   2.322   9.032  0.6939 -0.1839  0.0932
 4324SOL     OW24430   2.729   2.253   2.999  0.5541  0.0986 -0.0017
 4324SOL    HW124431   2.803   2.267   2.939  0.3141 -0.6436 -0.4685
 4324SOL    HW224432   2.678   2.186   2.953 -0.3538 -0.3659  1.6922
 4325SOL     OW24433   3.737   1.420   7.320 -0.9597  0.4568 -0.5627
 4325SOL    HW124434   3.755   1.470   7.399 -0.5813 -0.8339  0.1614
 4325SOL    HW224435   3.696   1.341   7.354 -0.3115 -0.8467 -2.7732
 4326SOL     OW24436   4.529   2.310  14.534  0.8236  0.1145  0.2519
 4326SOL    HW124437   4.437   2.339  14.535  1.3459  1.7574 -0.6165
 4326SOL    HW224438   4.514   2.217  14.550 -1.1586  0.4881  0.6656
 4327SOL     OW24439   0.463   4.040   4.540 -0.7329 -0.1475 -0.0224
 4327SOL    HW124440   0.484   4.022   4.449  1.0306 -1.6176  0.6647
 4327SOL    HW224441   0.404   3.966   4.554 -0.2596 -0.7452 -1.2372
 4328SOL     OW24442   1.054   2.003   7.334  0.0597  0.4379  0.5979
 4328SOL    HW124443   1.143   2.004   7.368 -0.7266  0.3414  2.6443
 4328SOL    HW224444   1.004   2.012   7.415 -0.2920  0.3484  0.3909
 4329SOL     OW24445   2.187   2.265   5.689  0.0567  0.6120 -0.0759
 4329SOL    HW124446   2.155   2.219   5.767 -0.1011  1.0497  0.1134
 4329SOL    HW224447   2.159   2.200   5.624 -0.0742 -0.6869  1.2612
 4330SOL     OW24448   0.376   2.354   9.757  0.5474 -0.2789 -0.1310
 4330SOL    HW124449   0.459   2.391   9.725 -0.8256  1.1088 -2.0950
 4330SOL    HW224450   0.357   2.409   9.833 -1.5961  1.4601 -1.9061
 4331SOL     OW24451   1.683   0.232   9.594  0.2982 -0.5061  0.5914
 4331SOL    HW124452   1.672   0.282   9.512  0.2997  1.6029  1.8657
 4331SOL    HW224453   1.597   0.247   9.633  0.0341  0.6333 -0.4347
 4332SOL     OW24454   4.163   4.230   6.442  0.0319 -0.2109 -0.1622
 4332SOL    HW124455   4.234   4.175   6.476  0.3513  0.2518 -0.0877
 4332SOL    HW224456   4.144   4.182   6.361 -2.8008  1.7901 -0.6801
 4333SOL     OW24457   3.092   0.020  17.037 -0.2641 -0.3849  0.4453
 4333SOL    HW124458   3.031   0.091  17.055 -0.5946 -0.3750 -0.7380
 4333SOL    HW224459   3.180   0.054  17.056  0.3142 -1.2293 -0.7246
 4334SOL     OW24460   4.255   1.279   4.692 -0.1479 -0.5709  0.9152
 4334SOL    HW124461   4.299   1.280   4.607 -1.6102 -1.9758  0.1527
 4334SOL    HW224462   4.170   1.243   4.667 -0.1616  0.8356 -0.9930
 4335SOL     OW24463   1.764   0.279   0.338 -0.0548  0.5033 -0.2859
 4335SOL    HW124464   1.835   0.230   0.378  0.7422 -0.8660 -3.3333
 4335SOL    HW224465   1.684   0.254   0.383  0.5378  1.0149  1.0317
 4336SOL     OW24466   4.315   3.569  13.525  0.0094  0.4742  0.5477
 4336SOL    HW124467   4.264   3.497  13.562  1.0150  0.3184  1.6122
 4336SOL    HW224468   4.314   3.627  13.601  1.6918 -0.3838  1.2209
 4337SOL     OW24469   1.691   2.730  16.398 -0.0279  0.8666 -0.5001
 4337SOL    HW124470   1.598   2.733  16.422  0.3241  3.8270  0.4715
 4337SOL    HW224471   1.732   2.749  16.482  0.3996  1.5142 -0.8568
 4338SOL     OW24472   4.566   4.307   7.134 -0.5958  0.2544  0.6329
 4338SOL    HW124473   4.585   4.377   7.071  0.5716 -0.5499  0.0768
 4338SOL    HW224474   4.575   4.344   7.222  0.4783 -4.3178  2.4686
 4339SOL     OW24475   1.323   0.562  15.820 -0.1199  0.2338 -0.4974
 4339SOL    HW124476   1.267   0.620  15.871 -1.3209  1.2379 -2.9711
 4339SOL    HW224477   1.377   0.628  15.775  1.3311 -2.6391 -3.0096
 4340SOL     OW24478   1.363   1.722   7.966 -0.2544  0.2004  0.2678
 4340SOL    HW124479   1.302   1.703   8.038 -0.7764 -1.4913 -0.6266
 4340SOL    HW224480   1.374   1.816   7.976 -1.5491  0.4740 -0.9510
 4341SOL     OW24481   0.481   0.868   3.788 -0.4391 -0.2208 -0.3473
 4341SOL    HW124482   0.441   0.835   3.707  1.7119 -0.6933 -1.2212
 4341SOL    HW224483   0.569   0.856   3.752  0.1564 -0.4014  1.2110
 4342SOL     OW24484   0.576   1.065   7.266  0.3342 -0.0435 -0.4891
 4342SOL    HW124485   0.507   1.001   7.247 -1.1053  0.8944  1.6258
 4342SOL    HW224486   0.656   1.027   7.228 -0.9301 -2.4182 -0.7558
 4343SOL     OW24487   4.597   0.000  17.506 -0.4193  0.6781  0.0148
 4343SOL    HW124488   4.613   4.676  17.425  0.0952  0.0615  0.4810
 4343SOL    HW224489   4.563   4.652  17.559  0.2565 -0.8137 -1.5825
 4344SOL     OW24490   0.131   0.504   8.678  0.4133  0.3697  0.2177
 4344SOL    HW124491   0.131   0.461   8.764  0.4898 -1.9549 -0.9569
 4344SOL    HW224492   0.051   0.556   8.674  0.2181  0.0919  0.4591
 4345SOL     OW24493   2.932   0.167  11.892  0.2507 -0.1573  0.2496
 4345SOL    HW124494   2.853   0.121  11.921 -1.3684  2.2718 -0.3454
 4345SOL    HW224495   2.961   0.105  11.824  1.4058  0.6807 -0.0255
 4346SOL     OW24496   0.306   1.096   5.925 -0.1890  0.2237 -0.1479
 4346SOL    HW124497   0.254   1.046   5.861  1.0298 -0.3549 -0.6917
 4346SOL    HW224498   0.346   1.024   5.974 -1.7510  0.4920  1.4877
 4347SOL     OW24499   2.486   1.215  12.406  0.0530  0.1962 -0.1452
 4347SOL    HW124500   2.446   1.245  12.488 -0.3456  0.0796 -0.2962
 4347SOL    HW224501   2.542   1.290  12.385 -0.6408  0.4504 -1.1175
 4348SOL     OW24502   0.143   0.766  10.136  0.3299 -0.1064 -0.4655
 4348SOL    HW124503   0.178   0.802  10.217  2.2182 -1.7674 -0.5403
 4348SOL    HW224504   0.219   0.726  10.093  1.3069 -0.5087  1.6123
 4349SOL     OW24505   1.347   2.937  12.360  0.0301  0.5788  0.4156
 4349SOL    HW124506   1.348   3.003  12.429 -0.1805 -0.1776  1.1423
 4349SOL    HW224507   1.381   2.995  12.291 -1.3377  2.3095  1.2215
 4350SOL     OW24508   4.711   3.311  17.020 -0.0989  0.3301  0.4498
 4350SOL    HW124509   0.014   3.252  16.951  1.9888 -0.7794  2.1896
 4350SOL    HW224510   4.698   3.247  17.090 -3.4930  0.7920  0.2386
 4351SOL     OW24511   0.603   3.326   5.474 -0.1080 -0.1448 -0.2548
 4351SOL    HW124512   0.639   3.412   5.497  0.4297 -0.4428  0.0281
 4351SOL    HW224513   0.558   3.338   5.391  0.9973  3.2638 -0.3385
 4352SOL     OW24514   2.751   1.578   8.311  0.8323  0.0943 -0.6470
 4352SOL    HW124515   2.765   1.628   8.231 -2.6792 -0.9195 -1.8887
 4352SOL    HW224516   2.760   1.649   8.375 -2.4208 -0.9628  1.0227
 4353SOL     OW24517   2.192   2.357   2.146 -0.7293 -0.7063  0.3301
 4353SOL    HW124518   2.150   2.304   2.078  1.9404  0.2546 -2.0518
 4353SOL    HW224519   2.275   2.369   2.100  0.1085  0.3479  2.1046
 4354SOL     OW24520   2.991   1.355  15.972 -0.4079 -0.7021 -0.0495
 4354SOL    HW124521   3.071   1.323  15.928 -0.7067 -1.8183  0.2128
 4354SOL    HW224522   2.985   1.306  16.054  0.2025 -2.2275 -0.8941
 4355SOL     OW24523   1.907   3.046   8.318  0.6246 -0.4388 -0.0442
 4355SOL    HW124524   1.920   3.050   8.412 -3.8055 -1.9237  0.5744
 4355SOL    HW224525   1.918   3.140   8.302  2.5511 -0.3184  1.9188
 4356SOL     OW24526   4.073   2.160   8.086  0.0592 -0.2655 -0.3283
 4356SOL    HW124527   4.106   2.163   8.176  1.5093 -0.1615 -0.8620
 4356SOL    HW224528   4.026   2.243   8.084 -1.4901 -1.1887 -2.3521
 4357SOL     OW24529   0.695   1.366  10.209 -0.8236  0.0819  0.2920
 4357SOL    HW124530   0.716   1.358  10.116  0.5423 -0.7828  0.6813
 4357SOL    HW224531   0.677   1.274  10.230 -0.3276 -0.1994 -0.4903
 4358SOL     OW24532   1.837   4.299   3.730  0.6901  0.0247  0.1010
 4358SOL    HW124533   1.876   4.280   3.815  2.0591  2.7346  0.0615
 4358SOL    HW224534   1.761   4.241   3.721  0.1016  0.5557  1.7696
 4359SOL     OW24535   2.408   2.076  17.564  0.3017  0.5204 -0.3442
 4359SOL    HW124536   2.340   2.135  17.530 -0.6957  0.2739  1.1963
 4359SOL    HW224537   2.412   2.117  17.651  2.2893  1.1349 -0.7350
 4360SOL     OW24538   4.308   0.419   2.847  0.4744  0.7601 -0.1915
 4360SOL    HW124539   4.248   0.406   2.773  0.1758  0.0530  0.1741
 4360SOL    HW224540   4.265   0.494   2.889  0.5487  0.7498 -0.0966
 4361SOL     OW24541   0.773   1.572  12.805  0.3833 -0.6069 -1.1414
 4361SOL    HW124542   0.794   1.533  12.890  0.3490 -0.2613 -0.9731
 4361SOL    HW224543   0.861   1.576  12.768  1.3350  0.6444  1.2074
 4362SOL     OW24544   3.499   1.092   5.281  0.3206  0.4537  0.4260
 4362SOL    HW124545   3.569   1.085   5.346  0.5876  0.6243  0.1530
 4362SOL    HW224546   3.431   1.030   5.308  1.9394 -0.8477  1.5713
 4363SOL     OW24547   0.543   1.598   4.992 -0.5082  0.4868 -0.3374
 4363SOL    HW124548   0.475   1.593   4.925 -0.6427  2.9762 -0.3903
 4363SOL    HW224549   0.615   1.632   4.938 -0.5666 -1.7804 -1.8331
 4364SOL     OW24550   4.384   1.596   8.348 -0.0582  1.1854 -0.4609
 4364SOL    HW124551   4.309   1.557   8.393  1.8115 -0.1806  1.4979
 4364SOL    HW224552   4.457   1.578   8.407 -0.1382  2.9577  0.1676
 4365SOL     OW24553   1.204   1.911  16.682 -0.1833 -0.3604  0.9613
 4365SOL    HW124554   1.218   1.817  16.690 -1.0110 -0.3108  2.9236
 4365SOL    HW224555   1.170   1.921  16.593 -0.7594 -2.0818  0.9884
 4366SOL     OW24556   1.226   0.255  15.897 -0.2356 -0.6414 -0.2328
 4366SOL    HW124557   1.272   0.244  15.814  1.5157  0.1465  0.6293
 4366SOL    HW224558   1.138   0.250  15.860 -0.1201 -1.0220 -0.4597
 4367SOL     OW24559   1.405   2.937   8.884 -0.5575 -0.2754 -0.5290
 4367SOL    HW124560   1.420   2.920   8.791  0.2015 -2.4198 -0.0260
 4367SOL    HW224561   1.478   2.998   8.886 -0.1329 -0.7835 -0.2856
 4368SOL     OW24562   3.076   3.166  16.611  0.5216 -0.1652 -0.3841
 4368SOL    HW124563   3.121   3.116  16.542 -1.1974 -2.4531  0.1473
 4368SOL    HW224564   3.112   3.255  16.600  1.8006 -0.6862 -0.5061
 4369SOL     OW24565   0.193   0.861   6.612 -0.4396 -0.1515  0.3612
 4369SOL    HW124566   0.196   0.837   6.704  0.7379  0.9066  0.5952
 4369SOL    HW224567   0.098   0.857   6.597 -0.3565  1.4038 -0.6172
 4370SOL     OW24568   0.450   3.135   1.190  0.5614  0.9499 -0.6194
 4370SOL    HW124569   0.518   3.180   1.240  0.4905  0.5127 -0.1317
 4370SOL    HW224570   0.471   3.162   1.100  0.4565  1.8143 -0.3822
 4371SOL     OW24571   1.806   3.812   5.056  0.0570 -0.3806  0.0100
 4371SOL    HW124572   1.862   3.743   5.021  0.3230  0.7679 -1.8509
 4371SOL    HW224573   1.809   3.798   5.151  0.1500 -1.4106 -0.1463
 4372SOL     OW24574   2.704   4.497   1.229 -0.4096 -0.2223  0.6092
 4372SOL    HW124575   2.726   4.450   1.149  1.7689 -1.4954  1.9532
 4372SOL    HW224576   2.793   4.518   1.258 -0.4226 -1.6394  1.6744
 4373SOL     OW24577   2.636   2.616   4.920  0.1363  0.0236  0.3819
 4373SOL    HW124578   2.586   2.561   4.980  3.6250 -2.2813  1.1669
 4373SOL    HW224579   2.574   2.689   4.912 -0.5345 -0.5447  0.3807
 4374SOL     OW24580   3.636   3.753  11.724 -0.0245  0.0510  0.4332
 4374SOL    HW124581   3.614   3.846  11.730 -1.0832 -0.3637  2.9042
 4374SOL    HW224582   3.586   3.716  11.796  0.0999 -0.8277  0.0673
 4375SOL     OW24583   2.106   1.907  10.977 -0.2579  0.2175 -0.3847
 4375SOL    HW124584   2.030   1.956  11.008  0.8978  1.3500  0.6372
 4375SOL    HW224585   2.166   1.978  10.954 -0.1632 -0.6240 -2.7503
 4376SOL     OW24586   1.026   0.954   5.376 -0.1632  0.4311  0.0918
 4376SOL    HW124587   1.093   0.947   5.444 -0.7978 -2.1643  0.4643
 4376SOL    HW224588   0.949   0.908   5.409 -2.3149  3.4422 -0.7734
 4377SOL     OW24589   3.569   4.391   4.592 -0.2668  0.5064 -0.0291
 4377SOL    HW124590   3.501   4.374   4.657 -0.8327 -2.1365 -1.3185
 4377SOL    HW224591   3.642   4.346   4.635 -0.3370 -1.8413 -2.3509
 4378SOL     OW24592   4.549   0.879  17.374 -0.2484  0.1706  0.4281
 4378SOL    HW124593   4.573   0.864  17.465  0.2835  0.5657  0.3522
 4378SOL    HW224594   4.457   0.900  17.391 -0.3056  0.6066 -0.4095
 4379SOL     OW24595   0.226   0.553   3.797  0.5089  0.4320  0.1931
 4379SOL    HW124596   0.265   0.610   3.863 -2.2068  0.9477  1.3789
 4379SOL    HW224597   0.132   0.552   3.818  0.5634  0.0552  0.4221
 4380SOL     OW24598   1.664   4.651   8.407 -0.1722  0.2761 -0.2063
 4380SOL    HW124599   1.754   4.620   8.398 -0.7282 -2.3733  3.4944
 4380SOL    HW224600   1.613   4.572   8.392  0.5232 -0.4422  1.2886
 4381SOL     OW24601   0.135   3.264   9.088  0.2689  0.2856 -0.2461
 4381SOL    HW124602   0.152   3.191   9.147  1.0578  1.5682  1.1185
 4381SOL    HW224603   0.126   3.227   9.000  0.3468  1.3597 -0.7071
 4382SOL     OW24604   1.645   4.672  16.102  0.0704 -0.1683 -0.1843
 4382SOL    HW124605   1.715   0.011  16.085 -0.3463  0.7490  1.4170
 4382SOL    HW224606   1.641   4.676  16.198  0.9184 -1.2993 -0.0981
 4383SOL     OW24607   2.217   2.497   1.295 -0.4103 -0.3491  0.2672
 4383SOL    HW124608   2.204   2.418   1.348  3.2057 -0.4148  1.0730
 4383SOL    HW224609   2.308   2.484   1.267 -0.4233 -1.8416  0.9311
 4384SOL     OW24610   0.245   1.305  15.220 -1.0104 -0.0097  0.2142
 4384SOL    HW124611   0.248   1.313  15.315  1.3954  1.4336  0.0238
 4384SOL    HW224612   0.212   1.390  15.189 -3.1875 -0.6130  0.9142
 4385SOL     OW24613   3.701   1.195   3.331  0.5649  0.1479  0.5613
 4385SOL    HW124614   3.734   1.116   3.288 -1.0459 -0.0235 -0.3869
 4385SOL    HW224615   3.653   1.244   3.264  0.7530  0.6349  0.7882
 4386SOL     OW24616   3.718   0.999   9.206  0.3788 -0.3710  0.2840
 4386SOL    HW124617   3.648   0.963   9.260 -1.9921 -0.7881 -3.1259
 4386SOL    HW224618   3.764   1.072   9.248  0.5140  0.8451 -2.0020
 4387SOL     OW24619   0.957   2.752  11.334  0.2068 -0.0006  0.0890
 4387SOL    HW124620   0.923   2.682  11.389  0.1486  0.3786  0.5335
 4387SOL    HW224621   1.041   2.717  11.303  0.1683 -1.8840  2.0760
 4388SOL     OW24622   1.512   3.384   2.752 -0.5612  0.8090  0.3737
 4388SOL    HW124623   1.441   3.357   2.694  0.3352 -2.4997  0.7976
 4388SOL    HW224624   1.464   3.387   2.834  1.2728 -0.6918  1.4938
 4389SOL     OW24625   1.879   4.491   8.418 -0.4692  0.2038  0.6070
 4389SOL    HW124626   1.950   4.497   8.483  1.4205 -2.6442 -1.2173
 4389SOL    HW224627   1.893   4.406   8.378  0.5343  0.9351 -0.5835
 4390SOL     OW24628   1.898   1.307   7.116 -0.3603  0.0915  0.1655
 4390SOL    HW124629   1.867   1.391   7.083  2.2002  1.3573  0.9087
 4390SOL    HW224630   1.866   1.293   7.205  0.0783  2.0389  0.6180
 4391SOL     OW24631   2.548   4.511   4.071 -0.6783  0.8044 -0.1040
 4391SOL    HW124632   2.573   4.428   4.111  1.2300  1.0571 -0.7665
 4391SOL    HW224633   2.542   4.489   3.978  2.4912  0.4743 -0.2387
 4392SOL     OW24634   4.641   3.343   6.348  0.2658 -0.3940  0.5751
 4392SOL    HW124635   4.598   3.261   6.374 -0.6717  0.1364  0.7139
 4392SOL    HW224636   4.713   3.334   6.410  1.5884  1.8419 -0.6781
 4393SOL     OW24637   1.625   1.076  12.421 -0.0721  0.0542  0.0835
 4393SOL    HW124638   1.714   1.063  12.389 -0.0888  1.9836 -0.7385
 4393SOL    HW224639   1.639   1.156  12.472  0.8722 -0.8573  1.2451
 4394SOL     OW24640   3.375   1.985   7.301  0.0659 -0.0071 -0.1074
 4394SOL    HW124641   3.299   1.950   7.256 -0.4274  2.3467 -1.0974
 4394SOL    HW224642   3.395   1.903   7.348  0.6267  0.1375 -0.0895
 4395SOL     OW24643   2.196   1.667   8.194 -0.0198  0.2562  0.4319
 4395SOL    HW124644   2.190   1.583   8.148 -0.5037  0.6690 -0.2617
 4395SOL    HW224645   2.237   1.643   8.277  1.0835 -1.3399 -0.5655
 4396SOL     OW24646   1.457   1.448   6.299 -0.1119 -0.1346  0.8087
 4396SOL    HW124647   1.533   1.480   6.347 -0.7019 -0.0019  1.6489
 4396SOL    HW224648   1.501   1.371   6.262 -0.5865  0.7631 -1.6208
 4397SOL     OW24649   3.753   3.007   8.524  0.2067  0.1366 -0.6308
 4397SOL    HW124650   3.668   3.049   8.536 -0.3703 -1.8800  2.3456
 4397SOL    HW224651   3.799   3.052   8.453 -1.1265  1.4314 -0.6711
 4398SOL     OW24652   4.386   4.009   2.996 -0.3820 -0.7512 -1.4175
 4398SOL    HW124653   4.432   4.078   2.949 -0.7078 -1.0493 -2.1835
 4398SOL    HW224654   4.465   3.968   3.029 -0.8185  0.3064  0.9247
 4399SOL     OW24655   3.265   3.052  16.853 -0.2461 -0.9988 -0.3531
 4399SOL    HW124656   3.282   3.146  16.845  0.4269 -1.2090 -1.3308
 4399SOL    HW224657   3.188   3.047  16.797  0.2347  0.1029 -1.1178
 4400SOL     OW24658   2.269   1.717  17.117 -0.2023  0.0358  0.2175
 4400SOL    HW124659   2.333   1.693  17.050  0.4587 -1.1365  1.2812
 4400SOL    HW224660   2.190   1.675  17.081 -0.0986 -0.0340  0.0696
 4401SOL     OW24661   2.082   0.595   0.793  0.0063 -0.4595  0.4771
 4401SOL    HW124662   2.128   0.615   0.712 -1.3572  0.4224 -0.0860
 4401SOL    HW224663   2.149   0.552   0.846  0.4794 -0.5071 -0.1629
 4402SOL     OW24664   4.610   2.989   4.893 -0.4473 -0.4982 -0.3082
 4402SOL    HW124665   4.589   2.935   4.969  0.7970  2.5009  2.1799
 4402SOL    HW224666   4.640   2.923   4.831  1.1518 -0.1604  0.0979
 4403SOL     OW24667   3.790   0.392  13.662  0.2520 -0.0330  0.7853
 4403SOL    HW124668   3.733   0.416  13.589  2.7463  0.5653 -0.9700
 4403SOL    HW224669   3.746   0.330  13.720  2.5318 -0.6598  1.8501
 4404SOL     OW24670   0.223   1.331   4.384  0.1076  0.4556  0.3945
 4404SOL    HW124671   0.151   1.268   4.391  1.0819 -0.5942  1.1437
 4404SOL    HW224672   0.301   1.275   4.394 -0.6060 -0.3415  1.4759
 4405SOL     OW24673   2.797   3.083  11.911 -0.0659  1.0320 -0.1109
 4405SOL    HW124674   2.784   2.991  11.889  0.4481  1.0743 -0.5945
 4405SOL    HW224675   2.727   3.096  11.975 -0.6898 -0.5926 -0.4625
 4406SOL     OW24676   2.753   1.250   9.666 -0.2859  0.4045 -0.8020
 4406SOL    HW124677   2.848   1.242   9.667 -0.3205  0.0918  0.6436
 4406SOL    HW224678   2.727   1.165   9.632 -4.4991  0.6418  1.7513
 4407SOL     OW24679   3.367   2.235   3.058 -0.1989  0.5053 -0.5010
 4407SOL    HW124680   3.305   2.269   3.123 -0.9638  0.7659 -1.3728
 4407SOL    HW224681   3.398   2.157   3.103 -2.2239 -1.3755 -2.3985
 4408SOL     OW24682   1.012   4.184   2.333 -0.8359  0.0326  0.8357
 4408SOL    HW124683   1.008   4.257   2.394 -0.6502  1.2268 -0.5641
 4408SOL    HW224684   0.968   4.114   2.381 -1.3885  1.3301  2.2501
 4409SOL     OW24685   1.610   3.031   8.082  0.6681  0.0099  0.6909
 4409SOL    HW124686   1.592   3.074   7.998  2.0710 -0.6161  0.0608
 4409SOL    HW224687   1.650   2.949   8.053 -0.0279 -0.3096  0.6399
 4410SOL     OW24688   0.547   1.060  15.974 -0.1228  0.2093 -0.0852
 4410SOL    HW124689   0.627   1.113  15.981  1.7181 -2.4349 -1.1578
 4410SOL    HW224690   0.520   1.054  16.066  1.9084  0.1841  0.5151
 4411SOL     OW24691   2.720   0.058   7.465 -0.1060 -0.0828 -0.0335
 4411SOL    HW124692   2.687   0.054   7.376 -1.5919  2.0870  0.4181
 4411SOL    HW224693   2.650   0.110   7.504 -0.9146  0.0043 -1.6004
 4412SOL     OW24694   3.551   2.278   5.580  0.8012  0.3614  0.0931
 4412SOL    HW124695   3.574   2.273   5.673  1.7865  0.0128 -0.1623
 4412SOL    HW224696   3.572   2.371   5.575  2.4470  0.0825  2.0032
 4413SOL     OW24697   0.988   2.388   3.949 -0.2818 -0.1264  0.4772
 4413SOL    HW124698   0.999   2.344   3.864 -2.1368  0.3013  0.0244
 4413SOL    HW224699   1.033   2.472   3.936 -0.0901 -0.3603 -0.4305
 4414SOL     OW24700   3.826   3.174   6.583 -0.2511  0.2609  0.1590
 4414SOL    HW124701   3.916   3.144   6.569 -0.5111 -0.4949  0.0771
 4414SOL    HW224702   3.792   3.105   6.641  1.5505  0.2512  1.1897
 4415SOL     OW24703   3.083   4.538  17.212  0.2064 -0.3591  0.1511
 4415SOL    HW124704   3.096   4.608  17.147  0.7833  0.4154  1.1020
 4415SOL    HW224705   3.096   4.455  17.167 -1.6017  1.2025 -3.2902
 4416SOL     OW24706   2.885   2.733  15.494 -0.2056 -0.3013  0.0689
 4416SOL    HW124707   2.824   2.763  15.427 -1.2371 -1.0385  0.6805
 4416SOL    HW224708   2.828   2.670  15.538  1.1273  0.0876  2.3839
 4417SOL     OW24709   2.898   1.360  10.187  0.0656 -0.3493 -0.1091
 4417SOL    HW124710   2.964   1.303  10.148 -0.4808 -0.5940 -0.6790
 4417SOL    HW224711   2.957   1.434  10.198 -1.4427  0.6787  1.0133
 4418SOL     OW24712   2.132   2.287   0.187 -0.1363 -0.6371 -0.1364
 4418SOL    HW124713   2.176   2.370   0.175  0.6059 -1.3764 -2.5274
 4418SOL    HW224714   2.041   2.306   0.211  0.9450  1.4226  2.2806
 4419SOL     OW24715   0.829   0.440   4.709  0.8965 -0.3233 -0.1843
 4419SOL    HW124716   0.879   0.430   4.629 -0.2263  0.2026 -0.9580
 4419SOL    HW224717   0.738   0.440   4.677  0.1509  1.1032  1.9172
 4420SOL     OW24718   2.965   3.675   9.118  0.1493  0.0171 -0.5094
 4420SOL    HW124719   2.885   3.637   9.081 -0.7706  0.7581  0.7398
 4420SOL    HW224720   3.020   3.596   9.124  0.1222  0.0613  0.2861
 4421SOL     OW24721   4.224   4.193  12.539 -0.0297 -0.6006  0.3861
 4421SOL    HW124722   4.274   4.271  12.559 -0.3794 -0.0691 -0.7855
 4421SOL    HW224723   4.203   4.157  12.625  0.7861 -0.9637  0.4289
 4422SOL     OW24724   0.182   0.259   4.729 -0.3929  0.5695 -0.2608
 4422SOL    HW124725   0.246   0.310   4.679  0.1769 -0.0928 -0.2099
 4422SOL    HW224726   0.108   0.320   4.732  1.7593  3.1352  1.2703
 4423SOL     OW24727   4.617   4.161   7.926  0.1068 -0.6856 -0.3772
 4423SOL    HW124728   4.571   4.116   7.996  1.0291 -1.8944 -0.5493
 4423SOL    HW224729   4.625   4.253   7.953 -0.5705  0.0634 -2.6705
 4424SOL     OW24730   1.974   2.153   5.465 -0.3612  0.1498  0.2106
 4424SOL    HW124731   1.944   2.214   5.533  1.8176 -1.0555  2.2329
 4424SOL    HW224732   1.889   2.132   5.427 -0.3688 -1.0130  0.8465
 4425SOL     OW24733   1.775   3.651   1.593 -0.1863  0.0124 -0.4065
 4425SOL    HW124734   1.855   3.640   1.541  1.9477 -0.7585  3.0790
 4425SOL    HW224735   1.808   3.658   1.682  0.6267 -1.6834 -0.5905
 4426SOL     OW24736   0.362   2.968   3.874  0.2565  0.3175  0.3731
 4426SOL    HW124737   0.363   3.002   3.784 -1.4835 -1.1466 -0.2042
 4426SOL    HW224738   0.436   2.909   3.862 -0.7669 -0.5423 -1.8013
 4427SOL     OW24739   4.448   0.329   1.333  0.3005  0.4283  0.1589
 4427SOL    HW124740   4.387   0.389   1.289  0.6296 -1.0907 -2.3548
 4427SOL    HW224741   4.513   0.302   1.268  0.2351  0.2121  0.1829
 4428SOL     OW24742   1.068   3.548   4.407 -0.6478 -0.1571  0.0444
 4428SOL    HW124743   1.069   3.489   4.483 -0.0977 -0.5137 -0.2356
 4428SOL    HW224744   1.127   3.509   4.342  0.2881  1.5903 -0.1638
 4429SOL     OW24745   1.885   2.370   7.480  0.0105 -0.0674 -0.2738
 4429SOL    HW124746   1.896   2.447   7.424 -2.7711  0.6270  0.1659
 4429SOL    HW224747   1.797   2.388   7.513  0.8930  1.2308  1.3515
 4430SOL     OW24748   0.733   2.043   7.146  0.0560 -0.0103  0.1654
 4430SOL    HW124749   0.744   1.986   7.222  3.0902  0.0501 -0.2366
 4430SOL    HW224750   0.786   1.996   7.081 -0.9607 -0.3926 -0.3843
 4431SOL     OW24751   3.010   1.591   4.305  0.2115 -0.5857  0.3459
 4431SOL    HW124752   2.965   1.675   4.311  0.4364 -0.4960  0.8118
 4431SOL    HW224753   3.095   1.616   4.341 -0.3797  1.4238  0.3268
 4432SOL     OW24754   1.777   4.035   3.637 -0.0060  0.2675 -0.1424
 4432SOL    HW124755   1.787   4.069   3.548 -0.6937 -1.5210 -0.9101
 4432SOL    HW224756   1.684   4.013   3.641  0.1708 -0.5591 -0.6537
 4433SOL     OW24757   1.826   3.604   1.970 -0.5475  0.4952  0.1020
 4433SOL    HW124758   1.835   3.698   1.960 -3.4548  0.8596  0.7979
 4433SOL    HW224759   1.735   3.583   1.945 -0.4420 -0.7087  0.7000
 4434SOL     OW24760   1.594   2.860   3.157 -0.3201 -0.5623  0.3563
 4434SOL    HW124761   1.590   2.793   3.088  1.4578 -0.5544  0.2356
 4434SOL    HW224762   1.589   2.939   3.102  1.3972 -1.3432 -0.9559
 4435SOL     OW24763   1.750   0.710   0.090 -0.3463  0.4811 -0.9280
 4435SOL    HW124764   1.701   0.695   0.171  3.5050 -2.3992  0.8793
 4435SOL    HW224765   1.752   0.805   0.094  0.1723  0.4526 -0.5809
 4436SOL     OW24766   3.314   3.112   1.871  0.1123 -0.1145 -0.3779
 4436SOL    HW124767   3.378   3.108   1.800  2.3934  0.5625  1.6303
 4436SOL    HW224768   3.347   3.040   1.925 -0.5134  0.6614  1.0154
 4437SOL     OW24769   0.016   3.093  13.704 -0.2831  0.4456 -0.4892
 4437SOL    HW124770   0.082   3.162  13.697 -0.3378  0.5574  0.1414
 4437SOL    HW224771   4.664   3.146  13.680 -0.5348 -0.1816 -1.0678
 4438SOL     OW24772   3.071   3.974  17.107 -0.4614 -0.3456  0.3113
 4438SOL    HW124773   3.146   3.953  17.052 -0.6801 -0.2749 -0.0192
 4438SOL    HW224774   2.998   3.924  17.069 -1.0468 -0.2431  1.2917
 4439SOL     OW24775   2.250   0.565   7.825  0.1288 -0.3098 -0.2292
 4439SOL    HW124776   2.246   0.546   7.919 -2.6609  2.1284  0.1330
 4439SOL    HW224777   2.256   0.660   7.833 -1.2031 -0.3019  0.6109
 4440SOL     OW24778   4.269   2.571  10.066  0.3310 -0.1575 -0.2839
 4440SOL    HW124779   4.345   2.615  10.029  0.0276  0.9235  0.3703
 4440SOL    HW224780   4.204   2.595  10.000  0.7005 -1.4980 -1.1294
 4441SOL     OW24781   1.719   0.894   7.408  0.0764 -0.2315 -0.0741
 4441SOL    HW124782   1.814   0.910   7.408 -0.1691  1.2423  0.8867
 4441SOL    HW224783   1.714   0.804   7.376  0.7049 -1.1534  2.4069
 4442SOL     OW24784   2.271   2.255  10.087 -0.2844  0.0622 -0.7713
 4442SOL    HW124785   2.225   2.245  10.003 -0.1144 -1.3030 -0.6920
 4442SOL    HW224786   2.265   2.163  10.113 -0.2768  1.1088  2.8649
 4443SOL     OW24787   4.518   3.072   6.317 -0.8766  0.5048 -0.0541
 4443SOL    HW124788   4.566   2.990   6.321  1.1815  1.7120 -0.3472
 4443SOL    HW224789   4.460   3.059   6.241 -0.2634  2.5887 -0.8688
 4444SOL     OW24790   3.058   3.532   7.251  0.4750 -0.2608  0.6115
 4444SOL    HW124791   3.022   3.607   7.203  0.8982 -0.5065 -0.0893
 4444SOL    HW224792   3.008   3.460   7.212 -0.1420  0.1788  0.5907
 4445SOL     OW24793   2.697   0.904   3.852 -0.2610  0.0617 -0.0888
 4445SOL    HW124794   2.763   0.885   3.919 -1.0601 -0.7332  0.4647
 4445SOL    HW224795   2.617   0.864   3.886 -0.2727  0.7566  0.6952
 4446SOL     OW24796   4.189   0.079  16.900  0.1355 -0.3627 -0.0462
 4446SOL    HW124797   4.257   0.079  16.968  0.1271 -0.7439 -0.0357
 4446SOL    HW224798   4.245   0.084  16.823 -1.4620 -0.5563 -1.2108
 4447SOL     OW24799   2.938   0.030   3.244  0.0407  0.3751  0.8181
 4447SOL    HW124800   2.934   0.115   3.288 -0.9911  0.3724  0.7253
 4447SOL    HW224801   2.872   0.042   3.175  2.2377 -1.2455 -1.5617
 4448SOL     OW24802   4.375   3.646   4.537 -0.4665  0.0338 -0.1277
 4448SOL    HW124803   4.390   3.610   4.450 -0.0055 -0.2189  0.0560
 4448SOL    HW224804   4.287   3.618   4.562 -0.5426  1.8932  1.7454
 4449SOL     OW24805   3.348   3.190  13.259  0.7445  0.3773  0.1170
 4449SOL    HW124806   3.357   3.285  13.257  1.8234  0.2595 -0.5426
 4449SOL    HW224807   3.363   3.169  13.351  2.2136 -3.6769 -1.0317
 4450SOL     OW24808   0.611   0.090   3.601 -0.2133 -0.4837  0.0440
 4450SOL    HW124809   0.701   0.070   3.626  0.2878  0.9662 -0.5847
 4450SOL    HW224810   0.601   0.057   3.512  0.0831  0.7529 -0.4555
 4451SOL     OW24811   3.224   0.833   8.698 -0.1367 -0.0109  0.1591
 4451SOL    HW124812   3.153   0.893   8.677  1.0355  1.2840 -0.1114
 4451SOL    HW224813   3.173   0.782   8.761 -0.0071 -1.2021 -0.7149
 4452SOL     OW24814   0.537   3.853  10.537  0.4120 -0.2442  0.9060
 4452SOL    HW124815   0.493   3.780  10.581 -0.3428  0.2791  1.0123
 4452SOL    HW224816   0.632   3.842  10.542  0.2369 -1.2484  2.1853
 4453SOL     OW24817   1.553   1.039  15.276 -0.1186 -0.2971 -0.2477
 4453SOL    HW124818   1.501   1.118  15.289 -3.0923 -1.9668 -2.0491
 4453SOL    HW224819   1.487   0.972  15.293 -1.2389  0.4094 -1.8637
 4454SOL     OW24820   1.783   1.555   3.717 -0.3611 -0.0855  0.4147
 4454SOL    HW124821   1.859   1.596   3.675 -0.2396 -0.1273  0.5932
 4454SOL    HW224822   1.805   1.463   3.703  1.2735 -0.0463  2.8431
 4455SOL     OW24823   1.900   4.591  10.272 -0.0288  0.0340 -0.2427
 4455SOL    HW124824   1.900   4.512  10.218  2.6180  0.7275 -1.2299
 4455SOL    HW224825   1.925   4.662  10.213 -1.1055  1.1643  0.6541
 4456SOL     OW24826   0.750   2.704   6.588 -0.2718 -0.5075 -0.1703
 4456SOL    HW124827   0.698   2.733   6.512  1.4532  1.5853 -0.5360
 4456SOL    HW224828   0.758   2.778   6.647 -1.2808 -2.2140  2.0902
 4457SOL     OW24829   2.651   3.359  10.933 -0.2148  0.3105  0.0939
 4457SOL    HW124830   2.667   3.438  10.984  1.1430  0.7608 -1.0072
 4457SOL    HW224831   2.706   3.296  10.980 -1.4549 -0.7593  0.0976
 4458SOL     OW24832   4.576   3.570  11.509  0.1082  0.0849 -0.5357
 4458SOL    HW124833   4.542   3.651  11.472 -1.7477 -0.0231  0.9146
 4458SOL    HW224834   4.604   3.514  11.437  0.6139 -1.4523  0.8643
 4459SOL     OW24835   0.749   0.174  10.656 -0.2995  0.2755  0.1671
 4459SOL    HW124836   0.681   0.117  10.693  1.9604 -0.3984  3.2472
 4459SOL    HW224837   0.807   0.113  10.611 -1.9979 -1.5221  0.3908
 4460SOL     OW24838   4.624   1.640  16.710 -0.8097 -0.0300 -0.0971
 4460SOL    HW124839   4.607   1.550  16.682 -0.2307  0.0539 -0.7335
 4460SOL    HW224840   4.663   1.687  16.635  0.0848  0.5059  0.7081
 4461SOL     OW24841   3.234   0.757   2.393  0.8475 -0.6506 -0.0823
 4461SOL    HW124842   3.229   0.849   2.368  1.6333 -0.2744  1.1475
 4461SOL    HW224843   3.326   0.735   2.379  0.9770 -0.5801  0.6557
 4462SOL     OW24844   2.430   0.958   9.236  0.3269 -0.5001 -0.2708
 4462SOL    HW124845   2.354   1.012   9.216 -0.6189 -1.4154  0.8174
 4462SOL    HW224846   2.429   0.970   9.331  0.1837 -1.0412 -0.2020
 4463SOL     OW24847   0.721   3.307  13.720  0.4256 -0.4539  0.1640
 4463SOL    HW124848   0.677   3.360  13.786 -0.7598  1.9719 -2.5834
 4463SOL    HW224849   0.814   3.314  13.741  0.2348  1.0384  0.4633
 4464SOL     OW24850   2.237   2.509   3.832 -0.4169 -0.4472  0.5532
 4464SOL    HW124851   2.192   2.483   3.752 -1.0900  0.6909  0.5648
 4464SOL    HW224852   2.190   2.590   3.851 -0.0370  0.1117 -0.8957
 4465SOL     OW24853   3.624   3.178   0.905 -0.5437 -0.1215 -0.5692
 4465SOL    HW124854   3.660   3.203   0.820  1.0156  0.4543  0.2579
 4465SOL    HW224855   3.706   3.142   0.938 -0.1016  0.4640 -1.0228
 4466SOL     OW24856   1.641   2.362  14.929 -0.1228  0.6838 -0.1651
 4466SOL    HW124857   1.641   2.424  15.001 -0.7210 -0.7389  1.0751
 4466SOL    HW224858   1.654   2.275  14.967  0.4939  0.4535 -0.8937
 4467SOL     OW24859   2.150   3.359   5.434 -0.7046  0.2022 -0.5941
 4467SOL    HW124860   2.225   3.367   5.493 -0.3367 -1.0006 -0.8889
 4467SOL    HW224861   2.192   3.293   5.379 -0.1280  0.4216 -0.4099
 4468SOL     OW24862   3.329   2.736   8.367 -0.1539  0.0857 -0.4501
 4468SOL    HW124863   3.389   2.800   8.328 -4.4777  3.5827 -1.3707
 4468SOL    HW224864   3.339   2.678   8.291 -1.4356 -1.0645  0.2541
 4469SOL     OW24865   0.783   1.817   4.827 -0.0782 -0.2858 -0.4080
 4469SOL    HW124866   0.834   1.897   4.819 -1.9045  0.7201 -1.9137
 4469SOL    HW224867   0.721   1.841   4.759 -1.6105  1.0180  1.4323
 4470SOL     OW24868   4.415   2.632  16.203  0.3015 -0.4135 -0.8088
 4470SOL    HW124869   4.471   2.564  16.241 -0.2410  0.2383  1.1337
 4470SOL    HW224870   4.479   2.703  16.189 -1.7164  1.8080  1.3536
 4471SOL     OW24871   3.317   0.826   4.320 -0.2279 -0.5634 -0.1337
 4471SOL    HW124872   3.270   0.751   4.357 -0.2333 -0.3755  0.2404
 4471SOL    HW224873   3.313   0.884   4.396 -0.7294 -0.7984  0.0180
 4472SOL     OW24874   2.277   0.035   7.971 -0.2037 -0.5413  0.7609
 4472SOL    HW124875   2.207   0.101   7.978  1.5780  1.5980 -1.8623
 4472SOL    HW224876   2.349   0.059   8.030 -0.7077  1.1980  0.6700
 4473SOL     OW24877   3.566   0.693   6.776 -0.1419 -0.5043 -0.4337
 4473SOL    HW124878   3.527   0.671   6.861 -0.1872  0.6092 -0.1689
 4473SOL    HW224879   3.615   0.771   6.802  0.1498 -0.9937  0.4972
 4474SOL     OW24880   1.435   0.944   4.947 -0.4434  0.0368  0.5501
 4474SOL    HW124881   1.438   0.849   4.961 -3.4148 -0.1144  0.1856
 4474SOL    HW224882   1.340   0.942   4.932 -0.8072 -0.8811  2.8956
 4475SOL     OW24883   2.663   0.342   8.083  0.6199  0.4411  0.2084
 4475SOL    HW124884   2.640   0.432   8.060 -0.3973 -0.1735 -1.1918
 4475SOL    HW224885   2.687   0.357   8.175  1.2422 -2.3008  0.5169
 4476SOL     OW24886   3.233   2.684   7.601 -0.1356 -0.5520 -0.0641
 4476SOL    HW124887   3.258   2.673   7.692 -0.2392  0.5761  0.0966
 4476SOL    HW224888   3.248   2.595   7.567 -1.0341  0.1132 -2.1786
 4477SOL     OW24889   2.977   4.208   6.921 -0.0902  0.8759  0.3624
 4477SOL    HW124890   2.896   4.161   6.942  0.0214 -0.1215 -1.4213
 4477SOL    HW224891   3.002   4.252   7.002  0.5433 -1.9347  1.6631
 4478SOL     OW24892   0.998   1.797   1.670  0.3333  0.1346  0.2688
 4478SOL    HW124893   0.965   1.887   1.677 -0.6009 -0.2246  0.5048
 4478SOL    HW224894   0.979   1.790   1.577 -0.0750 -1.6297  0.4767
 4479SOL     OW24895   1.647   2.982   8.785 -0.1577 -0.3526 -0.1765
 4479SOL    HW124896   1.685   2.999   8.871 -1.4197  0.4121  0.2297
 4479SOL    HW224897   1.690   3.047   8.729  0.2449 -1.2238 -0.8836
 4480SOL     OW24898   2.635   1.312  16.046 -0.1447  0.3545  0.1198
 4480SOL    HW124899   2.623   1.360  16.128 -1.0959 -0.6608  0.5728
 4480SOL    HW224900   2.591   1.373  15.987  1.6327  1.2629 -0.2502
 4481SOL     OW24901   2.183   2.464   4.333  0.2867 -0.1042  0.1047
 4481SOL    HW124902   2.150   2.380   4.367 -2.0907 -0.0308 -2.0226
 4481SOL    HW224903   2.172   2.447   4.240 -1.0475 -0.3995  0.3146
 4482SOL     OW24904   4.674   4.510   2.980  0.0908  0.3838  0.1784
 4482SOL    HW124905   4.683   4.538   3.071 -1.6935 -1.5132  0.9245
 4482SOL    HW224906   4.588   4.547   2.962 -0.1813 -0.8617 -1.0424
 4483SOL     OW24907   0.191   1.947   4.615  0.0649  0.1350 -0.1172
 4483SOL    HW124908   0.213   2.033   4.580 -1.2447  0.8105  0.6991
 4483SOL    HW224909   0.258   1.897   4.569  0.3843  0.9875 -0.5772
 4484SOL     OW24910   2.973   2.225   9.929 -0.0480  0.1129  0.3959
 4484SOL    HW124911   2.977   2.179   9.845  3.0564  0.9440  0.0928
 4484SOL    HW224912   2.927   2.303   9.897  0.6792  0.6294  0.6024
 4485SOL     OW24913   1.623   2.543   7.438  0.6017  0.4000  0.2964
 4485SOL    HW124914   1.532   2.513   7.445  0.3350  0.9744 -0.7624
 4485SOL    HW224915   1.638   2.578   7.526 -1.3438 -2.1432  1.6521
 4486SOL     OW24916   4.168   4.026   8.482  0.5779 -0.4331 -0.0958
 4486SOL    HW124917   4.121   4.105   8.509  0.7544 -1.0422  2.0563
 4486SOL    HW224918   4.148   3.981   8.565 -0.1349 -2.1528 -1.1976
 4487SOL     OW24919   3.333   0.407   5.784  0.7022  0.3155 -0.4079
 4487SOL    HW124920   3.270   0.375   5.848 -1.2769  3.3216 -0.8469
 4487SOL    HW224921   3.407   0.357   5.818  0.9344  0.9047 -0.0426
 4488SOL     OW24922   0.867   3.598   1.737  0.0425 -0.0819 -0.2065
 4488SOL    HW124923   0.873   3.688   1.766 -0.0686 -0.0229 -0.3694
 4488SOL    HW224924   0.804   3.572   1.804  0.0534  0.1492 -0.1103
 4489SOL     OW24925   0.783   1.016   3.084 -0.4079 -0.2619  0.4791
 4489SOL    HW124926   0.805   1.105   3.055 -2.1676 -0.2045 -0.7302
 4489SOL    HW224927   0.865   0.977   3.055  0.6514  2.1352  0.2516
 4490SOL     OW24928   4.570   4.542  16.070  0.1782  0.3456 -0.0623
 4490SOL    HW124929   4.494   4.505  16.026  0.9797 -1.7777  0.3211
 4490SOL    HW224930   4.613   4.464  16.105  0.3535 -0.3747 -1.8764
 4491SOL     OW24931   1.661   1.657   1.650 -0.4018 -0.6407 -0.0876
 4491SOL    HW124932   1.619   1.598   1.588 -0.6462 -1.8417  1.2215
 4491SOL    HW224933   1.669   1.605   1.730 -2.3830  1.1181  1.2560
 4492SOL     OW24934   2.082   4.046   1.049 -0.9015  0.7507  0.1487
 4492SOL    HW124935   2.021   4.082   1.114 -0.6730 -1.7146  1.6965
 4492SOL    HW224936   2.096   3.961   1.090  2.3074  0.5135 -1.4238
 4493SOL     OW24937   1.161   4.159  12.383  0.1012  0.0465 -0.6403
 4493SOL    HW124938   1.150   4.064  12.383  0.3973  0.0094 -1.1280
 4493SOL    HW224939   1.151   4.179  12.476  0.0962  0.5290 -0.7450
 4494SOL     OW24940   2.443   0.974   2.701 -0.7122  0.0320  0.3337
 4494SOL    HW124941   2.442   1.068   2.716  0.9139  0.2690 -1.0637
 4494SOL    HW224942   2.537   0.956   2.706 -0.3716  0.6267 -4.0598
 4495SOL     OW24943   4.687   1.526  10.231 -0.1326  0.2663 -0.1134
 4495SOL    HW124944   4.605   1.497  10.191 -0.1115 -1.6213  1.2196
 4495SOL    HW224945   0.006   1.559  10.153 -1.2175 -0.1190 -0.8656
 4496SOL     OW24946   2.499   2.476   3.891 -0.3903  0.4635 -0.2475
 4496SOL    HW124947   2.409   2.452   3.870 -0.5561 -0.5732  1.6490
 4496SOL    HW224948   2.486   2.536   3.964  3.3460  0.1282  0.6830
 4497SOL     OW24949   4.692   1.377   3.403 -0.0381  0.2704 -0.1807
 4497SOL    HW124950   4.653   1.401   3.318 -2.1470 -1.0046  0.4274
 4497SOL    HW224951   4.695   1.282   3.389 -0.3486  0.2619 -0.1860
 4498SOL     OW24952   1.114   3.714   7.701  0.0675 -0.2734 -0.1402
 4498SOL    HW124953   1.036   3.768   7.693 -0.0310 -0.1204  2.1282
 4498SOL    HW224954   1.106   3.693   7.794  1.9022  1.4108  0.4018
 4499SOL     OW24955   0.819   2.356   8.431  0.0089  0.2112  0.4354
 4499SOL    HW124956   0.857   2.305   8.359 -0.4218 -0.9568  1.0438
 4499SOL    HW224957   0.899   2.398   8.461  1.7013 -1.3037 -1.9559
 4500SOL     OW24958   2.654   2.259   3.916  0.2786  0.3630 -0.1205
 4500SOL    HW124959   2.592   2.322   3.880 -0.5840 -0.4111  0.0026
 4500SOL    HW224960   2.739   2.301   3.905  0.9454 -1.2129 -1.0333
 4501SOL     OW24961   1.123   3.476  11.613  0.8130 -0.4468  0.0323
 4501SOL    HW124962   1.040   3.465  11.567 -0.2635 -0.9353  2.1173
 4501SOL    HW224963   1.174   3.412  11.564  1.8292 -0.1354  0.6771
 4502SOL     OW24964   1.548   4.389   5.147 -0.3624 -0.2175  0.3554
 4502SOL    HW124965   1.589   4.442   5.215 -0.1037  0.0715 -0.0288
 4502SOL    HW224966   1.610   4.392   5.075  0.0602  2.1630  0.7982
 4503SOL     OW24967   3.836   2.841  11.739  0.0857 -0.2757 -0.1935
 4503SOL    HW124968   3.826   2.848  11.834  1.5637  1.7678 -0.1786
 4503SOL    HW224969   3.907   2.776  11.735  1.1456  0.8060  0.9640
 4504SOL     OW24970   3.698   4.412   5.515  0.3214 -0.0517 -0.8282
 4504SOL    HW124971   3.764   4.350   5.547 -1.3078  0.5223  3.6533
 4504SOL    HW224972   3.705   4.477   5.585 -1.5766  0.9603 -1.5900
 4505SOL     OW24973   1.495   2.008   6.854  0.2605  0.2885 -0.2566
 4505SOL    HW124974   1.561   1.950   6.817 -1.0053 -1.9764  0.9661
 4505SOL    HW224975   1.500   2.076   6.788 -0.0135  0.8317  0.2801
 4506SOL     OW24976   3.959   4.666   5.126 -0.5091  0.6937  0.0032
 4506SOL    HW124977   4.040   4.680   5.076  0.0871  1.8213  1.2716
 4506SOL    HW224978   3.982   4.619   5.205  0.3778  3.6690  1.5140
 4507SOL     OW24979   2.410   4.310   2.431 -0.1269  0.8086 -0.0602
 4507SOL    HW124980   2.436   4.381   2.373  2.4663  0.8412  1.1406
 4507SOL    HW224981   2.324   4.304   2.388  0.3988  1.5143 -1.2084
 4508SOL     OW24982   0.772   4.094   3.195 -0.2153 -0.3377 -0.0582
 4508SOL    HW124983   0.803   4.183   3.177 -1.2878  0.1173  0.3745
 4508SOL    HW224984   0.833   4.042   3.143  0.4750  1.9803 -1.6076
 4509SOL     OW24985   1.482   1.320   4.057 -0.0011  0.1825 -0.3251
 4509SOL    HW124986   1.478   1.312   4.153 -0.5414  0.9270 -0.2828
 4509SOL    HW224987   1.563   1.368   4.044  1.4334 -2.0425  0.2806
 4510SOL     OW24988   1.324   3.424   7.040  0.0286 -0.6198 -0.5050
 4510SOL    HW124989   1.328   3.446   7.134 -0.7091  1.1365 -0.8824
 4510SOL    HW224990   1.411   3.446   7.007  0.1009  0.6959  0.5528
 4511SOL     OW24991   2.285   3.810  15.026 -0.0102  0.6486 -0.0544
 4511SOL    HW124992   2.335   3.879  15.069  1.0508 -0.6634  0.8143
 4511SOL    HW224993   2.339   3.732  15.036 -0.5786  0.1459 -0.9188
 4512SOL     OW24994   2.260   2.523  17.435  0.4098  0.1833  0.8319
 4512SOL    HW124995   2.276   2.595  17.373  1.1286 -2.0180 -1.5381
 4512SOL    HW224996   2.321   2.552  17.503 -0.5109  0.9947  1.3203
 4513SOL     OW24997   2.441   0.009   4.779 -0.0758 -0.3134  0.5874
 4513SOL    HW124998   2.504   0.045   4.841  0.1587 -1.6325  1.1158
 4513SOL    HW224999   2.466   0.062   4.703  0.1401 -2.8474 -1.1165
 4514SOL     OW25000   1.259   2.810   7.865  0.3585  0.3471  0.7603
 4514SOL    HW125001   1.287   2.837   7.952 -2.0265  2.2404  0.9493
 4514SOL    HW225002   1.190   2.748   7.890  0.4774 -0.2471 -0.3554
 4515SOL     OW25003   2.448   1.364  10.095  0.3334  0.3204  0.3814
 4515SOL    HW125004   2.386   1.358  10.168 -0.1934 -2.3990 -0.2787
 4515SOL    HW225005   2.389   1.342  10.023 -0.8335  0.4886  1.2950
 4516SOL     OW25006   0.900   4.147  10.294 -0.5956  0.3933 -0.4872
 4516SOL    HW125007   0.827   4.188  10.339 -0.0068  1.3148 -0.3678
 4516SOL    HW225008   0.970   4.180  10.350 -3.3509  3.7554  1.0166
 4517SOL     OW25009   4.087   3.861   5.834 -0.3144 -0.2247  0.1267
 4517SOL    HW125010   4.107   3.804   5.759  2.0427  3.5825 -2.1984
 4517SOL    HW225011   4.126   3.941   5.798 -1.5823  0.5982  0.5999
 4518SOL     OW25012   1.605   0.912  13.747 -0.7030  0.4019  0.2450
 4518SOL    HW125013   1.627   0.970  13.674 -1.3789  0.3735  0.0182
 4518SOL    HW225014   1.596   0.821  13.715 -0.3265 -0.1817  1.8216
 4519SOL     OW25015   2.641   2.804   2.028  0.0281  0.3386 -0.1987
 4519SOL    HW125016   2.572   2.737   2.028  1.4095 -1.0958  0.6317
 4519SOL    HW225017   2.623   2.859   1.952  0.1350 -0.9163 -1.1394
 4520SOL     OW25018   1.708   2.893   5.376  0.2519  0.1139  0.0663
 4520SOL    HW125019   1.754   2.823   5.422 -1.4661 -0.2165  1.2319
 4520SOL    HW225020   1.695   2.952   5.450 -1.0659 -1.9894  1.4734
 4521SOL     OW25021   2.178   1.544   1.415 -0.2010  0.4568  0.1365
 4521SOL    HW125022   2.089   1.545   1.381  1.1076  3.4635 -3.2719
 4521SOL    HW225023   2.183   1.461   1.462  2.0757  0.4869 -0.0561
 4522SOL     OW25024   4.672   4.498  17.311  0.2418 -0.0196 -0.0398
 4522SOL    HW125025   0.036   4.489  17.273  0.8165 -1.8413  1.6729
 4522SOL    HW225026   4.631   4.414  17.294 -2.1175  0.7187  2.0708
 4523SOL     OW25027   0.800   2.029   8.037 -0.0640 -0.1404  0.0384
 4523SOL    HW125028   0.737   2.046   8.106  0.2063 -1.0609  0.5177
 4523SOL    HW225029   0.820   2.120   8.014  0.6254 -0.1076  0.7434
 4524SOL     OW25030   1.324   4.341   4.997  0.3082  0.2315 -0.6761
 4524SOL    HW125031   1.400   4.351   5.054  0.2214 -0.2893 -0.4719
 4524SOL    HW225032   1.343   4.393   4.919  0.0466  2.1543  0.5306
 4525SOL     OW25033   0.695   4.063   4.327 -0.0474  0.1777  0.4567
 4525SOL    HW125034   0.744   4.062   4.245  0.7980  1.2643  0.9462
 4525SOL    HW225035   0.682   3.969   4.338  3.3647 -0.0681  2.3043
 4526SOL     OW25036   0.517   4.584   7.727 -0.4852 -0.1185 -0.7899
 4526SOL    HW125037   0.597   4.534   7.710  0.0829  0.8348 -0.9131
 4526SOL    HW225038   0.463   4.510   7.755  1.0617 -0.7149  0.6525
 4527SOL     OW25039   0.098   3.690   7.220  0.0905  0.3868 -0.0142
 4527SOL    HW125040   0.182   3.652   7.246  0.1914  0.4610 -0.2292
 4527SOL    HW225041   0.088   3.636   7.141  2.3826 -0.6761  0.4084
 4528SOL     OW25042   3.384   0.464   5.002 -0.1152  0.1569  0.1089
 4528SOL    HW125043   3.348   0.406   5.069  2.1712  0.9421  2.0117
 4528SOL    HW225044   3.447   0.521   5.046  1.5608  0.9449 -3.2629
 4529SOL     OW25045   1.552   2.589   8.628  0.5440 -0.3292 -0.3733
 4529SOL    HW125046   1.499   2.664   8.600  1.2560  0.1818 -0.3525
 4529SOL    HW225047   1.582   2.622   8.713  3.9447  0.5279 -1.9023
 4530SOL     OW25048   2.202   1.127   0.194  0.1368  0.4530  0.5930
 4530SOL    HW125049   2.268   1.058   0.199  0.0242  0.2242 -1.1074
 4530SOL    HW225050   2.122   1.076   0.208  0.1042  0.6723  1.2016
 4531SOL     OW25051   4.432   4.036   7.364 -0.4047 -0.1236 -0.6191
 4531SOL    HW125052   4.460   4.122   7.393  1.8363 -1.4771  1.2887
 4531SOL    HW225053   4.505   3.983   7.398  0.1194 -0.1402 -1.7743
 4532SOL     OW25054   1.149   1.024  15.134  0.0680  0.2688  0.4322
 4532SOL    HW125055   1.140   1.095  15.197  1.3445  0.5380  0.3059
 4532SOL    HW225056   1.099   1.058  15.060  0.2025 -0.6209 -0.0759
 4533SOL     OW25057   1.335   1.677  10.008 -0.2406 -0.0041 -0.9802
 4533SOL    HW125058   1.332   1.772  10.025 -1.2900 -0.7927  3.1920
 4533SOL    HW225059   1.307   1.659  10.097  1.2007 -2.8481 -1.1065
 4534SOL     OW25060   1.371   0.804   1.814  0.3101 -0.3195 -0.0098
 4534SOL    HW125061   1.372   0.899   1.824  1.3581 -0.3107 -0.2018
 4534SOL    HW225062   1.452   0.773   1.854  0.9831  0.9757 -0.3880
 4535SOL     OW25063   0.830   3.243   8.181  0.1939 -0.3613 -0.0340
 4535SOL    HW125064   0.888   3.167   8.187 -0.6899 -1.0396 -0.0849
 4535SOL    HW225065   0.769   3.233   8.254  2.4798 -1.3326  1.7657
 4536SOL     OW25066   2.334   1.070   7.177 -0.2880  0.6465  0.9236
 4536SOL    HW125067   2.291   1.029   7.101  0.6099 -0.4623  1.0049
 4536SOL    HW225068   2.358   0.994   7.230  0.0091  0.8992  1.1497
 4537SOL     OW25069   2.304   0.611  17.406  0.0904  0.2693 -0.0675
 4537SOL    HW125070   2.381   0.608  17.463  1.0276  0.1608 -1.3137
 4537SOL    HW225071   2.292   0.520  17.378 -0.2573 -0.5467  2.8108
 4538SOL     OW25072   4.489   1.150   3.654 -0.1664  0.2975 -0.5242
 4538SOL    HW125073   4.562   1.088   3.654 -1.0392 -0.7172  1.4416
 4538SOL    HW225074   4.434   1.118   3.583  0.4921 -0.0771 -0.8638
 4539SOL     OW25075   1.098   2.662   8.689  0.3891  0.2341 -0.7076
 4539SOL    HW125076   1.031   2.621   8.744  0.7785 -0.5833 -0.8547
 4539SOL    HW225077   1.159   2.696   8.755  0.4881 -1.2626 -0.0225
 4540SOL     OW25078   1.069   3.110   2.195 -0.1813  0.1388  0.1818
 4540SOL    HW125079   0.984   3.138   2.228 -0.5709  0.2326 -0.9135
 4540SOL    HW225080   1.097   3.066   2.275  0.1591  0.1125  0.0496
 4541SOL     OW25081   3.045   1.864   1.758 -0.1145 -0.3667  0.1326
 4541SOL    HW125082   2.983   1.901   1.695 -1.3398 -1.0769  0.9308
 4541SOL    HW225083   3.028   1.773   1.734 -1.0456 -0.8339  2.6063
 4542SOL     OW25084   3.626   1.674   6.681 -0.0780 -0.0309 -0.0936
 4542SOL    HW125085   3.700   1.728   6.706 -0.6497  1.6110 -1.9669
 4542SOL    HW225086   3.641   1.661   6.588  3.0547 -0.3722  0.4696
 4543SOL     OW25087   3.896   1.600   6.961 -0.0609 -0.6527 -0.1133
 4543SOL    HW125088   3.880   1.507   6.975 -0.3241 -0.8159 -1.5003
 4543SOL    HW225089   3.981   1.609   7.004 -0.8503  0.4498  1.2161
 4544SOL     OW25090   4.325   4.116  16.016 -0.1513  0.1475 -0.1323
 4544SOL    HW125091   4.358   4.188  16.069  2.0696 -0.6637 -0.4304
 4544SOL    HW225092   4.385   4.135  15.944  1.3518 -0.4853  0.9606
 4545SOL     OW25093   2.505   0.560  13.537 -0.0215 -0.2459  0.1799
 4545SOL    HW125094   2.551   0.502  13.597 -0.8612 -0.2706  0.8077
 4545SOL    HW225095   2.456   0.629  13.582  1.2052  0.7847 -0.0710
 4546SOL     OW25096   3.694   3.559   8.691  0.2116 -0.8404  0.0823
 4546SOL    HW125097   3.604   3.585   8.714 -0.0481  0.0021 -1.8691
 4546SOL    HW225098   3.710   3.603   8.608  0.8070 -1.8045 -0.3141
 4547SOL     OW25099   0.581   1.622  12.610  0.0627 -0.0767  0.0269
 4547SOL    HW125100   0.633   1.569  12.550  1.4939  0.5518  0.7084
 4547SOL    HW225101   0.643   1.626  12.683 -1.1388  5.3203  0.7723
 4548SOL     OW25102   4.151   3.551  11.297  0.5034  0.0625 -0.0234
 4548SOL    HW125103   4.165   3.516  11.385 -0.5523 -1.1205 -0.3182
 4548SOL    HW225104   4.175   3.643  11.308 -2.1018  0.8904 -1.2105
 4549SOL     OW25105   2.940   0.811   4.057 -0.4353  0.3980 -0.7731
 4549SOL    HW125106   3.007   0.864   4.099  1.2714  0.0276 -3.0383
 4549SOL    HW225107   2.888   0.794   4.135  0.7225 -0.9357 -0.2913
 4550SOL     OW25108   1.933   0.588  12.098 -0.6140 -0.4603 -0.2731
 4550SOL    HW125109   1.850   0.612  12.056 -0.3875  0.8551  0.0408
 4550SOL    HW225110   1.959   0.674  12.131 -1.2653  0.3082 -1.7277
 4551SOL     OW25111   2.879   3.868   2.417  0.0621 -0.0471  0.5219
 4551SOL    HW125112   2.823   3.920   2.360 -2.4726 -1.6796  1.5036
 4551SOL    HW225113   2.903   3.804   2.351  3.5884  0.4793  1.2922
 4552SOL     OW25114   1.887   4.045   6.838 -0.4379 -0.0281 -0.3334
 4552SOL    HW125115   1.965   4.080   6.794 -0.6376  2.6823  1.5190
 4552SOL    HW225116   1.920   3.996   6.913 -2.1302 -0.4108  0.1593
 4553SOL     OW25117   1.180   3.040  12.033  0.6286  0.0888  0.2303
 4553SOL    HW125118   1.123   3.117  12.034  0.3980 -0.0651 -1.3107
 4553SOL    HW225119   1.264   3.078  12.056 -0.1950  1.2156  1.3689
 4554SOL     OW25120   4.720   0.177   5.679  0.1145  1.3675  0.6177
 4554SOL    HW125121   4.643   0.180   5.623  1.0786 -3.7997 -0.9943
 4554SOL    HW225122   4.681   0.207   5.761  0.6966 -0.5722  1.6149
 4555SOL     OW25123   1.278   1.611   8.755 -0.2831  0.9516 -0.3544
 4555SOL    HW125124   1.319   1.627   8.840  1.9125 -4.3423 -0.3593
 4555SOL    HW225125   1.190   1.588   8.784 -0.3221  1.1299 -0.3325
 4556SOL     OW25126   2.617   2.095   7.470 -0.1869  0.1739  0.5886
 4556SOL    HW125127   2.556   2.150   7.420  2.3795  1.4006 -1.2518
 4556SOL    HW225128   2.687   2.080   7.406 -2.2984 -0.7994 -1.4994
 4557SOL     OW25129   0.913   4.350   5.956 -0.3038  0.6899  0.1880
 4557SOL    HW125130   0.891   4.395   6.037 -3.2631  0.5095 -0.5153
 4557SOL    HW225131   0.864   4.269   5.965  1.8474 -0.8754 -2.1246
 4558SOL     OW25132   3.211   2.223  15.978  0.0689  0.0115 -0.2242
 4558SOL    HW125133   3.264   2.163  15.926  1.6693  1.5083 -0.3210
 4558SOL    HW225134   3.244   2.198  16.064  0.8452  0.1165 -0.4895
 4559SOL     OW25135   1.586   3.378   3.600 -0.0417  0.4346  0.3554
 4559SOL    HW125136   1.507   3.374   3.654 -0.2712 -0.3480 -0.0377
 4559SOL    HW225137   1.585   3.467   3.566  1.6952 -0.1667 -1.2763
 4560SOL     OW25138   1.164   4.366  13.719  0.1168  0.2446 -0.3447
 4560SOL    HW125139   1.236   4.428  13.720  0.4212 -0.1121  0.4048
 4560SOL    HW225140   1.167   4.342  13.812 -1.0377 -1.8186 -0.8267
 4561SOL     OW25141   1.009   2.460   4.734  0.0901 -0.5577  0.1726
 4561SOL    HW125142   1.075   2.516   4.775  0.3501  1.0756 -2.4752
 4561SOL    HW225143   1.063   2.394   4.689 -0.9866 -1.2956 -0.0166
 4562SOL     OW25144   0.095   4.609   2.438  0.2884 -0.3544 -0.1580
 4562SOL    HW125145   0.181   4.651   2.440 -0.5577  1.4659 -1.4439
 4562SOL    HW225146   0.036   4.685   2.445  1.5617  0.5430  0.8794
 4563SOL     OW25147   0.517   0.626   7.937  0.0858  0.8919 -0.1725
 4563SOL    HW125148   0.468   0.656   7.860  0.3112 -0.7034 -0.9385
 4563SOL    HW225149   0.458   0.558   7.970  0.6452 -0.3256 -1.6473
 4564SOL     OW25150   4.132   4.524  13.969 -0.4832 -0.2131 -0.2396
 4564SOL    HW125151   4.101   4.487  14.051  0.9243  2.3376  1.4499
 4564SOL    HW225152   4.077   4.602  13.958 -1.3866 -0.6828  0.9588
 4565SOL     OW25153   1.134   0.929   0.892 -0.0582 -0.0059  0.1848
 4565SOL    HW125154   1.079   0.998   0.931  0.7041  1.5944 -1.5533
 4565SOL    HW225155   1.222   0.963   0.909  0.5349 -1.5328  0.1801
 4566SOL     OW25156   3.824   2.597   1.888 -0.0437 -0.1095 -0.3319
 4566SOL    HW125157   3.878   2.674   1.905  1.1050 -1.2129  1.0332
 4566SOL    HW225158   3.806   2.611   1.795 -1.2236 -2.4992 -0.4629
 4567SOL     OW25159   0.541   2.253   4.803 -0.2412  0.0745  0.0652
 4567SOL    HW125160   0.634   2.233   4.794 -0.8568 -2.2128 -1.2317
 4567SOL    HW225161   0.543   2.334   4.751 -4.1882 -0.2782 -0.6021
 4568SOL     OW25162   2.403   4.716  16.754  0.3601  0.7808 -1.1284
 4568SOL    HW125163   2.498   0.003  16.751  0.7202 -1.4511  2.0475
 4568SOL    HW225164   2.375   0.059  16.691 -0.4852 -0.5056 -2.1302
 4569SOL     OW25165   0.459   2.329   2.404  0.1343 -0.6147 -0.5717
 4569SOL    HW125166   0.377   2.281   2.417  0.1932  0.4420  3.7259
 4569SOL    HW225167   0.526   2.266   2.377  2.0950  0.5458  1.6000
 4570SOL     OW25168   2.024   2.913   2.934  0.1506  0.0909 -0.1599
 4570SOL    HW125169   2.100   2.885   2.884 -0.5933  0.7761 -1.6746
 4570SOL    HW225170   1.965   2.837   2.925 -0.5700  0.9758 -3.0722
 4571SOL     OW25171   3.416   0.984   3.389 -0.1243  0.6673  0.4192
 4571SOL    HW125172   3.476   1.045   3.431  1.4895 -0.5585 -0.1406
 4571SOL    HW225173   3.339   1.041   3.378 -0.2170 -0.0684 -2.6570
 4572SOL     OW25174   0.008   1.659  16.106  0.1243  0.2786  0.0378
 4572SOL    HW125175   0.078   1.641  16.168 -0.0898  2.6939  0.9928
 4572SOL    HW225176   0.058   1.675  16.025  0.3169 -1.5613 -0.1926
 4573SOL     OW25177   2.614   1.266   6.497 -0.1193 -0.1095  0.1021
 4573SOL    HW125178   2.545   1.331   6.511  1.6885  1.6568  0.8220
 4573SOL    HW225179   2.618   1.261   6.402 -1.0486 -0.5124  0.0780
 4574SOL     OW25180   0.374   4.242   2.060 -0.1996  0.2165  0.2592
 4574SOL    HW125181   0.364   4.176   1.992  0.9510  0.5517 -0.2288
 4574SOL    HW225182   0.459   4.281   2.040 -0.4862  0.5241 -0.3416
 4575SOL     OW25183   3.038   0.052   0.265 -0.2641 -0.4442  0.1315
 4575SOL    HW125184   2.981   4.724   0.321  1.1362 -1.8780  0.1990
 4575SOL    HW225185   3.015   0.139   0.298 -1.2256 -0.6700  0.0620
 4576SOL     OW25186   0.664   1.375   6.643 -0.1633 -0.6121 -0.4169
 4576SOL    HW125187   0.699   1.403   6.728 -0.5108  0.6181 -0.6718
 4576SOL    HW225188   0.749   1.372   6.598 -0.6709  0.6215 -1.4725
 4577SOL     OW25189   1.487   1.830   8.218 -0.0200 -0.0779  0.6639
 4577SOL    HW125190   1.544   1.856   8.146  1.2183 -1.7295  1.0462
 4577SOL    HW225191   1.551   1.814   8.287  1.2228  0.9772 -0.2407
 4578SOL     OW25192   4.572   3.725   8.587 -0.1571  0.1667  0.3425
 4578SOL    HW125193   4.548   3.817   8.588 -3.8134 -0.7772  0.2817
 4578SOL    HW225194   4.594   3.714   8.679  1.1638  0.4073  0.0544
 4579SOL     OW25195   4.125   1.792   7.509 -0.3180  0.3656 -0.3775
 4579SOL    HW125196   4.122   1.862   7.573 -0.2218  0.0817 -0.0658
 4579SOL    HW225197   4.101   1.852   7.438 -0.7990  1.0775  0.3982
 4580SOL     OW25198   2.093   3.960   3.856 -0.2416  0.4800 -0.2253
 4580SOL    HW125199   2.152   3.885   3.864  0.2653  0.8602 -0.3662
 4580SOL    HW225200   2.010   3.913   3.857  0.0425  0.0009  0.8636
 4581SOL     OW25201   1.358   4.433   2.074  0.3698  0.9563  0.0167
 4581SOL    HW125202   1.426   4.366   2.075 -1.3721 -0.8374 -1.2604
 4581SOL    HW225203   1.284   4.382   2.041  1.0828 -0.7661  1.1182
 4582SOL     OW25204   1.783   3.202   6.168  0.1703 -0.1424 -0.1419
 4582SOL    HW125205   1.759   3.213   6.260  0.0083  0.6503 -0.2720
 4582SOL    HW225206   1.697   3.173   6.139 -0.1024  2.0744 -1.5661
 4583SOL     OW25207   4.369   3.019   1.784  0.4425  0.0850 -0.4696
 4583SOL    HW125208   4.407   2.997   1.868 -0.9850  0.5587  0.3067
 4583SOL    HW225209   4.283   3.053   1.810 -1.2356 -3.6887 -1.0455
 4584SOL     OW25210   2.795   4.572   1.878 -0.5882 -0.0942 -0.7085
 4584SOL    HW125211   2.718   4.524   1.846 -0.7739 -0.3644  0.1573
 4584SOL    HW225212   2.762   4.613   1.957  1.3683  2.7569 -1.4028
 4585SOL     OW25213   3.254   3.903  15.470  0.4719  0.0619 -0.4491
 4585SOL    HW125214   3.341   3.878  15.439  1.0872 -1.6959  2.7326
 4585SOL    HW225215   3.283   3.971  15.532 -0.1723 -0.3960  0.3407
 4586SOL     OW25216   3.276   1.777   6.188  0.2347  0.7677  0.0366
 4586SOL    HW125217   3.239   1.778   6.100  0.0569 -0.7170  0.0946
 4586SOL    HW225218   3.325   1.696   6.177 -2.1234 -0.7339  0.5138
 4587SOL     OW25219   3.449   1.565   4.230  0.0301  0.2413  0.4264
 4587SOL    HW125220   3.533   1.609   4.219  0.9194 -1.1178  1.6547
 4587SOL    HW225221   3.477   1.475   4.210 -2.7570  0.0138 -2.3989
 4588SOL     OW25222   2.134   4.261  10.139  0.1391  0.6561  0.8294
 4588SOL    HW125223   2.048   4.301  10.149 -0.5555 -1.0223  1.5787
 4588SOL    HW225224   2.182   4.337  10.106  0.3574  0.6486  1.1214
 4589SOL     OW25225   0.186   1.027  13.370 -0.7560 -0.0864 -0.2800
 4589SOL    HW125226   0.181   1.105  13.315  2.4874 -0.2865 -0.8382
 4589SOL    HW225227   0.230   0.965  13.313 -1.3026 -2.4014  1.7896
 4590SOL     OW25228   2.315   1.630   1.188 -0.4543  0.0137  0.1631
 4590SOL    HW125229   2.272   1.560   1.139  0.9049  0.4990 -1.7043
 4590SOL    HW225230   2.265   1.645   1.268  2.5158  2.6918  1.5275
 4591SOL     OW25231   4.224   1.734   3.453 -0.3771  0.4896 -0.0086
 4591SOL    HW125232   4.234   1.656   3.397  3.1247 -0.7137  2.2888
 4591SOL    HW225233   4.291   1.715   3.518 -0.7514 -0.8622 -0.0205
 4592SOL     OW25234   0.405   2.166   7.883 -0.6781 -0.3608  0.3090
 4592SOL    HW125235   0.394   2.216   7.964 -2.9676 -0.7284  0.2410
 4592SOL    HW225236   0.326   2.113   7.892 -1.2063  0.2109 -0.8926
 4593SOL     OW25237   1.138   3.573   7.416  0.2489  0.9970  0.3147
 4593SOL    HW125238   1.074   3.644   7.426  0.0895  1.4444 -3.9280
 4593SOL    HW225239   1.079   3.499   7.422 -1.6119  2.5580  1.3271
 4594SOL     OW25240   2.638   2.917  16.984 -0.1033  0.1904  0.1422
 4594SOL    HW125241   2.668   2.837  17.027 -1.2621  0.5168  1.5502
 4594SOL    HW225242   2.594   2.889  16.903  1.7206 -2.0820 -0.0707
 4595SOL     OW25243   2.698   0.071   6.076 -0.0176 -0.5273 -0.0848
 4595SOL    HW125244   2.686   0.047   6.168  0.4409 -0.4419 -0.0021
 4595SOL    HW225245   2.793   0.084   6.080 -0.2282  0.8823  0.1966
 4596SOL     OW25246   0.646   0.567   6.798 -0.4727  0.1686  0.4523
 4596SOL    HW125247   0.638   0.657   6.829 -1.0661  0.7754 -1.4472
 4596SOL    HW225248   0.719   0.547   6.857  0.4523  0.8340 -0.4631
 4597SOL     OW25249   4.479   1.680   8.056 -0.5613 -0.3325  0.1428
 4597SOL    HW125250   4.436   1.654   8.137 -0.9916  1.0695  0.3654
 4597SOL    HW225251   4.572   1.672   8.075 -0.7168 -0.3064  0.9073
 4598SOL     OW25252   1.242   0.959  13.423  0.8661  0.1120 -0.3915
 4598SOL    HW125253   1.273   0.886  13.477  1.0707  1.1575  0.9061
 4598SOL    HW225254   1.256   0.918  13.338 -0.4567  1.4506 -1.2648
 4599SOL     OW25255   2.691   4.473   7.169  0.1672  0.0811  0.3414
 4599SOL    HW125256   2.608   4.437   7.139  0.4674 -0.6215  0.3609
 4599SOL    HW225257   2.684   4.459   7.264 -2.5630  1.1672  0.2943
 4600SOL     OW25258   1.878   3.077  10.822 -0.0042  0.5980 -0.2016
 4600SOL    HW125259   1.965   3.110  10.800 -1.1214  2.0998 -2.2959
 4600SOL    HW225260   1.826   3.095  10.744 -2.6173 -2.4019  0.8399
 4601SOL     OW25261   4.218   0.668   2.928 -0.2458  0.5170  0.3000
 4601SOL    HW125262   4.241   0.704   2.842  0.0354 -1.0113 -0.2675
 4601SOL    HW225263   4.254   0.735   2.985  2.4539  0.3444 -1.1707
 4602SOL     OW25264   2.694   2.235   7.683  0.4487  0.1805  0.3706
 4602SOL    HW125265   2.785   2.237   7.655 -0.0044  0.4236 -1.1349
 4602SOL    HW225266   2.657   2.182   7.612 -0.5046 -0.5376  1.4093
 4603SOL     OW25267   3.053   3.350   9.818  0.0139 -0.1407 -0.3131
 4603SOL    HW125268   3.102   3.268   9.811  0.8175  0.3272 -0.1535
 4603SOL    HW225269   2.962   3.328   9.839  0.3197  0.3478  1.5690
 4604SOL     OW25270   2.976   4.333  11.089 -0.3516 -0.1738  0.2733
 4604SOL    HW125271   2.882   4.326  11.072 -0.6787  0.6870  1.7490
 4604SOL    HW225272   3.015   4.355  11.004  0.3657  0.0089  0.6490
 4605SOL     OW25273   1.295   1.354  16.201 -0.4591 -0.8665  0.0942
 4605SOL    HW125274   1.278   1.282  16.141  1.7620 -2.3737  1.2671
 4605SOL    HW225275   1.386   1.334  16.220 -0.1742 -2.8174 -3.2823
 4606SOL     OW25276   0.159   1.205   1.863 -0.4913  0.0244 -0.0886
 4606SOL    HW125277   0.135   1.117   1.892  1.0559 -1.0317 -1.9717
 4606SOL    HW225278   0.250   1.192   1.836 -0.4490  0.9318 -0.3642
 4607SOL     OW25279   4.603   2.087   4.789 -0.9033 -0.2666  0.3366
 4607SOL    HW125280   4.620   2.056   4.700 -0.6062 -1.0859  0.6774
 4607SOL    HW225281   4.687   2.131   4.803 -1.5162  0.1470  2.6904
 4608SOL     OW25282   1.306   3.299  13.976  0.0449 -0.0844 -0.1567
 4608SOL    HW125283   1.350   3.381  13.997  3.0229 -2.1902  1.9089
 4608SOL    HW225284   1.269   3.276  14.061 -1.0758  2.5861  0.0811
 4609SOL     OW25285   4.682   1.169   5.424 -0.1138  0.0327  0.1533
 4609SOL    HW125286   4.709   1.204   5.339  0.0815 -0.7931 -0.1210
 4609SOL    HW225287   4.615   1.235   5.442  0.1111  0.2040  0.3681
 4610SOL     OW25288   3.854   3.791   0.855  0.5488  0.0142  0.2880
 4610SOL    HW125289   3.794   3.817   0.924 -0.1555 -1.3058  0.1749
 4610SOL    HW225290   3.884   3.879   0.832  0.2776 -0.1736 -0.7807
 4611SOL     OW25291   1.535   0.479   5.531 -0.2140  0.3280  0.2417
 4611SOL    HW125292   1.548   0.384   5.526  1.0920  0.4308  1.5628
 4611SOL    HW225293   1.527   0.509   5.441  1.5361 -2.1881 -0.7370
 4612SOL     OW25294   0.128   1.154   3.948 -0.2461 -0.1092 -0.8297
 4612SOL    HW125295   0.102   1.229   3.894  0.0268  0.4590 -0.1684
 4612SOL    HW225296   0.219   1.137   3.927 -0.9505 -2.9648 -1.5153
 4613SOL     OW25297   0.137   0.676   4.448 -0.2685 -0.0982  0.7309
 4613SOL    HW125298   0.228   0.696   4.426 -0.7570  0.8796 -0.4243
 4613SOL    HW225299   0.093   0.670   4.363  1.4103  2.2297 -0.3303
 4614SOL     OW25300   3.372   3.234   8.258  0.1742 -0.2201 -0.5003
 4614SOL    HW125301   3.464   3.209   8.266  0.3367  1.0834  1.4344
 4614SOL    HW225302   3.356   3.317   8.302 -0.3216 -0.7960  0.4119
 4615SOL     OW25303   4.555   4.681   6.563 -0.6604  0.8634  0.8579
 4615SOL    HW125304   4.582   4.706   6.651  1.1918 -1.2227  0.9050
 4615SOL    HW225305   4.588   0.026   6.505 -1.8469  0.5541 -0.1858
 4616SOL     OW25306   3.777   1.963   6.991  0.1609  0.1163 -0.2345
 4616SOL    HW125307   3.797   1.956   7.085  1.0567 -0.9753 -0.5183
 4616SOL    HW225308   3.682   1.974   6.995 -0.2405 -2.6591 -2.5812
 4617SOL     OW25309   1.193   1.951   8.711 -0.0942 -0.3741  0.0947
 4617SOL    HW125310   1.105   1.951   8.750 -0.5112  0.2998 -0.8592
 4617SOL    HW225311   1.184   1.918   8.622  0.7340 -0.6580  0.1147
 4618SOL     OW25312   3.573   1.265   2.638 -0.3306  0.5765 -0.0198
 4618SOL    HW125313   3.645   1.327   2.629  1.0760 -0.9695  0.5305
 4618SOL    HW225314   3.596   1.195   2.577 -1.0395 -1.1979  1.7547
 4619SOL     OW25315   2.803   3.320  17.568  0.3924  0.2161 -0.4236
 4619SOL    HW125316   2.888   3.348  17.534 -0.0283  1.8121 -0.1499
 4619SOL    HW225317   2.764   3.404  17.590  0.2233 -0.3809  1.5843
 4620SOL     OW25318   1.754   2.254   4.614 -0.0249  0.3161  0.6091
 4620SOL    HW125319   1.687   2.253   4.683  1.3996 -0.2722  1.9840
 4620SOL    HW225320   1.764   2.159   4.602 -0.7165  0.5447 -1.7091
 4621SOL     OW25321   0.613   3.415   4.864  0.4171  0.1728  0.1546
 4621SOL    HW125322   0.613   3.359   4.787  0.5047  0.6066 -0.1640
 4621SOL    HW225323   0.568   3.496   4.839 -0.6238  0.0321  1.5781
 4622SOL     OW25324   1.229   2.321  16.742 -0.1489  0.0364  0.0249
 4622SOL    HW125325   1.181   2.404  16.753  0.2961  0.5166 -1.7695
 4622SOL    HW225326   1.156   2.262  16.758 -0.4208 -1.0559 -5.3901
 4623SOL     OW25327   2.223   4.559   3.850  0.4263  0.4086  0.0948
 4623SOL    HW125328   2.208   4.644   3.890  1.7167  0.8551 -0.3575
 4623SOL    HW225329   2.318   4.555   3.841  0.3609 -1.3163  0.2016
 4624SOL     OW25330   3.848   4.684   8.932  0.1388 -0.1812  0.3830
 4624SOL    HW125331   3.779   4.618   8.925 -0.4882  0.1421  3.6365
 4624SOL    HW225332   3.892   4.644   9.006 -0.3173  0.0210  0.7615
 4625SOL     OW25333   1.090   2.306   8.201 -0.0642  0.3407  0.2348
 4625SOL    HW125334   1.098   2.277   8.292  1.7142 -2.6863 -0.8928
 4625SOL    HW225335   1.183   2.309   8.176  0.4604  0.9622  2.1876
 4626SOL     OW25336   1.754   3.895  16.279 -0.6349  0.2688  0.3711
 4626SOL    HW125337   1.842   3.932  16.276 -0.3828 -0.3137  0.5080
 4626SOL    HW225338   1.731   3.904  16.186  0.8345 -0.4903 -0.0633
 4627SOL     OW25339   0.656   1.086   3.623  0.2890 -0.2812  0.1534
 4627SOL    HW125340   0.663   1.099   3.717  1.2066 -0.3025  0.0874
 4627SOL    HW225341   0.662   0.991   3.628 -0.0911 -0.3227 -0.1101
 4628SOL     OW25342   0.502   3.795   7.905  0.6576 -0.1143  0.4516
 4628SOL    HW125343   0.569   3.738   7.942  1.1702  0.9614  1.1711
 4628SOL    HW225344   0.524   3.874   7.955 -1.4106  0.3351  0.6651
 4629SOL     OW25345   4.693   2.595   4.361 -0.1647 -0.7030 -0.4969
 4629SOL    HW125346   0.043   2.607   4.420  0.5881 -0.4893 -1.4928
 4629SOL    HW225347   4.622   2.616   4.421 -0.3842  0.5956 -1.2036
 4630SOL     OW25348   0.688   0.277   4.012 -0.0223  0.9292 -0.2581
 4630SOL    HW125349   0.650   0.311   4.093 -1.0098  1.7908 -1.0718
 4630SOL    HW225350   0.606   0.250   3.969 -0.3763 -0.5790  1.3763
 4631SOL     OW25351   4.018   2.137   4.162  0.6198  0.0734 -0.1057
 4631SOL    HW125352   4.025   2.093   4.077 -1.2010 -2.0642  0.8628
 4631SOL    HW225353   4.064   2.072   4.214 -0.3920 -0.2743  0.3446
 4632SOL     OW25354   0.234   2.715  12.898  0.2940  0.0832  0.2463
 4632SOL    HW125355   0.226   2.665  12.979  0.1439  0.2481  0.3312
 4632SOL    HW225356   0.188   2.795  12.923  0.4177 -0.4889  2.2810
 4633SOL     OW25357   0.273   1.287   2.119  0.2260 -0.2254 -0.1750
 4633SOL    HW125358   0.236   1.375   2.121  1.9511  0.5059 -0.3146
 4633SOL    HW225359   0.226   1.248   2.046  0.8091  1.7487 -1.6011
 4634SOL     OW25360   2.640   4.413   4.469 -0.0844  0.1014 -0.3593
 4634SOL    HW125361   2.707   4.360   4.425  0.2049 -1.9018  2.4545
 4634SOL    HW225362   2.623   4.484   4.407 -1.6436  0.0160 -0.0312
 4635SOL     OW25363   1.620   3.342   0.768 -0.1463 -0.1306 -0.1639
 4635SOL    HW125364   1.649   3.305   0.684  1.7856  2.9628 -0.8783
 4635SOL    HW225365   1.634   3.273   0.832  1.0708  0.5261  0.2881
 4636SOL     OW25366   3.303   1.447  10.211 -0.7438 -0.4881 -0.7507
 4636SOL    HW125367   3.386   1.403  10.192 -2.6831 -4.2443 -0.5230
 4636SOL    HW225368   3.285   1.390  10.286  2.6580  0.2666  0.6912
 4637SOL     OW25369   1.451   4.114  12.402  0.1759  0.0675  0.1166
 4637SOL    HW125370   1.371   4.165  12.386  0.5698  0.8028  0.4630
 4637SOL    HW225371   1.438   4.057  12.326 -0.5554  0.8912 -0.3875
 4638SOL     OW25372   4.532   0.193  10.329  0.3140 -0.1880  0.7043
 4638SOL    HW125373   4.613   0.242  10.314  0.7246 -0.6866  1.2993
 4638SOL    HW225374   4.547   0.142  10.408 -0.8475  1.6803  2.1477
 4639SOL     OW25375   2.862   0.802   4.330 -0.1353  0.0861 -0.1110
 4639SOL    HW125376   2.826   0.825   4.416  2.4749  2.1760  0.4373
 4639SOL    HW225377   2.932   0.746   4.366  1.5464  2.1029 -0.2785
 4640SOL     OW25378   3.271   3.120  15.335  0.4270  0.2657  0.3205
 4640SOL    HW125379   3.273   3.205  15.291  0.1948  1.1029  1.9253
 4640SOL    HW225380   3.364   3.101  15.351 -0.5316 -1.2753  4.0417
 4641SOL     OW25381   2.270   2.792  16.688  0.4619 -0.3382  0.2560
 4641SOL    HW125382   2.219   2.847  16.629  2.5262 -0.0532 -1.2493
 4641SOL    HW225383   2.204   2.756  16.748 -1.0320 -0.7670 -1.6617
 4642SOL     OW25384   1.697   1.245   4.752  0.1465 -0.6268  1.1988
 4642SOL    HW125385   1.744   1.236   4.835 -0.0384 -0.1719  1.3516
 4642SOL    HW225386   1.658   1.332   4.761  1.6823  0.0143  1.6107
 4643SOL     OW25387   3.723   2.741   6.150 -0.3440  0.1645 -0.3907
 4643SOL    HW125388   3.775   2.776   6.222 -2.6182  1.3684  0.6538
 4643SOL    HW225389   3.634   2.759   6.182 -0.8086  0.3271 -1.7913
 4644SOL     OW25390   2.440   2.659   7.515  0.0077  0.2765 -0.3058
 4644SOL    HW125391   2.416   2.567   7.503 -0.2115  0.2553  0.3056
 4644SOL    HW225392   2.355   2.701   7.502 -0.8464 -1.8637 -1.6939
 4645SOL     OW25393   0.074   3.844  16.103  0.4593  0.1499 -0.3368
 4645SOL    HW125394   4.720   3.831  16.157  1.4779 -0.9984  0.8650
 4645SOL    HW225395   0.098   3.928  16.143  2.6487 -1.0044  0.7928
 4646SOL     OW25396   3.980   0.502   3.034 -0.1451 -0.0654  0.2124
 4646SOL    HW125397   4.055   0.550   3.069 -0.3343  0.1823  0.2756
 4646SOL    HW225398   3.970   0.550   2.951 -0.2305 -0.7841 -0.1942
 4647SOL     OW25399   1.749   4.360   1.330  0.0613 -0.1222  0.4107
 4647SOL    HW125400   1.674   4.406   1.291  0.3369 -1.0804 -1.2642
 4647SOL    HW225401   1.816   4.427   1.340 -2.2676  2.2466  0.3669
 4648SOL     OW25402   2.770   4.377   8.172  0.0968  0.8330  0.0190
 4648SOL    HW125403   2.758   4.296   8.122  0.3937  1.3387 -0.8694
 4648SOL    HW225404   2.694   4.429   8.146 -0.5567 -0.5519 -0.8288
 4649SOL     OW25405   3.165   4.056   4.987 -0.2175  0.0597  0.4767
 4649SOL    HW125406   3.197   3.973   5.025  0.1158 -0.1105 -0.1785
 4649SOL    HW225407   3.071   4.041   5.001 -0.3205  0.6459  0.3820
 4650SOL     OW25408   1.365   0.298   4.380 -0.0446 -0.5906  0.0004
 4650SOL    HW125409   1.456   0.326   4.388  0.1216 -1.2523  0.4839
 4650SOL    HW225410   1.320   0.382   4.376 -1.1191 -1.0400  2.9307
 4651SOL     OW25411   0.493   2.574   8.323  0.0203  0.7229 -0.2100
 4651SOL    HW125412   0.440   2.644   8.362 -0.1248 -0.2144  1.2596
 4651SOL    HW225413   0.531   2.532   8.399  0.2922  1.5781  0.1245
 4652SOL     OW25414   3.952   0.865  12.600  0.1486  1.0394 -0.1610
 4652SOL    HW125415   3.956   0.779  12.640  1.5809  1.3793  0.4298
 4652SOL    HW225416   3.901   0.844  12.522  0.2942 -1.1787  0.3401
 4653SOL     OW25417   1.642   3.858   7.527  0.3175  0.0722  0.1972
 4653SOL    HW125418   1.612   3.940   7.566  2.9744  2.2491 -2.2872
 4653SOL    HW225419   1.561   3.809   7.535  0.3229  0.4010  2.2401
 4654SOL     OW25420   3.578   4.016  15.344  0.3445 -0.8342  0.4860
 4654SOL    HW125421   3.606   4.048  15.258  2.3918  1.6129  2.0522
 4654SOL    HW225422   3.515   4.085  15.364  1.5771  0.6996 -0.9598
 4655SOL     OW25423   0.960   3.212   5.840  0.6392 -0.3425 -0.1508
 4655SOL    HW125424   0.893   3.280   5.842  0.2907 -0.6333 -2.0226
 4655SOL    HW225425   0.910   3.142   5.883  0.1077  0.8440  1.1717
 4656SOL     OW25426   2.467   4.536  13.804 -0.3870  0.0654  0.1344
 4656SOL    HW125427   2.390   4.581  13.839  0.4473  0.5444  1.3587
 4656SOL    HW225428   2.433   4.492  13.727  1.8501  0.2187 -0.9531
 4657SOL     OW25429   4.131   1.535   1.960  0.2492  0.4936 -0.1277
 4657SOL    HW125430   4.175   1.557   1.878  0.9413 -0.1784  0.0704
 4657SOL    HW225431   4.133   1.441   1.941  1.8972  0.4841  0.0636
 4658SOL     OW25432   2.386   0.272   6.343 -0.3927 -0.1409  0.0072
 4658SOL    HW125433   2.299   0.234   6.329  0.7327 -2.7195  0.1485
 4658SOL    HW225434   2.378   0.317   6.428 -1.5909  1.9992 -1.2361
 4659SOL     OW25435   3.570   0.172   7.974  0.4616 -0.3092 -0.2630
 4659SOL    HW125436   3.644   0.231   7.992  0.5600 -0.5459  0.0890
 4659SOL    HW225437   3.508   0.215   8.032  0.7204 -0.5437  0.1843
 4660SOL     OW25438   1.543   1.161  14.431  0.2214  0.3550  0.0518
 4660SOL    HW125439   1.493   1.135  14.509 -2.0300  0.0283 -1.5220
 4660SOL    HW225440   1.600   1.086  14.410 -1.4252 -0.5800 -1.0737
 4661SOL     OW25441   4.080   2.974   6.329  0.4033  0.0201 -0.1006
 4661SOL    HW125442   4.088   3.053   6.383  0.9535  0.1711 -0.4004
 4661SOL    HW225443   4.053   2.908   6.393  0.6848  0.3557  0.3694
 4662SOL     OW25444   2.483   3.911   6.782  0.1690  0.0903 -0.0547
 4662SOL    HW125445   2.578   3.912   6.770  0.2176  0.2772  0.3203
 4662SOL    HW225446   2.471   3.837   6.842  0.3406 -1.4774 -1.9777
 4663SOL     OW25447   2.224   4.624   0.244 -0.2570  0.1497  0.0544
 4663SOL    HW125448   2.207   4.543   0.196  1.8727 -0.5708  0.5535
 4663SOL    HW225449   2.292   4.666   0.192 -1.5613  2.2597  0.0478
 4664SOL     OW25450   4.428   3.183   4.822  0.0257 -0.0649  0.5102
 4664SOL    HW125451   4.490   3.118   4.857  1.5556 -0.1567 -2.3468
 4664SOL    HW225452   4.474   3.206   4.741  1.3865  0.0164  1.3008
 4665SOL     OW25453   4.667   0.021   0.158 -0.0491  0.0281  0.8832
 4665SOL    HW125454   4.609   4.680   0.198 -2.2321  0.1093 -2.0727
 4665SOL    HW225455   0.002   4.698   0.100 -0.6992 -0.4786  0.6242
 4666SOL     OW25456   4.303   2.365   3.795 -0.0620  0.3779 -0.4505
 4666SOL    HW125457   4.316   2.294   3.857  0.1919 -1.1950 -2.3037
 4666SOL    HW225458   4.379   2.344   3.741  0.6062  3.3302 -0.6752
 4667SOL     OW25459   2.188   0.637   3.486  0.1602 -0.3563 -0.3950
 4667SOL    HW125460   2.185   0.726   3.451 -0.2850 -0.9940 -1.9371
 4667SOL    HW225461   2.246   0.584   3.432 -2.2125 -1.8813 -1.4501
 4668SOL     OW25462   3.843   0.311   7.517 -0.0213  0.4358  0.2293
 4668SOL    HW125463   3.904   0.259   7.569  0.7306 -1.2389 -2.3052
 4668SOL    HW225464   3.830   0.384   7.577  1.5740  0.4519  0.5713
 4669SOL     OW25465   3.149   2.790  13.760 -0.3428 -0.1648  0.4079
 4669SOL    HW125466   3.182   2.863  13.707 -0.0394  0.6256  1.6887
 4669SOL    HW225467   3.177   2.715  13.708 -2.0317 -1.7057  1.7510
 4670SOL     OW25468   1.049   1.457   3.864 -0.0553  0.1877 -0.2081
 4670SOL    HW125469   1.008   1.490   3.944  2.9626  0.7877  1.0937
 4670SOL    HW225470   1.119   1.522   3.855 -0.9800  1.0714 -1.1649
 4671SOL     OW25471   1.882   3.703   9.524 -0.1162 -0.1059  0.3609
 4671SOL    HW125472   1.918   3.674   9.440 -3.4665  0.0470 -1.1114
 4671SOL    HW225473   1.787   3.697   9.513 -0.1494  0.1683  0.4784
 4672SOL     OW25474   3.023   3.310   7.520 -0.2630  0.1597  0.0488
 4672SOL    HW125475   2.928   3.302   7.532 -0.5280  2.9381 -0.1040
 4672SOL    HW225476   3.040   3.401   7.547  1.6265 -0.1084 -0.2570
 4673SOL     OW25477   3.887   3.924   7.081 -0.2702  0.2670  0.1218
 4673SOL    HW125478   3.873   3.999   7.140  1.3426 -0.7022  1.7412
 4673SOL    HW225479   3.904   3.972   7.001 -3.2369  1.4991  0.2199
 4674SOL     OW25480   1.539   0.944   7.607 -0.4589 -0.1789 -0.4029
 4674SOL    HW125481   1.465   0.944   7.546 -0.4960 -0.2012 -0.3574
 4674SOL    HW225482   1.612   0.921   7.549 -0.4139 -0.7949 -0.0932
 4675SOL     OW25483   4.710   4.020   3.430 -0.4187 -0.2617 -0.4432
 4675SOL    HW125484   4.687   4.112   3.416 -0.7614 -0.3309 -0.3481
 4675SOL    HW225485   0.059   4.014   3.368  0.0585  1.5790 -0.0780
 4676SOL     OW25486   1.883   3.172   6.633 -0.3793  0.1403  0.0916
 4676SOL    HW125487   1.811   3.111   6.645  0.6361 -0.4410  3.2980
 4676SOL    HW225488   1.951   3.139   6.693  0.9305  2.1542 -0.2808
 4677SOL     OW25489   2.236   0.266   7.479  0.4042 -0.1865  0.8610
 4677SOL    HW125490   2.303   0.269   7.410  1.2122  1.4486  1.7068
 4677SOL    HW225491   2.249   0.349   7.525 -0.9551 -0.1244  1.1198
 4678SOL     OW25492   4.132   3.563   2.957  0.2331  0.0271  0.3544
 4678SOL    HW125493   4.222   3.562   2.991  0.2860  1.1231  0.2194
 4678SOL    HW225494   4.137   3.656   2.937 -0.4195 -0.2870 -1.2519
 4679SOL     OW25495   3.460   3.656   5.398  0.1917  0.1435 -0.4060
 4679SOL    HW125496   3.369   3.653   5.367  0.3321  0.0731 -0.8017
 4679SOL    HW225497   3.453   3.611   5.483  0.8803  1.7055  0.4853
 4680SOL     OW25498   1.224   2.684   4.474  0.0192  0.1029 -0.0998
 4680SOL    HW125499   1.305   2.725   4.445  0.0511 -1.0159 -1.5713
 4680SOL    HW225500   1.239   2.593   4.447 -0.2112 -0.2978  1.1116
 4681SOL     OW25501   2.475   2.154   6.436 -0.2352 -0.1576  0.0712
 4681SOL    HW125502   2.524   2.110   6.505  0.5422 -1.6339 -1.4382
 4681SOL    HW225503   2.429   2.222   6.486  0.6809 -1.0469  2.0889
 4682SOL     OW25504   0.651   4.076   2.741  0.6903 -0.2816 -0.2033
 4682SOL    HW125505   0.677   4.168   2.745  1.8089 -0.6024 -0.0860
 4682SOL    HW225506   0.728   4.042   2.697  0.6384 -1.6976  0.7798
 4683SOL     OW25507   4.429   4.041  12.396  0.0763  0.0201 -0.3286
 4683SOL    HW125508   4.388   4.112  12.447  0.3682  0.1784 -0.3145
 4683SOL    HW225509   4.377   3.964  12.419  2.1982 -1.6508 -1.1769
 4684SOL     OW25510   2.113   0.461   6.016  0.0507  0.2052 -0.1979
 4684SOL    HW125511   2.088   0.542   5.972 -0.3251 -0.6207 -1.4961
 4684SOL    HW225512   2.149   0.399   5.953 -1.8059  1.0828 -2.1297
 4685SOL     OW25513   2.149   0.384  14.454 -0.5706  0.4078 -0.0168
 4685SOL    HW125514   2.180   0.391  14.544 -0.3791  0.2632 -0.0704
 4685SOL    HW225515   2.093   0.307  14.466 -0.7521  1.0006  2.9459
 4686SOL     OW25516   3.665   1.348   5.616 -0.5740 -0.1867  0.3827
 4686SOL    HW125517   3.675   1.297   5.535  1.6159 -0.8428  1.0577
 4686SOL    HW225518   3.591   1.409   5.610 -0.1752  0.3168  0.6361
 4687SOL     OW25519   1.705   1.565   3.054  0.3424 -0.4749 -0.4944
 4687SOL    HW125520   1.638   1.499   3.036 -0.9571  1.2479 -1.9365
 4687SOL    HW225521   1.656   1.640   3.087 -0.8778 -0.6423 -1.9202
 4688SOL     OW25522   2.274   1.833  13.574  0.1755  0.2400  0.5258
 4688SOL    HW125523   2.266   1.874  13.488  0.2163  1.2435  0.9964
 4688SOL    HW225524   2.226   1.897  13.627 -1.6369 -1.2265  0.6694
 4689SOL     OW25525   0.789   1.941   1.146  0.1152 -0.8335 -0.1233
 4689SOL    HW125526   0.738   1.880   1.092 -0.0048 -0.0526 -0.8937
 4689SOL    HW225527   0.776   2.024   1.099 -0.0143 -0.2190  0.9899
 4690SOL     OW25528   4.113   1.889   6.328 -0.0035 -0.3606  0.0906
 4690SOL    HW125529   4.030   1.925   6.359 -0.0226 -0.0698 -0.3011
 4690SOL    HW225530   4.149   1.871   6.415  2.1002  0.0052 -0.6928
 4691SOL     OW25531   0.469   1.218   8.282 -0.1111 -0.0039 -0.2321
 4691SOL    HW125532   0.411   1.282   8.323 -1.1759 -2.4452  2.1192
 4691SOL    HW225533   0.441   1.138   8.328  0.1329  0.3791  0.5761
 4692SOL     OW25534   3.834   1.464  13.056 -0.5242 -0.1164  0.5635
 4692SOL    HW125535   3.844   1.510  12.973  1.0034  0.5439  1.1107
 4692SOL    HW225536   3.855   1.373  13.032 -0.2944 -0.0874  0.6505
 4693SOL     OW25537   2.861   3.228   6.604  0.4830 -0.1206 -0.3159
 4693SOL    HW125538   2.851   3.250   6.696 -1.3729 -0.3184 -0.4735
 4693SOL    HW225539   2.944   3.182   6.615  0.1597 -0.1027  2.1210
 4694SOL     OW25540   1.363   2.891   1.734 -0.5309 -0.6623 -0.1263
 4694SOL    HW125541   1.453   2.924   1.728  0.9783 -4.5918  1.1788
 4694SOL    HW225542   1.367   2.811   1.785 -1.9752 -0.5749  0.1171
 4695SOL     OW25543   2.454   2.695   6.730  0.2138  0.9228  0.1477
 4695SOL    HW125544   2.524   2.709   6.794 -1.6434 -1.8796  2.7345
 4695SOL    HW225545   2.380   2.742   6.766  0.0651  1.4823 -0.8694
 4696SOL     OW25546   3.282   3.274   0.831 -0.0117  0.2819 -0.6296
 4696SOL    HW125547   3.296   3.188   0.789  0.2686 -1.0533  2.2041
 4696SOL    HW225548   3.186   3.268   0.827 -0.1661  1.9497  0.7521
 4697SOL     OW25549   4.004   2.834   3.418 -0.2043  0.3654  0.2127
 4697SOL    HW125550   3.983   2.834   3.512  0.8724  1.8370  0.4551
 4697SOL    HW225551   4.050   2.918   3.423 -0.5589  0.6219 -0.9130
 4698SOL     OW25552   4.368   0.270   3.765 -0.0812  0.0138 -0.1390
 4698SOL    HW125553   4.300   0.209   3.793 -0.3856  0.7851  0.7739
 4698SOL    HW225554   4.343   0.345   3.819  1.4654 -0.2335  0.9211
 4699SOL     OW25555   0.104   3.039   2.956 -0.1850 -0.2119 -0.1575
 4699SOL    HW125556   0.193   3.009   2.974  0.3777  1.6388  0.1267
 4699SOL    HW225557   0.099   3.114   3.016 -0.7899  0.4161 -1.0004
 4700SOL     OW25558   2.665   0.431  12.482  0.5321  0.5865  0.1592
 4700SOL    HW125559   2.755   0.449  12.457  1.7626 -2.4976  2.3542
 4700SOL    HW225560   2.675   0.451  12.574  3.6694  1.6742 -0.4469
 4701SOL     OW25561   1.497   2.687   2.562 -0.0987 -0.1279  0.2908
 4701SOL    HW125562   1.557   2.719   2.494 -0.1821 -1.9415 -0.6192
 4701SOL    HW225563   1.550   2.691   2.642  0.4663 -1.1200 -0.0410
 4702SOL     OW25564   4.314   1.223   5.087  0.2438  0.0340  0.2682
 4702SOL    HW125565   4.286   1.311   5.064  0.7240  0.3173  0.7672
 4702SOL    HW225566   4.307   1.225   5.183 -1.3465 -1.2005  0.1751
 4703SOL     OW25567   1.193   4.291  10.217  0.1263 -0.2816 -0.3298
 4703SOL    HW125568   1.161   4.289  10.307  1.4344 -1.4476  0.1006
 4703SOL    HW225569   1.284   4.320  10.222  0.2880 -0.7346 -0.7009
 4704SOL     OW25570   4.518   3.056   0.285  0.3107 -0.6980  0.0244
 4704SOL    HW125571   4.531   3.141   0.243 -1.8304  0.9117  2.6022
 4704SOL    HW225572   4.561   3.077   0.368 -1.0313  2.2569 -0.0330
 4705SOL     OW25573   3.224   1.432   9.921 -0.1254  0.0273 -0.1543
 4705SOL    HW125574   3.273   1.445  10.003 -0.1985 -0.8666  0.0390
 4705SOL    HW225575   3.296   1.444   9.859 -0.7877 -0.9251 -1.0920
 4706SOL     OW25576   0.592   3.341   2.128 -0.5843  0.2434  0.3554
 4706SOL    HW125577   0.518   3.321   2.071 -0.6553  1.0212  0.1770
 4706SOL    HW225578   0.661   3.316   2.066 -0.9772  0.2056 -0.0677
 4707SOL     OW25579   1.376   4.542   7.237 -0.5119 -0.7871  0.6083
 4707SOL    HW125580   1.318   4.617   7.250  0.0656 -0.1744 -0.3927
 4707SOL    HW225581   1.380   4.496   7.321 -0.8465 -1.1808  0.4082
 4708SOL     OW25582   3.681   0.914   3.829  0.6225 -0.0972 -0.2583
 4708SOL    HW125583   3.633   0.831   3.823 -1.2760  0.9018  0.7823
 4708SOL    HW225584   3.659   0.943   3.741  1.3565  2.2776  0.3348
 4709SOL     OW25585   0.103   2.438   8.205 -0.3067 -0.2634  0.3128
 4709SOL    HW125586   0.105   2.507   8.272  2.0841  0.6920 -0.7187
 4709SOL    HW225587   0.106   2.355   8.252 -2.2859 -0.4016  0.1734
 4710SOL     OW25588   0.837   4.486   3.709 -0.1783  0.4900 -0.1296
 4710SOL    HW125589   0.792   4.460   3.629 -2.6061 -1.7546  1.9454
 4710SOL    HW225590   0.846   4.580   3.693  1.5185 -0.4572 -4.6222
 4711SOL     OW25591   2.573   0.707   1.585  0.0127  0.0715 -0.3795
 4711SOL    HW125592   2.492   0.747   1.616 -0.3144  0.3228 -1.5720
 4711SOL    HW225593   2.599   0.665   1.667 -0.1924  0.7378  0.0236
 4712SOL     OW25594   4.223   1.874   3.986  0.4368 -0.0710 -0.0094
 4712SOL    HW125595   4.306   1.902   4.026  0.8853  0.6653 -1.4628
 4712SOL    HW225596   4.179   1.959   3.977 -0.5032 -0.6794 -1.1399
 4713SOL     OW25597   3.148   2.587   3.361  0.0106  0.6313 -0.2709
 4713SOL    HW125598   3.163   2.601   3.455 -0.1938 -0.6678 -0.0462
 4713SOL    HW225599   3.088   2.661   3.351  0.6861  1.3038  0.6477
 4714SOL     OW25600   2.580   0.914   5.486  0.0427  0.2661 -0.4644
 4714SOL    HW125601   2.521   0.883   5.554  2.1912  0.2368  1.4161
 4714SOL    HW225602   2.623   0.985   5.534 -1.3667  1.8775 -1.5959
 4715SOL     OW25603   3.853   4.515  14.476  0.1707  0.2049  0.6953
 4715SOL    HW125604   3.883   4.444  14.419 -3.3198 -0.8259  0.1811
 4715SOL    HW225605   3.907   4.586  14.442 -1.3442 -0.4762 -3.1387
 4716SOL     OW25606   4.383   1.575   2.595  0.4580 -0.3143  0.1266
 4716SOL    HW125607   4.315   1.605   2.655 -1.6207  0.2802 -2.5804
 4716SOL    HW225608   4.446   1.548   2.662 -0.0031  1.2792  1.2081
 4717SOL     OW25609   1.684   2.954   3.389 -0.1773 -0.2756  0.1050
 4717SOL    HW125610   1.688   3.036   3.341 -0.8304  0.4007  1.1876
 4717SOL    HW225611   1.635   2.894   3.333  0.1105  0.0264 -0.4673
 4718SOL     OW25612   4.056   1.525  13.804 -0.4613  0.9955 -0.5081
 4718SOL    HW125613   4.137   1.562  13.839  0.6602 -0.8424 -1.1605
 4718SOL    HW225614   4.048   1.550  13.712 -1.0511  1.8479 -0.2279
 4719SOL     OW25615   3.532   0.668  13.618 -0.2607  0.3515 -0.0789
 4719SOL    HW125616   3.527   0.686  13.712 -2.4165  2.3953 -0.5795
 4719SOL    HW225617   3.485   0.587  13.599  1.1772 -0.4556 -0.1240
 4720SOL     OW25618   2.133   2.439   8.073 -0.3900  0.4629 -0.1879
 4720SOL    HW125619   2.165   2.450   8.162 -1.2115 -1.2040  0.3188
 4720SOL    HW225620   2.038   2.446   8.079 -0.4799  0.1980 -1.2555
 4721SOL     OW25621   3.592   3.809   1.747  0.1157  0.2445  0.2364
 4721SOL    HW125622   3.547   3.886   1.782  1.5541  1.5042 -0.6838
 4721SOL    HW225623   3.669   3.853   1.711  1.1748  0.7928  3.0935
 4722SOL     OW25624   4.408   0.739   6.061 -0.1267  0.4757 -0.3671
 4722SOL    HW125625   4.364   0.681   5.998 -0.7951 -1.1908  1.6507
 4722SOL    HW225626   4.402   0.821   6.012  0.3417  1.3607  1.0494
 4723SOL     OW25627   2.013   3.337  15.749  0.5807  0.7931 -1.1004
 4723SOL    HW125628   1.930   3.385  15.743 -0.2482 -0.2768  1.7778
 4723SOL    HW225629   1.985   3.247  15.768 -0.1357  1.5952  1.5988
 4724SOL     OW25630   2.114   4.638   6.288  0.2869  0.3023 -0.0168
 4724SOL    HW125631   2.024   4.618   6.264  0.8761 -1.6257 -0.5954
 4724SOL    HW225632   2.113   0.009   6.295 -0.3543  0.4680 -2.3601
 4725SOL     OW25633   2.482   2.082   0.290  0.8268  0.3621 -0.3099
 4725SOL    HW125634   2.553   2.035   0.248  0.1780 -0.2358 -0.7468
 4725SOL    HW225635   2.430   2.122   0.220  1.7734  1.3843 -0.4219
 4726SOL     OW25636   0.904   3.062   3.928 -0.3851 -0.3331  0.0456
 4726SOL    HW125637   0.841   2.999   3.963  0.7151 -1.9007 -0.7465
 4726SOL    HW225638   0.873   3.146   3.960  1.6104 -0.0101  1.1513
 4727SOL     OW25639   4.349   2.263  14.784 -0.4692 -0.1170  0.5810
 4727SOL    HW125640   4.386   2.194  14.729 -1.8586 -0.1888 -0.2706
 4727SOL    HW225641   4.427   2.294  14.830  0.7167 -0.5378 -1.1694
 4728SOL     OW25642   0.082   2.195   4.190  0.1993 -0.2294 -0.0197
 4728SOL    HW125643   0.175   2.182   4.169 -0.1078  0.3003 -1.7193
 4728SOL    HW225644   0.047   2.189   4.101 -1.7887  0.4981  0.7132
 4729SOL     OW25645   0.899   3.668  11.487  0.1277 -0.0365  0.3661
 4729SOL    HW125646   0.900   3.620  11.404 -0.1843  3.0229 -1.4153
 4729SOL    HW225647   0.813   3.662  11.527  0.1104  0.7590  0.4460
 4730SOL     OW25648   0.130   3.577  13.371  0.0752  0.0801 -0.0840
 4730SOL    HW125649   0.166   3.634  13.440  2.1017 -1.7223  0.3271
 4730SOL    HW225650   0.184   3.498  13.372  3.8951  2.6787 -1.6066
 4731SOL     OW25651   4.579   3.119   7.426 -0.0180  0.5316  0.0875
 4731SOL    HW125652   4.519   3.064   7.376  0.6004 -1.3068  1.3745
 4731SOL    HW225653   4.611   3.053   7.488 -2.2607 -0.7238 -0.0791
 4732SOL     OW25654   0.061   2.105   6.867 -0.1030 -0.0004 -0.2201
 4732SOL    HW125655   4.718   2.066   6.810 -1.5359  0.2594  1.2713
 4732SOL    HW225656   0.110   2.032   6.904  0.4016 -0.5985 -2.0897
 4733SOL     OW25657   4.437   1.317   3.109  0.0041  0.7345  0.1467
 4733SOL    HW125658   4.442   1.322   3.013 -0.2607  1.9188  0.1945
 4733SOL    HW225659   4.453   1.409   3.131  1.2306  0.0351  2.1254
 4734SOL     OW25660   3.743   3.685   9.212  0.7136  0.4608 -0.3730
 4734SOL    HW125661   3.803   3.737   9.264 -1.4508  1.7651  0.8258
 4734SOL    HW225662   3.751   3.604   9.262  1.7286 -0.4076 -1.9180
 4735SOL     OW25663   4.115   2.745   8.727  0.4095  0.2314 -0.3246
 4735SOL    HW125664   4.126   2.706   8.814  1.8942  0.1697 -0.5346
 4735SOL    HW225665   4.179   2.815   8.741  1.2830 -1.0181  1.9988
 4736SOL     OW25666   0.788   0.620  13.636  0.1702  0.3718 -0.0637
 4736SOL    HW125667   0.881   0.643  13.631 -0.2099  1.5853 -1.4424
 4736SOL    HW225668   0.778   0.525  13.630 -0.9535  0.3321  2.2809
 4737SOL     OW25669   2.831   2.632   4.008 -0.1369  0.4352  0.0393
 4737SOL    HW125670   2.841   2.698   3.939 -1.2455  0.1343 -0.4040
 4737SOL    HW225671   2.748   2.653   4.051  0.3693  2.6187 -0.0581
 4738SOL     OW25672   3.730   2.423   7.544  0.2019  0.2889  0.3599
 4738SOL    HW125673   3.811   2.456   7.583 -1.1831  0.1782  3.3332
 4738SOL    HW225674   3.668   2.432   7.617  0.3589 -0.9571  0.6385
 4739SOL     OW25675   2.493   0.922   0.845  0.1958  0.5755 -0.7793
 4739SOL    HW125676   2.421   0.965   0.889 -0.1847 -1.4216  0.5463
 4739SOL    HW225677   2.566   0.936   0.905 -0.6480  2.6579 -0.2303
 4740SOL     OW25678   2.608   2.480   3.549 -0.0985 -0.1085 -0.0597
 4740SOL    HW125679   2.548   2.422   3.596 -0.1241 -0.1958 -0.1974
 4740SOL    HW225680   2.686   2.461   3.600 -0.0247  2.1317  0.6405
 4741SOL     OW25681   0.514   3.191   7.831 -0.0477  0.2942 -0.1966
 4741SOL    HW125682   0.502   3.137   7.753  0.2200 -0.0202 -0.0186
 4741SOL    HW225683   0.427   3.197   7.873 -0.8970 -0.3357 -1.8750
 4742SOL     OW25684   2.670   3.765   3.042  0.0644 -0.5486  0.2377
 4742SOL    HW125685   2.685   3.702   2.971  2.3551  2.6090 -2.0803
 4742SOL    HW225686   2.583   3.786   3.007  0.0931 -0.2887  0.3233
 4743SOL     OW25687   3.274   3.431   6.746 -0.0926 -0.4943 -0.1834
 4743SOL    HW125688   3.230   3.413   6.662 -0.8954  1.1517 -0.1185
 4743SOL    HW225689   3.260   3.524   6.765 -1.9463 -0.2106 -2.8486
 4744SOL     OW25690   1.092   3.006   9.988  0.2236 -0.2058 -0.1239
 4744SOL    HW125691   1.136   3.075  10.037 -0.9127 -0.5162  1.3284
 4744SOL    HW225692   1.065   3.060   9.914  0.4602  1.3458  0.9309
 4745SOL     OW25693   0.590   4.283   1.784 -0.1934  0.2124  0.6931
 4745SOL    HW125694   0.651   4.277   1.711 -0.2526  1.3134  0.5474
 4745SOL    HW225695   0.523   4.216   1.770  0.4318 -0.6213  1.6703
 4746SOL     OW25696   3.704   2.781   0.887 -0.6197  0.5603  0.1063
 4746SOL    HW125697   3.647   2.797   0.812 -1.3424  1.5402  0.8532
 4746SOL    HW225698   3.678   2.695   0.919  0.4947  0.6617  1.2903
 4747SOL     OW25699   4.159   2.174   4.902 -0.1999 -0.5969 -0.1655
 4747SOL    HW125700   4.205   2.152   4.822  0.6860  1.1488 -0.1331
 4747SOL    HW225701   4.124   2.092   4.935  1.0255  0.3584  3.5844
 4748SOL     OW25702   0.146   0.885  12.174 -0.2638  0.0726 -0.1819
 4748SOL    HW125703   0.079   0.869  12.107  0.5758  1.1520 -1.2666
 4748SOL    HW225704   0.092   0.927  12.241 -0.0900 -3.0397  1.9090
 4749SOL     OW25705   2.054   4.497   3.043  0.3502  0.0120  0.2100
 4749SOL    HW125706   2.059   4.589   3.067 -0.9073  0.6028 -1.7745
 4749SOL    HW225707   1.984   4.463   3.099 -0.0303  1.6112  0.7098
 4750SOL     OW25708   4.524   3.491   2.470  0.3232 -0.3068 -0.1004
 4750SOL    HW125709   4.591   3.541   2.517 -0.0277 -0.2819  0.3763
 4750SOL    HW225710   4.579   3.448   2.406  0.1112 -0.7717  0.0271
 4751SOL     OW25711   1.936   3.058  15.778 -0.1207  0.4406 -0.2854
 4751SOL    HW125712   1.893   3.057  15.693  2.4772  1.2992 -1.6015
 4751SOL    HW225713   1.985   2.976  15.779 -0.3357  0.2924 -4.6446
 4752SOL     OW25714   0.528   0.085   8.403  0.6391 -0.5601  0.0035
 4752SOL    HW125715   0.586   0.035   8.460 -1.0632 -0.4494  1.8495
 4752SOL    HW225716   0.456   0.106   8.463  1.1671  0.3955  0.3125
 4753SOL     OW25717   2.317   3.768   3.799  0.1079 -0.1928 -0.0131
 4753SOL    HW125718   2.379   3.834   3.830  2.7031 -1.6773 -2.0419
 4753SOL    HW225719   2.314   3.784   3.705 -0.4643 -0.8826 -0.1188
 4754SOL     OW25720   1.461   4.112   7.158 -0.9882 -0.3528  0.0728
 4754SOL    HW125721   1.544   4.097   7.204 -0.3664  2.3300 -0.1764
 4754SOL    HW225722   1.485   4.146   7.072  0.0620 -1.7140 -0.1700
 4755SOL     OW25723   0.413   2.002  13.798  0.1526  0.0394 -0.0850
 4755SOL    HW125724   0.397   1.972  13.709  0.2981  1.8013 -0.6866
 4755SOL    HW225725   0.446   2.090  13.781  1.6011 -0.2534  1.1537
 4756SOL     OW25726   4.527   0.811   7.322 -0.0896 -1.5802  0.8816
 4756SOL    HW125727   4.442   0.781   7.353 -1.6559  3.2431  1.2765
 4756SOL    HW225728   4.511   0.900   7.292  0.0504 -1.4558  1.1759
 4757SOL     OW25729   4.410   3.054   6.071 -0.4520 -0.0464 -0.4187
 4757SOL    HW125730   4.384   3.146   6.077  2.0347  0.5651  1.0961
 4757SOL    HW225731   4.434   3.053   5.979 -3.3091 -1.4868 -1.1598
 4758SOL     OW25732   3.923   3.049  15.328 -0.4199 -0.1774 -0.3524
 4758SOL    HW125733   3.842   3.001  15.311 -1.1558  0.6754  0.7356
 4758SOL    HW225734   3.986   2.998  15.277  1.3739  0.6581  1.0147
 4759SOL     OW25735   1.558   1.646   9.711 -0.1946  0.0081 -0.2514
 4759SOL    HW125736   1.496   1.578   9.683 -0.7570 -0.2333  1.6018
 4759SOL    HW225737   1.580   1.678   9.624 -2.0217  1.9652  0.0017
 4760SOL     OW25738   4.223   2.500  10.310  0.1470  0.3440  0.1827
 4760SOL    HW125739   4.216   2.405  10.310 -1.6983  0.4809  0.5181
 4760SOL    HW225740   4.234   2.514  10.216 -0.0674 -1.3745 -0.1025
 4761SOL     OW25741   1.429   3.941  13.766 -0.7576 -0.1170 -0.2588
 4761SOL    HW125742   1.376   3.868  13.733  0.7886 -1.2038 -0.3719
 4761SOL    HW225743   1.390   4.016  13.722  0.0931  0.8989  0.7250
 4762SOL     OW25744   0.812   2.291  10.687 -0.0240  0.0416  0.2151
 4762SOL    HW125745   0.852   2.205  10.699 -0.1622 -0.3648 -2.3330
 4762SOL    HW225746   0.809   2.321  10.778  0.0259 -1.2357  0.6497
 4763SOL     OW25747   3.774   4.086   9.888  0.8793 -0.1826  0.6945
 4763SOL    HW125748   3.725   4.034   9.825 -1.1745  1.4907  0.9300
 4763SOL    HW225749   3.856   4.079   9.839 -1.2046  1.2454 -2.9582
 4764SOL     OW25750   1.861   3.379   2.256 -0.1956 -0.1569  0.4758
 4764SOL    HW125751   1.902   3.464   2.237 -1.8814  0.4764 -0.2588
 4764SOL    HW225752   1.802   3.412   2.324 -1.3888  1.9001 -1.5992
 4765SOL     OW25753   2.147   1.325  11.833  0.1569  0.5804 -0.4417
 4765SOL    HW125754   2.222   1.361  11.881  2.3381 -2.0872 -1.8329
 4765SOL    HW225755   2.081   1.312  11.901  0.1288  0.0529 -0.5725
 4766SOL     OW25756   3.422   3.877  17.679 -0.1246 -0.0360 -0.1768
 4766SOL    HW125757   3.367   3.857  17.603 -0.2201  0.0700 -0.1347
 4766SOL    HW225758   3.509   3.861  17.641  0.1728  1.1282  0.0085
 4767SOL     OW25759   2.218   2.651  15.525 -0.2695 -0.5956 -0.0330
 4767SOL    HW125760   2.204   2.570  15.574  2.0555  0.5283  2.4848
 4767SOL    HW225761   2.147   2.704  15.562 -0.2546 -1.0490  0.6483
 4768SOL     OW25762   2.137   3.889   9.262 -0.7564  0.0163 -0.1298
 4768SOL    HW125763   2.114   3.904   9.353 -1.0723 -4.6195  0.5682
 4768SOL    HW225764   2.081   3.814   9.241  0.1317 -0.5644 -0.4521
 4769SOL     OW25765   0.168   1.674   5.775  0.5226 -0.0891  0.4516
 4769SOL    HW125766   0.103   1.739   5.801 -2.3421 -2.3083 -1.1808
 4769SOL    HW225767   0.246   1.728   5.789  0.2312  1.0057 -2.2436
 4770SOL     OW25768   0.673   2.449   1.414  0.8643  0.5445 -1.0895
 4770SOL    HW125769   0.739   2.385   1.386  1.0318 -0.7915  2.4974
 4770SOL    HW225770   0.605   2.442   1.347 -0.3974 -0.3852  0.2935
 4771SOL     OW25771   4.719   3.920   7.332 -0.1761  0.0232 -0.2450
 4771SOL    HW125772   0.032   3.838   7.300 -3.0140 -1.3643  0.0223
 4771SOL    HW225773   0.034   3.924   7.419 -0.1630  2.6011 -0.3946
 4772SOL     OW25774   1.151   0.911   0.585  0.2045 -0.2830 -0.4447
 4772SOL    HW125775   1.165   0.865   0.668 -1.7135 -0.2332 -0.1076
 4772SOL    HW225776   1.089   0.981   0.605  0.1111  0.2141 -2.5388
 4773SOL     OW25777   1.100   2.071   3.346  0.0609  0.0573  0.0629
 4773SOL    HW125778   1.047   2.150   3.333  1.3830  0.9731  0.2224
 4773SOL    HW225779   1.066   2.045   3.431 -0.2377 -2.6995 -0.9281
 4774SOL     OW25780   2.515   1.035   9.821 -0.2054 -0.0591 -0.0255
 4774SOL    HW125781   2.583   0.997   9.877  1.4321 -0.7639 -2.5214
 4774SOL    HW225782   2.435   1.040   9.874  0.2003 -1.1623  0.7079
 4775SOL     OW25783   1.849   1.961   3.098 -0.2865  0.3697  0.0167
 4775SOL    HW125784   1.927   1.910   3.079 -0.5276  0.2740 -0.6822
 4775SOL    HW225785   1.778   1.898   3.088  1.4686 -1.6618  0.4669
 4776SOL     OW25786   0.739   3.410   7.221  0.4139  0.3908 -0.0739
 4776SOL    HW125787   0.793   3.333   7.200  2.1210  1.4475  0.4721
 4776SOL    HW225788   0.709   3.433   7.133 -0.0249 -0.0913 -0.0513
 4777SOL     OW25789   4.063   2.916   7.431  0.2144 -0.1538 -0.2962
 4777SOL    HW125790   4.103   2.897   7.516 -1.6371 -0.3924  0.5365
 4777SOL    HW225791   4.080   2.833   7.389  0.0170 -0.3659  0.0388
 4778SOL     OW25792   1.540   2.077   3.071 -0.3421 -0.1937 -0.1145
 4778SOL    HW125793   1.585   2.082   2.987 -0.2046  0.2006 -0.0179
 4778SOL    HW225794   1.449   2.089   3.047 -0.3821  0.0445  0.1494
 4779SOL     OW25795   0.532   3.797   0.862  0.5473  0.0144  0.0637
 4779SOL    HW125796   0.546   3.875   0.915  1.4079  1.1301 -1.8266
 4779SOL    HW225797   0.585   3.812   0.784  0.1085 -2.0022 -0.6190
 4780SOL     OW25798   4.632   2.124   2.125 -0.4478 -0.3660 -0.1176
 4780SOL    HW125799   4.626   2.218   2.142  1.9931 -0.2984  0.3980
 4780SOL    HW225800   4.547   2.088   2.151 -0.5159  0.2227  0.4580
 4781SOL     OW25801   4.645   1.922  11.439  0.1269  0.6333 -0.1149
 4781SOL    HW125802   0.016   1.927  11.444  0.2375 -2.3113  1.2307
 4781SOL    HW225803   4.633   1.827  11.436  0.7564  0.5374  0.4835
 4782SOL     OW25804   0.495   3.095   4.112  0.2889  0.1512 -0.2444
 4782SOL    HW125805   0.553   3.024   4.138 -0.2427  0.3855  1.6059
 4782SOL    HW225806   0.436   3.052   4.050  2.1839 -1.3323 -1.0036
 4783SOL     OW25807   0.880   1.023   2.260 -0.2477  0.5316  0.0467
 4783SOL    HW125808   0.882   1.074   2.179 -0.4864 -0.3334 -0.5066
 4783SOL    HW225809   0.811   0.960   2.237 -0.8141  1.8090 -1.8057
 4784SOL     OW25810   3.653   1.062   2.270 -0.1207  0.1031 -0.4145
 4784SOL    HW125811   3.748   1.055   2.259 -0.3115 -0.1848 -1.8306
 4784SOL    HW225812   3.629   0.983   2.222  1.4363 -0.7381  0.1809
 4785SOL     OW25813   4.191   3.408  14.766 -0.2795  0.2284 -0.1769
 4785SOL    HW125814   4.283   3.433  14.777  0.3905 -1.4444 -2.1309
 4785SOL    HW225815   4.175   3.369  14.852  0.3628 -1.3105 -0.7564
 4786SOL     OW25816   0.839   3.027   4.286 -0.1602 -0.2031 -0.2326
 4786SOL    HW125817   0.774   2.959   4.268 -0.5299  0.2920 -0.7559
 4786SOL    HW225818   0.908   2.986   4.234  0.6008  1.0309 -0.1959
 4787SOL     OW25819   3.396   1.821   5.578 -0.0162  0.5565 -0.0951
 4787SOL    HW125820   3.362   1.894   5.629  0.6166  1.1941 -0.5956
 4787SOL    HW225821   3.416   1.875   5.502  1.0079  1.1676  0.6127
 4788SOL     OW25822   3.077   3.587  12.181 -0.3392  0.3890 -0.2550
 4788SOL    HW125823   3.067   3.590  12.086 -2.7807 -0.7999 -0.0393
 4788SOL    HW225824   2.987   3.604  12.210 -0.3617  2.6706 -1.6248
 4789SOL     OW25825   0.727   3.407  11.502 -0.5428 -0.0791 -0.0550
 4789SOL    HW125826   0.678   3.326  11.493 -0.5541  0.0451 -1.0296
 4789SOL    HW225827   0.762   3.413  11.413  1.9529 -1.2725  0.8333
 4790SOL     OW25828   0.999   0.279   2.394  0.4460  0.0359 -0.0833
 4790SOL    HW125829   1.093   0.268   2.404  0.2243 -0.8536  0.9537
 4790SOL    HW225830   0.967   0.196   2.429 -0.6474  1.1083  1.4964
 4791SOL     OW25831   1.115   4.130   6.143  0.2701  0.1375 -0.0554
 4791SOL    HW125832   1.027   4.096   6.157  1.0298 -2.7933 -2.4493
 4791SOL    HW225833   1.119   4.213   6.191  0.8253 -0.3739  0.7703
 4792SOL     OW25834   1.715   1.726   2.755  0.1380  0.0467 -0.4155
 4792SOL    HW125835   1.679   1.690   2.674 -1.5244  0.7768  0.0141
 4792SOL    HW225836   1.652   1.680   2.810 -1.3753  0.4603 -1.8078
 4793SOL     OW25837   3.496   4.639   2.415  0.1353  0.3964 -0.4230
 4793SOL    HW125838   3.527   4.623   2.504 -0.4335  1.1853 -0.0916
 4793SOL    HW225839   3.402   4.628   2.427  0.0500 -0.1265 -1.6073
 4794SOL     OW25840   0.334   2.448   8.591  0.6595  0.4191 -0.0591
 4794SOL    HW125841   0.430   2.447   8.599  0.5862  0.5255  0.9048
 4794SOL    HW225842   0.318   2.537   8.622  2.7674  0.7754  0.0132
 4795SOL     OW25843   0.359   0.943  17.503 -0.2728  0.2577  0.2299
 4795SOL    HW125844   0.376   0.911  17.592 -2.3199 -0.1516  0.4702
 4795SOL    HW225845   0.445   0.919  17.470  0.0990 -0.0998  1.4572
 4796SOL     OW25846   3.493   2.270   6.638  0.6715  0.1689  0.4717
 4796SOL    HW125847   3.514   2.187   6.681  0.0886 -0.2136  0.0156
 4796SOL    HW225848   3.467   2.321   6.715  0.6735 -1.2312  1.3904
 4797SOL     OW25849   2.265   4.487  10.085 -0.2670  0.0402  0.4578
 4797SOL    HW125850   2.333   4.544  10.118 -1.1251 -0.3375  2.8671
 4797SOL    HW225851   2.216   4.549  10.031  0.0889  0.8982  1.1398
 4798SOL     OW25852   2.974   0.938   2.364 -0.1497  0.3439  0.1255
 4798SOL    HW125853   2.999   0.999   2.294 -3.3990  2.6577  0.9513
 4798SOL    HW225854   3.015   0.976   2.442 -0.3372 -0.2857  0.5259
 4799SOL     OW25855   0.866   0.032   8.375 -0.4556 -0.0611 -0.0685
 4799SOL    HW125856   0.954   0.030   8.338 -0.5963  2.2350 -0.4961
 4799SOL    HW225857   0.856   4.663   8.397  1.6035 -0.5690 -1.2326
 4800SOL     OW25858   4.557   1.852   7.233  0.0613 -0.8402 -0.0568
 4800SOL    HW125859   4.465   1.845   7.259 -0.9379  2.4449 -2.7760
 4800SOL    HW225860   4.597   1.867   7.318  0.4864 -0.5507 -0.3085
 4801SOL     OW25861   3.730   3.869   6.702  0.6017  0.4722  0.0100
 4801SOL    HW125862   3.649   3.899   6.661  1.1077 -0.4741 -1.7033
 4801SOL    HW225863   3.694   3.792   6.745  0.9025  0.1177 -0.3628
 4802SOL     OW25864   4.126   3.853   7.809 -0.1152  0.7341  0.2394
 4802SOL    HW125865   4.186   3.819   7.743 -0.4385 -0.0578  0.3535
 4802SOL    HW225866   4.129   3.776   7.867  1.3027  0.9330  0.4380
 4803SOL     OW25867   0.214   1.200  11.984 -0.0730 -0.6236  0.1448
 4803SOL    HW125868   0.194   1.219  12.075  1.5268  0.1438  0.3350
 4803SOL    HW225869   0.302   1.237  11.977 -0.2463 -0.0595  0.9558
 4804SOL     OW25870   0.235   0.011   3.112  0.4375 -0.3764  0.4160
 4804SOL    HW125871   0.139   0.017   3.114  0.2420 -2.5460 -2.6873
 4804SOL    HW225872   0.250   0.056   3.029  2.4893 -1.6116  0.1290
 4805SOL     OW25873   4.558   0.467  17.662 -0.2529  0.4431  0.4547
 4805SOL    HW125874   4.506   0.416  17.599 -0.6463 -0.2401  1.3290
 4805SOL    HW225875   4.563   0.412   0.043  2.1756  0.4269  0.2748
 4806SOL     OW25876   3.435   0.088   3.582  0.2528 -0.0403  0.2611
 4806SOL    HW125877   3.456   0.173   3.621  0.9153  0.2102 -0.6349
 4806SOL    HW225878   3.522   0.049   3.570  0.9718  1.9773 -1.1723
 4807SOL     OW25879   1.932   1.322  10.383 -0.6987 -0.3144  1.0721
 4807SOL    HW125880   1.886   1.300  10.464 -1.0369 -3.7567 -0.0796
 4807SOL    HW225881   1.936   1.236  10.343 -1.1921  0.4770 -0.6918
 4808SOL     OW25882   4.615   3.489   0.858  0.0407 -0.0829  0.0346
 4808SOL    HW125883   4.625   3.425   0.787 -0.7647 -0.2410  0.0672
 4808SOL    HW225884   4.692   3.543   0.838  0.9571 -1.3916  0.0651
 4809SOL     OW25885   3.848   2.227   5.592  0.1470  0.4141 -0.4327
 4809SOL    HW125886   3.859   2.173   5.671  1.6889  0.2333 -0.7723
 4809SOL    HW225887   3.903   2.300   5.619 -0.3608  1.0501 -1.1393
 4810SOL     OW25888   3.892   4.709  13.775  0.2984  0.0151  0.0727
 4810SOL    HW125889   3.815   0.037  13.756  1.7103  2.9149  2.2985
 4810SOL    HW225890   3.949   0.053  13.811  1.5797 -0.4108 -1.1255
 4811SOL     OW25891   4.211   1.439   8.465  0.2817 -0.0245  0.0587
 4811SOL    HW125892   4.249   1.374   8.525 -4.0674 -1.8410  0.8618
 4811SOL    HW225893   4.143   1.482   8.517  0.6644 -0.0912  0.6161
 4812SOL     OW25894   3.241   1.869   7.688 -0.0666 -0.3505  0.4259
 4812SOL    HW125895   3.156   1.832   7.711  0.5321 -2.4448 -0.7057
 4812SOL    HW225896   3.301   1.818   7.741  1.4362 -0.2451 -1.1799
 4813SOL     OW25897   3.874   0.718   2.885 -0.1901  0.1253 -0.8720
 4813SOL    HW125898   3.812   0.738   2.954 -0.0856  0.6446 -0.9255
 4813SOL    HW225899   3.930   0.795   2.891  1.1834 -0.7970 -1.8603
 4814SOL     OW25900   1.491   3.784   0.586  0.1299 -0.0307 -0.1172
 4814SOL    HW125901   1.563   3.749   0.637  0.5587  0.5292 -0.3353
 4814SOL    HW225902   1.528   3.804   0.499  2.3952  0.0638  0.8760
 4815SOL     OW25903   2.481   1.466  15.353 -0.6779 -0.2136  0.0515
 4815SOL    HW125904   2.455   1.545  15.402  0.4528  0.2446 -0.0766
 4815SOL    HW225905   2.474   1.494  15.262 -2.3678  0.0651  0.2621
 4816SOL     OW25906   3.361   3.941   5.504  0.5260  0.1703 -0.1459
 4816SOL    HW125907   3.400   3.862   5.468  2.3810  0.5570  1.0296
 4816SOL    HW225908   3.364   3.914   5.596  2.7318 -0.0789 -0.3085
 4817SOL     OW25909   0.884   2.385   0.936 -0.8038  0.2289 -0.2055
 4817SOL    HW125910   0.839   2.312   0.978  0.2581  0.3540  1.1161
 4817SOL    HW225911   0.831   2.458   0.967  0.2614  0.9031  0.0097
 4818SOL     OW25912   3.094   4.666   2.153 -0.0570  0.4291 -0.2410
 4818SOL    HW125913   3.130   4.714   2.228 -1.7803  2.5039 -0.7620
 4818SOL    HW225914   3.039   0.007   2.110 -1.4084 -1.5471 -1.4683
 4819SOL     OW25915   0.978   3.173  14.814  0.2056 -0.4838  0.1001
 4819SOL    HW125916   0.914   3.243  14.814  1.2040  0.4396 -0.8562
 4819SOL    HW225917   0.950   3.124  14.737 -0.2705 -0.2449  0.1218
 4820SOL     OW25918   4.396   1.861   5.262 -0.5740 -0.1803  0.1361
 4820SOL    HW125919   4.316   1.901   5.229 -1.3556 -0.9896  1.0534
 4820SOL    HW225920   4.424   1.815   5.183  1.6829 -0.4260  1.0646
 4821SOL     OW25921   4.473   1.983   3.291  0.2918 -0.2017 -0.4827
 4821SOL    HW125922   4.399   2.014   3.239 -2.1618  0.0751  3.2101
 4821SOL    HW225923   4.539   2.045   3.259 -1.0793  0.2143 -2.4966
 4822SOL     OW25924   1.943   1.639   2.933 -0.0577 -0.2256 -0.2009
 4822SOL    HW125925   1.916   1.638   2.842 -1.6524  0.1572  0.2726
 4822SOL    HW225926   1.860   1.621   2.976  0.2053  0.8975  0.7792
 4823SOL     OW25927   3.639   3.006   2.577 -0.4310  0.1784  0.7836
 4823SOL    HW125928   3.619   3.093   2.613 -1.5870  0.5921 -0.8547
 4823SOL    HW225929   3.553   2.968   2.562 -0.2709  0.4276 -0.7790
 4824SOL     OW25930   1.130   3.780  10.352 -0.0423  0.4157 -0.7226
 4824SOL    HW125931   1.208   3.805  10.303  0.8633 -0.1156  0.4564
 4824SOL    HW225932   1.139   3.685  10.345  1.0915  0.3401  1.7881
 4825SOL     OW25933   1.936   4.368  10.950  0.0525 -0.1377  0.0653
 4825SOL    HW125934   1.898   4.436  10.894  2.5151  2.0649  1.0530
 4825SOL    HW225935   1.874   4.295  10.957  1.4516 -1.5001 -1.7830
 4826SOL     OW25936   0.824   2.180   7.741 -0.0773  0.0538  0.4337
 4826SOL    HW125937   0.851   2.214   7.825 -2.9807 -0.8720  1.7486
 4826SOL    HW225938   0.767   2.251   7.711  0.6911  1.0360  1.3109
 4827SOL     OW25939   3.246   4.605   3.620  0.0714 -0.2378  0.5699
 4827SOL    HW125940   3.297   4.685   3.629 -1.6054  0.8947 -0.0930
 4827SOL    HW225941   3.249   4.599   3.525 -1.9029  0.3558  0.4654
 4828SOL     OW25942   4.201   0.502   6.925 -0.0253 -0.4820  0.4518
 4828SOL    HW125943   4.150   0.502   6.844  0.4747 -0.8713  0.1402
 4828SOL    HW225944   4.139   0.543   6.985 -0.5119 -1.0089  0.3111
 4829SOL     OW25945   3.824   0.522   4.251 -0.3724  0.2149  0.2659
 4829SOL    HW125946   3.847   0.611   4.278  1.6855 -0.3910  0.5622
 4829SOL    HW225947   3.729   0.521   4.240 -0.4158  0.2018  0.6392
 4830SOL     OW25948   3.041   2.461  14.166  0.5031 -0.2007 -0.0774
 4830SOL    HW125949   2.985   2.445  14.241  1.9365  0.8387  1.2288
 4830SOL    HW225950   2.969   2.460  14.103  0.2797  3.4876  0.1000
 4831SOL     OW25951   1.340   0.699  14.200  0.3078 -0.1970 -0.1186
 4831SOL    HW125952   1.329   0.649  14.120  0.1495 -2.4609  1.3290
 4831SOL    HW225953   1.429   0.733  14.209  0.9312 -2.1107  1.0088
 4832SOL     OW25954   0.792   1.141   0.365 -0.2882  0.2618 -0.0322
 4832SOL    HW125955   0.818   1.199   0.293 -0.3330  2.0120  1.3490
 4832SOL    HW225956   0.855   1.160   0.434 -0.5521 -0.9817  0.5363
 4833SOL     OW25957   3.718   3.721  12.005  0.5183 -0.3935 -0.0802
 4833SOL    HW125958   3.755   3.793  12.055 -1.4837  1.1351 -0.7390
 4833SOL    HW225959   3.782   3.684  11.945  0.2833 -0.9597  0.0181
 4834SOL     OW25960   4.643   3.916   7.062  0.3262 -0.6965 -0.1543
 4834SOL    HW125961   0.011   3.914   7.037  0.1423  2.0379 -1.0602
 4834SOL    HW225962   4.648   3.949   7.152 -0.1454  1.5596 -0.9507
 4835SOL     OW25963   4.449   4.079  17.076 -0.5425 -0.0210  0.4740
 4835SOL    HW125964   4.430   4.171  17.093  0.6061 -0.4100  3.8566
 4835SOL    HW225965   4.527   4.066  17.129  0.7952 -2.4689 -2.0769
 4836SOL     OW25966   3.245   0.023   7.123  0.5140 -0.1727  0.1395
 4836SOL    HW125967   3.234   0.077   7.045 -0.2228  0.9765  1.0394
 4836SOL    HW225968   3.335   0.037   7.153  0.5941 -1.8862  0.6864
 4837SOL     OW25969   2.071   2.738   3.880  0.7527  0.2451  0.5002
 4837SOL    HW125970   2.059   2.768   3.790  0.6672  1.9686  1.1035
 4837SOL    HW225971   2.097   2.822   3.917 -0.9844  1.4161 -0.9991
 4838SOL     OW25972   3.503   3.943   1.386 -0.0344 -0.0607  0.6650
 4838SOL    HW125973   3.461   3.894   1.457  2.4010 -1.7683  0.9224
 4838SOL    HW225974   3.579   3.885   1.384 -0.5759 -0.7396 -0.3398
 4839SOL     OW25975   3.448   3.609   8.810 -0.2277 -0.1946  0.3404
 4839SOL    HW125976   3.463   3.605   8.904  2.2109 -0.3784 -0.0582
 4839SOL    HW225977   3.377   3.545   8.813  0.4807 -1.0027 -0.0657
 4840SOL     OW25978   0.462   3.017   9.110  0.2486  0.0851 -0.1997
 4840SOL    HW125979   0.374   2.980   9.121 -0.3945  1.9483  0.9362
 4840SOL    HW225980   0.510   2.938   9.138 -0.2111  0.0829  0.5803
 4841SOL     OW25981   2.643   0.439   5.913 -0.1596  0.7277  0.1327
 4841SOL    HW125982   2.589   0.377   5.962  0.5886  3.0989  3.9272
 4841SOL    HW225983   2.666   0.389   5.835 -3.2389 -1.3857  0.5730
 4842SOL     OW25984   2.489   4.000   7.520  0.1153 -0.2030  0.1002
 4842SOL    HW125985   2.458   3.916   7.555 -0.7888  0.5493  1.0978
 4842SOL    HW225986   2.482   3.978   7.427  0.4790  1.5278 -0.3293
 4843SOL     OW25987   2.617   4.658   4.292 -0.5719 -0.1277  0.2102
 4843SOL    HW125988   2.602   4.616   4.207 -0.2387  0.2048 -0.0114
 4843SOL    HW225989   2.702   4.701   4.284 -0.2428 -0.9564 -0.7836
 4844SOL     OW25990   0.972   2.022   4.966  0.1735 -0.5349 -0.0897
 4844SOL    HW125991   1.046   2.082   4.970 -1.3262  1.1235  2.5541
 4844SOL    HW225992   0.987   1.953   5.031 -1.2690 -0.6329  0.1387
 4845SOL     OW25993   1.350   0.833  13.140  0.0656 -0.0865  0.3696
 4845SOL    HW125994   1.428   0.813  13.192 -0.0738 -3.3319 -0.7367
 4845SOL    HW225995   1.300   0.752  13.141 -0.2468  0.1028  0.1503
 4846SOL     OW25996   0.226   4.483   0.314  0.7621 -0.4896  0.1368
 4846SOL    HW125997   0.178   4.550   0.361  0.1448 -1.7989  1.3719
 4846SOL    HW225998   0.190   4.410   0.364 -2.2281  0.1501 -1.0728
 4847SOL     OW25999   0.202   2.494  10.939 -0.1631 -0.5909 -0.5218
 4847SOL    HW126000   0.158   2.450  11.012 -1.6713 -0.6128 -1.4523
 4847SOL    HW226001   0.151   2.462  10.865  1.5937 -0.5043 -1.7664
 4848SOL     OW26002   4.132   3.045   6.607 -0.0231 -0.4015 -0.0600
 4848SOL    HW126003   4.119   2.988   6.683 -2.5315 -1.2455 -1.1247
 4848SOL    HW226004   4.157   3.125   6.653 -0.4572  0.7889 -1.9383
 4849SOL     OW26005   4.084   3.255   6.357  0.3746  0.2548 -0.2738
 4849SOL    HW126006   4.154   3.316   6.333  1.1456 -0.0547  1.2455
 4849SOL    HW226007   4.047   3.308   6.427  1.8555  1.4253 -0.3590
 4850SOL     OW26008   3.864   1.238   0.881 -0.2253 -0.4059 -0.0596
 4850SOL    HW126009   3.939   1.227   0.823  0.3455  1.7259  0.2678
 4850SOL    HW226010   3.826   1.308   0.828 -1.0289 -0.7452  0.0669
 4851SOL     OW26011   0.493   1.690   7.222 -0.0813  0.4190  0.1279
 4851SOL    HW126012   0.409   1.735   7.235  1.7243  3.5414  1.2501
 4851SOL    HW226013   0.529   1.675   7.310  0.2696 -2.0124 -0.4386
 4852SOL     OW26014   2.823   1.886   3.376  0.1143  0.5381 -0.3034
 4852SOL    HW126015   2.879   1.901   3.300  1.6863 -3.4823  0.0383
 4852SOL    HW226016   2.777   1.969   3.383  1.1452  0.9236  1.7146
 4853SOL     OW26017   4.428   1.510   3.934  0.0861 -0.2541  0.2609
 4853SOL    HW126018   4.467   1.487   3.849  1.5210 -0.2801  0.9257
 4853SOL    HW226019   4.495   1.571   3.965 -0.3511  0.1122  0.4862
 4854SOL     OW26020   0.586   0.330   5.967  0.6571  0.3871 -0.0932
 4854SOL    HW126021   0.501   0.319   5.925 -0.4840 -1.2581  2.6461
 4854SOL    HW226022   0.577   0.283   6.050  0.6771 -0.3263 -0.5042
 4855SOL     OW26023   1.335   1.118   6.360  0.4209 -0.4696 -0.0673
 4855SOL    HW126024   1.352   1.153   6.448 -0.5593  0.4158 -0.2238
 4855SOL    HW226025   1.271   1.187   6.342  0.7670 -0.8045 -2.5545
 4856SOL     OW26026   2.214   4.361   2.249  0.2794 -0.3369  0.2739
 4856SOL    HW126027   2.171   4.445   2.267 -1.3289 -0.9781 -0.5966
 4856SOL    HW226028   2.216   4.353   2.153  0.2870 -1.8891  0.4080
 4857SOL     OW26029   0.346   4.542   4.326 -0.2766 -0.2230 -0.2731
 4857SOL    HW126030   0.389   4.483   4.264 -2.0711 -0.6778 -1.0783
 4857SOL    HW226031   0.374   4.509   4.411  0.7942  2.9582  0.6050
 4858SOL     OW26032   1.954   0.231   2.949 -0.2431 -0.6520 -0.2236
 4858SOL    HW126033   1.972   0.321   2.923 -0.3896 -0.6547 -0.3367
 4858SOL    HW226034   1.881   0.200   2.895 -0.5852  1.0672 -0.7601
 4859SOL     OW26035   4.455   4.249   4.613 -0.0472 -0.4722  0.6889
 4859SOL    HW126036   4.362   4.239   4.634 -0.0801  1.7599  1.6391
 4859SOL    HW226037   4.476   4.297   4.693 -0.7115 -0.8287  1.0802
 4860SOL     OW26038   0.423   1.245  16.523  0.0442 -0.1358 -0.2506
 4860SOL    HW126039   0.372   1.204  16.593  0.8294  1.4975  1.2883
 4860SOL    HW226040   0.483   1.177  16.494  0.0116 -0.7597  1.1549
 4861SOL     OW26041   3.342   2.761   8.794  0.0599 -0.3331  0.4009
 4861SOL    HW126042   3.317   2.847   8.827 -2.9271 -0.6548 -1.0511
 4861SOL    HW226043   3.263   2.741   8.745 -0.4170 -0.6039  1.2739
 4862SOL     OW26044   0.231   1.417   8.815 -0.2663  0.3227 -0.1102
 4862SOL    HW126045   0.232   1.440   8.908  2.6214  2.2350 -0.6101
 4862SOL    HW226046   0.177   1.338   8.811 -0.5878  0.4317  2.1466
 4863SOL     OW26047   3.037   0.625   2.496  0.1399 -0.0466 -0.1914
 4863SOL    HW126048   3.088   0.691   2.448 -0.7063 -0.3469 -1.4824
 4863SOL    HW226049   3.107   0.592   2.552 -0.9156  2.0357  2.3233
 4864SOL     OW26050   0.724   3.321  14.864 -0.2008  0.3466  0.6820
 4864SOL    HW126051   0.679   3.385  14.920  0.5226  0.2844  1.3508
 4864SOL    HW226052   0.678   3.337  14.782 -1.0659 -1.5712  0.8066
 4865SOL     OW26053   0.153   3.519   5.592 -0.5291 -0.2824  0.4492
 4865SOL    HW126054   0.184   3.508   5.682 -2.1968 -3.1002  0.7143
 4865SOL    HW226055   0.103   3.600   5.591 -0.5320 -0.2754  0.9827
 4866SOL     OW26056   1.997   3.224   7.085 -0.4210  0.2865  0.5757
 4866SOL    HW126057   1.904   3.226   7.111 -0.0508  0.4610  1.8860
 4866SOL    HW226058   2.044   3.218   7.168  0.7577 -2.3860 -0.2989
 4867SOL     OW26059   1.540   4.064   9.963 -0.1880  0.0387 -0.0914
 4867SOL    HW126060   1.510   3.973   9.962 -0.9081  0.2784 -0.0002
 4867SOL    HW226061   1.488   4.107   9.895  2.6671  3.4542 -0.0805
 4868SOL     OW26062   1.298   1.387  12.777 -0.1714 -0.1474 -0.1108
 4868SOL    HW126063   1.331   1.379  12.867 -0.3987  0.4225  0.0204
 4868SOL    HW226064   1.278   1.295  12.760 -2.9182  0.7773 -1.7550
 4869SOL     OW26065   0.553   1.420   8.886 -0.4081  0.2437  0.0419
 4869SOL    HW126066   0.599   1.340   8.859 -4.0518 -1.0960 -2.0976
 4869SOL    HW226067   0.603   1.451   8.961  1.4234 -0.4646 -0.8710
 4870SOL     OW26068   2.892   2.898   4.770  0.0469  0.5891 -0.5377
 4870SOL    HW126069   2.826   2.911   4.702  0.8758  2.7684 -0.9327
 4870SOL    HW226070   2.860   2.812   4.797  3.3905  0.0524  1.6512
 4871SOL     OW26071   2.218   4.276   0.927  0.4691  0.1239 -0.3919
 4871SOL    HW126072   2.166   4.210   0.973  0.3504  0.8496  0.5264
 4871SOL    HW226073   2.145   4.335   0.909  0.7693  0.8329  0.6935
 4872SOL     OW26074   3.658   3.539   2.230  0.2960  0.1565  0.0272
 4872SOL    HW126075   3.612   3.478   2.173  0.2694 -0.6055  0.8703
 4872SOL    HW226076   3.707   3.582   2.160  0.0047  0.5313  0.0565
 4873SOL     OW26077   1.900   1.088   1.718  0.7134  0.1515  0.3995
 4873SOL    HW126078   1.816   1.086   1.672 -0.4137  1.4396  2.4285
 4873SOL    HW226079   1.917   0.994   1.718 -1.6707 -0.2829 -1.0122
 4874SOL     OW26080   4.686   3.364   4.138 -0.6226  0.3607 -0.7536
 4874SOL    HW126081   0.018   3.305   4.189 -2.4911  0.3930  1.3648
 4874SOL    HW226082   0.013   3.378   4.059 -0.4006 -0.9876 -0.8477
 4875SOL     OW26083   1.494   3.891  11.453  0.3422 -0.4429  0.2163
 4875SOL    HW126084   1.484   3.971  11.503  0.0247  0.4389 -1.2448
 4875SOL    HW226085   1.586   3.870  11.468  0.5164  0.2511  0.1271
 4876SOL     OW26086   1.583   1.564   4.461 -0.3690  0.6458 -0.3062
 4876SOL    HW126087   1.641   1.626   4.505 -1.2427 -0.4399  2.4108
 4876SOL    HW226088   1.529   1.613   4.399 -1.5072  0.4632  0.5332
 4877SOL     OW26089   0.825   1.316   4.435  0.3461  0.7143  0.1272
 4877SOL    HW126090   0.761   1.374   4.393  1.1909  1.8700  0.4171
 4877SOL    HW226091   0.803   1.325   4.527  0.8398 -1.3248  0.4354
 4878SOL     OW26092   2.614   4.432  10.658  0.2055 -0.0199 -0.8988
 4878SOL    HW126093   2.654   4.433  10.571  2.0750  2.3749 -0.0280
 4878SOL    HW226094   2.537   4.377  10.644 -1.2752  1.2745  2.2482
 4879SOL     OW26095   2.961   3.550   8.298  0.4687 -0.4912 -0.1333
 4879SOL    HW126096   2.955   3.465   8.255  2.5918 -1.4903  1.5639
 4879SOL    HW226097   2.867   3.568   8.310  0.8523  0.5547  1.4191
 4880SOL     OW26098   3.902   4.025   8.075 -0.1986 -0.4598  0.0476
 4880SOL    HW126099   3.880   4.103   8.023 -0.0492 -0.2047  0.3696
 4880SOL    HW226100   3.817   3.999   8.110 -0.6812  2.1755  0.8719
 4881SOL     OW26101   3.548   1.187   4.641  0.1050 -0.2989  0.0074
 4881SOL    HW126102   3.571   1.102   4.604  1.3144 -0.1050  0.3076
 4881SOL    HW226103   3.601   1.244   4.586  0.5556 -1.0043 -0.2914
 4882SOL     OW26104   2.361   1.376  16.887 -0.4276 -0.6671  0.7610
 4882SOL    HW126105   2.437   1.321  16.907  0.6239 -0.2484 -2.1306
 4882SOL    HW226106   2.398   1.462  16.903 -0.9471  0.2762 -3.0900
 4883SOL     OW26107   1.931   3.515   1.407 -0.4447  0.0270 -0.4407
 4883SOL    HW126108   1.981   3.439   1.435  1.5034  1.2748 -0.4983
 4883SOL    HW226109   1.854   3.478   1.365  0.2937 -1.1485 -0.7444
 4884SOL     OW26110   4.463   0.368   1.619 -0.4140  0.1250  0.1391
 4884SOL    HW126111   4.454   0.364   1.524 -1.4145  0.0289  0.2278
 4884SOL    HW226112   4.526   0.296   1.628  1.0911  0.9955 -3.6450
 4885SOL     OW26113   4.037   1.875   1.030 -0.2194  0.1487 -0.1376
 4885SOL    HW126114   4.093   1.859   0.954  0.3688 -1.8439  0.7043
 4885SOL    HW226115   4.004   1.964   1.020  0.9759  0.3975 -1.8644
 4886SOL     OW26116   0.473   2.290   4.488 -0.3391 -0.1215 -0.3832
 4886SOL    HW126117   0.560   2.307   4.524 -0.7674  0.9405  0.1536
 4886SOL    HW226118   0.431   2.376   4.496 -2.0603 -1.0896  1.1612
 4887SOL     OW26119   1.796   1.592  16.468  0.0279 -1.0109  0.3129
 4887SOL    HW126120   1.711   1.625  16.437 -0.7846 -2.3543  1.1141
 4887SOL    HW226121   1.831   1.662  16.523  0.5106 -1.9626  1.2113
 4888SOL     OW26122   3.114   1.634   9.344 -0.3367 -0.2530  0.6082
 4888SOL    HW126123   3.116   1.609   9.436  1.5463 -2.8505 -0.1720
 4888SOL    HW226124   3.202   1.670   9.334  0.1160 -0.5294  3.8270
 4889SOL     OW26125   2.247   2.879   6.766  0.2133 -0.2149  0.4477
 4889SOL    HW126126   2.161   2.884   6.725 -0.4585 -0.2721  1.8874
 4889SOL    HW226127   2.225   2.864   6.858 -1.8967 -3.5617 -0.6102
 4890SOL     OW26128   4.455   1.042   7.255  0.5975 -0.5763 -0.6295
 4890SOL    HW126129   4.466   1.100   7.179  0.8759 -1.4348 -1.2409
 4890SOL    HW226130   4.372   1.079   7.285  2.0295  1.4456  0.8334
 4891SOL     OW26131   2.251   2.707   6.412  0.1442  0.0273 -0.2852
 4891SOL    HW126132   2.309   2.768   6.367 -1.1839  0.6498 -1.1639
 4891SOL    HW226133   2.226   2.753   6.492 -0.1128 -2.0060  0.8057
 4892SOL     OW26134   4.706   1.222  15.541  0.2982  0.2400 -0.0429
 4892SOL    HW126135   4.695   1.316  15.549 -0.2108  0.2140 -0.3810
 4892SOL    HW226136   4.621   1.183  15.562  0.5840 -0.9243 -1.0011
 4893SOL     OW26137   3.557   3.564  12.149  0.0552 -0.4239 -0.5480
 4893SOL    HW126138   3.501   3.632  12.186 -0.9356 -1.1931 -0.6403
 4893SOL    HW226139   3.637   3.607  12.118 -1.1957  1.8040 -0.6620
 4894SOL     OW26140   1.878   1.472  17.272 -0.2254 -0.4391 -1.0624
 4894SOL    HW126141   1.905   1.548  17.323  1.3182 -1.7041 -0.0023
 4894SOL    HW226142   1.940   1.453  17.203  1.9950 -1.4845  1.2147
 4895SOL     OW26143   3.211   2.373  15.082  0.4294 -0.2838 -0.1530
 4895SOL    HW126144   3.197   2.463  15.052  1.5058 -0.3169 -0.7437
 4895SOL    HW226145   3.305   2.377  15.097  0.3305 -2.7085  1.0850
 4896SOL     OW26146   3.785   3.513   8.190 -0.3548  0.2253 -0.8977
 4896SOL    HW126147   3.779   3.424   8.155  1.0805 -0.9219  1.7883
 4896SOL    HW226148   3.695   3.544   8.178 -1.2674 -2.2861 -0.5566
 4897SOL     OW26149   2.130   3.652   3.525  0.9115  0.4347 -0.1424
 4897SOL    HW126150   2.063   3.619   3.465  1.8896 -1.2054 -0.3080
 4897SOL    HW226151   2.184   3.576   3.544 -1.0932 -0.5650  1.4845
 4898SOL     OW26152   1.180   3.250   0.803  0.2837  0.1581 -0.9823
 4898SOL    HW126153   1.123   3.298   0.743  0.9329 -1.3104 -2.7849
 4898SOL    HW226154   1.148   3.280   0.888 -0.6929 -3.4554 -0.0726
 4899SOL     OW26155   2.408   4.224  13.810 -0.6621 -0.5516  0.6809
 4899SOL    HW126156   2.497   4.205  13.780 -0.8970  1.2484 -1.2085
 4899SOL    HW226157   2.373   4.268  13.732  1.4353 -0.4331 -0.2083
 4900SOL     OW26158   0.247   4.580   1.719  0.3953 -0.0920  0.3276
 4900SOL    HW126159   0.338   4.561   1.741  0.1392 -1.3717  0.2981
 4900SOL    HW226160   0.206   4.497   1.694 -0.4855  0.2189  0.7487
 4901SOL     OW26161   3.147   3.364   6.979  0.2946 -0.3448 -0.2029
 4901SOL    HW126162   3.212   3.327   7.039 -1.1023  0.3808  1.7743
 4901SOL    HW226163   3.199   3.366   6.900 -1.5913  1.0893 -1.4086
 4902SOL     OW26164   0.177   3.008   8.104  0.0830 -0.4187 -0.3742
 4902SOL    HW126165   0.150   3.079   8.163 -0.6592 -0.3037 -0.8456
 4902SOL    HW226166   0.103   2.950   8.123 -0.8060  0.5345 -0.9451
 4903SOL     OW26167   2.711   4.289   2.285 -0.2711 -0.2086  0.0355
 4903SOL    HW126168   2.638   4.347   2.307  0.2901 -0.2815  2.0610
 4903SOL    HW226169   2.783   4.351   2.278  0.7111 -1.0252  3.0282
 4904SOL     OW26170   1.226   0.411   4.879  0.2603  0.0310 -0.1744
 4904SOL    HW126171   1.154   0.355   4.910 -0.1383 -0.0265 -1.2116
 4904SOL    HW226172   1.267   0.436   4.962 -2.0214  0.0459  0.9586
 4905SOL     OW26173   0.671   3.672   5.159 -0.3900  0.2410 -0.0608
 4905SOL    HW126174   0.653   3.581   5.182  1.8817 -0.4886 -1.1875
 4905SOL    HW226175   0.655   3.725   5.237 -0.6617 -0.2556  0.2214
 4906SOL     OW26176   0.246   3.888   1.516 -0.0383 -0.0652 -0.4787
 4906SOL    HW126177   0.253   3.912   1.424  0.0201  0.1348 -0.4235
 4906SOL    HW226178   0.161   3.928   1.534 -1.6071 -2.8965 -1.6596
 4907SOL     OW26179   1.537   1.989   4.127  0.7632 -0.7953 -0.3637
 4907SOL    HW126180   1.570   2.057   4.068  0.9761  0.4487  1.1855
 4907SOL    HW226181   1.615   1.980   4.182  1.5696 -1.7714 -1.6627
 4908SOL     OW26182   2.394   4.478   6.688 -0.4264 -0.6694  0.3804
 4908SOL    HW126183   2.362   4.568   6.682  0.5422 -0.3941 -0.7450
 4908SOL    HW226184   2.356   4.438   6.610  0.0168 -1.1484  0.4100
 4909SOL     OW26185   1.961   3.739   2.243  0.2306  0.5582  0.3984
 4909SOL    HW126186   2.017   3.787   2.182  1.2267  1.0855  1.7282
 4909SOL    HW226187   1.877   3.779   2.223 -0.5426 -2.0649 -1.5841
 4910SOL     OW26188   2.958   4.038   5.531 -0.2413 -0.3265  0.3432
 4910SOL    HW126189   2.937   4.043   5.625 -2.1932  0.6640 -0.1513
 4910SOL    HW226190   2.958   4.132   5.513  0.6135 -0.4057 -0.0684
 4911SOL     OW26191   2.155   3.072  10.022  0.3744  0.4942  0.0526
 4911SOL    HW126192   2.215   3.024  10.078 -3.0402 -0.9536  2.4850
 4911SOL    HW226193   2.070   3.070  10.066  0.9110 -0.0297  1.0772
 4912SOL     OW26194   4.235   3.443  11.852  0.3473  0.2043 -0.1616
 4912SOL    HW126195   4.321   3.435  11.811  1.5548  1.2150  2.1582
 4912SOL    HW226196   4.225   3.538  11.850  0.2074  0.2355  2.1818
 4913SOL     OW26197   1.672   4.386  17.157  0.0776 -0.2850 -0.2912
 4913SOL    HW126198   1.695   4.473  17.123  1.5095 -0.9025 -0.9257
 4913SOL    HW226199   1.593   4.374  17.104 -0.3066 -2.9447  0.9051
 4914SOL     OW26200   2.327   2.905  10.204  0.2050 -0.0389 -0.3611
 4914SOL    HW126201   2.244   2.873  10.239 -0.8176  0.1020 -2.5980
 4914SOL    HW226202   2.382   2.853  10.262  0.6823  1.7803  0.8158
 4915SOL     OW26203   4.090   2.524  17.558 -0.0109 -0.5552  0.0856
 4915SOL    HW126204   4.108   2.614  17.531 -0.6511 -0.6827 -0.7381
 4915SOL    HW226205   4.121   2.506  17.647 -1.5701 -2.7637  0.1778
 4916SOL     OW26206   1.702   2.111   5.378  0.3311  0.1878  0.1083
 4916SOL    HW126207   1.612   2.115   5.411 -0.2278 -0.9928 -1.3103
 4916SOL    HW226208   1.691   2.033   5.324 -1.2170  0.4395  0.0561
 4917SOL     OW26209   1.833   2.631   3.980 -0.9382 -0.6953  0.4958
 4917SOL    HW126210   1.842   2.636   4.075  0.7539 -1.4812  0.3777
 4917SOL    HW226211   1.897   2.563   3.958  1.4549  1.4981  0.6420
 4918SOL     OW26212   4.234   1.592   2.202 -0.2354 -0.0516  0.4708
 4918SOL    HW126213   4.202   1.622   2.117  0.3941  3.4256  1.4757
 4918SOL    HW226214   4.156   1.598   2.257 -0.6653 -2.3916  0.1258
 4919SOL     OW26215   3.136   1.376   6.057  0.3749 -0.1891  0.0666
 4919SOL    HW126216   3.213   1.341   6.103  1.2139 -0.3145 -1.4420
 4919SOL    HW226217   3.172   1.392   5.970  1.4016  0.7478  0.6623
 4920SOL     OW26218   3.196   3.454   8.781 -0.3048 -0.2312 -0.4999
 4920SOL    HW126219   3.121   3.468   8.839  0.2451 -0.1331  0.1898
 4920SOL    HW226220   3.162   3.500   8.704 -0.3926 -1.4198 -1.1622
 4921SOL     OW26221   2.821   1.803   8.496 -0.1343 -0.0777 -0.0427
 4921SOL    HW126222   2.867   1.786   8.578  1.7170  1.6194 -0.7183
 4921SOL    HW226223   2.868   1.871   8.447 -0.4142  0.7058  0.7719
 4922SOL     OW26224   1.042   0.904   3.431  0.2599  0.1901  0.4142
 4922SOL    HW126225   1.126   0.862   3.450 -0.3815 -0.3083  2.1364
 4922SOL    HW226226   1.059   0.997   3.444  0.4317  0.1883  0.2000
 4923SOL     OW26227   2.887   2.328   7.345  0.6314 -0.5392 -0.7871
 4923SOL    HW126228   2.794   2.317   7.329  0.1396  0.7622  1.0949
 4923SOL    HW226229   2.930   2.323   7.260  0.0825  0.7727 -1.1399
 4924SOL     OW26230   0.875   3.633   8.532  0.3868 -0.1427  0.0495
 4924SOL    HW126231   0.792   3.598   8.498  0.6905 -1.7185  0.9792
 4924SOL    HW226232   0.920   3.564   8.580 -1.5596 -0.8049  0.9330
 4925SOL     OW26233   4.436   1.498  13.062  0.0291 -0.1891  0.3216
 4925SOL    HW126234   4.367   1.542  13.113  0.6827 -0.0309  1.0716
 4925SOL    HW226235   4.397   1.474  12.978  0.3659  0.4817 -0.0193
 4926SOL     OW26236   4.181   4.722   1.161 -0.4133  0.1661 -0.2936
 4926SOL    HW126237   4.261   0.022   1.116 -0.3321  1.6879  0.6675
 4926SOL    HW226238   4.135   0.081   1.173  2.5038  1.4631  1.7066
 4927SOL     OW26239   3.393   1.243   8.434  0.7976  0.4402  0.0848
 4927SOL    HW126240   3.396   1.333   8.466 -2.0345  0.6288 -0.1877
 4927SOL    HW226241   3.309   1.233   8.388  1.1483 -0.7535 -0.2918
 4928SOL     OW26242   1.170   0.814   3.745 -0.4815  0.2951 -0.1155
 4928SOL    HW126243   1.232   0.886   3.735  0.2043 -0.2404  0.3184
 4928SOL    HW226244   1.223   0.754   3.797 -0.0190  0.8661  0.0715
 4929SOL     OW26245   1.858   0.031   7.479 -0.0633 -0.5038  0.0203
 4929SOL    HW126246   1.894   0.056   7.394 -1.5814  1.1157 -0.1509
 4929SOL    HW226247   1.932   0.026   7.540  0.4057  2.4256 -0.3253
 4930SOL     OW26248   2.986   0.173  15.015 -0.2266 -0.6139  0.0690
 4930SOL    HW126249   3.018   0.094  15.059 -0.8457  0.2023  1.9702
 4930SOL    HW226250   2.897   0.149  14.989 -1.7152  2.4418  2.3586
 4931SOL     OW26251   0.084   1.700  14.099 -0.0558 -0.4186  0.1124
 4931SOL    HW126252   0.023   1.773  14.110 -1.8324 -1.9912  0.9378
 4931SOL    HW226253   0.041   1.645  14.033  0.1055 -1.7104  1.0706
 4932SOL     OW26254   4.072   4.279   8.575  0.3089 -0.4411  0.5148
 4932SOL    HW126255   4.002   4.330   8.616  0.9754  0.0955  0.9780
 4932SOL    HW226256   4.146   4.324   8.615 -2.7108  2.8931  2.4014
 4933SOL     OW26257   4.258   3.884   3.370 -0.0717  0.2224 -0.0116
 4933SOL    HW126258   4.264   3.926   3.455  2.0362  0.1879 -0.1241
 4933SOL    HW226259   4.336   3.828   3.372 -0.4197 -0.1944  2.0065
 4934SOL     OW26260   1.747   2.749   9.111 -0.1861  0.4368 -0.0113
 4934SOL    HW126261   1.755   2.688   9.185 -2.1658  0.3115  0.1005
 4934SOL    HW226262   1.705   2.824   9.153 -1.1126 -0.3261  0.4482
 4935SOL     OW26263   3.011   1.728  16.925 -0.3217  0.1342 -0.1188
 4935SOL    HW126264   2.995   1.800  16.986  1.1404  1.1648 -0.9538
 4935SOL    HW226265   3.036   1.776  16.846  0.0068  0.4226  0.1632
 4936SOL     OW26266   4.708   2.919  13.486 -0.9158  0.3230 -0.0282
 4936SOL    HW126267   4.710   2.975  13.564 -0.5993  1.1816 -0.6593
 4936SOL    HW226268   0.072   2.883  13.484 -1.3543 -0.6214 -1.9035
 4937SOL     OW26269   2.973   0.439   4.079  0.0988 -0.5451  0.1820
 4937SOL    HW126270   3.040   0.389   4.127  0.6537  1.8033  1.8278
 4937SOL    HW226271   3.031   0.479   4.015 -1.2594  0.9064 -0.1338
 4938SOL     OW26272   0.534   2.947  12.776 -0.1171  0.1116 -0.0581
 4938SOL    HW126273   0.489   3.004  12.839  0.2985  0.8247 -0.4108
 4938SOL    HW226274   0.619   2.990  12.764  0.0550 -0.5121 -1.0636
 4939SOL     OW26275   3.178   1.127   3.156  0.0097 -0.1205  0.3959
 4939SOL    HW126276   3.236   1.146   3.082  0.1543  1.6860  0.9802
 4939SOL    HW226277   3.104   1.184   3.137 -0.0333 -0.5739 -0.8337
 4940SOL     OW26278   1.754   4.077   5.117 -0.0554 -0.5617  0.5855
 4940SOL    HW126279   1.752   3.989   5.079  1.2611  0.1731 -1.1718
 4940SOL    HW226280   1.846   4.080   5.141  0.0705  1.4483 -0.1276
 4941SOL     OW26281   2.026   2.745   0.883 -0.0564  0.3447  0.4756
 4941SOL    HW126282   1.973   2.782   0.954  0.4238 -0.2269  1.1247
 4941SOL    HW226283   2.005   2.653   0.896 -1.0343  0.5361  0.2944
 4942SOL     OW26284   0.310   4.476   4.998 -0.0850  0.1676 -0.0555
 4942SOL    HW126285   0.312   4.417   5.074  2.2532  1.8795  1.1986
 4942SOL    HW226286   0.262   4.542   5.049 -1.3887 -1.3868  0.7431
 4943SOL     OW26287   4.143   0.042   9.143  0.2907 -0.7134 -0.2147
 4943SOL    HW126288   4.054   0.076   9.153  0.5805  0.1497 -0.5135
 4943SOL    HW226289   4.135   4.681   9.187 -1.9273  0.7359  2.1662
 4944SOL     OW26290   0.113   2.362   4.736 -0.4622 -0.5051 -0.4804
 4944SOL    HW126291   0.189   2.420   4.730 -1.0633  0.3249 -0.0373
 4944SOL    HW226292   0.124   2.325   4.824  1.2794  1.9467  0.3459
 4945SOL     OW26293   1.708   0.951   0.834  0.0955  0.2095 -0.6067
 4945SOL    HW126294   1.683   0.906   0.914 -0.0610 -1.7028 -1.7286
 4945SOL    HW226295   1.800   0.924   0.839  0.1763  0.6298  0.1425
 4946SOL     OW26296   2.462   1.919   6.855 -1.3961 -0.4082  0.1735
 4946SOL    HW126297   2.530   1.965   6.904  0.5097 -1.3925 -1.4962
 4946SOL    HW226298   2.508   1.891   6.775 -3.5644  1.0650 -1.5867
 4947SOL     OW26299   3.935   0.628  12.735  0.7209 -0.2476  0.9333
 4947SOL    HW126300   3.872   0.561  12.707  0.6252 -0.1932  1.0188
 4947SOL    HW226301   3.924   0.634  12.830 -1.0000  0.6434  0.6857
 4948SOL     OW26302   1.170   1.602  16.020  0.2887  0.1174 -0.1857
 4948SOL    HW126303   1.135   1.551  16.093 -0.1364  0.9611  0.1965
 4948SOL    HW226304   1.112   1.678  16.023  2.1694  1.5276  0.0673
 4949SOL     OW26305   1.772   2.224   9.557 -0.5411  0.4831  0.3219
 4949SOL    HW126306   1.711   2.207   9.485 -0.2754 -0.1468  0.2487
 4949SOL    HW226307   1.829   2.292   9.523 -2.1796  1.3922 -0.6240
 4950SOL     OW26308   0.868   3.834   1.860  0.3361 -0.0946 -0.6637
 4950SOL    HW126309   0.876   3.923   1.827 -0.6281  0.2606  0.0469
 4950SOL    HW226310   0.816   3.846   1.940 -0.5516 -1.5358 -1.0209
 4951SOL     OW26311   3.533   2.769  13.092  0.6305  0.1507 -0.3529
 4951SOL    HW126312   3.518   2.863  13.081 -0.0830  0.2686  1.6610
 4951SOL    HW226313   3.564   2.741  13.006 -0.5796 -0.2789 -0.6515
 4952SOL     OW26314   4.281   3.615   8.018 -0.0330 -1.0517  0.3330
 4952SOL    HW126315   4.233   3.690   8.053 -1.4792 -1.3855 -0.9378
 4952SOL    HW226316   4.219   3.595   7.948  0.2613 -0.5185 -0.0781
 4953SOL     OW26317   0.831   2.934   3.045 -0.1457 -0.7490 -0.0254
 4953SOL    HW126318   0.783   2.859   3.011  0.3958 -1.0000 -0.2374
 4953SOL    HW226319   0.808   2.930   3.138 -0.9080 -2.9064 -0.3165
 4954SOL     OW26320   3.545   0.594   5.202 -0.4789 -0.2668 -0.2492
 4954SOL    HW126321   3.611   0.662   5.192 -0.4324 -1.0543 -5.2524
 4954SOL    HW226322   3.602   0.522   5.228 -1.3620 -1.1151 -0.6573
 4955SOL     OW26323   1.279   1.931   1.636  0.6390  0.1190 -0.0410
 4955SOL    HW126324   1.246   1.863   1.576  0.2860  0.4368 -0.2094
 4955SOL    HW226325   1.265   1.887   1.720  0.7729  1.5440  0.7275
 4956SOL     OW26326   0.664   2.101   1.470  0.5656  0.2877 -0.1166
 4956SOL    HW126327   0.730   2.138   1.412  0.6753  0.3038  0.0182
 4956SOL    HW226328   0.606   2.057   1.408  0.4269 -1.0090  0.9240
 4957SOL     OW26329   2.224   0.495   6.481  0.0835  0.2183 -0.0329
 4957SOL    HW126330   2.135   0.529   6.493  0.1028  0.5399 -0.8646
 4957SOL    HW226331   2.250   0.541   6.401  1.9954 -1.2033 -0.2283
 4958SOL     OW26332   1.436   4.491   6.978 -0.5696 -0.4014  0.2077
 4958SOL    HW126333   1.405   4.524   7.063 -1.2670 -1.6533  0.4361
 4958SOL    HW226334   1.527   4.520   6.974 -1.1592  1.5252  0.5824
 4959SOL     OW26335   2.033   3.425   6.567  0.2702  0.1717 -0.6182
 4959SOL    HW126336   2.085   3.371   6.509  0.0872  1.5896 -2.0850
 4959SOL    HW226337   2.013   3.366   6.640  0.8949 -1.1264 -1.5084
 4960SOL     OW26338   3.176   0.679   5.137 -0.1112 -0.0863 -0.4472
 4960SOL    HW126339   3.088   0.669   5.174 -0.7226 -0.6628 -2.0418
 4960SOL    HW226340   3.221   0.618   5.195 -1.0185 -0.0837  0.2601
 4961SOL     OW26341   1.314   0.903   7.480 -0.0893 -0.5925 -0.0208
 4961SOL    HW126342   1.305   0.853   7.561  0.5812 -2.1301 -0.9041
 4961SOL    HW226343   1.242   0.964   7.496 -0.8909 -1.6090  0.2370
 4962SOL     OW26344   3.649   4.381   0.653  0.1680  0.4950  0.3799
 4962SOL    HW126345   3.662   4.364   0.560 -2.4550 -3.2866  0.7251
 4962SOL    HW226346   3.700   4.461   0.668 -0.0264  1.0862 -2.2195
 4963SOL     OW26347   2.357   1.921  11.232 -0.0127 -0.0491  0.2629
 4963SOL    HW126348   2.263   1.915  11.249 -0.2173  0.1266 -0.8609
 4963SOL    HW226349   2.391   1.896  11.318 -0.5441  0.9791  0.7728
 4964SOL     OW26350   1.879   0.509   4.589  0.2937 -0.1213 -0.9363
 4964SOL    HW126351   1.961   0.519   4.638  1.4756 -1.5859 -2.5907
 4964SOL    HW226352   1.915   0.478   4.506  1.0591  0.2282 -0.7407
 4965SOL     OW26353   0.194   3.441   0.863 -0.4946 -0.1794  0.4170
 4965SOL    HW126354   0.285   3.434   0.892 -0.9911 -1.5847  1.6451
 4965SOL    HW226355   0.178   3.534   0.878  0.4948  0.1395 -0.5386
 4966SOL     OW26356   1.578   1.724   3.807  0.0169 -0.6594  0.7476
 4966SOL    HW126357   1.670   1.704   3.793  0.3023 -0.5271  2.5004
 4966SOL    HW226358   1.549   1.671   3.732  0.9573  0.2522 -0.2702
 4967SOL     OW26359   1.323   1.101  12.731  0.1626 -0.9351  0.6186
 4967SOL    HW126360   1.414   1.125  12.715 -0.3806 -0.6490 -1.9915
 4967SOL    HW226361   1.314   1.036  12.661  0.9775 -0.5420  0.1626
 4968SOL     OW26362   2.407   1.665  16.876  0.4218 -0.1321 -0.4774
 4968SOL    HW126363   2.351   1.736  16.844 -1.2427 -0.6618  1.3053
 4968SOL    HW226364   2.487   1.719  16.879  0.4240 -0.2079  0.9317
 4969SOL     OW26365   0.693   2.968  13.033 -0.1671  0.2121  0.0613
 4969SOL    HW126366   0.655   3.050  13.002 -1.1564  0.3769  1.7123
 4969SOL    HW226367   0.683   2.977  13.128 -0.8129  0.0714  0.0064
 4970SOL     OW26368   0.653   3.374   5.180  0.8634 -0.2541  0.2075
 4970SOL    HW126369   0.732   3.373   5.127 -0.5372  0.3228 -1.9252
 4970SOL    HW226370   0.588   3.369   5.110  1.4101 -0.3135 -0.2948
 4971SOL     OW26371   4.530   3.303   5.324 -0.8581  0.0755 -0.7806
 4971SOL    HW126372   4.448   3.276   5.281 -2.0176  2.0375  0.1803
 4971SOL    HW226373   4.592   3.256   5.268 -0.5262 -1.3096  0.7770
 4972SOL     OW26374   4.143   1.525   4.400  0.5226 -0.1832  0.5118
 4972SOL    HW126375   4.200   1.463   4.443  1.0800  0.0558  0.1197
 4972SOL    HW226376   4.190   1.558   4.324  1.9564 -1.4117  0.8802
 4973SOL     OW26377   2.022   0.156   0.378  0.0072 -0.5369  0.0634
 4973SOL    HW126378   2.098   0.111   0.341 -0.5763 -0.6984 -0.9301
 4973SOL    HW226379   1.968   0.079   0.398 -2.3018  1.3307  0.9819
 4974SOL     OW26380   1.875   3.015   1.999 -0.1659  0.3720  0.1017
 4974SOL    HW126381   1.828   3.068   2.063 -0.7974 -0.2723  0.1704
 4974SOL    HW226382   1.948   2.970   2.042 -0.2928 -1.6182 -1.7937
 4975SOL     OW26383   3.166   1.843  10.365 -0.0838 -0.1351  0.5055
 4975SOL    HW126384   3.186   1.866  10.455 -2.2043  2.0486  0.4313
 4975SOL    HW226385   3.078   1.881  10.371  0.6270  1.5129  0.5010
 4976SOL     OW26386   0.729   2.090   4.018 -0.5197 -0.0000  0.3664
 4976SOL    HW126387   0.729   2.103   4.113 -0.5208  0.5750  0.2926
 4976SOL    HW226388   0.701   2.000   4.005  0.7385 -0.1720 -1.1486
 4977SOL     OW26389   0.592   1.343   0.834  0.3016 -0.1296 -0.3765
 4977SOL    HW126390   0.646   1.378   0.763  0.8080 -1.5328 -0.6896
 4977SOL    HW226391   0.534   1.419   0.830 -0.1238 -0.4917 -1.1600
 4978SOL     OW26392   2.700   3.530   8.041 -0.3323  0.5191  0.9489
 4978SOL    HW126393   2.692   3.598   7.974  0.4396 -1.1796 -0.8560
 4978SOL    HW226394   2.652   3.452   8.014  3.0256 -1.3772  0.4277
 4979SOL     OW26395   4.134   0.540   5.657  0.3193 -0.2483 -0.6317
 4979SOL    HW126396   4.187   0.512   5.582  2.8853 -0.4600  1.2548
 4979SOL    HW226397   4.051   0.492   5.650 -0.6589  1.2078  1.0686
 4980SOL     OW26398   4.385   3.003   3.731  0.0588 -0.5535  0.5834
 4980SOL    HW126399   4.300   3.044   3.715  0.0518 -1.4368 -1.5608
 4980SOL    HW226400   4.373   2.924   3.678 -0.5064 -0.8516  1.1432
 4981SOL     OW26401   4.550   2.666   2.705  0.6173 -0.3138 -0.2536
 4981SOL    HW126402   4.641   2.638   2.694  1.1608  1.5583 -0.5307
 4981SOL    HW226403   4.520   2.711   2.626 -0.1735 -2.0383 -0.9450
 4982SOL     OW26404   0.855   2.134  12.673 -0.5348  0.1877  0.3371
 4982SOL    HW126405   0.945   2.159  12.695 -0.9235  1.8397  0.0662
 4982SOL    HW226406   0.830   2.214  12.627  1.0539  0.1646 -0.5756
 4983SOL     OW26407   0.781   3.127   7.820 -0.0759 -0.6155 -0.0989
 4983SOL    HW126408   0.761   3.034   7.816  3.7260 -1.4251 -0.2228
 4983SOL    HW226409   0.695   3.161   7.843 -1.2090 -1.3286 -3.2641
 4984SOL     OW26410   0.446   2.754  13.435 -0.4010  0.1576 -0.2075
 4984SOL    HW126411   0.490   2.714  13.510  0.2848  0.9746 -0.1748
 4984SOL    HW226412   0.466   2.693  13.363  0.0330 -0.8621  0.7836
 4985SOL     OW26413   2.327   0.428   6.715 -0.1881  0.0081 -0.3035
 4985SOL    HW126414   2.303   0.450   6.625  0.3008  1.3863 -0.0918
 4985SOL    HW226415   2.310   0.335   6.703  0.4967 -0.0705 -0.7081
 4986SOL     OW26416   3.733   1.980  10.539 -0.3413 -0.4422  0.6606
 4986SOL    HW126417   3.700   2.063  10.504  1.6426 -1.1830 -3.0030
 4986SOL    HW226418   3.823   2.006  10.556 -1.4792  0.9370  4.4356
 4987SOL     OW26419   0.079   4.370   4.008 -0.0918  0.5925  0.5089
 4987SOL    HW126420   0.075   4.458   4.044  0.8141  0.6946  0.3722
 4987SOL    HW226421   0.002   4.332   4.051 -0.1348 -1.9583 -1.8472
 4988SOL     OW26422   3.747   1.876   2.724  0.3030  0.2679  0.1616
 4988SOL    HW126423   3.760   1.859   2.630  0.0894  1.4002 -0.0795
 4988SOL    HW226424   3.669   1.822   2.738 -2.4609  3.6641 -2.0043
 4989SOL     OW26425   2.634   2.312   7.921  0.4414 -0.4964  0.3811
 4989SOL    HW126426   2.649   2.221   7.946  0.7970 -0.2213  1.1799
 4989SOL    HW226427   2.664   2.308   7.831  1.6024  3.3977  0.5992
 4990SOL     OW26428   2.576   1.504   4.531  0.2324 -0.5246  0.2926
 4990SOL    HW126429   2.663   1.485   4.566  0.0002  0.8159  1.5776
 4990SOL    HW226430   2.554   1.429   4.475 -3.2660  1.6151 -1.2123
 4991SOL     OW26431   1.361   1.052   2.224 -0.5994  0.4008 -0.1980
 4991SOL    HW126432   1.442   1.037   2.175  1.1626  1.4397  2.4044
 4991SOL    HW226433   1.294   0.995   2.186  0.2030 -0.1412 -0.8105
 4992SOL     OW26434   0.009   2.280  12.896  0.0815 -0.4406  0.1428
 4992SOL    HW126435   4.656   2.295  12.953 -1.0037  0.9971 -1.6829
 4992SOL    HW226436   0.061   2.347  12.941  2.8829 -2.5640  0.0593
 4993SOL     OW26437   1.347   3.673   4.988 -0.3729  0.2763 -0.0936
 4993SOL    HW126438   1.419   3.732   4.969  0.6527 -1.0115 -0.2157
 4993SOL    HW226439   1.293   3.659   4.910  0.5654 -2.1894 -0.3015
 4994SOL     OW26440   4.364   0.311   7.169 -0.2123 -0.0760 -0.2789
 4994SOL    HW126441   4.350   0.403   7.192 -0.5207  0.2985 -1.9381
 4994SOL    HW226442   4.395   0.315   7.078 -1.9324  1.3935 -0.7882
 4995SOL     OW26443   0.520   0.338   4.220 -0.4715  0.0084  0.1117
 4995SOL    HW126444   0.547   0.276   4.288  1.2135  0.1747 -0.3888
 4995SOL    HW226445   0.430   0.327   4.247 -0.7400  2.0511  0.0602
 4996SOL     OW26446   1.957   0.646  11.624 -0.3967 -0.3176  0.1642
 4996SOL    HW126447   1.948   0.573  11.685  0.3674  0.1496  0.8308
 4996SOL    HW226448   1.868   0.642  11.589 -0.5450 -1.1995  0.6246
 4997SOL     OW26449   2.522   3.181  10.094 -0.0601 -0.4079  0.1404
 4997SOL    HW126450   2.569   3.126  10.156 -0.6111  1.6674  2.4281
 4997SOL    HW226451   2.478   3.118  10.037  0.2178  0.7945 -1.4173
 4998SOL     OW26452   0.616   0.184   6.203  0.1845 -0.1822  0.1134
 4998SOL    HW126453   0.685   0.123   6.231 -0.1383 -2.1663 -3.4291
 4998SOL    HW226454   0.657   0.269   6.220  0.8720 -1.2246  3.6599
 4999SOL     OW26455   0.827   4.453   6.485 -0.5146 -0.4260 -0.0148
 4999SOL    HW126456   0.829   4.371   6.436 -3.2291 -0.4626 -0.0556
 4999SOL    HW226457   0.770   4.511   6.435 -1.2761 -0.5181  0.7565
 5000SOL     OW26458   1.845   2.476   1.903  0.0944 -0.0600  0.0096
 5000SOL    HW126459   1.786   2.507   1.972  0.0216 -0.3363  0.0701
 5000SOL    HW226460   1.916   2.539   1.892 -0.3070  0.2620 -0.7450
 5001SOL     OW26461   1.357   1.322   6.969 -0.5086 -0.2648  0.0604
 5001SOL    HW126462   1.303   1.398   6.949 -0.2208 -0.1133 -0.1341
 5001SOL    HW226463   1.400   1.353   7.048  2.0596  0.7521 -1.7577
 5002SOL     OW26464   4.036   0.170   7.027  0.3413 -0.6678 -0.2094
 5002SOL    HW126465   3.992   0.190   7.110  2.1313 -2.0708  1.0902
 5002SOL    HW226466   4.017   0.248   6.975  1.2465  0.7342  1.5548
 5003SOL     OW26467   4.640   4.411   7.395 -0.0987 -0.3624 -0.3945
 5003SOL    HW126468   4.632   4.325   7.437 -2.6156 -0.0543 -0.2207
 5003SOL    HW226469   4.578   4.472   7.436  0.7704 -1.9172  3.2742
 5004SOL     OW26470   4.505   0.616   5.270  0.1149  0.3335 -0.1666
 5004SOL    HW126471   4.511   0.709   5.291  0.9082 -0.0116  1.1195
 5004SOL    HW226472   4.593   0.579   5.273 -1.8392 -4.3472 -1.0934
 5005SOL     OW26473   1.717   2.980  11.018  0.2602 -0.1885 -0.6652
 5005SOL    HW126474   1.632   3.018  10.996  0.6827 -0.4198 -2.6504
 5005SOL    HW226475   1.770   2.993  10.939 -0.8776 -2.7370 -1.8498
 5006SOL     OW26476   0.612   4.593  13.821 -0.2955  0.3913 -0.2916
 5006SOL    HW126477   0.540   4.543  13.782  1.1504 -2.3972  0.5901
 5006SOL    HW226478   0.603   4.567  13.913  0.4677 -1.0008 -0.6032
 5007SOL     OW26479   2.554   1.480   3.219  0.3706  0.1421  0.3082
 5007SOL    HW126480   2.566   1.561   3.268  3.0818 -1.3331  2.0226
 5007SOL    HW226481   2.514   1.417   3.279  0.0957 -0.5478 -0.5877
 5008SOL     OW26482   0.203   3.836   4.579 -0.0401 -0.0282  0.1523
 5008SOL    HW126483   0.232   3.823   4.669  1.3697 -0.7253 -0.3988
 5008SOL    HW226484   0.111   3.859   4.594  0.0774  1.2828 -1.1362
 5009SOL     OW26485   1.974   2.353   7.111 -0.7318 -0.3685 -0.1599
 5009SOL    HW126486   1.929   2.301   7.044  0.9471 -0.4015 -1.2692
 5009SOL    HW226487   1.897   2.386   7.157 -0.8259 -0.0736 -0.5217
 5010SOL     OW26488   0.503   1.303   5.889  0.6936  0.0067 -0.2359
 5010SOL    HW126489   0.567   1.235   5.867 -0.0951 -0.9118  0.2800
 5010SOL    HW226490   0.422   1.252   5.894  0.9973 -0.3149  1.4637
 5011SOL     OW26491   4.394   1.822  13.530  0.0880 -0.4864 -0.3496
 5011SOL    HW126492   4.369   1.886  13.464 -0.5476 -0.1042  0.2642
 5011SOL    HW226493   4.389   1.734  13.493 -2.2843 -1.1592  1.5757
 5012SOL     OW26494   1.776   0.522   8.284 -0.3445  0.0178  0.0324
 5012SOL    HW126495   1.720   0.517   8.361  2.0536 -0.9314  1.6926
 5012SOL    HW226496   1.708   0.521   8.216  0.5654 -0.4524 -0.8677
 5013SOL     OW26497   0.875   2.120  13.011  0.1261 -0.8086  0.3455
 5013SOL    HW126498   0.842   2.040  12.970 -0.0734 -0.6039  0.0931
 5013SOL    HW226499   0.835   2.199  12.974  2.4774  1.1447  2.0399
 5014SOL     OW26500   2.455   0.989   9.516  0.2380 -0.3361 -0.3623
 5014SOL    HW126501   2.549   0.975   9.505  0.0788 -0.9712 -0.9204
 5014SOL    HW226502   2.449   1.036   9.599 -0.0302  0.6207 -0.9166
 5015SOL     OW26503   1.570   1.705   2.084  0.0350 -0.1637  0.2425
 5015SOL    HW126504   1.525   1.785   2.056 -1.8451 -1.5606 -0.7342
 5015SOL    HW226505   1.523   1.688   2.166 -0.2534  0.6457  0.2371
 5016SOL     OW26506   2.191   0.800   4.598 -0.0279 -1.1746  0.3672
 5016SOL    HW126507   2.283   0.824   4.613 -0.6801 -0.0621  2.6517
 5016SOL    HW226508   2.158   0.874   4.548  0.7219 -0.8439  0.3665
 5017SOL     OW26509   1.349   3.773   7.516 -0.5291  0.8042 -0.0835
 5017SOL    HW126510   1.337   3.787   7.422  2.9078  0.2961 -0.5899
 5017SOL    HW226511   1.268   3.729   7.542 -1.1453  1.5874 -0.6625
 5018SOL     OW26512   0.136   3.992   2.033  0.9172 -0.7217 -0.3458
 5018SOL    HW126513   0.110   4.038   2.113  1.1020 -0.9865 -0.1320
 5018SOL    HW226514   0.211   3.949   2.073  0.0982 -1.4148  0.4443
 5019SOL     OW26515   4.603   4.433   8.550  0.0580  0.1330 -0.6369
 5019SOL    HW126516   4.560   4.516   8.529 -1.0349 -0.1158  0.6068
 5019SOL    HW226517   4.527   4.378   8.569 -0.0029  0.2990 -0.3957
 5020SOL     OW26518   1.023   4.525   4.130 -0.4796  0.2227 -0.2801
 5020SOL    HW126519   0.952   4.482   4.083  0.3369 -0.3635 -0.9563
 5020SOL    HW226520   0.976   4.600   4.167  0.6246  0.8689 -0.1902
 5021SOL     OW26521   3.751   2.978  16.103 -0.0750  0.4512  0.0673
 5021SOL    HW126522   3.820   2.923  16.139  0.8746  0.8370 -1.1434
 5021SOL    HW226523   3.764   3.047  16.168 -0.4180  0.1564  0.4477
 5022SOL     OW26524   3.293   0.852   4.960 -0.1859  0.3756 -0.4638
 5022SOL    HW126525   3.251   0.799   5.028  1.6227  0.9277  1.0678
 5022SOL    HW226526   3.320   0.787   4.896 -0.2110 -0.7409  0.6626
 5023SOL     OW26527   4.321   3.576   8.284 -0.1713  0.2633 -0.2908
 5023SOL    HW126528   4.416   3.581   8.271  0.0163 -0.4325  0.8155
 5023SOL    HW226529   4.287   3.586   8.195  0.8521  1.3856 -0.5584
 5024SOL     OW26530   2.793   3.505   2.591 -0.4942  0.2140 -0.0081
 5024SOL    HW126531   2.868   3.445   2.589  0.4034  1.3479 -0.8804
 5024SOL    HW226532   2.830   3.568   2.529 -2.6005  1.0337 -0.4407
 5025SOL     OW26533   0.951   0.239   9.978 -0.3218  0.3293  0.5298
 5025SOL    HW126534   0.860   0.234   9.950  0.1986 -1.1402 -0.8482
 5025SOL    HW226535   0.974   0.327   9.946  1.4907  0.0001  0.9148
 5026SOL     OW26536   1.546   2.930   6.886 -0.5633  0.1311  0.3503
 5026SOL    HW126537   1.541   2.881   6.968 -3.9792 -0.0709  0.0128
 5026SOL    HW226538   1.474   2.989   6.906  0.7481  1.0545  2.4272
 5027SOL     OW26539   2.771   3.262   7.341  0.3061 -0.2725  0.5319
 5027SOL    HW126540   2.782   3.169   7.321 -1.7338  0.0584 -2.0706
 5027SOL    HW226541   2.841   3.295   7.285 -0.0086  2.3898  1.7301
 5028SOL     OW26542   2.164   2.152   8.032  0.3966 -0.1584  0.2045
 5028SOL    HW126543   2.178   2.151   8.127  0.0067  0.8402  0.2779
 5028SOL    HW226544   2.153   2.247   8.029  1.1612 -0.0727  0.2231
 5029SOL     OW26545   2.147   3.884   1.264  0.1552  0.3630 -0.2819
 5029SOL    HW126546   2.226   3.850   1.222 -0.6501 -0.3137 -1.2394
 5029SOL    HW226547   2.087   3.815   1.237  0.7110  0.1756 -1.0532
 5030SOL     OW26548   4.716   3.981   6.567 -0.6986 -0.7851  0.3211
 5030SOL    HW126549   0.064   3.961   6.506 -2.9002  0.9464 -2.8122
 5030SOL    HW226550   4.685   4.053   6.513  0.4176  0.2933  1.0956
 5031SOL     OW26551   2.070   0.023   3.080 -0.2116 -0.3625 -0.0866
 5031SOL    HW126552   2.160   0.055   3.073  0.0322 -0.8854  0.7988
 5031SOL    HW226553   2.023   0.094   3.035 -0.8871 -1.5384 -1.2465
 5032SOL     OW26554   4.435   3.918   8.203 -0.1125  0.1852 -0.0052
 5032SOL    HW126555   4.492   3.853   8.161  0.8015  0.3479  1.0000
 5032SOL    HW226556   4.382   3.948   8.130 -2.1112 -1.5093  0.7312
 5033SOL     OW26557   0.093   0.556   3.235 -0.6350 -0.4000  0.6353
 5033SOL    HW126558   0.159   0.622   3.217 -1.3034  0.3583  0.9899
 5033SOL    HW226559   0.128   0.496   3.302  0.1512 -0.6062  0.0408
 5034SOL     OW26560   4.518   0.630  14.901  0.1308 -0.3503 -0.2565
 5034SOL    HW126561   4.509   0.540  14.869 -0.7383  0.4678 -2.3092
 5034SOL    HW226562   4.532   0.614  14.994 -0.4144  0.6057 -0.0114
 5035SOL     OW26563   0.422   0.409  12.263  0.0793 -0.1826 -0.2692
 5035SOL    HW126564   0.450   0.433  12.351  3.2488 -1.3237 -0.9806
 5035SOL    HW226565   0.430   0.314  12.266  1.4903 -0.1134 -1.9372
 5036SOL     OW26566   0.928   3.765   7.289 -0.6071  0.9809  0.3232
 5036SOL    HW126567   0.980   3.740   7.213  0.2864  2.6262  0.4149
 5036SOL    HW226568   0.861   3.829   7.267 -0.7897  0.5146 -0.4616
 5037SOL     OW26569   3.056   0.415  11.917 -0.1658  0.2985 -0.9346
 5037SOL    HW126570   3.016   0.332  11.943  0.1589  0.7372  0.9837
 5037SOL    HW226571   3.026   0.478  11.982 -0.5771 -1.1365  0.2767
 5038SOL     OW26572   4.219   2.547   3.536 -0.0940  0.1460  0.3054
 5038SOL    HW126573   4.130   2.539   3.502 -0.3870 -1.1010  1.3483
 5038SOL    HW226574   4.209   2.485   3.608  0.8377 -0.3806 -0.0131
 5039SOL     OW26575   3.166   3.868   3.063 -0.5767  0.5654  0.3760
 5039SOL    HW126576   3.134   3.780   3.044 -0.3522  0.1197  2.1055
 5039SOL    HW226577   3.257   3.850   3.083 -0.5128 -0.2236 -0.6236
 5040SOL     OW26578   1.315   4.067   5.084  0.8309  0.3659 -0.0541
 5040SOL    HW126579   1.328   4.152   5.044  0.1995  0.8597  0.7889
 5040SOL    HW226580   1.382   4.083   5.151 -0.2173 -1.6113  1.5074
 5041SOL     OW26581   1.453   0.217  15.274  0.1310  0.3836 -0.3216
 5041SOL    HW126582   1.379   0.181  15.224  0.6892 -2.3510  0.8228
 5041SOL    HW226583   1.476   0.145  15.332 -1.1264 -0.7804 -1.2736
 5042SOL     OW26584   2.239   1.064   3.861 -0.3674 -0.0862  0.5024
 5042SOL    HW126585   2.223   1.056   3.955 -1.0495  0.1270  0.4090
 5042SOL    HW226586   2.254   0.976   3.826 -0.3129  0.8451 -1.8182
 5043SOL     OW26587   4.263   3.851  16.099 -0.1945 -0.1383  0.0497
 5043SOL    HW126588   4.298   3.929  16.055 -0.7132  0.7821  1.2617
 5043SOL    HW226589   4.255   3.870  16.193  0.1788  0.5148 -0.0432
 5044SOL     OW26590   1.232   0.231   5.860 -0.4483  0.4162  0.1132
 5044SOL    HW126591   1.321   0.268   5.861 -0.6883  0.9839  0.7321
 5044SOL    HW226592   1.247   0.190   5.946 -2.9228  0.6155  0.6291
 5045SOL     OW26593   1.642   2.399  11.625  0.1815 -0.1619  0.4831
 5045SOL    HW126594   1.559   2.426  11.663  1.0039 -0.3820  2.4188
 5045SOL    HW226595   1.639   2.320  11.678 -4.9192 -1.0827 -1.2270
 5046SOL     OW26596   1.907   1.497   4.784  0.2150 -0.5679 -0.1929
 5046SOL    HW126597   1.957   1.574   4.809  0.3723 -1.3262  1.8201
 5046SOL    HW226598   1.940   1.473   4.697  1.9725  2.1209 -0.2561
 5047SOL     OW26599   3.329   0.010  12.052  0.0771 -0.7573 -0.2090
 5047SOL    HW126600   3.258   4.681  12.015 -3.5983  2.8589  1.6620
 5047SOL    HW226601   3.378   4.662  12.092  0.5777 -1.5067 -2.1921
 5048SOL     OW26602   0.128   0.471   6.229 -0.4143  0.2388 -0.2614
 5048SOL    HW126603   0.155   0.527   6.156  0.1931 -0.4175 -0.5363
 5048SOL    HW226604   0.035   0.491   6.227 -0.2013  1.1354 -1.1301
 5049SOL     OW26605   0.562   0.001  10.710  0.0868 -0.4054  0.5770
 5049SOL    HW126606   0.498   4.709  10.780 -0.8397 -0.1477 -0.2014
 5049SOL    HW226607   0.624   4.655  10.729 -0.8813 -0.7758  2.3885
 5050SOL     OW26608   2.852   4.498   8.717  0.1935  0.7695  0.2943
 5050SOL    HW126609   2.846   4.469   8.626 -3.7291  1.9337  0.2285
 5050SOL    HW226610   2.927   4.443   8.742 -0.4459 -0.3719 -0.2667
 5051SOL     OW26611   0.302   0.641   7.193 -0.2040  0.4554  0.3284
 5051SOL    HW126612   0.213   0.641   7.228  0.2297 -1.6868  1.4540
 5051SOL    HW226613   0.349   0.574   7.242  0.6518  0.6549 -0.2211
 5052SOL     OW26614   1.246   1.777   1.022 -0.1110 -0.3032  0.3374
 5052SOL    HW126615   1.227   1.684   1.011  2.5621 -0.9676  1.4621
 5052SOL    HW226616   1.160   1.817   1.006  0.5321 -0.6590 -3.8074
 5053SOL     OW26617   1.698   0.759  16.637  0.3361 -0.1235 -0.0598
 5053SOL    HW126618   1.775   0.804  16.673  0.8467 -0.8071 -0.2801
 5053SOL    HW226619   1.695   0.791  16.547  1.8693  0.0873 -0.0358
 5054SOL     OW26620   2.500   3.474   2.448  0.0823 -0.7044 -0.5789
 5054SOL    HW126621   2.565   3.540   2.473 -0.2260 -0.0836 -1.4364
 5054SOL    HW226622   2.544   3.397   2.413  2.5065  0.0150  0.8830
 5055SOL     OW26623   2.043   0.504   3.219 -0.5561  0.1240 -0.0367
 5055SOL    HW126624   2.049   0.497   3.123 -1.3687 -1.6238  0.0328
 5055SOL    HW226625   2.131   0.520   3.253 -0.8836 -0.5035  1.0966
 5056SOL     OW26626   2.702   0.027  11.312  0.2561  0.6165  0.0793
 5056SOL    HW126627   2.661   0.102  11.268  1.0261  1.4647  0.8096
 5056SOL    HW226628   2.659   4.682  11.261 -0.5505  3.1021 -2.6012
 5057SOL     OW26629   1.300   4.233   1.735  0.1831 -0.3339 -0.1306
 5057SOL    HW126630   1.252   4.266   1.810 -1.5876  1.0992 -1.8988
 5057SOL    HW226631   1.236   4.213   1.667 -1.5765  0.7413  1.2011
 5058SOL     OW26632   2.831   3.000   9.097  0.0120  0.0792  0.1452
 5058SOL    HW126633   2.913   2.964   9.063 -1.3664 -2.9649  0.0628
 5058SOL    HW226634   2.759   2.974   9.039  0.1757 -0.2203  0.0789
 5059SOL     OW26635   4.330   0.380  11.716  0.1859 -0.4978  0.3211
 5059SOL    HW126636   4.261   0.387  11.782 -1.7949  2.2227 -1.9916
 5059SOL    HW226637   4.327   0.471  11.686  2.4579 -0.6377 -0.3456
 5060SOL     OW26638   0.762   1.766   9.741 -0.0552 -0.0749  0.5349
 5060SOL    HW126639   0.738   1.825   9.670 -0.8078 -0.6236  0.3286
 5060SOL    HW226640   0.848   1.800   9.765  0.9718 -0.7101 -2.2041
 5061SOL     OW26641   3.844   2.121   7.570 -0.0012  0.5870 -0.1887
 5061SOL    HW126642   3.835   2.169   7.652 -0.7816  1.5798 -0.8542
 5061SOL    HW226643   3.762   2.144   7.526  0.5645  1.0127 -1.0087
 5062SOL     OW26644   2.130   1.721   6.503 -0.3731 -0.0121 -0.4666
 5062SOL    HW126645   2.182   1.798   6.482 -1.3541  1.0394  0.9568
 5062SOL    HW226646   2.123   1.686   6.415 -2.3091 -0.5858 -0.0949
 5063SOL     OW26647   4.076   4.238   7.751  0.6289  0.1774 -0.6177
 5063SOL    HW126648   4.132   4.180   7.699  1.2835  1.4909 -1.3656
 5063SOL    HW226649   4.131   4.253   7.828 -0.8297 -1.5494  0.7789
 5064SOL     OW26650   3.858   2.015   5.755 -0.3097 -0.4391 -0.7533
 5064SOL    HW126651   3.867   1.920   5.748  0.0264 -0.5232  0.6300
 5064SOL    HW226652   3.793   2.021   5.825  0.3662 -2.4715  0.0448
 5065SOL     OW26653   1.396   3.119   2.194  0.1452  0.3325 -0.5168
 5065SOL    HW126654   1.401   3.209   2.226 -2.6514  0.2343  0.1522
 5065SOL    HW226655   1.378   3.088   2.283 -2.5059  0.9434 -0.8503
 5066SOL     OW26656   3.374   1.960   5.875  0.8085  0.1545 -0.4471
 5066SOL    HW126657   3.445   2.013   5.839  0.9635  1.1356  1.3069
 5066SOL    HW226658   3.346   2.018   5.946  0.6634 -0.9597  0.4109
 5067SOL     OW26659   0.054   1.340  10.449 -0.4318  0.1000 -0.6688
 5067SOL    HW126660   0.124   1.286  10.413  0.6811 -0.5637  2.5294
 5067SOL    HW226661   0.020   1.388  10.373 -1.8372  0.1691 -0.0036
 5068SOL     OW26662   2.739   2.050  15.893 -0.4854  0.4080  0.4690
 5068SOL    HW126663   2.699   2.136  15.906  1.2526  1.3212 -0.1913
 5068SOL    HW226664   2.799   2.081  15.825 -0.2362  0.4175  0.6945
 5069SOL     OW26665   3.517   3.044  13.134 -0.4206 -0.3202  0.1038
 5069SOL    HW126666   3.443   3.096  13.166  0.0043  0.3112  0.0408
 5069SOL    HW226667   3.555   3.117  13.086 -1.0330  0.6312  1.0723
 5070SOL     OW26668   0.846   3.947  11.427  0.4774  0.7246 -0.1324
 5070SOL    HW126669   0.760   3.920  11.395  0.6368  0.9716 -0.7773
 5070SOL    HW226670   0.883   3.861  11.446  2.2272  1.6736  0.7858
 5071SOL     OW26671   0.182   2.403  14.646  0.5419 -0.1063  0.1902
 5071SOL    HW126672   0.265   2.431  14.684  0.6604 -1.5981  1.0209
 5071SOL    HW226673   0.211   2.316  14.618  3.2309  1.1134 -0.9192
 5072SOL     OW26674   2.145   0.503   4.705 -0.1489 -0.2281 -0.0751
 5072SOL    HW126675   2.184   0.588   4.684  0.5329 -0.4555  0.2693
 5072SOL    HW226676   2.212   0.441   4.674  0.0812  1.3973 -2.8442
 5073SOL     OW26677   0.069   4.366   6.194  0.7632 -0.2426  0.9940
 5073SOL    HW126678   0.119   4.446   6.209  1.2347 -0.0881 -1.4902
 5073SOL    HW226679   4.703   4.389   6.217  1.4606  1.1777  2.3450
 5074SOL     OW26680   0.489   2.425  10.350  0.6518 -0.3589 -0.7376
 5074SOL    HW126681   0.568   2.462  10.391 -0.6660  0.2632  1.2103
 5074SOL    HW226682   0.485   2.335  10.381  0.9137  0.4538  1.6740
 5075SOL     OW26683   0.787   1.181   4.135  0.9603 -0.2049  0.3723
 5075SOL    HW126684   0.871   1.189   4.179  0.8967 -1.5126  0.7329
 5075SOL    HW226685   0.774   1.087   4.139  0.0837 -0.0544  1.1340
 5076SOL     OW26686   2.327   2.012   7.455 -0.3933  0.4751 -0.0151
 5076SOL    HW126687   2.287   2.074   7.394 -0.8054  0.5190  0.2918
 5076SOL    HW226688   2.400   1.973   7.407 -1.0202  0.0875 -0.6519
 5077SOL     OW26689   4.616   4.587  12.435 -0.5027  0.1019  0.1519
 5077SOL    HW126690   4.614   4.536  12.355  0.0544 -0.4100  0.4679
 5077SOL    HW226691   4.522   4.593  12.453 -0.6925 -0.2892 -0.6885
 5078SOL     OW26692   1.000   2.677  15.262  0.1449 -0.0924 -0.7223
 5078SOL    HW126693   1.037   2.748  15.209  0.2470  0.0798 -0.4216
 5078SOL    HW226694   0.928   2.723  15.305  2.0648  1.4804  0.7906
 5079SOL     OW26695   2.126   4.282  10.774  0.2429  0.1583  0.1075
 5079SOL    HW126696   2.062   4.297  10.844  0.5011  1.6909  0.0341
 5079SOL    HW226697   2.175   4.364  10.771  0.3530  0.1094  0.6094
 5080SOL     OW26698   1.648   3.154   4.363 -0.3453 -0.1233  0.0649
 5080SOL    HW126699   1.608   3.234   4.397  0.0424  0.6808 -1.4161
 5080SOL    HW226700   1.741   3.166   4.381 -0.5222  1.5294 -0.1548
 5081SOL     OW26701   1.044   1.149  12.497  0.1925 -0.0154 -0.6048
 5081SOL    HW126702   1.009   1.164  12.585 -2.2413 -0.4962 -1.4940
 5081SOL    HW226703   0.991   1.072  12.475 -2.5778  1.3169  1.3686
 5082SOL     OW26704   1.963   2.205  10.394 -0.7932  0.2594  0.3286
 5082SOL    HW126705   2.007   2.236  10.473 -0.3375 -0.4158  0.3430
 5082SOL    HW226706   2.002   2.119  10.376 -0.4269  0.3870  0.5312
 5083SOL     OW26707   4.070   3.713   0.684  0.6323 -0.2905 -0.5146
 5083SOL    HW126708   4.036   3.743   0.768  0.9874 -0.8114 -0.1816
 5083SOL    HW226709   3.994   3.701   0.627  1.1195  2.7037 -1.8053
 5084SOL     OW26710   1.658   2.082  10.483 -0.4014  0.4081  0.3596
 5084SOL    HW126711   1.597   2.111  10.551 -0.2719  2.0713 -0.2265
 5084SOL    HW226712   1.663   1.988  10.497  0.1887  0.2799 -0.7865
 5085SOL     OW26713   0.233   1.723  16.508 -0.1307  0.3850  0.1503
 5085SOL    HW126714   0.303   1.783  16.533 -0.9568  1.9736 -1.3495
 5085SOL    HW226715   0.218   1.680  16.592  0.2530 -2.4513 -1.2110
 5086SOL     OW26716   4.411   4.345   5.835 -0.4630  0.2071 -0.3345
 5086SOL    HW126717   4.461   4.291   5.774 -0.0095  0.8051 -0.4907
 5086SOL    HW226718   4.384   4.422   5.785 -0.6167  0.6880  0.4925
 5087SOL     OW26719   4.117   4.235   4.997  0.1269 -0.6110  0.1041
 5087SOL    HW126720   4.112   4.312   4.941 -1.5064  0.1050  1.2306
 5087SOL    HW226721   4.022   4.219   5.002 -0.0537  0.4502 -0.0452
 5088SOL     OW26722   2.594   1.956   4.473  0.0666  0.0836  0.1722
 5088SOL    HW126723   2.535   1.881   4.482  0.7413 -0.4615  0.0668
 5088SOL    HW226724   2.663   1.931   4.535 -0.3193  0.8684  0.9212
 5089SOL     OW26725   2.735   3.735  13.519  0.1090 -0.3183 -0.2485
 5089SOL    HW126726   2.652   3.781  13.526  0.4917  0.5257 -1.3358
 5089SOL    HW226727   2.800   3.804  13.533 -1.2055  0.8479  0.1495
 5090SOL     OW26728   3.654   0.442   1.459 -0.7631 -0.1916 -0.2913
 5090SOL    HW126729   3.673   0.476   1.546  1.1749  0.8430 -1.0957
 5090SOL    HW226730   3.568   0.402   1.468 -1.3191  0.9316 -0.6171
 5091SOL     OW26731   3.465   0.189   7.232  0.1524 -0.7479  0.0442
 5091SOL    HW126732   3.526   0.238   7.287 -2.1832  1.7490  0.3983
 5091SOL    HW226733   3.533   0.139   7.187  3.5672  2.8298  1.2073
 5092SOL     OW26734   3.334   4.446   6.240 -0.0140  0.1309  0.0957
 5092SOL    HW126735   3.312   4.372   6.183  2.2757 -0.1899 -0.3614
 5092SOL    HW226736   3.429   4.434   6.246 -0.0943 -0.2179  0.6995
 5093SOL     OW26737   2.322   4.479   3.126 -0.2058 -0.0044 -0.1457
 5093SOL    HW126738   2.315   4.417   3.199  0.3113 -0.4644 -0.4890
 5093SOL    HW226739   2.233   4.469   3.092  0.0063 -0.4881 -0.5505
 5094SOL     OW26740   3.026   1.440   7.422  0.0629 -0.9003  0.2302
 5094SOL    HW126741   3.122   1.443   7.419  0.1093 -1.1022  1.8467
 5094SOL    HW226742   3.013   1.502   7.351 -1.1740 -1.4561 -0.0371
 5095SOL     OW26743   2.932   2.995   2.476 -0.1369 -0.1135 -0.1753
 5095SOL    HW126744   2.842   3.015   2.502 -0.3668  0.6589 -1.5489
 5095SOL    HW226745   2.904   2.980   2.385  0.8200  1.4925 -0.7315
 5096SOL     OW26746   0.437   0.720   9.091 -0.4445  0.1993  0.0222
 5096SOL    HW126747   0.357   0.720   9.144 -1.2589  2.6296 -1.1534
 5096SOL    HW226748   0.399   0.768   9.017 -1.5514 -0.8912 -0.1137
 5097SOL     OW26749   0.748   2.469   4.116 -0.1783  0.0364  0.2713
 5097SOL    HW126750   0.814   2.414   4.159  0.3387  2.0722  2.0445
 5097SOL    HW226751   0.777   2.443   4.029 -0.2438 -1.2351  0.6260
 5098SOL     OW26752   3.231   1.276   3.823  0.1807  0.0455  0.3926
 5098SOL    HW126753   3.163   1.235   3.876 -0.3924  0.2801 -0.1607
 5098SOL    HW226754   3.194   1.365   3.825 -1.1301 -0.4719 -0.9397
 5099SOL     OW26755   0.459   2.874  11.161 -0.0000  0.2777  0.0606
 5099SOL    HW126756   0.554   2.863  11.160  0.1017  1.2527 -1.0717
 5099SOL    HW226757   0.458   2.958  11.116  3.2012 -0.0721 -0.6646
 5100SOL     OW26758   3.710   3.294  11.954  0.4667  0.0055 -0.4019
 5100SOL    HW126759   3.717   3.198  11.957 -2.0906 -0.2209 -1.5060
 5100SOL    HW226760   3.628   3.315  12.000  1.7466  1.9526  0.9782
 5101SOL     OW26761   3.081   4.587   1.603  0.4312 -0.3980  0.4309
 5101SOL    HW126762   3.030   4.664   1.626 -1.9016 -1.2470 -1.8583
 5101SOL    HW226763   3.140   4.621   1.536 -1.2370 -0.1628 -0.9221
 5102SOL     OW26764   2.577   3.033   2.222 -0.4593 -0.2432  0.2414
 5102SOL    HW126765   2.605   2.961   2.165 -1.0047 -0.5109  0.3094
 5102SOL    HW226766   2.517   3.074   2.159 -0.1550 -0.0200  0.0976
 5103SOL     OW26767   0.038   1.234   6.658 -0.4137  0.0248 -0.1848
 5103SOL    HW126768   4.680   1.185   6.664 -0.3423 -0.1197 -0.3763
 5103SOL    HW226769   0.055   1.256   6.750  0.4601  2.6314 -0.9705
 5104SOL     OW26770   2.966   4.031   8.765 -0.3585 -0.6715  0.0233
 5104SOL    HW126771   3.010   3.982   8.834 -0.8416 -2.5916 -1.0360
 5104SOL    HW226772   2.908   3.966   8.726  0.2569 -0.0361 -1.9523
 5105SOL     OW26773   4.717   0.462   5.444 -0.8380 -0.4311 -0.6839
 5105SOL    HW126774   0.018   0.516   5.370 -0.0317  0.0874 -0.0319
 5105SOL    HW226775   0.011   0.373   5.414  0.1702  0.5927 -3.0574
 5106SOL     OW26776   3.170   2.934  10.530 -0.1844  0.4375 -0.2912
 5106SOL    HW126777   3.201   2.902  10.614  3.0781  3.4336 -0.3419
 5106SOL    HW226778   3.246   2.988  10.508 -0.1569  0.0760 -1.1072
 5107SOL     OW26779   2.464   2.818  12.485  0.1496  0.0827 -0.2164
 5107SOL    HW126780   2.393   2.833  12.422  1.4119 -1.5572 -2.0460
 5107SOL    HW226781   2.469   2.723  12.495 -1.6490 -0.0103 -0.1332
 5108SOL     OW26782   1.072   0.318   3.311 -0.4012 -0.2914 -0.4881
 5108SOL    HW126783   1.094   0.263   3.236  0.9608 -1.1338  0.5201
 5108SOL    HW226784   1.096   0.403   3.274 -0.6402 -0.0531 -0.0999
 5109SOL     OW26785   0.444   3.709   1.956  0.1921  0.4017 -0.2205
 5109SOL    HW126786   0.420   3.741   1.869 -0.2865 -2.2610 -1.0765
 5109SOL    HW226787   0.384   3.634   1.962 -0.1992  0.6153 -1.4196
 5110SOL     OW26788   2.923   3.588  15.628  0.1409 -0.6428 -0.3297
 5110SOL    HW126789   2.841   3.551  15.594  1.0387 -0.1674 -2.9973
 5110SOL    HW226790   2.991   3.523  15.613 -0.0908 -0.7030 -1.0903
 5111SOL     OW26791   2.262   4.153   8.367  0.2542 -0.1792  0.2279
 5111SOL    HW126792   2.263   4.147   8.462  0.7826  1.0559  0.2945
 5111SOL    HW226793   2.329   4.221   8.362  0.5500 -0.5224 -0.5703
 5112SOL     OW26794   2.871   1.243  15.229 -0.2545  0.4881  0.1958
 5112SOL    HW126795   2.822   1.169  15.264 -0.3593 -0.6337 -2.2769
 5112SOL    HW226796   2.948   1.234  15.285 -0.6456  1.8191  0.9445
 5113SOL     OW26797   3.756   3.934  14.768 -0.5726 -0.2405 -0.3378
 5113SOL    HW126798   3.682   3.950  14.709 -0.0237 -0.0918 -0.9771
 5113SOL    HW226799   3.728   3.965  14.854 -3.0373 -0.7195 -0.9690
 5114SOL     OW26800   3.794   1.512   4.327 -0.8678 -0.6575  0.5016
 5114SOL    HW126801   3.847   1.473   4.258 -0.2208 -2.3680  1.9810
 5114SOL    HW226802   3.752   1.579   4.273 -0.6012  0.1555  1.2823
 5115SOL     OW26803   1.746   1.892   6.772  0.2221 -0.2740 -0.1121
 5115SOL    HW126804   1.802   1.815   6.768  0.0301 -0.4185  0.0096
 5115SOL    HW226805   1.728   1.914   6.680 -3.4924  3.2249  1.4543
 5116SOL     OW26806   2.433   1.575  13.129  0.0301 -0.2174  0.4997
 5116SOL    HW126807   2.484   1.642  13.174  1.4240  0.4718 -2.0870
 5116SOL    HW226808   2.349   1.576  13.175 -0.9125 -1.1503 -1.1784
 5117SOL     OW26809   4.362   1.249   8.610 -0.1085 -0.2736  0.4401
 5117SOL    HW126810   4.423   1.304   8.658 -0.7143  1.1443 -0.4035
 5117SOL    HW226811   4.417   1.171   8.607  1.7671  1.1536 -2.6250
 5118SOL     OW26812   0.468   2.556   7.550  0.3230  0.2900 -0.1757
 5118SOL    HW126813   0.453   2.462   7.553  1.6072  0.1350  0.9650
 5118SOL    HW226814   0.493   2.570   7.641 -0.5136  2.0635 -0.2134
 5119SOL     OW26815   3.473   0.906  11.152 -0.0053  0.4834 -0.5146
 5119SOL    HW126816   3.519   0.887  11.234  0.1834  1.6480 -0.3570
 5119SOL    HW226817   3.382   0.881  11.169  0.0661  0.3098 -0.3934
 5120SOL     OW26818   2.645   3.391   4.949  0.1157  0.0634  0.6137
 5120SOL    HW126819   2.572   3.341   4.987 -2.3190  0.9178 -3.0380
 5120SOL    HW226820   2.717   3.328   4.960 -1.5614 -1.8676  0.5019
 5121SOL     OW26821   2.291   3.988  17.146 -0.2285  0.3995  0.1572
 5121SOL    HW126822   2.364   3.944  17.103 -0.6563  0.7639 -0.9615
 5121SOL    HW226823   2.324   3.997  17.235  1.1734 -3.8782  0.0841
 5122SOL     OW26824   3.101   3.085   5.419  0.3363 -0.2376  0.2849
 5122SOL    HW126825   3.134   3.038   5.342 -0.8311  1.4981 -1.2922
 5122SOL    HW226826   3.135   3.174   5.413 -1.7614  0.4174 -2.2399
 5123SOL     OW26827   0.498   4.218   7.366  0.2053  0.0498 -0.1635
 5123SOL    HW126828   0.495   4.126   7.392 -2.3403  0.7377  1.9003
 5123SOL    HW226829   0.540   4.222   7.280 -1.0519  0.8082 -0.7437
 5124SOL     OW26830   4.538   2.273   6.626 -0.1799 -0.0026  0.2831
 5124SOL    HW126831   4.617   2.323   6.605  0.0657 -1.5441 -2.3191
 5124SOL    HW226832   4.566   2.194   6.672 -2.1939 -2.2457 -2.3686
 5125SOL     OW26833   3.701   2.617   8.158  0.1439 -0.3800  0.0231
 5125SOL    HW126834   3.703   2.648   8.248 -1.7402  0.4673 -0.2395
 5125SOL    HW226835   3.609   2.592   8.150  0.6459 -3.1682  2.8742
 5126SOL     OW26836   2.688   1.735   9.780 -0.5336 -0.1688  0.3295
 5126SOL    HW126837   2.691   1.656   9.726 -2.4982  0.5982 -0.8748
 5126SOL    HW226838   2.769   1.739   9.831  0.1861 -0.0746 -0.8208
 5127SOL     OW26839   3.616   0.564  10.071 -0.5039  0.0652  0.3008
 5127SOL    HW126840   3.578   0.478  10.088 -2.8092  0.9254 -0.4206
 5127SOL    HW226841   3.622   0.598  10.160 -1.0136 -3.2959  1.6298
 5128SOL     OW26842   2.200   2.738   3.133 -0.1655  0.3447  0.4069
 5128SOL    HW126843   2.205   2.814   3.075  1.4536 -0.6580 -0.7565
 5128SOL    HW226844   2.287   2.740   3.173  0.2319 -2.8606 -0.2979
 5129SOL     OW26845   2.334   1.669   2.987  0.0524  0.4545  0.2469
 5129SOL    HW126846   2.297   1.629   3.066  2.2099  1.6940  1.8791
 5129SOL    HW226847   2.367   1.748   3.030 -0.1541  1.8909 -2.1972
 5130SOL     OW26848   4.468   0.069   4.894  0.5048 -0.4056 -0.0609
 5130SOL    HW126849   4.554   0.028   4.889  1.5986  1.8126  0.7763
 5130SOL    HW226850   4.468   0.144   4.835  2.3528  1.2039  2.0189
 5131SOL     OW26851   2.596   2.627   6.518 -0.1479 -0.1688  0.3549
 5131SOL    HW126852   2.578   2.546   6.471 -0.1161 -0.7565  1.3528
 5131SOL    HW226853   2.522   2.640   6.578 -1.7465 -1.0944 -1.4389
 5132SOL     OW26854   1.019   2.582   0.123  0.4435 -0.3539 -0.1220
 5132SOL    HW126855   0.985   2.498   0.093  2.6349 -1.1239 -0.4973
 5132SOL    HW226856   0.946   2.640   0.103  0.5731  0.1431  0.8388
 5133SOL     OW26857   0.814   2.714  12.410 -0.1762 -0.5313  0.6419
 5133SOL    HW126858   0.776   2.746  12.328 -2.2177  1.3456  2.3252
 5133SOL    HW226859   0.738   2.733  12.465 -1.6839 -1.1975 -1.2122
 5134SOL     OW26860   3.210   0.517  13.852 -0.3450  0.2142 -0.2077
 5134SOL    HW126861   3.290   0.566  13.868  0.4311 -1.4052  0.8312
 5134SOL    HW226862   3.197   0.519  13.757 -3.6543 -0.4722  0.2189
 5135SOL     OW26863   3.738   3.255   2.260  0.8126 -0.0261 -0.2544
 5135SOL    HW126864   3.721   3.349   2.253  0.2717 -0.0639  0.4766
 5135SOL    HW226865   3.722   3.223   2.172  1.4426  0.9477 -0.7321
 5136SOL     OW26866   0.657   4.258   1.187 -0.2235  0.0509  0.0501
 5136SOL    HW126867   0.638   4.289   1.098  0.6661  0.3149 -0.0517
 5136SOL    HW226868   0.745   4.221   1.174  0.1525  1.1594 -0.5490
 5137SOL     OW26869   1.908   0.430   0.956 -0.8162 -0.1506 -0.7300
 5137SOL    HW126870   1.919   0.517   0.996 -0.0859 -1.0359  1.0032
 5137SOL    HW226871   1.925   0.445   0.863  0.1701  1.9722 -0.1969
 5138SOL     OW26872   0.503   1.463  11.061  0.2871 -0.5974  1.0494
 5138SOL    HW126873   0.515   1.386  11.005 -0.6805  0.3751 -0.4935
 5138SOL    HW226874   0.441   1.521  11.018 -1.4501 -2.1736  1.4391
 5139SOL     OW26875   1.448   2.945  17.012  0.5299 -0.0814  0.0043
 5139SOL    HW126876   1.353   2.946  16.996  0.5620  1.7906 -0.0530
 5139SOL    HW226877   1.451   2.993  17.094 -3.5184 -1.5820  1.0464
 5140SOL     OW26878   4.011   0.963   2.923  0.8803  0.1358 -0.0621
 5140SOL    HW126879   3.991   0.976   3.016 -0.5905 -0.3740 -0.3077
 5140SOL    HW226880   4.091   1.015   2.913  0.3627  0.5521 -1.9260
 5141SOL     OW26881   3.554   4.302  13.129 -0.5755  0.2246  0.2071
 5141SOL    HW126882   3.604   4.378  13.097 -2.0490  0.9407 -0.4327
 5141SOL    HW226883   3.515   4.336  13.209 -1.6534  1.0305 -0.6504
 5142SOL     OW26884   1.063   1.702   9.679  0.6788  0.1884 -0.6694
 5142SOL    HW126885   1.023   1.629   9.727 -2.6635  0.9030 -2.3398
 5142SOL    HW226886   1.095   1.744   9.758  0.8393 -0.9212 -0.1492
 5143SOL     OW26887   3.606   1.419   3.216  0.3405 -0.3927 -0.2075
 5143SOL    HW126888   3.672   1.487   3.202  0.7575 -0.6348  0.5919
 5143SOL    HW226889   3.529   1.451   3.170  0.5948  1.1693  0.4684
 5144SOL     OW26890   1.462   1.235   7.967 -0.0767 -0.1338 -0.2033
 5144SOL    HW126891   1.556   1.236   7.982 -0.2663  3.5678  0.6526
 5144SOL    HW226892   1.439   1.204   8.055  1.3908  0.4127  0.3601
 5145SOL     OW26893   1.033   3.212   1.806  0.2297 -0.2341  0.2394
 5145SOL    HW126894   0.986   3.249   1.881 -1.5121  0.7552 -1.3324
 5145SOL    HW226895   0.955   3.186   1.757  1.3314 -3.1711  0.0840
 5146SOL     OW26896   1.187   2.761  12.814  0.1725  0.1288 -0.6406
 5146SOL    HW126897   1.130   2.733  12.742  0.4447 -1.1514 -0.3593
 5146SOL    HW226898   1.247   2.826  12.779 -2.0744  2.3105 -0.3928
 5147SOL     OW26899   4.546   2.373   2.394 -0.6479 -0.2269 -0.6484
 5147SOL    HW126900   4.456   2.349   2.415 -1.5227  2.0638 -1.7815
 5147SOL    HW226901   4.533   2.464   2.419  2.2383  0.0460 -0.1100
 5148SOL     OW26902   1.222   0.792  15.626  0.1859 -0.0057  0.5197
 5148SOL    HW126903   1.306   0.777  15.669  0.7522 -1.7131 -1.1562
 5148SOL    HW226904   1.180   0.848  15.691  2.7669  0.3098  1.8947
 5149SOL     OW26905   2.026   4.514   3.386 -0.0297 -0.1502 -0.0414
 5149SOL    HW126906   2.081   4.440   3.358  0.4020  0.4212 -0.7232
 5149SOL    HW226907   2.055   4.526   3.476 -0.1583  0.9224 -0.1427
 5150SOL     OW26908   2.145   2.546   0.012 -0.5901  0.2117 -0.4490
 5150SOL    HW126909   2.150   2.555  17.615 -1.9749 -2.0507 -0.7263
 5150SOL    HW226910   2.052   2.522   0.020 -0.5317 -0.5759 -2.1414
 5151SOL     OW26911   2.683   3.027   7.196  0.3111 -0.2807 -0.3625
 5151SOL    HW126912   2.716   3.038   7.107 -1.1918  0.5273 -0.8109
 5151SOL    HW226913   2.593   3.006   7.169  0.1295 -0.8867  0.6866
 5152SOL     OW26914   4.659   1.131  17.268  0.3835 -0.0194  0.2811
 5152SOL    HW126915   4.620   1.059  17.317 -1.8774 -0.6089 -2.3956
 5152SOL    HW226916   4.656   1.208  17.326  1.0101 -0.3949  0.8081
 5153SOL     OW26917   0.775   0.678   2.717  0.3709  0.0155  0.0730
 5153SOL    HW126918   0.823   0.757   2.690  3.6040 -2.0631 -0.3024
 5153SOL    HW226919   0.843   0.614   2.696  2.4889  1.1207  3.4590
 5154SOL     OW26920   2.333   0.102  10.900 -0.0556  0.2561  0.5660
 5154SOL    HW126921   2.284   0.120  10.819 -0.1579 -1.9705  0.1298
 5154SOL    HW226922   2.405   0.052  10.861 -0.9529 -0.9232  0.3977
 5155SOL     OW26923   3.817   3.741   2.089 -0.1707 -0.0011 -0.2173
 5155SOL    HW126924   3.812   3.707   2.000 -1.1822  0.3967 -0.3127
 5155SOL    HW226925   3.794   3.834   2.086 -0.0363 -0.0386 -1.9174
 5156SOL     OW26926   1.586   0.441   3.840 -0.5094 -0.0617 -0.1778
 5156SOL    HW126927   1.494   0.419   3.827 -0.6493  1.2584 -1.2851
 5156SOL    HW226928   1.622   0.354   3.824 -0.0276  0.4412 -1.8024
 5157SOL     OW26929   4.660   3.089   1.389  0.2043 -0.5605 -0.1181
 5157SOL    HW126930   4.617   3.033   1.453 -0.4083 -0.4888 -0.4698
 5157SOL    HW226931   4.616   3.069   1.306 -0.2605 -1.8868  0.4608
 5158SOL     OW26932   3.838   2.883   6.705  0.2976  0.0912  0.5207
 5158SOL    HW126933   3.742   2.878   6.710  0.2294  0.3639 -0.4797
 5158SOL    HW226934   3.866   2.859   6.793  1.1177  0.5321  0.3822
 5159SOL     OW26935   2.847   4.670   8.409 -0.0718  0.1116  0.0785
 5159SOL    HW126936   2.935   4.707   8.419  0.7011 -2.2082  1.7586
 5159SOL    HW226937   2.849   4.586   8.455  0.6935  0.5664  0.8889
 5160SOL     OW26938   3.715   4.276   3.512 -0.4530  0.0583 -0.1068
 5160SOL    HW126939   3.713   4.268   3.607  0.5349 -1.3759 -0.1973
 5160SOL    HW226940   3.809   4.278   3.491 -0.4088 -1.2897 -0.0611
 5161SOL     OW26941   2.191   3.067   0.593  0.0762 -0.2614  0.7842
 5161SOL    HW126942   2.137   3.145   0.577 -2.0256 -1.4995  1.8804
 5161SOL    HW226943   2.240   3.070   0.511  1.7728  1.2834  1.8518
 5162SOL     OW26944   2.106   4.598   8.638  0.3179 -0.3844 -0.0510
 5162SOL    HW126945   2.196   4.568   8.654  0.3705  0.0311  0.4606
 5162SOL    HW226946   2.110   4.675   8.695 -1.1276 -0.1219 -0.3124
 5163SOL     OW26947   3.838   1.851   7.259 -0.3320  0.0281 -0.3125
 5163SOL    HW126948   3.863   1.759   7.262 -2.6868 -0.6178 -0.3489
 5163SOL    HW226949   3.897   1.900   7.316  1.9539 -2.9095 -0.1811
 5164SOL     OW26950   0.940   1.087   5.126  0.4130  0.4017 -0.5020
 5164SOL    HW126951   0.994   1.073   5.204  1.1984  0.5546 -1.0112
 5164SOL    HW226952   0.866   1.027   5.128  0.2990  0.6156  2.1129
 5165SOL     OW26953   3.288   0.078   5.368 -0.2411 -1.0794 -0.2749
 5165SOL    HW126954   3.263   0.135   5.440  1.6052  0.1395 -0.6001
 5165SOL    HW226955   3.203   0.033   5.367 -1.0836  0.5215 -2.2290
 5166SOL     OW26956   2.773   2.246   6.097  0.9564 -0.3249  0.1752
 5166SOL    HW126957   2.832   2.229   6.170 -1.7588  0.6799  2.6075
 5166SOL    HW226958   2.709   2.182   6.127 -1.4318  1.0912 -1.8502
 5167SOL     OW26959   1.675   1.560   7.673  0.1127 -0.5771 -0.1246
 5167SOL    HW126960   1.635   1.543   7.758 -0.9250  0.0618 -0.4921
 5167SOL    HW226961   1.646   1.641   7.632 -1.3734 -1.3636 -0.6163
 5168SOL     OW26962   4.257   0.931   9.006 -0.1316 -0.1531 -0.0719
 5168SOL    HW126963   4.233   0.938   8.914 -1.0279 -1.0427  0.0872
 5168SOL    HW226964   4.312   1.008   9.014 -3.2859  1.8438  2.2810
 5169SOL     OW26965   3.773   0.645  13.411 -0.4346 -0.0615  0.2669
 5169SOL    HW126966   3.779   0.550  13.420 -0.5900 -0.2241 -1.3455
 5169SOL    HW226967   3.680   0.660  13.424 -0.1612  2.8880 -1.2838
 5170SOL     OW26968   0.328   1.266   5.045  0.3518  0.2979  0.4765
 5170SOL    HW126969   0.350   1.196   5.106  1.9829  1.1311  0.8326
 5170SOL    HW226970   0.405   1.323   5.042  2.1052 -2.1378  0.2315
 5171SOL     OW26971   2.261   1.337   3.926 -0.3639  0.3713  0.4003
 5171SOL    HW126972   2.316   1.371   3.855 -1.3016 -1.0775 -0.9961
 5171SOL    HW226973   2.274   1.245   3.905 -1.2030 -0.0060  1.5573
 5172SOL     OW26974   1.639   0.313   4.393  0.3186  0.0033 -0.2904
 5172SOL    HW126975   1.624   0.231   4.345 -0.5759 -0.8304  1.4399
 5172SOL    HW226976   1.721   0.333   4.348 -0.1564  1.3722 -0.5455
 5173SOL     OW26977   2.710   0.764   5.920 -0.0069  0.0123  0.3630
 5173SOL    HW126978   2.640   0.717   5.966  0.2173 -1.7824 -1.1570
 5173SOL    HW226979   2.743   0.693   5.866  0.3823  1.0344 -0.7286
 5174SOL     OW26980   1.246   4.550   8.855  0.6339 -0.0351 -0.0747
 5174SOL    HW126981   1.259   4.636   8.895 -0.1216  0.0036  0.0834
 5174SOL    HW226982   1.177   4.582   8.797 -0.5508 -1.3091  0.6448
 5175SOL     OW26983   3.180   1.488   5.106  0.1255  0.0192  0.0847
 5175SOL    HW126984   3.173   1.485   5.010  3.2054  1.9169 -0.2311
 5175SOL    HW226985   3.218   1.576   5.113  0.7224 -0.4751  2.8732
 5176SOL     OW26986   3.003   3.836   2.785 -0.4784 -0.1011  0.1485
 5176SOL    HW126987   3.009   3.744   2.808 -0.5804  0.3092  1.7949
 5176SOL    HW226988   2.987   3.838   2.690 -1.3046 -0.9381  0.2840
 5177SOL     OW26989   4.191   3.271  14.497 -0.7375 -0.0406  0.2844
 5177SOL    HW126990   4.223   3.181  14.501  0.3376  0.3158 -0.3191
 5177SOL    HW226991   4.238   3.311  14.570 -0.7544 -2.6834  1.7570
 5178SOL     OW26992   1.753   4.719   1.982 -0.2500  0.5823 -0.5291
 5178SOL    HW126993   1.750   4.670   1.900 -1.4932 -0.4116  0.1102
 5178SOL    HW226994   1.808   0.065   1.946  0.7725 -1.0350 -2.0631
 5179SOL     OW26995   1.107   3.744   5.592 -0.0521  0.4739  0.2472
 5179SOL    HW126996   1.163   3.808   5.637 -0.2906 -0.1580  1.4408
 5179SOL    HW226997   1.128   3.765   5.500 -1.4250 -3.0678 -0.8479
 5180SOL     OW26998   1.569   2.428   4.931  0.3727  0.0927  0.3071
 5180SOL    HW126999   1.557   2.352   4.988  1.5180  0.6397  1.2643
 5180SOL    HW227000   1.527   2.397   4.850  2.9553  0.0782 -1.0345
 5181SOL     OW27001   0.772   2.403  15.282  0.3328 -0.6015  0.5144
 5181SOL    HW127002   0.697   2.344  15.292  1.1181 -1.7931 -0.5421
 5181SOL    HW227003   0.846   2.345  15.263 -1.1173 -2.0910 -0.6077
 5182SOL     OW27004   3.132   3.028  13.219 -0.1242 -0.2435 -0.3054
 5182SOL    HW127005   3.071   3.092  13.182  0.5822  0.4442 -0.3003
 5182SOL    HW227006   3.218   3.071  13.218  0.0028 -0.4204  1.6586
 5183SOL     OW27007   1.543   2.196   4.769  0.4163  0.2203  0.1644
 5183SOL    HW127008   1.583   2.161   4.849 -1.3709 -0.5419  0.7302
 5183SOL    HW227009   1.452   2.193   4.800  0.2984  0.8344 -0.1310
 5184SOL     OW27010   3.126   1.696  16.376 -0.3013 -0.7812  0.0121
 5184SOL    HW127011   3.109   1.747  16.297 -0.4593 -2.1301 -0.8373
 5184SOL    HW227012   3.128   1.773  16.432 -1.1729 -0.9294  0.2497
 5185SOL     OW27013   4.432   1.461   8.977 -0.1774 -0.0016  0.5002
 5185SOL    HW127014   4.391   1.475   9.063  0.4892  0.4497  0.7399
 5185SOL    HW227015   4.381   1.521   8.921 -2.1591  1.3805  3.7875
 5186SOL     OW27016   4.528   4.709  14.817 -0.0537  0.1592  0.6770
 5186SOL    HW127017   4.606   0.039  14.824  1.4168 -1.7386 -1.1497
 5186SOL    HW227018   4.461   0.044  14.853 -0.7250  0.0995 -0.4693
 5187SOL     OW27019   3.804   4.211   8.957 -0.2497 -0.5616  0.0261
 5187SOL    HW127020   3.746   4.179   9.027 -1.7184  0.8661 -0.5139
 5187SOL    HW227021   3.742   4.211   8.884 -0.2804  3.2654  0.0409
 5188SOL     OW27022   0.179   2.034   7.926 -0.0422 -0.0793 -0.0022
 5188SOL    HW127023   0.180   1.939   7.941 -0.3829 -0.3004 -1.4521
 5188SOL    HW227024   0.108   2.056   7.985  0.5994 -0.8674  1.0837
 5189SOL     OW27025   4.550   1.546  17.670 -0.2896  0.8046 -0.2451
 5189SOL    HW127026   4.469   1.593  17.688 -0.3783  0.1407  1.0371
 5189SOL    HW227027   4.556   1.482   0.043  2.0373 -0.2989 -1.4271
 5190SOL     OW27028   1.500   2.494  10.166 -0.0278  0.2986 -0.6175
 5190SOL    HW127029   1.483   2.575  10.214 -1.7555  0.3485 -1.3107
 5190SOL    HW227030   1.481   2.433  10.238 -1.3929  0.2228 -1.0542
 5191SOL     OW27031   1.103   2.299   5.249  0.1001  0.5840  0.2789
 5191SOL    HW127032   1.080   2.308   5.341  0.2635 -3.7581  0.7450
 5191SOL    HW227033   1.109   2.390   5.219 -0.0367  0.6313  0.3947
 5192SOL     OW27034   0.839   0.531   5.621  0.4119  0.0183  0.4963
 5192SOL    HW127035   0.814   0.452   5.574 -0.0584  2.0611 -2.7344
 5192SOL    HW227036   0.918   0.502   5.666 -0.0137 -0.5280  0.8839
 5193SOL     OW27037   3.219   3.575   7.443 -0.7071 -0.2141  0.2815
 5193SOL    HW127038   3.154   3.558   7.375  0.0071 -1.0624 -0.2032
 5193SOL    HW227039   3.179   3.636   7.505 -0.5700 -0.3597  0.5135
 5194SOL     OW27040   2.342   3.049   0.380 -0.5307 -0.1155  0.2215
 5194SOL    HW127041   2.414   2.987   0.392  0.3477  1.3072  2.2695
 5194SOL    HW227042   2.388   3.132   0.372 -2.3060  0.8399 -0.0604
 5195SOL     OW27043   1.504   0.786   8.261  0.1521 -0.5405  0.0719
 5195SOL    HW127044   1.543   0.716   8.208  2.4732  0.4143  0.5149
 5195SOL    HW227045   1.566   0.858   8.250 -0.1959 -0.1752  0.5467
 5196SOL     OW27046   1.063   2.809   3.324  0.6061 -0.0323 -0.7135
 5196SOL    HW127047   1.101   2.724   3.348  0.5449 -0.4685 -2.2082
 5196SOL    HW227048   1.123   2.836   3.255  1.7305 -0.0257  0.2561
 5197SOL     OW27049   0.619   0.397  13.785 -0.3215  0.1577 -0.4563
 5197SOL    HW127050   0.572   0.478  13.765 -0.6150 -0.0762 -0.7269
 5197SOL    HW227051   0.572   0.355  13.857 -0.1169  1.1206  0.2360
 5198SOL     OW27052   3.256   0.222   7.442  0.2682 -0.6409 -0.1032
 5198SOL    HW127053   3.286   0.228   7.351 -1.7186 -1.2191 -0.7999
 5198SOL    HW227054   3.215   0.308   7.449  0.6383 -0.7129  2.8303
 5199SOL     OW27055   2.725   3.307   3.933 -0.9727 -0.1731  0.0010
 5199SOL    HW127056   2.661   3.297   3.862  1.3643 -2.1033 -1.8383
 5199SOL    HW227057   2.666   3.311   4.008 -1.8802  1.0912 -0.7501
 5200SOL     OW27058   2.539   3.719   2.071 -0.4346 -0.1775  0.1767
 5200SOL    HW127059   2.605   3.789   2.068 -0.8091  0.1429 -0.4279
 5200SOL    HW227060   2.494   3.743   2.152 -1.7649  1.8332 -1.1726
 5201SOL     OW27061   2.540   1.036   3.693 -0.4009  0.0195 -0.2435
 5201SOL    HW127062   2.475   0.967   3.685 -0.6489  0.4386 -1.8722
 5201SOL    HW227063   2.599   0.986   3.750  0.8160  2.7945  0.9298
 5202SOL     OW27064   1.640   1.222  10.280 -0.2658  0.6721 -0.6019
 5202SOL    HW127065   1.590   1.301  10.300 -0.0628  0.3837  1.0063
 5202SOL    HW227066   1.613   1.158  10.346 -1.5755  1.3694 -0.4608
 5203SOL     OW27067   1.705   1.428   2.738  0.3395 -0.0469  0.5346
 5203SOL    HW127068   1.672   1.423   2.648  2.3118  2.3323 -0.3037
 5203SOL    HW227069   1.785   1.477   2.721  0.5438 -1.2134 -1.8480
 5204SOL     OW27070   2.480   4.276  16.319  0.0322 -0.2136 -0.6771
 5204SOL    HW127071   2.435   4.192  16.328 -2.8221  1.2129 -1.8360
 5204SOL    HW227072   2.558   4.258  16.266  0.7623 -0.2227  0.4016
 5205SOL     OW27073   4.297   2.552   4.373  0.4624 -0.1374 -0.0544
 5205SOL    HW127074   4.349   2.628   4.346  2.2280 -0.7855  1.5797
 5205SOL    HW227075   4.273   2.522   4.285 -2.0279  0.8703  0.2971
 5206SOL     OW27076   2.484   2.370  14.456 -0.1946  0.0668  0.2646
 5206SOL    HW127077   2.463   2.289  14.502 -0.8936  0.4686  0.6566
 5206SOL    HW227078   2.463   2.432  14.525  3.1326 -0.0388  1.3380
 5207SOL     OW27079   3.340   4.651   6.701  0.1082  0.2014  0.3383
 5207SOL    HW127080   3.310   4.641   6.611 -2.1298  1.2544  0.9802
 5207SOL    HW227081   3.429   4.616   6.702 -0.4700 -1.2020  2.5362
 5208SOL     OW27082   2.468   2.734   3.148  0.1099 -0.0564 -0.1761
 5208SOL    HW127083   2.520   2.665   3.189 -1.0102 -0.9980 -0.3124
 5208SOL    HW227084   2.535   2.785   3.104  0.2161  0.7953  0.9744
 5209SOL     OW27085   4.119   4.689  15.429 -0.4339 -0.2555  0.0596
 5209SOL    HW127086   4.149   4.601  15.455  1.0015  0.4501  0.7859
 5209SOL    HW227087   4.105   4.719  15.518  0.5520  0.1113  0.0898
 5210SOL     OW27088   1.276   2.667   1.412  0.0923 -0.3115 -0.0843
 5210SOL    HW127089   1.225   2.655   1.333 -1.5252 -1.1962  1.0994
 5210SOL    HW227090   1.298   2.576   1.430 -2.3860 -0.7670  0.5163
 5211SOL     OW27091   3.808   4.262  14.252  0.7073 -0.5923 -0.4570
 5211SOL    HW127092   3.717   4.287  14.233  1.2561  2.2513  0.5479
 5211SOL    HW227093   3.853   4.282  14.170 -0.4248 -0.5908 -1.0863
 5212SOL     OW27094   3.652   0.246   5.627  0.0563  0.4222  0.0744
 5212SOL    HW127095   3.623   0.164   5.588 -2.1593  1.2205  0.0705
 5212SOL    HW227096   3.593   0.307   5.583 -0.8465 -1.1280 -0.8234
 5213SOL     OW27097   1.362   0.483   5.870  0.1320 -0.0377 -0.1718
 5213SOL    HW127098   1.315   0.500   5.788  0.9595  3.9729  0.1792
 5213SOL    HW227099   1.436   0.427   5.846  0.5675  0.1176  0.8079
 5214SOL     OW27100   4.029   1.009   3.767 -0.1556 -0.3282 -0.1305
 5214SOL    HW127101   4.011   1.094   3.806 -0.2871 -0.2447 -0.3688
 5214SOL    HW227102   4.069   0.966   3.842 -0.2095  0.3956  0.3126
 5215SOL     OW27103   1.422   1.741   6.342 -0.6598 -0.1431 -0.1199
 5215SOL    HW127104   1.417   1.646   6.330  0.8196 -0.4321  1.5002
 5215SOL    HW227105   1.366   1.759   6.266 -2.8379 -0.2779  1.4395
 5216SOL     OW27106   1.898   1.214   5.764 -0.3505  0.0982 -0.3601
 5216SOL    HW127107   1.827   1.161   5.801 -0.8194  0.4223 -0.7921
 5216SOL    HW227108   1.968   1.185   5.822 -0.6237  0.9971  0.4068
 5217SOL     OW27109   2.483   2.785   4.500 -0.1880 -0.5118  0.3304
 5217SOL    HW127110   2.573   2.817   4.502  0.3068 -1.8841  0.1323
 5217SOL    HW227111   2.479   2.720   4.430  0.5079 -0.2034  0.0022
 5218SOL     OW27112   4.595   1.534   3.023 -0.4297  0.2305  0.3686
 5218SOL    HW127113   4.684   1.528   3.057  0.1306  1.0743 -0.9572
 5218SOL    HW227114   4.614   1.493   2.939 -1.0911  0.0974  0.2856
 5219SOL     OW27115   1.969   3.239   1.488  0.0799  0.6323 -0.4069
 5219SOL    HW127116   1.914   3.237   1.566  1.0547 -1.0492  0.2438
 5219SOL    HW227117   2.045   3.192   1.523  0.5023  2.8260  1.6143
 5220SOL     OW27118   0.539   2.237   5.893 -0.5016 -0.5369  0.2055
 5220SOL    HW127119   0.552   2.225   5.987  0.3878  2.3356  0.4330
 5220SOL    HW227120   0.615   2.187   5.863  1.9722  2.2133  1.9146
 5221SOL     OW27121   2.980   4.708   2.614  0.0149 -0.3873  0.1944
 5221SOL    HW127122   3.061   0.023   2.583  0.4854 -0.4686  1.3058
 5221SOL    HW227123   3.016   4.670   2.694  3.9654  0.2870 -1.2554
 5222SOL     OW27124   2.894   2.142  12.167  0.2729 -0.9680 -0.0382
 5222SOL    HW127125   2.854   2.184  12.092 -0.7291 -0.4532  0.7789
 5222SOL    HW227126   2.818   2.093  12.201 -0.1111  0.7125  1.5084
 5223SOL     OW27127   0.928   2.976  13.924  0.3034  0.0647 -0.1577
 5223SOL    HW127128   0.935   3.059  13.971  0.7688 -0.8681  1.4272
 5223SOL    HW227129   0.834   2.970  13.908  0.0426  2.4881  0.5475
 5224SOL     OW27130   4.153   2.629   2.273  0.1178 -0.1727  0.2387
 5224SOL    HW127131   4.099   2.708   2.266  0.6270  0.1898  0.3696
 5224SOL    HW227132   4.117   2.570   2.207  0.0093 -0.7756  0.8406
 5225SOL     OW27133   1.825   1.221   5.340 -0.2155 -0.1930  0.0476
 5225SOL    HW127134   1.868   1.262   5.265  0.4700 -1.1205 -0.0725
 5225SOL    HW227135   1.881   1.144   5.348 -0.6219 -0.5850 -0.8166
 5226SOL     OW27136   1.604   4.230   3.959 -0.4077 -0.2478  0.8168
 5226SOL    HW127137   1.575   4.141   3.979  2.3971 -1.2233  0.6607
 5226SOL    HW227138   1.531   4.268   3.912  0.2122  1.1921  1.0234
 5227SOL     OW27139   2.964   2.416   6.012  0.0453  0.3958  0.0082
 5227SOL    HW127140   2.873   2.385   6.006 -0.1748  0.7509  1.5288
 5227SOL    HW227141   2.981   2.384   6.100 -0.6105 -2.1880 -0.7887
 5228SOL     OW27142   2.435   2.880  12.107  0.5388  0.3256  0.1172
 5228SOL    HW127143   2.440   2.972  12.133 -1.0424 -0.1982  2.2894
 5228SOL    HW227144   2.403   2.837  12.187  0.4653 -0.4281 -0.3211
 5229SOL     OW27145   0.012   3.794  11.228 -0.3860  0.0363  0.0800
 5229SOL    HW127146   0.093   3.755  11.262 -1.3003 -1.1249  0.9342
 5229SOL    HW227147   4.710   3.837  11.309 -0.7041  1.4144 -0.7612
 5230SOL     OW27148   0.082   1.855   1.104 -0.4207  0.2327 -0.1842
 5230SOL    HW127149   0.161   1.803   1.087 -0.4246  0.3844 -0.6611
 5230SOL    HW227150   0.016   1.791   1.079  0.0718  0.4825 -2.1321
 5231SOL     OW27151   3.439   1.624   5.270 -0.2174 -0.0671 -0.1554
 5231SOL    HW127152   3.391   1.542   5.258 -0.5502  0.2210 -0.8111
 5231SOL    HW227153   3.521   1.590   5.236  0.0043  1.1283 -0.8112
 5232SOL     OW27154   2.154   0.908   0.532 -0.2373 -0.2385  0.7410
 5232SOL    HW127155   2.239   0.944   0.555  0.0982  0.6251 -1.8271
 5232SOL    HW227156   2.167   0.813   0.538 -0.8944 -0.2988  1.1625
 5233SOL     OW27157   1.438   0.053   2.840  0.5310  0.4561 -0.2307
 5233SOL    HW127158   1.492   0.040   2.762  1.0678 -0.8854  0.3821
 5233SOL    HW227159   1.389   4.695   2.838  0.6670  0.4424 -3.0206
 5234SOL     OW27160   2.406   0.105   4.304 -0.0826 -0.1742  0.8852
 5234SOL    HW127161   2.475   0.039   4.303  0.2866  0.2468 -0.5304
 5234SOL    HW227162   2.423   0.161   4.229 -0.5546 -2.6845 -1.1088
 5235SOL     OW27163   3.277   1.035   6.353  0.0879 -0.5323 -0.4999
 5235SOL    HW127164   3.196   1.065   6.396  0.8850  1.2895 -0.2381
 5235SOL    HW227165   3.347   1.056   6.415 -2.4593 -0.0531  2.2403
 5236SOL     OW27166   2.618   2.639  12.049  0.8073  0.2502 -0.1586
 5236SOL    HW127167   2.552   2.709  12.051 -0.0291 -0.5557  0.1545
 5236SOL    HW227168   2.686   2.686  12.098  1.1454 -0.3019 -0.1033
 5237SOL     OW27169   2.197   1.336   6.386 -0.4903 -0.2623  0.5282
 5237SOL    HW127170   2.212   1.327   6.292  3.2497 -1.4895  1.2191
 5237SOL    HW227171   2.121   1.393   6.379  0.3779  0.4794 -2.9839
 5238SOL     OW27172   0.180   1.021   9.604 -0.0245  0.1880  0.1851
 5238SOL    HW127173   0.240   1.095   9.591  1.4792 -0.9157  0.7734
 5238SOL    HW227174   0.092   1.054   9.586 -0.0825 -0.4010 -0.6166
 5239SOL     OW27175   3.749   0.963   8.357  0.5007  0.1648  0.2648
 5239SOL    HW127176   3.760   1.003   8.443 -1.0588  2.0486 -0.4170
 5239SOL    HW227177   3.825   0.998   8.310  0.1885  1.6312  0.8593
 5240SOL     OW27178   2.127   0.227   6.246 -0.0541 -0.0305  0.1529
 5240SOL    HW127179   2.054   0.245   6.305  1.4719  0.9807  1.7285
 5240SOL    HW227180   2.131   0.305   6.190  2.1688  1.3953  2.2629
 5241SOL     OW27181   1.614   1.761   7.291  0.2305  0.6208 -0.2097
 5241SOL    HW127182   1.583   1.845   7.257  0.7519  0.6918 -0.4973
 5241SOL    HW227183   1.637   1.799   7.376 -0.4944  1.5129 -0.4067
 5242SOL     OW27184   0.602   3.211   8.679  0.6120 -0.4249 -0.1661
 5242SOL    HW127185   0.688   3.239   8.711  0.3646  0.2863 -0.1088
 5242SOL    HW227186   0.576   3.156   8.753  0.3005 -1.1328 -0.8014
 5243SOL     OW27187   3.466   4.030   4.058 -0.1955  0.0311 -0.1500
 5243SOL    HW127188   3.511   4.034   4.142 -1.7622 -0.9609  0.7430
 5243SOL    HW227189   3.545   4.028   4.005  0.7745  0.9794  1.2819
 5244SOL     OW27190   3.762   3.776   3.943 -0.1224  0.5433  0.1671
 5244SOL    HW127191   3.781   3.722   4.019 -0.1333  1.3114  0.7233
 5244SOL    HW227192   3.791   3.712   3.879  0.7045  0.3214  0.7731
 5245SOL     OW27193   0.331   0.957   7.827 -0.0007 -0.4935 -0.3012
 5245SOL    HW127194   0.257   1.010   7.856  1.6822  1.1151  0.9994
 5245SOL    HW227195   0.287   0.889   7.774  1.4517 -0.6054 -1.3538
 5246SOL     OW27196   0.512   0.754   1.903  0.0955  0.0707  0.1097
 5246SOL    HW127197   0.477   0.734   1.990 -1.3266  4.5874  0.5606
 5246SOL    HW227198   0.593   0.704   1.907  1.1760  1.8045 -0.7481
 5247SOL     OW27199   0.320   0.972   4.744 -0.8591 -0.3428 -0.2939
 5247SOL    HW127200   0.235   1.016   4.731 -1.3429 -2.3150 -3.8594
 5247SOL    HW227201   0.370   1.047   4.712  0.0934 -1.6840 -1.9215
 5248SOL     OW27202   4.222   2.697   7.309 -0.9556  0.1258  0.1312
 5248SOL    HW127203   4.163   2.652   7.248  0.2868 -0.8303 -0.3668
 5248SOL    HW227204   4.285   2.627   7.326 -0.5006  0.8587  1.4495
 5249SOL     OW27205   2.119   4.395  15.344 -0.2436  0.4807 -0.3048
 5249SOL    HW127206   2.166   4.321  15.306  0.7612  1.9406 -1.8950
 5249SOL    HW227207   2.174   4.425  15.416 -0.0545 -1.0175  0.1669
 5250SOL     OW27208   4.361   0.064  16.680  0.5465  0.2700  0.1512
 5250SOL    HW127209   4.436   0.030  16.632  0.7208  1.0400 -0.1247
 5250SOL    HW227210   4.394   0.153  16.694 -0.2383  0.3328  1.6033
 5251SOL     OW27211   0.653   2.586   2.884 -1.2108  0.0402  0.2193
 5251SOL    HW127212   0.644   2.553   2.795  0.3464  0.2693 -0.0193
 5251SOL    HW227213   0.563   2.589   2.917 -0.9394 -1.9163  1.0979
 5252SOL     OW27214   4.223   1.815   1.555  0.1600  0.3996 -0.1690
 5252SOL    HW127215   4.151   1.878   1.565 -0.3364 -0.6797  3.0534
 5252SOL    HW227216   4.231   1.817   1.460 -0.6767  1.8002 -0.2252
 5253SOL     OW27217   0.565   3.826  16.665  0.2738 -0.2789 -0.5580
 5253SOL    HW127218   0.560   3.911  16.621 -0.2796 -1.6391 -3.1268
 5253SOL    HW227219   0.566   3.852  16.757  0.4295 -2.4542  0.0432
 5254SOL     OW27220   1.437   2.214  11.900  0.5514 -0.6474  0.1814
 5254SOL    HW127221   1.475   2.180  11.819  2.0933 -1.0240  1.0696
 5254SOL    HW227222   1.481   2.298  11.913  2.1144 -1.3383 -0.6469
 5255SOL     OW27223   4.302   0.108   2.365 -0.3396 -0.2946  0.4933
 5255SOL    HW127224   4.282   0.201   2.354  0.0536  0.1079  3.0408
 5255SOL    HW227225   4.220   0.069   2.337 -0.4143 -0.0067  0.3034
 5256SOL     OW27226   0.950   4.697   0.634 -0.1497  0.8460 -0.5549
 5256SOL    HW127227   0.930   4.713   0.542  0.0162 -2.2350 -1.1488
 5256SOL    HW227228   1.034   0.018   0.630  2.1628 -3.1423  2.9209
 5257SOL     OW27229   3.372   0.794   8.077 -0.1846 -0.1400  0.4851
 5257SOL    HW127230   3.409   0.821   8.162  1.2994 -0.9523  0.0875
 5257SOL    HW227231   3.280   0.820   8.080 -0.1639  0.3405 -3.3633
 5258SOL     OW27232   4.484   1.808   2.547 -0.5895  0.5282 -0.6150
 5258SOL    HW127233   4.482   1.816   2.451  1.3305 -0.1277 -0.7221
 5258SOL    HW227234   4.448   1.720   2.557 -0.6508  0.7039  0.6476
 5259SOL     OW27235   0.383   1.327  10.148  0.0421 -0.0720 -0.2308
 5259SOL    HW127236   0.394   1.385  10.223 -0.8906  0.2442 -0.3361
 5259SOL    HW227237   0.402   1.388  10.076  3.5563  0.6028  1.2740
 5260SOL     OW27238   1.052   4.182   3.464  0.1097 -0.1522 -0.3311
 5260SOL    HW127239   1.043   4.264   3.513 -2.0454 -0.7087  0.2115
 5260SOL    HW227240   0.965   4.144   3.454  0.2329 -0.2416 -1.0870
 5261SOL     OW27241   2.854   3.332  12.301  0.0377  0.3610 -0.5932
 5261SOL    HW127242   2.783   3.383  12.262 -0.1409  0.8345  0.3663
 5261SOL    HW227243   2.859   3.363  12.391  0.8218  0.3408 -0.6223
 5262SOL     OW27244   4.279   0.958   4.618 -0.1644  0.3093  0.2969
 5262SOL    HW127245   4.372   0.979   4.629 -0.1684 -0.6405  2.1706
 5262SOL    HW227246   4.287   0.876   4.569 -2.0674 -1.1642  2.4306
 5263SOL     OW27247   2.497   4.460   5.141  0.4009  0.0502  0.1881
 5263SOL    HW127248   2.575   4.514   5.132  0.5489 -0.2607 -0.4002
 5263SOL    HW227249   2.504   4.455   5.236 -1.2279  1.8588  0.3940
 5264SOL     OW27250   1.648   0.465   6.893  0.9139  0.1931  1.0712
 5264SOL    HW127251   1.618   0.546   6.933  0.1538  0.7366 -0.6105
 5264SOL    HW227252   1.582   0.456   6.824  0.1892  0.3391  1.7475
 5265SOL     OW27253   3.860   0.057   2.541  0.0318 -0.4331  0.3062
 5265SOL    HW127254   3.774   0.073   2.502  0.5287  0.7256 -0.3241
 5265SOL    HW227255   3.846   0.123   2.609  2.8791  0.3771  0.1072
 5266SOL     OW27256   0.236   0.574  13.894  0.1880 -0.2067 -1.0221
 5266SOL    HW127257   0.255   0.554  13.802 -1.1304  1.2817 -1.6229
 5266SOL    HW227258   0.198   0.661  13.880  2.1004  1.4102  4.0065
 5267SOL     OW27259   1.388   4.121   4.634 -0.3620 -0.4566 -0.7631
 5267SOL    HW127260   1.359   4.120   4.725  0.9124 -2.6989 -0.3875
 5267SOL    HW227261   1.346   4.202   4.604  1.4595 -0.1435 -2.4600
 5268SOL     OW27262   3.007   4.129   5.887  0.2850 -0.1888  0.2372
 5268SOL    HW127263   2.997   4.034   5.899 -0.2724 -0.1406  0.1471
 5268SOL    HW227264   3.103   4.124   5.884  0.2005 -1.3161 -0.7584
 5269SOL     OW27265   4.724   0.354   2.907  0.0909  0.1660 -0.1467
 5269SOL    HW127266   0.047   0.436   2.897 -1.9438  1.2948 -0.4644
 5269SOL    HW227267   4.661   0.365   2.836  0.3056 -2.7404 -0.8057
 5270SOL     OW27268   3.633   3.158   2.007  0.4026  0.0256 -0.3192
 5270SOL    HW127269   3.663   3.079   2.052 -1.9325 -0.6763  0.0027
 5270SOL    HW227270   3.693   3.154   1.933  0.4777  0.5115 -0.2847
 5271SOL     OW27271   3.966   4.104   6.579 -0.0556 -0.2736 -0.4262
 5271SOL    HW127272   3.952   4.021   6.533  2.9715 -0.4885 -0.9500
 5271SOL    HW227273   4.056   4.099   6.611  0.7609  3.4991 -2.1406
 5272SOL     OW27274   2.223   2.426   2.888 -0.1027  0.6315  0.2495
 5272SOL    HW127275   2.312   2.439   2.855  0.4391  4.4255  3.2236
 5272SOL    HW227276   2.211   2.466   2.974  0.7257 -0.6088  0.9436
 5273SOL     OW27277   4.486   3.089   2.227 -0.1809  0.0823  0.4686
 5273SOL    HW127278   4.429   3.163   2.248 -2.2526 -1.1280 -0.8727
 5273SOL    HW227279   4.552   3.099   2.297 -0.2420 -2.7016  0.9197
 5274SOL     OW27280   2.341   3.534   7.783 -0.3289  0.3175 -0.6888
 5274SOL    HW127281   2.273   3.468   7.770 -1.0247  1.1752 -1.4400
 5274SOL    HW227282   2.411   3.503   7.724  1.4939  2.6602  0.2390
 5275SOL     OW27283   2.105   0.763  10.917  0.0517 -0.4499 -0.2672
 5275SOL    HW127284   2.103   0.688  10.978  1.4660  0.4643  0.9034
 5275SOL    HW227285   2.159   0.829  10.960 -0.5376 -1.0164  1.3649
 5276SOL     OW27286   2.931   0.047   6.209  0.0714 -0.3350  0.3097
 5276SOL    HW127287   2.939   4.677   6.225 -0.3306 -0.3759  0.2678
 5276SOL    HW227288   2.929   0.084   6.297  1.7895  1.4943 -0.4029
 5277SOL     OW27289   1.207   4.148   1.269 -0.0324  0.1816 -0.1510
 5277SOL    HW127290   1.164   4.232   1.280 -0.5543  0.0177 -0.9253
 5277SOL    HW227291   1.298   4.166   1.293 -0.3697 -0.4409  1.6257
 5278SOL     OW27292   3.330   3.496   4.340 -0.3249 -0.5065 -0.0540
 5278SOL    HW127293   3.268   3.484   4.412 -2.2816 -1.8285 -1.9634
 5278SOL    HW227294   3.294   3.433   4.278 -0.4559 -0.5535  0.0709
 5279SOL     OW27295   4.605   1.717   3.295  0.1908  0.3728 -0.1113
 5279SOL    HW127296   4.571   1.643   3.344  0.4663  0.6689  0.5243
 5279SOL    HW227297   4.526   1.771   3.283  0.5699  0.3275 -2.8689
 5280SOL     OW27298   2.124   2.236   6.277  0.1772 -0.6969  0.1992
 5280SOL    HW127299   2.208   2.211   6.239  0.0103 -1.0581  0.0696
 5280SOL    HW227300   2.143   2.329   6.292  1.7640 -0.7396 -1.5999
 5281SOL     OW27301   3.282   4.456   2.949  0.0590 -0.1144  0.1810
 5281SOL    HW127302   3.269   4.411   3.033 -0.6600  2.0487  1.2205
 5281SOL    HW227303   3.375   4.432   2.940 -0.8230 -2.6314 -2.0354
 5282SOL     OW27304   2.716   1.086   7.209 -0.4227 -0.8210  0.4054
 5282SOL    HW127305   2.651   1.029   7.250 -0.4462 -2.0622 -1.3752
 5282SOL    HW227306   2.783   1.027   7.174  1.8647  2.3307 -0.5095
 5283SOL     OW27307   2.674   4.557   7.622  0.7053 -0.1339  0.0174
 5283SOL    HW127308   2.653   4.494   7.553  0.4014  1.9291 -1.7984
 5283SOL    HW227309   2.711   4.629   7.570  3.2644 -1.2498  0.2642
 5284SOL     OW27310   0.386   3.353   2.481 -0.0261  0.1540 -0.4271
 5284SOL    HW127311   0.403   3.269   2.439 -1.2077  0.2650 -1.1081
 5284SOL    HW227312   0.324   3.315   2.543  0.0385  0.0586 -0.4212
 5285SOL     OW27313   4.313   4.084   1.699 -0.1052  0.2536 -0.3156
 5285SOL    HW127314   4.378   4.014   1.694 -1.0793 -0.6898  0.4147
 5285SOL    HW227315   4.368   4.151   1.742 -0.1758 -0.5803  1.0854
 5286SOL     OW27316   1.823   2.418   2.558  0.0627 -0.2803  0.4143
 5286SOL    HW127317   1.821   2.341   2.502 -2.9340  1.2946 -1.6136
 5286SOL    HW227318   1.916   2.437   2.572  0.2740 -0.7408 -0.4042
 5287SOL     OW27319   2.478   4.219  14.994 -0.7440 -0.6652  0.2539
 5287SOL    HW127320   2.466   4.204  14.900  0.2130  2.9857 -0.4266
 5287SOL    HW227321   2.518   4.306  14.991  0.2973 -1.1480 -0.0954
 5288SOL     OW27322   2.779   4.097   2.868  0.2443 -0.3587  0.6483
 5288SOL    HW127323   2.732   4.066   2.946 -1.6037  0.5982 -0.0777
 5288SOL    HW227324   2.720   4.077   2.795 -1.9955  1.0537  2.0508
 5289SOL     OW27325   2.794   0.554   4.596  0.2649  0.4949 -0.3597
 5289SOL    HW127326   2.821   0.624   4.656  2.5312  0.4930 -1.3621
 5289SOL    HW227327   2.749   0.498   4.659  0.3390 -0.0634 -0.8092
 5290SOL     OW27328   0.810   2.633   1.203  0.0079  0.6676 -0.2445
 5290SOL    HW127329   0.880   2.648   1.139  1.6343 -1.1471  1.1127
 5290SOL    HW227330   0.834   2.546   1.233 -2.4078 -0.0734 -0.4886
 5291SOL     OW27331   4.346   1.482  13.671  0.1183  0.3104 -0.2999
 5291SOL    HW127332   4.365   1.388  13.670 -2.4505 -0.2178 -0.1744
 5291SOL    HW227333   4.353   1.496  13.577  0.3546  0.6462 -0.2284
 5292SOL     OW27334   0.309   3.085   7.055 -0.1549 -0.0046 -0.0832
 5292SOL    HW127335   0.226   3.043   7.075  0.3085 -0.1226  1.6222
 5292SOL    HW227336   0.290   3.177   7.070 -0.1026 -0.1808  1.1042
 5293SOL     OW27337   2.149   0.101   5.141 -0.1272  0.2318  0.6065
 5293SOL    HW127338   2.203   0.172   5.107 -0.8148  0.8601  0.8197
 5293SOL    HW227339   2.195   0.023   5.109  0.3169  1.5561 -1.9896
 5294SOL     OW27340   2.740   4.361   2.591  0.1241  0.3555 -0.1525
 5294SOL    HW127341   2.704   4.311   2.518 -0.4315  0.3176  0.1490
 5294SOL    HW227342   2.714   4.452   2.577 -0.4215  0.5351  1.9609
 5295SOL     OW27343   2.228   2.330   2.413  0.4049 -0.2143 -0.1582
 5295SOL    HW127344   2.221   2.308   2.320 -1.2763 -1.2056  0.1939
 5295SOL    HW227345   2.314   2.302   2.441  0.0468 -1.2923 -0.1529
 5296SOL     OW27346   2.522   2.265  10.912  0.0028 -0.4393 -0.0697
 5296SOL    HW127347   2.470   2.289  10.835  1.5876  2.3785 -0.2812
 5296SOL    HW227348   2.612   2.281  10.882  0.1019 -1.3274 -0.2350
 5297SOL     OW27349   2.946   1.836  15.090 -0.2660 -0.2337  0.2451
 5297SOL    HW127350   2.875   1.874  15.143  0.8718 -0.3376  1.8287
 5297SOL    HW227351   3.019   1.896  15.098  0.5871 -0.9660 -1.9153
 5298SOL     OW27352   3.257   2.870   7.102  0.1291  0.0136  0.1614
 5298SOL    HW127353   3.204   2.939   7.141 -0.5687 -0.8064  0.6511
 5298SOL    HW227354   3.249   2.804   7.170  0.4444 -3.4906 -3.2453
 5299SOL     OW27355   1.848   0.463   0.664 -0.1929  0.0440  0.1478
 5299SOL    HW127356   1.846   0.399   0.593 -1.3110 -0.5087  0.6748
 5299SOL    HW227357   1.936   0.499   0.670 -1.4612  3.1599  0.4329
 5300SOL     OW27358   1.998   1.422   3.139  0.0167 -0.5309 -0.2130
 5300SOL    HW127359   2.063   1.466   3.194 -0.6934  1.9232 -1.3518
 5300SOL    HW227360   1.927   1.485   3.145 -0.7009 -1.3519 -0.1360
 5301SOL     OW27361   1.258   3.673   2.970  0.2106  0.7802  0.7062
 5301SOL    HW127362   1.316   3.602   2.998  1.0657  0.6625 -1.3789
 5301SOL    HW227363   1.234   3.698   3.060 -0.3427 -1.7208  1.2532
 5302SOL     OW27364   0.858   1.524  14.317 -0.4319  0.1054 -0.0045
 5302SOL    HW127365   0.776   1.562  14.349  0.6511  2.8625 -0.5081
 5302SOL    HW227366   0.840   1.539  14.225 -0.8395 -1.4904 -0.1854
 5303SOL     OW27367   2.006   3.831   3.186  0.3129  0.5999 -0.3555
 5303SOL    HW127368   2.079   3.788   3.140 -0.6558  0.0259 -1.3530
 5303SOL    HW227369   1.947   3.764   3.219  0.8221 -1.0240 -2.7111
 5304SOL     OW27370   1.415   0.601   9.994 -0.1908  0.5286 -0.2710
 5304SOL    HW127371   1.360   0.621  10.069 -0.7935 -0.9185 -0.3212
 5304SOL    HW227372   1.501   0.591  10.036  0.3784 -0.2040 -1.5972
 5305SOL     OW27373   2.457   4.352   9.813 -0.8764 -0.0085  0.3220
 5305SOL    HW127374   2.445   4.365   9.719  1.4690 -1.3252 -0.1443
 5305SOL    HW227375   2.399   4.420   9.850 -0.0915  2.5075 -3.1044
 5306SOL     OW27376   0.524   1.821   7.556 -0.1825  0.2100  0.2459
 5306SOL    HW127377   0.519   1.865   7.641  0.8791 -0.9513  0.8934
 5306SOL    HW227378   0.460   1.753   7.576 -1.5734  1.1545 -0.9106
 5307SOL     OW27379   2.285   2.955   8.671 -0.4133 -0.3891  0.0963
 5307SOL    HW127380   2.357   3.010   8.640 -1.4340 -0.1024 -1.7154
 5307SOL    HW227381   2.258   2.911   8.591 -0.7901 -1.2595  0.7040
 5308SOL     OW27382   2.234   2.922  15.742 -0.1516 -0.7630 -0.5135
 5308SOL    HW127383   2.172   2.863  15.699 -0.0345 -0.6790 -0.7951
 5308SOL    HW227384   2.244   2.873  15.824 -0.5372 -2.0161 -1.2185
 5309SOL     OW27385   3.706   3.516  13.826  0.0647 -0.6501  0.1448
 5309SOL    HW127386   3.773   3.449  13.816  0.0179 -0.6040 -0.4792
 5309SOL    HW227387   3.686   3.544  13.736  1.3621 -1.5672 -0.4262
 5310SOL     OW27388   2.421   0.985   0.593 -0.2004 -0.6691  0.4263
 5310SOL    HW127389   2.508   0.988   0.555  0.9210  0.6642  3.1200
 5310SOL    HW227390   2.442   0.953   0.681  1.0397  0.7974  0.6408
 5311SOL     OW27391   2.211   3.403  15.924 -0.5030 -1.1559  0.1606
 5311SOL    HW127392   2.253   3.336  15.870  1.4807  0.3178 -0.1066
 5311SOL    HW227393   2.126   3.400  15.880 -0.7294 -2.7180  0.6975
 5312SOL     OW27394   2.988   2.847   4.400 -0.0427  0.5339  0.4402
 5312SOL    HW127395   3.014   2.761   4.365 -0.0932  0.7292 -0.0703
 5312SOL    HW227396   3.019   2.900   4.327 -0.3755  0.7136  0.4305
 5313SOL     OW27397   3.637   3.659   6.831 -0.6302  0.3266  0.3250
 5313SOL    HW127398   3.604   3.635   6.917  0.6731  0.0988  0.7496
 5313SOL    HW227399   3.667   3.574   6.801 -0.7985  0.2087  0.4914
 5314SOL     OW27400   1.102   1.392   2.516 -0.0251 -0.0195 -0.2631
 5314SOL    HW127401   1.154   1.470   2.533  0.2961  0.0492 -1.5920
 5314SOL    HW227402   1.166   1.322   2.505  0.4087  0.0552  1.8397
 5315SOL     OW27403   0.896   1.174  10.348 -0.6873 -0.7580  0.1439
 5315SOL    HW127404   0.973   1.154  10.401 -0.9165 -2.5002 -0.1696
 5315SOL    HW227405   0.932   1.229  10.279 -2.5514 -0.3677 -0.5357
 5316SOL     OW27406   0.411   2.091   9.697 -0.1350  0.0747  0.3556
 5316SOL    HW127407   0.465   2.081   9.776 -0.1757  1.3056  0.5313
 5316SOL    HW227408   0.410   2.186   9.686 -1.3270 -0.0395 -0.4942
 5317SOL     OW27409   2.528   0.134  10.248  0.3575 -0.3261  0.3309
 5317SOL    HW127410   2.546   0.208  10.305 -0.8756 -0.8452  1.3791
 5317SOL    HW227411   2.573   0.160  10.167 -0.1961  2.2506  0.8625
 5318SOL     OW27412   1.343   2.592   5.535 -0.2468  0.1921  1.1065
 5318SOL    HW127413   1.380   2.504   5.540 -0.8725 -0.2977 -2.7740
 5318SOL    HW227414   1.250   2.574   5.519  0.3906 -1.8934 -0.1570
 5319SOL     OW27415   3.750   4.139   0.090 -0.2224 -0.0895  0.5962
 5319SOL    HW127416   3.757   4.048   0.118 -0.4540 -0.2529  0.1231
 5319SOL    HW227417   3.716   4.128   0.001 -2.0182 -1.0426  1.3957
 5320SOL     OW27418   3.810   2.380   6.895 -0.6032  0.1071 -0.1623
 5320SOL    HW127419   3.843   2.396   6.807  1.8160  2.6738  1.2249
 5320SOL    HW227420   3.795   2.471   6.919 -0.6211 -0.5998  2.4922
 5321SOL     OW27421   3.986   2.638  10.295 -0.1485  0.3128 -0.1364
 5321SOL    HW127422   4.041   2.566  10.325  0.0581 -0.1117 -1.5647
 5321SOL    HW227423   3.903   2.613  10.335 -0.5408  1.8743  0.0506
 5322SOL     OW27424   1.017   4.718   2.436  0.0699  0.1867  0.0614
 5322SOL    HW127425   1.086   4.660   2.467 -1.2333 -0.9001  0.9886
 5322SOL    HW227426   1.038   4.714   2.343  1.2229  2.6708  0.2110
 5323SOL     OW27427   0.833   0.637   1.163 -0.2437  0.0453  0.1198
 5323SOL    HW127428   0.781   0.714   1.143  0.1982 -0.0588 -1.4668
 5323SOL    HW227429   0.761   0.574   1.159  0.3870 -0.8604  3.2512
 5324SOL     OW27430   4.520   3.810   3.813  0.1049 -0.8994 -0.0478
 5324SOL    HW127431   4.549   3.886   3.864  0.8607 -0.1329 -1.6375
 5324SOL    HW227432   4.605   3.767   3.802  0.0858 -1.3440  1.4828
 5325SOL     OW27433   3.380   3.464  13.642 -0.0860 -0.1848  0.7540
 5325SOL    HW127434   3.346   3.546  13.677 -0.2747  0.4650 -0.9597
 5325SOL    HW227435   3.471   3.491  13.625 -0.5880  0.0060 -1.6110
 5326SOL     OW27436   0.906   0.462   2.985 -0.3858  0.1032 -0.1311
 5326SOL    HW127437   0.873   0.383   2.943 -1.2130 -0.9765  2.6127
 5326SOL    HW227438   0.824   0.510   2.998 -0.4073 -0.0925  0.4330
 5327SOL     OW27439   1.318   4.000   6.246 -0.2624 -0.2507 -0.3106
 5327SOL    HW127440   1.246   4.041   6.199 -1.3888  1.1235  2.5841
 5327SOL    HW227441   1.266   3.937   6.297 -0.8602  0.7432  0.3048
 5328SOL     OW27442   1.285   2.038   4.218 -0.1481  0.0442 -0.5851
 5328SOL    HW127443   1.294   2.133   4.227  0.8788 -0.0600 -0.5488
 5328SOL    HW227444   1.374   2.011   4.196 -0.2149 -1.1929  0.5964
 5329SOL     OW27445   1.993   3.484  17.294 -0.2431 -0.1006 -0.0734
 5329SOL    HW127446   2.024   3.397  17.320 -1.5914 -0.6145 -0.1773
 5329SOL    HW227447   1.910   3.492  17.342 -0.4358  0.4706 -0.5014
 5330SOL     OW27448   0.384   3.167  11.751 -0.0805 -0.4436  0.5560
 5330SOL    HW127449   0.303   3.217  11.765 -1.7409 -1.8491 -4.2698
 5330SOL    HW227450   0.365   3.094  11.809  2.5918 -0.8716  0.9102
 5331SOL     OW27451   1.831   2.396   8.064 -0.8568 -0.3870 -0.2799
 5331SOL    HW127452   1.812   2.328   8.128  1.1358  0.1613  0.8896
 5331SOL    HW227453   1.759   2.457   8.081 -0.8038 -0.3189 -0.3009
 5332SOL     OW27454   4.696   4.724   5.349 -0.5932 -0.7261 -0.2291
 5332SOL    HW127455   4.719   4.672   5.426 -2.4564 -0.7957  0.2864
 5332SOL    HW227456   4.601   4.715   5.339 -0.6204 -0.5329 -0.1388
 5333SOL     OW27457   0.602   3.056   5.188 -0.3419 -0.8826  0.3927
 5333SOL    HW127458   0.585   2.962   5.198 -0.6186 -0.6400  2.2456
 5333SOL    HW227459   0.584   3.083   5.098 -0.1170  0.5043  0.7671
 5334SOL     OW27460   1.188   4.249   5.937  0.6474  0.0324 -0.2635
 5334SOL    HW127461   1.171   4.193   6.013 -0.3727  3.1570  1.7795
 5334SOL    HW227462   1.105   4.296   5.934  0.1272 -0.6601  2.9968
 5335SOL     OW27463   2.755   2.333  10.809  0.0907  0.4528  0.9542
 5335SOL    HW127464   2.799   2.407  10.851  0.9602  1.3301 -1.4881
 5335SOL    HW227465   2.731   2.368  10.723  2.2536 -0.0337  0.1426
 5336SOL     OW27466   0.726   3.241   7.527 -0.0772 -0.0387 -0.1018
 5336SOL    HW127467   0.648   3.211   7.574 -0.4502  3.2695  1.3417
 5336SOL    HW227468   0.784   3.166   7.540  0.1841 -0.0561 -1.3793
 5337SOL     OW27469   1.642   4.661  13.258  0.0711  0.2118 -0.0209
 5337SOL    HW127470   1.702   4.594  13.226  1.0745  0.4165  1.4041
 5337SOL    HW227471   1.669   0.018  13.216  1.1619  0.2592  0.7661
 5338SOL     OW27472   1.335   2.594   6.137  0.3358  0.3788 -0.2290
 5338SOL    HW127473   1.306   2.678   6.100  0.1473  0.1985 -0.4905
 5338SOL    HW227474   1.411   2.577   6.081  0.6802 -0.8650  0.6192
 5339SOL     OW27475   0.698   2.122  10.946 -0.2333 -0.1063  0.0604
 5339SOL    HW127476   0.728   2.039  10.910  2.0984  1.3853 -1.5067
 5339SOL    HW227477   0.786   2.155  10.966 -0.8904  1.6285  0.0548
 5340SOL     OW27478   0.694   0.724   6.249 -0.0567  0.4441  0.2119
 5340SOL    HW127479   0.608   0.683   6.244 -0.2836  1.2469 -2.3005
 5340SOL    HW227480   0.697   0.757   6.339  0.8441 -0.2155  0.4221
 5341SOL     OW27481   1.589   0.503   3.475 -0.2143 -0.6406  0.3554
 5341SOL    HW127482   1.589   0.434   3.542  0.7795 -1.2547 -0.2818
 5341SOL    HW227483   1.657   0.479   3.412  1.4465  1.7578  1.2182
 5342SOL     OW27484   3.552   3.177   5.647  0.2231 -0.3624 -0.4247
 5342SOL    HW127485   3.470   3.227   5.654  0.5434  0.0995  0.0434
 5342SOL    HW227486   3.555   3.130   5.730 -0.3123  1.2693  0.5277
 5343SOL     OW27487   1.240   4.542  12.069  0.4680  0.4522 -0.2745
 5343SOL    HW127488   1.285   4.500  12.143 -0.6630 -0.3656 -0.0617
 5343SOL    HW227489   1.286   4.507  11.993  1.1516  0.8831 -0.0652
 5344SOL     OW27490   1.551   3.120   7.250 -0.1711 -0.6262 -0.3632
 5344SOL    HW127491   1.629   3.136   7.304 -1.8165  1.0047  1.5420
 5344SOL    HW227492   1.583   3.174   7.178  0.8073 -1.5245 -0.5938
 5345SOL     OW27493   2.788   2.142   4.392  0.1212 -0.0868 -0.3229
 5345SOL    HW127494   2.861   2.135   4.454  0.7342  1.0660 -0.9104
 5345SOL    HW227495   2.721   2.089   4.433 -0.4249  0.4529 -0.5125
 5346SOL     OW27496   0.303   2.923  12.609  0.0624  0.2382  0.2319
 5346SOL    HW127497   0.235   2.989  12.624 -0.7099 -0.0432 -1.9708
 5346SOL    HW227498   0.359   2.936  12.685  0.7338 -0.3172 -0.1737
 5347SOL     OW27499   3.237   4.072   8.620 -0.4763  0.0929  0.2401
 5347SOL    HW127500   3.240   3.978   8.606  0.4451  0.0042  1.0206
 5347SOL    HW227501   3.301   4.101   8.555 -0.8282  0.8935  0.2487
 5348SOL     OW27502   2.110   1.735   5.603  0.2276 -0.2647 -0.2570
 5348SOL    HW127503   2.140   1.659   5.553 -1.0478  0.3863 -2.0076
 5348SOL    HW227504   2.103   1.704   5.693 -1.0952 -0.4782 -0.4384
 5349SOL     OW27505   1.933   1.611  16.849  1.0161 -0.1497 -0.2615
 5349SOL    HW127506   1.920   1.676  16.780  1.8214 -0.1724 -0.4303
 5349SOL    HW227507   1.842   1.603  16.877  0.2184  0.1404 -2.7169
 5350SOL     OW27508   3.937   3.518  10.063  0.1224 -0.0906 -0.1106
 5350SOL    HW127509   3.995   3.449  10.029  0.8144 -0.5146  1.9205
 5350SOL    HW227510   3.907   3.557   9.981 -0.1720 -0.2040 -0.0567
 5351SOL     OW27511   4.089   0.211  14.258 -0.0580 -0.1979  0.8877
 5351SOL    HW127512   4.077   0.301  14.288  0.0983  0.2366 -0.3675
 5351SOL    HW227513   4.111   0.226  14.167 -0.5658 -0.6236  0.6946
 5352SOL     OW27514   0.345   3.392   4.128 -0.8512  0.8226  0.4734
 5352SOL    HW127515   0.432   3.387   4.167  0.4653 -1.1882 -2.6815
 5352SOL    HW227516   0.306   3.322   4.181  0.0404  0.3652  0.5341
 5353SOL     OW27517   4.432   0.374   5.468  0.1832  0.5362 -0.2796
 5353SOL    HW127518   4.435   0.454   5.415  3.2632  0.4441 -0.2707
 5353SOL    HW227519   4.425   0.407   5.557  0.0702  3.2430 -1.2907
 5354SOL     OW27520   0.572   3.544   8.145  0.5452  0.6153  0.4156
 5354SOL    HW127521   0.501   3.516   8.087  0.7939  0.0715  0.3752
 5354SOL    HW227522   0.639   3.491   8.102 -1.0942 -0.0515 -1.3182
 5355SOL     OW27523   0.188   2.245   8.498  0.0157 -0.0595  0.3419
 5355SOL    HW127524   0.209   2.192   8.575  4.3538  1.3456  0.1434
 5355SOL    HW227525   0.244   2.318   8.526 -1.7540  1.5345 -0.2627
 5356SOL     OW27526   2.044   3.953   7.666 -0.2225  0.3336  0.3065
 5356SOL    HW127527   2.115   4.003   7.624  1.9974 -0.9190  2.6254
 5356SOL    HW227528   2.081   3.930   7.751  0.3185 -1.4863 -0.4166
 5357SOL     OW27529   3.913   2.956   1.539 -0.0894  1.3018  0.1094
 5357SOL    HW127530   3.977   2.919   1.599 -1.7819 -2.7313 -0.5831
 5357SOL    HW227531   3.831   2.936   1.584 -0.5144  1.7078 -0.4858
 5358SOL     OW27532   3.882   4.453   1.766  0.1725  0.2857 -0.3283
 5358SOL    HW127533   3.945   4.381   1.763  0.6263  0.7174 -1.0632
 5358SOL    HW227534   3.898   4.487   1.678 -0.9454 -1.7417 -1.3099
 5359SOL     OW27535   1.382   4.089   9.731 -0.3249 -0.0218  0.6231
 5359SOL    HW127536   1.301   4.139   9.739 -0.1799 -0.1366  2.7204
 5359SOL    HW227537   1.342   4.013   9.688 -0.5900 -0.1016  1.0055
 5360SOL     OW27538   3.956   1.443   2.346  0.3316 -0.1180  0.5484
 5360SOL    HW127539   4.041   1.412   2.377 -0.5104 -3.0768 -0.1661
 5360SOL    HW227540   3.960   1.536   2.368 -2.2546 -0.0752  0.8070
 5361SOL     OW27541   2.470   0.808   2.937  0.0074 -0.2270  0.4788
 5361SOL    HW127542   2.430   0.857   2.865 -0.2798  0.2757  0.9859
 5361SOL    HW227543   2.538   0.759   2.889 -1.6985 -1.9328 -0.1841
 5362SOL     OW27544   2.926   2.415   4.145 -0.8607 -0.2742  0.2396
 5362SOL    HW127545   2.905   2.494   4.094 -0.4704 -0.0153  0.4828
 5362SOL    HW227546   2.836   2.404   4.174 -1.0389  1.0118  0.1839
 5363SOL     OW27547   4.352   4.048   2.580 -0.0851 -0.5086  0.1441
 5363SOL    HW127548   4.337   3.975   2.640  3.7220 -1.5810 -0.2150
 5363SOL    HW227549   4.391   3.998   2.508 -1.0207 -0.7497 -0.2064
 5364SOL     OW27550   3.502   3.015   0.391 -0.3362 -0.0288  0.1602
 5364SOL    HW127551   3.568   3.050   0.331 -0.7121  0.3607 -0.0290
 5364SOL    HW227552   3.550   2.973   0.463  0.2230 -0.2614 -0.3472
 5365SOL     OW27553   2.883   1.543  17.696 -0.1112 -0.0746  0.5361
 5365SOL    HW127554   2.846   1.551   0.086 -1.1376  0.7253  0.0126
 5365SOL    HW227555   2.815   1.578  17.640  0.5519  3.0651  1.6701
 5366SOL     OW27556   4.506   0.282  16.302  0.1878  0.3955 -0.2119
 5366SOL    HW127557   4.563   0.352  16.270  0.4848  0.4817  0.5093
 5366SOL    HW227558   4.549   0.208  16.259 -0.0670  0.7777 -1.1222
 5367SOL     OW27559   4.234   1.607  13.215 -0.2147  0.3397  0.2851
 5367SOL    HW127560   4.158   1.552  13.233 -1.0210  1.9183  1.7554
 5367SOL    HW227561   4.197   1.694  13.228 -2.4542 -0.5511 -0.1489
 5368SOL     OW27562   2.776   4.063   8.120  0.2479 -0.3950 -0.2464
 5368SOL    HW127563   2.703   4.012   8.154  0.5288 -0.5100  0.1785
 5368SOL    HW227564   2.737   4.116   8.050  0.2799  1.1156  0.8809
 5369SOL     OW27565   3.854   4.463  13.700  0.3763 -0.2226 -0.0818
 5369SOL    HW127566   3.792   4.482  13.630 -0.4344 -0.5662  0.5491
 5369SOL    HW227567   3.862   4.556  13.725 -0.7215 -0.3832  0.8746
 5370SOL     OW27568   1.364   0.511  15.208 -0.0148  0.3765  0.1286
 5370SOL    HW127569   1.312   0.458  15.147 -0.5737  2.7827 -1.4617
 5370SOL    HW227570   1.379   0.588  15.154 -0.0072  0.6016  0.4499
 5371SOL     OW27571   4.058   0.636   7.168 -0.4492 -0.0182 -0.3076
 5371SOL    HW127572   4.085   0.712   7.219 -0.6799  0.0557 -0.2954
 5371SOL    HW227573   4.048   0.572   7.239 -0.8396 -1.3209 -1.5434
 5372SOL     OW27574   2.690   2.173  16.882  0.3861  0.1683 -0.0261
 5372SOL    HW127575   2.648   2.150  16.799  0.2254 -0.3398  0.1988
 5372SOL    HW227576   2.735   2.095  16.913  0.7613  1.0844  1.7244
 5373SOL     OW27577   2.207   0.843   4.240 -0.1213 -0.5798 -0.2953
 5373SOL    HW127578   2.290   0.874   4.275 -0.0501  1.6639 -2.4133
 5373SOL    HW227579   2.166   0.806   4.318 -1.5981 -3.0124 -2.2204
 5374SOL     OW27580   0.809   0.884  10.634  0.5776  0.2958  0.1772
 5374SOL    HW127581   0.838   0.794  10.651 -0.8623 -0.2751 -0.4384
 5374SOL    HW227582   0.832   0.886  10.541 -1.3210  1.1658 -0.2637
 5375SOL     OW27583   3.141   2.111   1.838 -0.2667 -0.7479  0.0629
 5375SOL    HW127584   3.220   2.068   1.804 -1.1593 -1.6336 -0.9055
 5375SOL    HW227585   3.081   2.068   1.777 -2.7784  1.9595  0.6122
 5376SOL     OW27586   1.164   1.412   6.013 -0.5016  0.1149  0.2277
 5376SOL    HW127587   1.154   1.336   5.955  0.4896  1.0053 -1.1088
 5376SOL    HW227588   1.256   1.434   6.004 -0.4768 -0.1426 -0.1820
 5377SOL     OW27589   2.262   0.562   6.942  0.0559 -0.5376 -0.4227
 5377SOL    HW127590   2.290   0.520   6.861  0.7295 -0.1604 -0.3873
 5377SOL    HW227591   2.190   0.507   6.974 -0.3237  0.4491  0.4278
 5378SOL     OW27592   2.879   4.142   4.443 -0.1590  0.2673  0.0007
 5378SOL    HW127593   2.942   4.074   4.418  0.4430  1.5822 -2.0539
 5378SOL    HW227594   2.928   4.218   4.413  0.0646  0.7576  1.6514
 5379SOL     OW27595   0.403   4.678   5.504 -0.0044  0.7630 -0.2974
 5379SOL    HW127596   0.383   0.004   5.425  1.0069  1.3147 -0.2071
 5379SOL    HW227597   0.469   0.017   5.533 -1.5508  2.2544  0.0623
 5380SOL     OW27598   0.345   3.538  14.028  0.2017  1.1382 -0.3035
 5380SOL    HW127599   0.300   3.596  14.089  0.1900 -1.3057  2.0224
 5380SOL    HW227600   0.312   3.552  13.939 -1.3904  0.3142  0.1670
 5381SOL     OW27601   1.026   3.612   5.898 -0.3676  0.3021 -0.1045
 5381SOL    HW127602   1.116   3.641   5.909  1.0866 -3.6863 -1.2863
 5381SOL    HW227603   1.007   3.574   5.812  1.5348 -0.1008 -0.3331
 5382SOL     OW27604   2.715   0.048   4.820  0.1942  0.0875  0.4579
 5382SOL    HW127605   2.707   4.695   4.877  1.4474 -0.0377  0.4602
 5382SOL    HW227606   2.790   0.033   4.763 -0.9360 -0.6642 -0.8385
 5383SOL     OW27607   1.953   0.954  17.427  0.0765  0.3695 -0.0743
 5383SOL    HW127608   2.005   1.034  17.437  0.4667  0.0646  0.3287
 5383SOL    HW227609   1.938   0.966  17.333 -0.5525  0.8464  0.0855
 5384SOL     OW27610   1.783   3.543   0.891 -0.1178  0.0219  0.2793
 5384SOL    HW127611   1.870   3.515   0.917 -0.2606  1.3108  2.1365
 5384SOL    HW227612   1.743   3.472   0.842 -2.2823  0.5415  1.2814
 5385SOL     OW27613   3.114   3.488   4.488  0.5119 -0.1822 -0.0789
 5385SOL    HW127614   3.022   3.461   4.497  0.7621 -0.8512  0.4544
 5385SOL    HW227615   3.154   3.438   4.559 -0.4147  3.2498  2.8718
 5386SOL     OW27616   2.092   2.840   5.948 -0.0162  0.1405 -0.5006
 5386SOL    HW127617   2.110   2.893   6.026  1.2955 -1.5068  0.3045
 5386SOL    HW227618   2.013   2.876   5.908  0.6884 -0.3538 -2.3018
 5387SOL     OW27619   3.278   3.614  15.310 -0.3009  0.0218 -0.1229
 5387SOL    HW127620   3.355   3.568  15.343 -0.1293  0.4551  0.0939
 5387SOL    HW227621   3.250   3.646  15.396  0.3822 -0.2631  0.2063
 5388SOL     OW27622   0.794   0.628   1.495  0.5437  0.0477 -0.7315
 5388SOL    HW127623   0.852   0.621   1.419  1.8289  0.8470  0.1829
 5388SOL    HW227624   0.796   0.721   1.517 -1.2745 -0.1199  0.1286
 5389SOL     OW27625   0.645   2.706  12.899  0.4146  0.0811  0.3360
 5389SOL    HW127626   0.628   2.800  12.894 -2.1662 -0.4748 -1.0219
 5389SOL    HW227627   0.564   2.673  12.860 -1.7068  3.4605  1.9012
 5390SOL     OW27628   2.030   3.786   1.557 -0.5967  0.0914  0.4352
 5390SOL    HW127629   2.096   3.728   1.520 -1.3624 -0.7797  0.4528
 5390SOL    HW227630   2.005   3.844   1.485 -1.9487  1.8841  2.3522
 5391SOL     OW27631   2.806   2.876   5.947 -0.1618 -0.1060 -0.0609
 5391SOL    HW127632   2.837   2.825   5.872  3.4731 -0.7787  1.9169
 5391SOL    HW227633   2.800   2.959   5.900  0.4419 -0.1418 -0.2068
 5392SOL     OW27634   3.882   0.312   3.645  0.5042  0.4144 -0.3761
 5392SOL    HW127635   3.883   0.217   3.638  0.6347  0.4673 -1.1290
 5392SOL    HW227636   3.937   0.344   3.573 -0.6555  2.6061 -0.2896
 5393SOL     OW27637   2.021   3.623   5.673 -0.0709  0.5407  0.2187
 5393SOL    HW127638   1.944   3.585   5.716  0.5592 -1.4756 -0.4371
 5393SOL    HW227639   2.073   3.636   5.752  1.9319 -0.4956 -0.9206
 5394SOL     OW27640   1.697   2.984   0.412 -0.7206  0.1849 -0.4115
 5394SOL    HW127641   1.667   2.924   0.481 -0.6189 -0.5744 -1.0290
 5394SOL    HW227642   1.790   2.974   0.434 -1.1414 -0.5006  1.0725
 5395SOL     OW27643   2.429   3.254   4.745 -0.3649  0.4333 -0.1954
 5395SOL    HW127644   2.384   3.200   4.810  1.1062  1.6387  1.8104
 5395SOL    HW227645   2.417   3.342   4.778 -1.2624  0.4685 -0.5961
 5396SOL     OW27646   4.468   1.510   4.688  0.0931  0.0928 -0.1295
 5396SOL    HW127647   4.452   1.605   4.694 -1.0148 -0.0052 -1.5923
 5396SOL    HW227648   4.400   1.474   4.745  0.4656 -0.2564  0.0945
 5397SOL     OW27649   1.542   4.042   6.716 -0.4013  0.2212 -0.2967
 5397SOL    HW127650   1.547   4.126   6.670 -0.8721 -0.1903 -1.1072
 5397SOL    HW227651   1.533   3.984   6.640  0.0114  0.7377 -0.7438
 5398SOL     OW27652   2.076   1.961   3.347 -0.5360 -0.2689 -0.1285
 5398SOL    HW127653   2.059   1.950   3.254  2.8706  0.3236 -0.8173
 5398SOL    HW227654   2.082   2.055   3.363  1.3277 -0.5463  0.8104
 5399SOL     OW27655   1.592   2.720  11.639 -0.1381  0.3171  0.7564
 5399SOL    HW127656   1.519   2.658  11.632  0.3220 -0.1079 -0.2348
 5399SOL    HW227657   1.651   2.664  11.589 -0.9339  0.7269 -0.6613
 5400SOL     OW27658   3.938   0.781   6.982 -0.5939 -0.0159 -0.2661
 5400SOL    HW127659   3.868   0.821   7.033 -0.5031 -0.4642  0.2113
 5400SOL    HW227660   3.983   0.730   7.049 -0.2093 -0.6637 -1.0155
 5401SOL     OW27661   1.932   1.875   3.566 -0.1776 -0.0994 -0.3683
 5401SOL    HW127662   1.990   1.894   3.492 -0.2153 -0.5055 -0.5008
 5401SOL    HW227663   1.874   1.817   3.515 -0.2972 -1.4631  1.3111
 5402SOL     OW27664   3.870   1.212  12.985  0.8405  0.0832  0.3168
 5402SOL    HW127665   3.801   1.149  13.003  1.0946 -0.6036 -1.1207
 5402SOL    HW227666   3.919   1.153  12.928 -0.8665 -2.1943  1.2174
 5403SOL     OW27667   1.993   0.087   9.376 -0.0747 -0.2717  0.3246
 5403SOL    HW127668   1.983   0.168   9.326 -0.0304 -1.3718 -1.4826
 5403SOL    HW227669   1.989   0.029   9.299 -1.8596  0.4447 -0.1299
 5404SOL     OW27670   3.255   3.469   8.346  0.5456 -0.1221  0.2133
 5404SOL    HW127671   3.271   3.545   8.403  1.1261  0.0980 -0.2318
 5404SOL    HW227672   3.168   3.493   8.315 -0.0452 -1.7721  0.6378
 5405SOL     OW27673   0.797   2.738   7.056 -0.4227 -0.0511  0.5384
 5405SOL    HW127674   0.863   2.694   7.110  0.2773  0.4432  0.0865
 5405SOL    HW227675   0.724   2.752   7.117 -0.2312  0.8055  0.5826
 5406SOL     OW27676   2.846   4.551   0.139 -0.0933 -0.2048  0.4314
 5406SOL    HW127677   2.845   4.495   0.217  0.4123 -0.8809 -0.0570
 5406SOL    HW227678   2.936   4.540   0.108 -0.7675 -0.3687 -1.4763
 5407SOL     OW27679   3.312   3.303   9.031  0.4125 -0.1210  0.4363
 5407SOL    HW127680   3.303   3.275   8.939 -0.0466  1.5929 -0.0443
 5407SOL    HW227681   3.407   3.309   9.040  0.5972  0.0143 -1.5735
 5408SOL     OW27682   3.644   0.120   7.562 -0.1483 -0.5841  0.4366
 5408SOL    HW127683   3.709   0.188   7.543  0.7932 -1.5479  0.1771
 5408SOL    HW227684   3.693   0.040   7.539 -0.6058 -1.1182  1.3183
 5409SOL     OW27685   1.349   2.982  13.417  0.0074  0.6421 -0.2298
 5409SOL    HW127686   1.361   3.043  13.490  1.3460  0.6211 -0.4284
 5409SOL    HW227687   1.255   2.975  13.431  0.1367 -0.4171  0.0905
 5410SOL     OW27688   3.670   2.639  12.390 -0.1536  0.0846  0.0722
 5410SOL    HW127689   3.668   2.640  12.485  3.6391 -0.5168  0.1758
 5410SOL    HW227690   3.651   2.546  12.376  2.4741 -0.2620 -1.3379
 5411SOL     OW27691   1.362   1.948  10.103  0.2612 -0.1494 -0.8757
 5411SOL    HW127692   1.283   1.968  10.153  1.2250 -0.3528  0.7189
 5411SOL    HW227693   1.426   2.007  10.141  1.0473 -1.5667 -0.0022
 5412SOL     OW27694   0.382   1.345   6.279 -0.5733 -0.0029  0.0348
 5412SOL    HW127695   0.430   1.329   6.361  0.1725  1.8217 -0.0435
 5412SOL    HW227696   0.301   1.381   6.313 -0.5835  0.8110 -0.8794
 5413SOL     OW27697   0.449   3.694   8.346  0.2132 -0.1911  0.4150
 5413SOL    HW127698   0.487   3.646   8.272 -1.6429 -0.8365 -0.1310
 5413SOL    HW227699   0.411   3.767   8.297  0.5338 -0.2090  0.1444
 5414SOL     OW27700   1.699   2.823   7.302 -0.1084  0.6901 -0.0489
 5414SOL    HW127701   1.700   2.900   7.359  0.3517  0.7338 -0.1155
 5414SOL    HW227702   1.751   2.756   7.346 -1.4728  0.0975  0.6637
 5415SOL     OW27703   1.988   3.469   9.677 -0.0595  0.0537  0.3245
 5415SOL    HW127704   1.982   3.513   9.762  0.2381  1.3917 -0.3469
 5415SOL    HW227705   1.954   3.537   9.619  0.3884 -0.1129 -0.1318
 5416SOL     OW27706   0.040   1.410   4.746  0.2164 -0.4969 -0.1637
 5416SOL    HW127707   0.058   1.503   4.757  0.4401 -0.5521 -0.0779
 5416SOL    HW227708   4.695   1.405   4.812  0.0296  0.1654 -0.3052
 5417SOL     OW27709   0.716   4.491  11.614  0.3464 -0.1398  0.3188
 5417SOL    HW127710   0.693   4.533  11.697 -0.3061  1.0915 -0.4827
 5417SOL    HW227711   0.780   4.551  11.576 -0.6712 -0.3558 -1.7074
 5418SOL     OW27712   2.096   3.326   5.046  0.1865 -0.2312  0.1084
 5418SOL    HW127713   2.033   3.394   5.022  1.5673  1.3042  0.8397
 5418SOL    HW227714   2.033   3.265   5.086 -0.1560  0.7630  1.1126
 5419SOL     OW27715   2.939   3.385  11.074 -0.0573  0.0936  0.8153
 5419SOL    HW127716   3.007   3.414  11.134  0.9906  3.3511 -1.9197
 5419SOL    HW227717   2.863   3.439  11.096  0.1822  1.1067 -0.8540
 5420SOL     OW27718   3.325   3.618  17.478 -0.0499 -0.0654 -0.2440
 5420SOL    HW127719   3.283   3.686  17.530  1.8255  0.0098  1.1832
 5420SOL    HW227720   3.304   3.544  17.535 -0.9746  0.1749 -0.2842
 5421SOL     OW27721   0.378   3.613   5.227 -0.0726  0.0062  0.1590
 5421SOL    HW127722   0.343   3.695   5.262 -1.4280 -0.8319  0.7450
 5421SOL    HW227723   0.450   3.653   5.177 -1.3091  0.0262 -1.5933
 5422SOL     OW27724   1.358   4.616   9.511 -0.2599  0.5313  0.9409
 5422SOL    HW127725   1.432   4.596   9.453 -1.0828  1.4230 -0.4221
 5422SOL    HW227726   1.288   4.584   9.455  0.5050  0.7894 -0.1651
 5423SOL     OW27727   0.849   1.984  10.653 -0.6574 -0.5702 -0.0272
 5423SOL    HW127728   0.889   1.936  10.725  0.2349 -0.3640 -0.3877
 5423SOL    HW227729   0.795   1.911  10.625 -2.2220 -0.6328  3.1573
 5424SOL     OW27730   0.494   3.608  11.474  0.0068  0.3441  0.2642
 5424SOL    HW127731   0.555   3.640  11.540  2.8543 -0.6457 -1.8856
 5424SOL    HW227732   0.508   3.513  11.477  0.3322  0.4174  0.9797
 5425SOL     OW27733   3.050   3.629   9.801 -0.2188 -0.2001 -0.2571
 5425SOL    HW127734   2.984   3.651   9.866  0.9099 -0.9440  1.1297
 5425SOL    HW227735   3.047   3.533   9.806 -1.2025 -0.1544  0.0919
 5426SOL     OW27736   2.187   0.093  10.152  0.2208  0.4521 -0.3319
 5426SOL    HW127737   2.149   0.137  10.228 -0.1515 -0.7170  0.1508
 5426SOL    HW227738   2.100   0.078  10.115  0.8946  0.7804 -2.0524
 5427SOL     OW27739   1.890   1.346  16.525  0.9639  0.2314  0.5195
 5427SOL    HW127740   1.827   1.417  16.525 -0.0222 -0.6329 -2.5508
 5427SOL    HW227741   1.833   1.272  16.503  0.6261  0.2851  1.2264
 5428SOL     OW27742   2.695   4.117   6.028  0.1883 -0.3190 -0.1034
 5428SOL    HW127743   2.734   4.039   6.069  1.0815 -0.0364 -0.4075
 5428SOL    HW227744   2.742   4.182   6.080 -1.3355  0.3023  0.4656
 5429SOL     OW27745   2.936   0.917   0.896  0.2747 -0.1089 -0.4688
 5429SOL    HW127746   2.877   0.914   0.971  1.4750 -0.1130  0.4776
 5429SOL    HW227747   3.020   0.928   0.941  1.0291 -2.6185 -1.2699
 5430SOL     OW27748   3.379   3.552   3.550 -0.1470 -0.8330 -0.5483
 5430SOL    HW127749   3.416   3.636   3.522 -1.3309  0.1705  0.9167
 5430SOL    HW227750   3.286   3.569   3.535 -0.3099  0.6468  2.2084
 5431SOL     OW27751   3.304   2.322  17.676  0.1177 -0.1599  0.6455
 5431SOL    HW127752   3.276   2.235   0.007  0.9178  0.5880  3.7622
 5431SOL    HW227753   3.389   2.333   0.022  0.9405  2.0707 -1.5423
 5432SOL     OW27754   3.981   2.403  14.092  0.4230 -0.3972 -0.0196
 5432SOL    HW127755   3.889   2.375  14.089 -0.0576  1.1554 -0.3227
 5432SOL    HW227756   3.972   2.480  14.035 -0.4468 -0.1918  0.3779
 5433SOL     OW27757   1.959   1.232   6.861  0.0635  0.2500 -0.1082
 5433SOL    HW127758   1.932   1.281   6.938  4.0943 -0.9133  2.0443
 5433SOL    HW227759   1.913   1.151   6.884  0.6276  0.2265  0.9414
 5434SOL     OW27760   2.942   3.040  13.436  0.4547  0.5117  0.2343
 5434SOL    HW127761   2.870   3.055  13.375  0.0846  1.5974  0.9365
 5434SOL    HW227762   3.022   3.029  13.384 -0.3143 -0.7850 -0.6863
 5435SOL     OW27763   0.961   1.914   5.715  0.0427 -0.1325 -0.4503
 5435SOL    HW127764   0.924   1.852   5.652 -1.0768 -0.0387  0.1038
 5435SOL    HW227765   1.013   1.850   5.763  0.7444  0.0682 -0.9507
 5436SOL     OW27766   0.175   1.902   3.733 -0.4296 -0.5802  0.3264
 5436SOL    HW127767   0.132   1.892   3.649  1.5865  2.3245 -1.0483
 5436SOL    HW227768   0.154   1.994   3.752 -1.0706 -0.8755  1.0754
 5437SOL     OW27769   2.874   0.478  11.716  0.1170  0.4877 -0.1951
 5437SOL    HW127770   2.861   0.562  11.760 -0.3034 -0.7677  2.0936
 5437SOL    HW227771   2.938   0.435  11.773  0.5125  0.9764 -0.2682
 5438SOL     OW27772   1.386   1.601   6.804  0.4523 -0.3232  0.2916
 5438SOL    HW127773   1.391   1.645   6.889  2.7053 -2.5378  1.3269
 5438SOL    HW227774   1.461   1.644   6.762 -0.5687  0.4577 -0.7066
 5439SOL     OW27775   3.350   2.202   4.465 -0.3185 -0.1955 -0.0394
 5439SOL    HW127776   3.397   2.254   4.399 -0.1854 -1.4559 -0.9250
 5439SOL    HW227777   3.316   2.138   4.403  0.2955 -1.2212  0.6749
 5440SOL     OW27778   2.826   0.826  11.802  0.4231  0.2914 -0.2921
 5440SOL    HW127779   2.849   0.814  11.710 -0.4131  0.6537 -0.5514
 5440SOL    HW227780   2.739   0.787  11.817 -0.0336  1.0364 -0.9978
 5441SOL     OW27781   4.391   0.794   9.625 -0.0949  0.0200  0.2016
 5441SOL    HW127782   4.460   0.831   9.679  0.1140  0.1574 -0.1554
 5441SOL    HW227783   4.326   0.780   9.694  0.8119  1.5490  1.3444
 5442SOL     OW27784   2.026   2.460  15.850  0.5172 -0.3396  0.9269
 5442SOL    HW127785   1.991   2.404  15.919 -1.5913  1.6236  1.4211
 5442SOL    HW227786   1.999   2.547  15.877  0.4659 -0.2780  0.6824
 5443SOL     OW27787   1.257   2.361   3.655 -0.9921 -0.0842 -0.3264
 5443SOL    HW127788   1.218   2.399   3.577 -0.1269  0.5016 -0.4726
 5443SOL    HW227789   1.341   2.320   3.632 -1.3750 -0.3250 -1.2847
 5444SOL     OW27790   3.564   1.154   5.773  0.6526  0.3781 -0.0349
 5444SOL    HW127791   3.631   1.211   5.736  2.0153 -0.6869  0.7701
 5444SOL    HW227792   3.607   1.071   5.751 -1.2698 -0.4556 -0.6636
 5445SOL     OW27793   3.133   0.993   4.187  0.5873 -0.5029  0.4387
 5445SOL    HW127794   3.189   1.021   4.115  0.8358 -1.0533  0.4211
 5445SOL    HW227795   3.199   0.936   4.227  3.3051 -0.0301 -3.3191
 5446SOL     OW27796   1.587   0.183  10.168 -0.1090 -0.2497 -0.0682
 5446SOL    HW127797   1.498   0.171  10.199  0.4378 -0.7408  1.3325
 5446SOL    HW227798   1.563   0.159  10.079  2.1450  0.6639 -0.9270
 5447SOL     OW27799   3.852   4.068  14.474 -0.4693  0.3585 -0.3356
 5447SOL    HW127800   3.837   3.989  14.422  0.5976  0.0511 -0.1805
 5447SOL    HW227801   3.852   4.139  14.410 -0.0214  0.5459 -0.1319
 5448SOL     OW27802   2.850   1.506   3.749  0.4313  0.1813 -0.3524
 5448SOL    HW127803   2.818   1.482   3.662 -0.1109  1.4900 -0.5205
 5448SOL    HW227804   2.833   1.420   3.786  0.2168  0.2645 -0.2591
 5449SOL     OW27805   1.096   0.836   5.740 -0.2312 -0.0966  0.4811
 5449SOL    HW127806   1.142   0.891   5.677 -0.8396  0.2016  0.2946
 5449SOL    HW227807   1.104   0.751   5.696 -0.4167  0.4939 -0.6858
 5450SOL     OW27808   1.543   2.411   0.599  0.3555 -0.2025  0.1739
 5450SOL    HW127809   1.593   2.477   0.551 -2.9709  1.5111 -0.9320
 5450SOL    HW227810   1.464   2.455   0.630 -0.5496 -2.9042  1.6349
 5451SOL     OW27811   3.919   3.994   6.143  0.0568  0.2616 -0.2379
 5451SOL    HW127812   4.004   4.014   6.184 -0.6294 -0.4111  1.5228
 5451SOL    HW227813   3.938   4.030   6.056  0.9591  0.3755  0.0004
 5452SOL     OW27814   0.340   0.699   2.991  0.3391  0.1045  0.6140
 5452SOL    HW127815   0.383   0.775   2.953  1.8686 -0.0173  2.0900
 5452SOL    HW227816   0.315   0.730   3.078  1.1291  0.9419  0.5292
 5453SOL     OW27817   0.763   3.720   2.613  0.2197  0.2002  0.2106
 5453SOL    HW127818   0.785   3.632   2.584 -1.1709  0.1475 -0.6891
 5453SOL    HW227819   0.793   3.772   2.538 -0.9976  1.3107  0.4804
 5454SOL     OW27820   0.879   1.600   2.380 -0.3603  0.5047 -0.4792
 5454SOL    HW127821   0.814   1.533   2.355 -1.9956  1.1573  2.0727
 5454SOL    HW227822   0.900   1.642   2.297 -0.4047  0.6639 -0.4090
 5455SOL     OW27823   3.732   3.319   7.828 -0.1461 -0.0263  0.5139
 5455SOL    HW127824   3.761   3.404   7.796 -1.5817  0.1649 -0.2761
 5455SOL    HW227825   3.641   3.344   7.840 -0.2593 -0.6890  1.1124
 5456SOL     OW27826   3.571   3.832   7.147 -0.0577 -0.1272 -0.0519
 5456SOL    HW127827   3.553   3.738   7.140  0.3061 -0.2017 -0.0200
 5456SOL    HW227828   3.667   3.831   7.155 -0.3116  0.5373  3.0721
 5457SOL     OW27829   4.380   1.736   7.784 -0.0010  0.1350  1.0436
 5457SOL    HW127830   4.383   1.827   7.754  0.7571 -1.1536 -2.7183
 5457SOL    HW227831   4.414   1.741   7.873  0.0488 -1.5056  1.0985
 5458SOL     OW27832   1.434   3.089   7.744  0.2465  0.4199  0.0166
 5458SOL    HW127833   1.455   3.142   7.822 -0.1612 -1.1678  1.2024
 5458SOL    HW227834   1.522   3.061   7.719 -1.1033 -1.3965 -2.6034
 5459SOL     OW27835   1.770   4.295   1.883 -0.3970  0.5176  0.4028
 5459SOL    HW127836   1.679   4.292   1.856 -0.0183 -1.8342 -0.5526
 5459SOL    HW227837   1.807   4.361   1.824  1.5480  0.9442  2.0975
 5460SOL     OW27838   0.159   2.668   8.091  0.3653 -0.4989 -0.0972
 5460SOL    HW127839   0.092   2.721   8.134  1.7568  1.0475  0.1973
 5460SOL    HW227840   0.129   2.579   8.109  0.5691 -0.8533 -1.4646
 5461SOL     OW27841   3.573   1.068   7.117 -0.2868  0.6379 -0.2002
 5461SOL    HW127842   3.578   1.153   7.073 -1.7018  0.2555 -1.0646
 5461SOL    HW227843   3.479   1.057   7.102 -0.0553 -0.8310 -0.5375
 5462SOL     OW27844   1.865   1.843   1.614  0.4162 -0.9190  0.1472
 5462SOL    HW127845   1.815   1.762   1.618 -2.0699  0.6091 -0.1524
 5462SOL    HW227846   1.921   1.810   1.685  1.2827  0.2666  0.0118
 5463SOL     OW27847   2.403   1.034   8.382 -0.3528 -0.1551  0.3499
 5463SOL    HW127848   2.424   0.986   8.302  1.5857 -1.3438  1.5417
 5463SOL    HW227849   2.425   0.966   8.446  0.7125  0.2236  0.3992
 5464SOL     OW27850   2.016   0.978   7.263  0.0817  0.1948  0.0029
 5464SOL    HW127851   1.961   0.968   7.185  1.0718 -1.9056 -0.4424
 5464SOL    HW227852   2.039   1.071   7.256 -1.0120  0.1574 -4.1152
 5465SOL     OW27853   2.376   0.060  16.191 -0.6142  0.8055 -0.0438
 5465SOL    HW127854   2.286   0.079  16.217 -0.5537 -0.6463  1.2210
 5465SOL    HW227855   2.402   0.001  16.262  2.9399  2.6443  0.1730
 5466SOL     OW27856   1.042   1.159   5.624  0.5836 -0.0181 -0.0159
 5466SOL    HW127857   1.089   1.146   5.706 -1.0313 -0.9584  0.7523
 5466SOL    HW227858   1.102   1.119   5.561  0.0683 -0.4003 -0.2602
 5467SOL     OW27859   3.996   4.313   8.287 -0.0155 -0.4353  0.5623
 5467SOL    HW127860   4.004   4.274   8.374 -2.5145  1.4309  1.6250
 5467SOL    HW227861   4.032   4.244   8.231  0.8460 -0.3765  1.0463
 5468SOL     OW27862   1.574   0.890   9.822  0.5565  1.0901 -0.6758
 5468SOL    HW127863   1.588   0.972   9.774 -0.8086  0.8780 -1.4277
 5468SOL    HW227864   1.617   0.910   9.905 -0.8568 -2.7859  1.0124
 5469SOL     OW27865   3.664   3.071   1.423  0.0058  0.2669 -0.9904
 5469SOL    HW127866   3.656   3.114   1.337  1.3086 -0.7406 -1.6103
 5469SOL    HW227867   3.756   3.087   1.442 -0.7128  2.5467  0.5179
 5470SOL     OW27868   1.954   4.020   2.994 -0.4591  0.1124  0.0855
 5470SOL    HW127869   2.017   4.028   2.922  2.6570 -3.0461  2.4412
 5470SOL    HW227870   1.998   3.964   3.058 -1.7220 -0.9208  0.0526
 5471SOL     OW27871   4.561   1.287   4.108 -0.0927 -0.0445 -0.0884
 5471SOL    HW127872   4.492   1.271   4.172  0.3481 -0.1090  0.3734
 5471SOL    HW227873   4.574   1.200   4.070 -1.1498 -0.8428  1.3675
 5472SOL     OW27874   2.356   4.522  11.058 -0.7030  0.1780 -0.0226
 5472SOL    HW127875   2.296   4.452  11.087 -1.1817  1.0675  1.1280
 5472SOL    HW227876   2.318   4.533  10.971  1.0705  0.5386 -0.7487
 5473SOL     OW27877   0.977   1.693   2.651  0.6782 -0.0782 -0.8975
 5473SOL    HW127878   0.941   1.765   2.599 -0.2163  0.2966  0.2182
 5473SOL    HW227879   0.953   1.622   2.592 -2.2039  1.1703 -1.2733
 5474SOL     OW27880   1.060   3.973   3.131  0.3518  0.7403 -0.2616
 5474SOL    HW127881   1.019   3.932   3.207 -0.6454 -0.6013 -1.5141
 5474SOL    HW227882   1.030   3.911   3.064  0.5401  0.1147  0.2269
 5475SOL     OW27883   3.109   2.955   8.983 -0.1149  0.5099 -0.0514
 5475SOL    HW127884   3.107   2.974   8.890 -1.1584  0.9935  0.0699
 5475SOL    HW227885   3.200   2.972   9.005 -0.4153  1.7940  0.1739
 5476SOL     OW27886   0.667   4.462   0.361  0.8130  0.1701 -0.3427
 5476SOL    HW127887   0.656   4.512   0.280  0.6110 -1.1031 -1.1108
 5476SOL    HW227888   0.656   4.529   0.428 -2.5252 -0.2486 -0.4498
 5477SOL     OW27889   0.479   2.356   6.807  0.0951 -0.8764 -0.5098
 5477SOL    HW127890   0.540   2.422   6.840  1.8735 -1.7681 -1.9922
 5477SOL    HW227891   0.433   2.334   6.887 -0.3900  0.7548 -0.3291
 5478SOL     OW27892   1.756   1.526  15.500  0.2978  1.0399  0.6773
 5478SOL    HW127893   1.665   1.542  15.522  0.0740  2.1265 -1.0950
 5478SOL    HW227894   1.772   1.451  15.559  0.3316  0.9984  0.6159
 5479SOL     OW27895   1.880   1.340   0.118  0.1800 -0.1793  0.1719
 5479SOL    HW127896   1.880   1.246   0.099 -2.9806 -0.4189  1.2695
 5479SOL    HW227897   1.967   1.365   0.088  0.2387 -0.8786 -0.2314
 5480SOL     OW27898   0.643   3.641   7.033  0.4186 -0.6942  0.1474
 5480SOL    HW127899   0.616   3.729   7.062 -2.1694 -1.7108  0.8042
 5480SOL    HW227900   0.704   3.666   6.964  0.1548  0.5659  0.3554
 5481SOL     OW27901   3.954   2.812  14.938 -0.1405  0.1952  0.1257
 5481SOL    HW127902   3.980   2.862  14.860  2.9631 -0.4230  0.7502
 5481SOL    HW227903   4.044   2.818  14.971  0.0119 -0.0765 -0.2401
 5482SOL     OW27904   1.235   4.140   0.170  0.3189 -0.0177 -0.3829
 5482SOL    HW127905   1.321   4.115   0.137  0.0592 -1.7296  0.2077
 5482SOL    HW227906   1.181   4.087   0.112  0.4442 -3.0599  2.2170
 5483SOL     OW27907   0.809   0.061   5.164 -0.4180 -0.0136  0.4318
 5483SOL    HW127908   0.752   0.013   5.225 -1.4805  2.7141  1.5616
 5483SOL    HW227909   0.784   0.045   5.073  0.2459 -0.9305  0.4121
 5484SOL     OW27910   3.546   0.196  16.351  0.0500 -0.0225 -0.3717
 5484SOL    HW127911   3.547   0.245  16.269  0.6382 -1.0811 -0.9939
 5484SOL    HW227912   3.546   0.258  16.424  0.5346 -1.1991  0.6381
 5485SOL     OW27913   2.071   2.815   5.309 -0.2337  0.2186  0.3042
 5485SOL    HW127914   2.130   2.882   5.274 -1.8107  1.7202  0.5506
 5485SOL    HW227915   2.060   2.840   5.400  1.6646  2.5514 -0.1099
 5486SOL     OW27916   4.077   0.794   8.241 -0.3859  0.4387 -0.5942
 5486SOL    HW127917   4.029   0.745   8.308  0.4267 -1.4773 -1.4079
 5486SOL    HW227918   4.058   0.884   8.266 -0.5694  0.1242  0.4176
 5487SOL     OW27919   3.881   3.774   9.420 -0.3759  0.1678 -0.2257
 5487SOL    HW127920   3.960   3.766   9.366 -0.3845 -0.4118 -0.1537
 5487SOL    HW227921   3.924   3.795   9.503  0.2974 -1.6839 -0.1019
 5488SOL     OW27922   3.498   2.330   0.668 -0.5369 -0.2369  0.0303
 5488SOL    HW127923   3.498   2.422   0.692  1.3906 -0.2305 -0.0103
 5488SOL    HW227924   3.410   2.306   0.638  0.1712 -0.0439 -2.2373
 5489SOL     OW27925   0.590   0.536   3.891  0.9395 -0.3185 -0.1287
 5489SOL    HW127926   0.516   0.502   3.841  0.0508  1.1459  0.1964
 5489SOL    HW227927   0.631   0.451   3.908 -0.2592 -0.5505  1.5296
 5490SOL     OW27928   0.368   1.486   7.867  0.3540  0.0672 -0.2429
 5490SOL    HW127929   0.349   1.421   7.934 -1.7991  0.0137 -0.9175
 5490SOL    HW227930   0.435   1.434   7.822  0.7151 -0.7579  1.2416
 5491SOL     OW27931   1.364   4.092   0.528 -0.0041 -0.8516  0.1427
 5491SOL    HW127932   1.275   4.111   0.497 -0.6709 -1.8207  1.4836
 5491SOL    HW227933   1.364   3.997   0.514 -0.2053 -0.8353  0.0326
 5492SOL     OW27934   3.946   2.012  16.132  0.6534  0.4796 -0.0372
 5492SOL    HW127935   4.030   2.057  16.131  0.9363 -0.0575 -0.2801
 5492SOL    HW227936   3.944   1.954  16.208  0.0981 -1.7293 -1.7252
 5493SOL     OW27937   1.067   4.427   0.068  0.1550 -0.2254  0.5898
 5493SOL    HW127938   1.036   4.385   0.148  0.1903 -0.5091  0.4514
 5493SOL    HW227939   1.041   4.367  17.696 -1.0463  0.4750  0.4239
 5494SOL     OW27940   4.384   2.819   6.754  0.0018  0.3493  0.1330
 5494SOL    HW127941   4.415   2.850   6.670 -4.2266  0.5959 -1.3293
 5494SOL    HW227942   4.466   2.812   6.803  0.1962 -0.0234 -0.2484
 5495SOL     OW27943   2.431   1.187   4.614  0.2285 -0.0627  0.4631
 5495SOL    HW127944   2.340   1.214   4.622  0.2114 -0.3716  1.2523
 5495SOL    HW227945   2.453   1.233   4.533 -0.7592 -1.4420 -0.5911
 5496SOL     OW27946   0.629   2.496  12.406  0.1266 -0.1763  0.1270
 5496SOL    HW127947   0.646   2.467  12.496 -1.5105 -1.3921  0.0492
 5496SOL    HW227948   0.693   2.566  12.396  2.0488 -2.2252 -1.7874
 5497SOL     OW27949   4.283   0.781   2.685  0.1095  0.1099  0.0699
 5497SOL    HW127950   4.237   0.826   2.614  2.1961  1.8263 -0.2002
 5497SOL    HW227951   4.374   0.800   2.659  0.1728 -0.6777 -0.2627
 5498SOL     OW27952   0.272   1.331   2.426 -0.8863 -0.3296 -0.5499
 5498SOL    HW127953   0.308   1.349   2.339 -0.9785 -0.1826 -0.5584
 5498SOL    HW227954   0.275   1.235   2.423 -2.7932 -0.3568 -1.4723
 5499SOL     OW27955   1.921   1.681   1.841 -0.0998 -0.2719  0.2350
 5499SOL    HW127956   1.871   1.632   1.905  0.7763  0.1918  1.2757
 5499SOL    HW227957   1.905   1.772   1.868  1.4569  0.9215 -2.8344
 5500SOL     OW27958   3.075   0.647   4.407  1.2645  0.0774 -0.5550
 5500SOL    HW127959   3.066   0.661   4.501 -1.3472  2.1819 -1.1303
 5500SOL    HW227960   3.055   0.554   4.397 -0.5724  0.0694  3.3036
 5501SOL     OW27961   0.991   4.722   1.388  0.3572 -0.3699 -0.7601
 5501SOL    HW127962   0.968   0.073   1.333 -1.5616  0.2004  0.7886
 5501SOL    HW227963   0.929   4.653   1.363  0.8670 -1.0629 -0.0916
 5502SOL     OW27964   2.726   3.760   5.768 -0.1393  0.0015 -0.2109
 5502SOL    HW127965   2.636   3.786   5.748  0.1357  0.4344 -0.8530
 5502SOL    HW227966   2.724   3.713   5.852  2.6464  1.0702  0.4221
 5503SOL     OW27967   3.770   0.595   7.301 -0.1311  0.2076 -0.3007
 5503SOL    HW127968   3.817   0.639   7.372 -1.7319  1.4212  0.0270
 5503SOL    HW227969   3.802   0.646   7.227  0.8964  1.9958  1.3703
 5504SOL     OW27970   2.454   0.288   2.260 -0.5532 -0.5691  0.1293
 5504SOL    HW127971   2.491   0.248   2.182  0.7383 -0.3347  0.6321
 5504SOL    HW227972   2.450   0.215   2.322  0.5933  1.2427  2.3193
 5505SOL     OW27973   4.527   0.970   5.955  0.1504 -0.3524 -0.6402
 5505SOL    HW127974   4.552   0.921   5.876 -0.0083 -0.7083 -0.4661
 5505SOL    HW227975   4.608   0.944   6.000  1.5255  1.2131 -2.1750
 5506SOL     OW27976   3.272   2.993   8.234  0.6625  0.4087  0.6181
 5506SOL    HW127977   3.364   2.978   8.211 -0.2042  0.2605 -2.8412
 5506SOL    HW227978   3.282   3.085   8.256  2.0834  0.5988 -0.8056
 5507SOL     OW27979   4.682   0.412   4.818 -0.4128  0.3049 -0.0313
 5507SOL    HW127980   4.610   0.439   4.761 -0.8811  0.2800  0.5530
 5507SOL    HW227981   4.687   0.487   4.878  2.1115  1.5970 -1.8701
 5508SOL     OW27982   4.445   3.363   9.449 -0.0562  0.1567 -0.1339
 5508SOL    HW127983   4.507   3.291   9.464 -1.4367 -0.6858  1.5677
 5508SOL    HW227984   4.497   3.430   9.495 -2.0868  1.1837  0.6770
 5509SOL     OW27985   0.128   2.384   0.023 -0.6946 -0.5174  0.2079
 5509SOL    HW127986   0.073   2.346   0.091  0.1132 -2.7134 -0.3899
 5509SOL    HW227987   0.086   2.381  17.635 -0.3486  1.7809 -0.0643
 5510SOL     OW27988   4.116   1.733  15.519  0.0070  0.3800  0.8534
 5510SOL    HW127989   4.184   1.800  15.523 -2.6121  2.9495  1.8149
 5510SOL    HW227990   4.111   1.733  15.424  1.4689  0.1483  0.7807
 5511SOL     OW27991   3.555   2.863   6.759 -0.0628 -0.0256 -0.2192
 5511SOL    HW127992   3.543   2.874   6.665  0.6169  1.0385 -0.1890
 5511SOL    HW227993   3.466   2.853   6.791  0.0133 -0.0835 -0.0246
 5512SOL     OW27994   0.111   2.256   4.982  0.4753  0.0976 -0.2800
 5512SOL    HW127995   0.108   2.306   5.063  3.8580 -0.5790  0.2757
 5512SOL    HW227996   0.149   2.176   5.017 -1.5687 -0.5914  0.3692
 5513SOL     OW27997   4.273   1.696  15.017  0.4992 -0.0348 -0.0689
 5513SOL    HW127998   4.245   1.689  14.926 -0.6092 -1.2739  0.3654
 5513SOL    HW227999   4.346   1.756  15.001  0.6734  0.2008  1.5925
 5514SOL     OW28000   2.927   0.398   6.992 -0.6153 -0.3846 -0.4208
 5514SOL    HW128001   2.888   0.475   7.032 -0.4265  0.5848 -2.1285
 5514SOL    HW228002   2.913   0.340   7.068  2.0934 -0.2567  0.1616
 5515SOL     OW28003   0.068   1.013   6.920  0.3396  0.1714 -0.3141
 5515SOL    HW128004   0.027   1.091   6.958 -1.1167  0.5438 -2.6484
 5515SOL    HW228005   0.157   1.016   6.956 -0.1372 -0.4852  0.9247
 5516SOL     OW28006   1.756   3.796   6.828  0.0295  0.7320  0.3663
 5516SOL    HW128007   1.716   3.778   6.913 -2.7762  0.9338 -0.9382
 5516SOL    HW228008   1.757   3.891   6.840  1.7994  0.7420  0.1576
 5517SOL     OW28009   0.356   2.794   3.539  0.3380 -0.0256 -0.1186
 5517SOL    HW128010   0.326   2.812   3.450  0.5686 -0.7742 -0.3474
 5517SOL    HW228011   0.288   2.731   3.563  0.9387 -0.8287 -0.5572
 5518SOL     OW28012   1.729   3.186   7.654 -0.1722 -0.1382  0.0009
 5518SOL    HW128013   1.796   3.196   7.722 -0.2361 -3.5943  0.5664
 5518SOL    HW228014   1.740   3.272   7.613 -1.3371 -0.5437 -1.1229
 5519SOL     OW28015   3.062   4.122  11.891 -0.3660  0.3801  0.0280
 5519SOL    HW128016   3.019   4.038  11.874  0.3428  0.5883 -2.8877
 5519SOL    HW228017   2.993   4.188  11.881  1.6252  2.4122 -0.4742
 5520SOL     OW28018   4.271   2.335   5.849  0.1260  0.1354 -0.2832
 5520SOL    HW128019   4.349   2.296   5.889  0.0015 -1.4229 -1.5920
 5520SOL    HW228020   4.221   2.254   5.843  0.1099  0.0761  0.7691
 5521SOL     OW28021   1.537   3.613   0.963  0.0606  0.1206  0.2336
 5521SOL    HW128022   1.497   3.566   0.890 -1.9441  0.3896  1.1596
 5521SOL    HW228023   1.629   3.585   0.957 -0.2244 -0.7258 -0.2358
 5522SOL     OW28024   2.958   2.810   3.416  0.3789 -0.0201  0.0791
 5522SOL    HW128025   3.029   2.815   3.480 -1.9896 -0.3208  2.7387
 5522SOL    HW228026   2.892   2.770   3.473  1.3047 -2.3784 -0.4908
 5523SOL     OW28027   1.874   4.712   3.283 -0.4066  0.3364 -0.2447
 5523SOL    HW128028   1.920   4.667   3.353  1.2769 -0.5261 -1.8953
 5523SOL    HW228029   1.945   4.709   3.219  0.3662  1.0749  0.5729
 5524SOL     OW28030   3.840   1.552   7.958  0.6222  0.1411 -0.0340
 5524SOL    HW128031   3.893   1.495   7.903  0.1946 -0.4479  0.1651
 5524SOL    HW228032   3.829   1.492   8.032  0.1368  1.6652  1.1461
 5525SOL     OW28033   2.955   4.098   2.014  0.3799 -0.0592  0.4842
 5525SOL    HW128034   2.965   4.189   2.043 -1.8159  0.2434  0.2947
 5525SOL    HW228035   2.953   4.111   1.919 -0.7025 -0.0472  0.5141
 5526SOL     OW28036   2.251   3.434   2.524 -0.0369 -0.4193  0.1380
 5526SOL    HW128037   2.214   3.509   2.477  0.2653 -0.5083 -0.2410
 5526SOL    HW228038   2.337   3.443   2.483 -0.9679 -0.0119 -1.7269
 5527SOL     OW28039   2.672   3.753   7.899 -0.2332  0.4260 -0.5321
 5527SOL    HW128040   2.760   3.787   7.915 -0.0138  0.5446 -1.9950
 5527SOL    HW228041   2.623   3.803   7.964 -0.7631  1.0665 -1.4146
 5528SOL     OW28042   0.736   4.223   9.155 -0.0896  0.0617  0.0517
 5528SOL    HW128043   0.823   4.223   9.115 -0.2433 -1.3491 -0.2936
 5528SOL    HW228044   0.688   4.268   9.086  0.2889  1.1431  0.4936
 5529SOL     OW28045   3.998   3.848  10.523  0.4832  0.0250  0.5472
 5529SOL    HW128046   4.052   3.771  10.538  1.3232  0.2357 -1.3306
 5529SOL    HW228047   4.034   3.924  10.569  0.2585  0.1850  0.4609
 5530SOL     OW28048   0.046   3.376  16.685  0.3995  0.1696 -0.3543
 5530SOL    HW128049   0.109   3.327  16.738 -1.3922 -0.2864  1.3570
 5530SOL    HW228050   0.093   3.458  16.669  0.7964  0.1530  0.7019
 5531SOL     OW28051   2.382   4.329  10.552  0.7121  0.3529 -0.1658
 5531SOL    HW128052   2.393   4.308  10.459 -0.6499  1.9568 -0.7010
 5531SOL    HW228053   2.305   4.273  10.561  1.2288 -0.7216 -2.3876
 5532SOL     OW28054   2.907   0.286   2.663 -0.0109 -0.0979 -0.0228
 5532SOL    HW128055   2.915   0.377   2.635  0.8835 -0.0933  0.2426
 5532SOL    HW228056   2.979   0.254   2.608 -0.4679 -0.5827 -0.3481
 5533SOL     OW28057   3.303   4.430   7.047  0.1641  0.2902  0.0747
 5533SOL    HW128058   3.265   4.449   7.133 -0.3447 -0.1591 -0.0504
 5533SOL    HW228059   3.232   4.429   6.982 -1.3951  1.7731  1.7606
 5534SOL     OW28060   2.547   0.920   7.606 -0.1727 -0.4503  0.2644
 5534SOL    HW128061   2.563   0.828   7.586  3.1051  0.6538 -2.2759
 5534SOL    HW228062   2.498   0.919   7.688 -0.3240  1.2358  0.1886
 5535SOL     OW28063   3.992   2.727   9.022 -0.0358  0.4415  0.2471
 5535SOL    HW128064   3.904   2.760   9.038  0.4441  1.9142 -0.1333
 5535SOL    HW228065   4.048   2.805   9.028 -0.5541  0.7583  0.9142
 5536SOL     OW28066   1.389   1.661   2.327  0.2426  0.0328 -0.2409
 5536SOL    HW128067   1.321   1.622   2.382  0.2363  0.5408  0.1058
 5536SOL    HW228068   1.361   1.751   2.342 -2.1505 -0.3156 -2.5924
 5537SOL     OW28069   2.746   2.567   2.748 -0.3271  0.1152  0.0166
 5537SOL    HW128070   2.761   2.475   2.725 -0.5640  0.1733 -0.3775
 5537SOL    HW228071   2.660   2.553   2.787 -0.4394  1.0505  0.0955
 5538SOL     OW28072   3.998   0.675   8.470 -0.1024 -0.5106 -0.0726
 5538SOL    HW128073   4.025   0.587   8.497  0.8579 -0.0935  0.3311
 5538SOL    HW228074   3.953   0.706   8.548  1.2497  0.4714  0.3178
 5539SOL     OW28075   4.599   1.804   9.026 -0.3295  0.4563  0.4436
 5539SOL    HW128076   4.680   1.833   9.069 -0.2969 -1.5489  1.7077
 5539SOL    HW228077   4.643   1.748   8.962 -0.8457  0.0124  0.4886
 5540SOL     OW28078   0.462   4.705   4.139  0.1505 -0.1049  0.2590
 5540SOL    HW128079   0.520   0.057   4.148  0.1374  0.0320 -0.8722
 5540SOL    HW228080   0.444   4.706   4.233 -3.1448 -1.0249 -0.3614
 5541SOL     OW28081   2.719   1.415   3.526  0.1552  0.2036  0.0054
 5541SOL    HW128082   2.702   1.340   3.470  1.1090  2.0518 -2.7632
 5541SOL    HW228083   2.689   1.489   3.473 -0.6346  1.8116  2.6597
 5542SOL     OW28084   0.214   0.953  11.867 -0.3234  0.2085 -0.3713
 5542SOL    HW128085   0.142   0.913  11.917  0.0059  0.5303  0.3584
 5542SOL    HW228086   0.218   1.037  11.913  2.9268  1.2002 -2.4998
 5543SOL     OW28087   2.056   1.447   8.457 -0.0405  0.1578 -0.0292
 5543SOL    HW128088   2.149   1.469   8.468  0.3737 -2.1121  0.9788
 5543SOL    HW228089   2.059   1.358   8.493 -0.2830 -0.0175 -0.4362
 5544SOL     OW28090   3.903   3.713  11.647 -0.7979  0.1853  0.2207
 5544SOL    HW128091   3.809   3.732  11.655 -0.4423  0.4932  3.5616
 5544SOL    HW228092   3.909   3.636  11.704 -0.4142 -1.2790 -1.7960
 5545SOL     OW28093   3.824   4.468  14.072  0.9134  0.6491  0.2165
 5545SOL    HW128094   3.747   4.523  14.065  0.3043 -0.3018 -0.5234
 5545SOL    HW228095   3.892   4.533  14.090  0.5978  0.5728  1.6444
 5546SOL     OW28096   4.433   0.229   7.516  0.3225  0.4353  0.0635
 5546SOL    HW128097   4.504   0.269   7.466 -0.6917 -0.8081 -2.3580
 5546SOL    HW228098   4.409   0.304   7.570 -1.8093  0.1949 -0.5730
 5547SOL     OW28099   0.096   0.861   5.951 -0.1240  0.3143  0.4562
 5547SOL    HW128100   0.143   0.778   5.961  1.1303  0.3740 -4.8139
 5547SOL    HW228101   0.078   0.874   5.858  0.4922 -1.3871  0.1023
 5548SOL     OW28102   3.356   1.417  13.413 -0.3242  0.4686 -0.4756
 5548SOL    HW128103   3.392   1.410  13.501 -0.5229 -2.2602 -0.6128
 5548SOL    HW228104   3.430   1.412  13.353  0.5121  0.9092  0.5285
 5549SOL     OW28105   2.388   1.994   5.704 -0.0287 -0.1131  0.1987
 5549SOL    HW128106   2.401   1.939   5.626  0.5715 -0.7887  0.7742
 5549SOL    HW228107   2.311   1.956   5.745 -1.5660 -0.0285 -2.5993
 5550SOL     OW28108   3.526   4.601   9.185  0.2551  0.3290  0.8646
 5550SOL    HW128109   3.471   4.622   9.261 -2.4318  0.2440 -1.0480
 5550SOL    HW228110   3.466   4.538   9.144  0.8177 -0.1387  0.7621
 5551SOL     OW28111   4.276   0.733   7.641  0.1350 -0.5188  0.2214
 5551SOL    HW128112   4.249   0.822   7.665  2.2363  0.7011 -2.0044
 5551SOL    HW228113   4.322   0.706   7.721 -0.1816  0.1031  0.6156
 5552SOL     OW28114   2.315   3.476   1.257  0.3881 -0.4037 -0.1489
 5552SOL    HW128115   2.261   3.428   1.194  0.2714 -2.5476  1.5961
 5552SOL    HW228116   2.380   3.418   1.297  2.6037  0.0285 -3.1441
 5553SOL     OW28117   0.974   0.283   5.411 -0.3309  0.4985  0.8042
 5553SOL    HW128118   0.888   0.250   5.436 -0.7603  0.3453 -0.8854
 5553SOL    HW228119   0.946   0.335   5.336  2.3527  0.8871  0.0862
 5554SOL     OW28120   4.155   0.321   5.037 -0.0078 -0.2080  0.0513
 5554SOL    HW128121   4.063   0.348   5.031 -0.6445 -2.6446 -0.8707
 5554SOL    HW228122   4.140   0.230   5.013 -0.9686  0.2821 -1.2736
 5555SOL     OW28123   1.323   0.222   6.599 -0.1454 -0.3947  0.6425
 5555SOL    HW128124   1.333   0.131   6.571  1.2065  0.4602 -1.6657
 5555SOL    HW228125   1.275   0.261   6.527  2.1488 -0.4295 -0.9075
 5556SOL     OW28126   2.947   1.426   2.410 -0.0280 -0.4459 -0.7452
 5556SOL    HW128127   3.016   1.426   2.343  0.1394 -1.3715 -0.5656
 5556SOL    HW228128   2.928   1.520   2.404 -0.0619 -0.2330  2.4796
 5557SOL     OW28129   0.794   2.609   5.233 -0.8350  0.8069  0.3944
 5557SOL    HW128130   0.806   2.514   5.244 -1.3213  0.7119  0.1313
 5557SOL    HW228131   0.820   2.623   5.142 -1.1637 -0.5630  0.0823
 5558SOL     OW28132   1.400   4.124   8.071 -0.3795  0.2770 -0.2637
 5558SOL    HW128133   1.406   4.218   8.086 -3.4574  0.5676 -0.8747
 5558SOL    HW228134   1.332   4.097   8.133 -0.2718 -0.2632 -0.3831
 5559SOL     OW28135   1.361   3.111  10.641 -0.1932  0.1094  0.6021
 5559SOL    HW128136   1.332   3.198  10.671 -2.4247 -0.9192  1.4103
 5559SOL    HW228137   1.452   3.120  10.671  0.5818 -1.9397 -1.1201
 5560SOL     OW28138   4.173   1.112   3.308  0.1586  0.0420 -0.4999
 5560SOL    HW128139   4.266   1.108   3.333 -0.2372  2.3432  1.3063
 5560SOL    HW228140   4.150   1.202   3.327  0.3560  0.2769 -1.3714
 5561SOL     OW28141   1.027   3.235  17.566  0.2380  0.2322  0.1936
 5561SOL    HW128142   1.007   3.177  17.639 -0.3187 -2.5568 -2.1831
 5561SOL    HW228143   1.065   3.296  17.630 -0.4835  1.1149 -0.2147
 5562SOL     OW28144   1.288   3.904   7.253 -0.0599  0.4098  0.1475
 5562SOL    HW128145   1.237   3.915   7.173 -0.8155  1.2617  0.7460
 5562SOL    HW228146   1.356   3.968   7.229 -0.3490  0.6031 -0.1543
 5563SOL     OW28147   2.614   4.514   0.697 -0.5329  0.1298  0.4103
 5563SOL    HW128148   2.681   4.562   0.745 -0.4206  0.0581  0.3260
 5563SOL    HW228149   2.568   4.461   0.763  1.5376 -0.3958  1.4157
 5564SOL     OW28150   1.175   2.929   8.168  0.4517  0.5483  0.4173
 5564SOL    HW128151   1.085   2.898   8.182  0.8584 -1.5052 -1.5063
 5564SOL    HW228152   1.146   3.020   8.153 -1.4655 -0.3393 -1.4113
 5565SOL     OW28153   3.431   4.606   3.335 -0.5566  0.4177  0.0144
 5565SOL    HW128154   3.491   4.655   3.391  0.5317 -1.8442  0.8349
 5565SOL    HW228155   3.485   4.613   3.257 -0.9591 -1.3104 -0.4117
 5566SOL     OW28156   4.305   4.430   2.227  0.3764 -0.0098 -0.6189
 5566SOL    HW128157   4.343   4.364   2.284  1.9681  1.1651 -0.3119
 5566SOL    HW228158   4.343   4.430   2.139  0.8643  1.5816 -0.4118
 5567SOL     OW28159   3.610   4.413   6.254 -0.1235 -0.4346 -0.3256
 5567SOL    HW128160   3.680   4.354   6.226 -0.1761  0.6384 -2.6786
 5567SOL    HW228161   3.634   4.488   6.199  1.0620 -0.2673  0.4191
 5568SOL     OW28162   1.564   3.152  13.024  0.4865  0.4672  0.1010
 5568SOL    HW128163   1.523   3.067  13.009  1.2639 -0.1707  1.5137
 5568SOL    HW228164   1.519   3.211  12.964  0.6381 -0.3345 -0.7990
 5569SOL     OW28165   2.589   2.972   4.947  0.7284 -0.3923  0.1690
 5569SOL    HW128166   2.535   2.897   4.921 -2.3559  1.9684 -0.2709
 5569SOL    HW228167   2.541   3.035   4.893 -0.3618 -1.0114  0.4117
 5570SOL     OW28168   3.457   2.194   8.812 -0.4738 -0.2618 -0.0316
 5570SOL    HW128169   3.444   2.285   8.789 -0.5518  0.2597  2.0332
 5570SOL    HW228170   3.442   2.215   8.904 -0.8490  1.3371 -0.4695
 5571SOL     OW28171   4.388   3.306   2.032 -0.3227 -0.0055  0.3947
 5571SOL    HW128172   4.372   3.400   2.044 -2.4434 -0.3799  0.5071
 5571SOL    HW228173   4.380   3.296   1.938  0.0334  0.9943  0.2586
 5572SOL     OW28174   1.629   2.990  13.344 -1.1151 -0.6063  0.1918
 5572SOL    HW128175   1.633   3.011  13.251  0.2235 -0.4861  0.2721
 5572SOL    HW228176   1.536   2.970  13.355 -1.3049 -0.1603 -0.5938
 5573SOL     OW28177   3.790   2.713  11.478  0.6277 -0.5629  0.6197
 5573SOL    HW128178   3.747   2.654  11.541  0.9703 -2.5653 -1.0302
 5573SOL    HW228179   3.791   2.796  11.525  0.3238  0.1195 -0.5748
 5574SOL     OW28180   4.304   0.443   7.659 -0.1438  0.0591 -0.2559
 5574SOL    HW128181   4.241   0.411   7.724  1.6106 -1.5894  0.6480
 5574SOL    HW228182   4.273   0.530   7.634 -0.0681 -0.2817 -1.5333
 5575SOL     OW28183   3.873   3.898   4.387 -0.0625 -0.0524  0.3801
 5575SOL    HW128184   3.794   3.950   4.370  1.2292  1.6070 -0.4827
 5575SOL    HW228185   3.859   3.876   4.480 -0.3943 -0.5636  0.2143
 5576SOL     OW28186   1.435   3.354   5.832 -0.2099  0.0306 -0.1049
 5576SOL    HW128187   1.385   3.278   5.802 -2.7299  1.5125  0.2540
 5576SOL    HW228188   1.388   3.365   5.915 -2.4743  0.5675 -1.4367
 5577SOL     OW28189   3.083   1.884   5.776  0.2583  0.4842 -0.2486
 5577SOL    HW128190   3.162   1.935   5.788 -0.8777  2.3881 -0.8079
 5577SOL    HW228191   3.010   1.936   5.741  1.4474 -0.0017 -3.4553
 5578SOL     OW28192   1.509   2.902  12.926 -0.1541  0.2256 -0.2827
 5578SOL    HW128193   1.599   2.892  12.955  0.0978  3.3464  0.0003
 5578SOL    HW228194   1.456   2.865  12.996  1.4579 -1.6156 -0.0241
 5579SOL     OW28195   2.633   0.469   2.352  0.4944 -0.1998  0.0041
 5579SOL    HW128196   2.719   0.428   2.342  1.4893  1.1743  2.9908
 5579SOL    HW228197   2.576   0.399   2.320  3.0028 -1.4759 -1.6836
 5580SOL     OW28198   4.216   4.018   4.035  0.0541 -0.0404  0.1981
 5580SOL    HW128199   4.281   4.088   4.030  2.3807 -2.1053  1.5128
 5580SOL    HW228200   4.245   3.968   4.111  1.2544 -1.0251 -0.9277
 5581SOL     OW28201   2.790   4.023   6.980  0.2144 -0.2389 -0.0468
 5581SOL    HW128202   2.788   4.002   6.886  0.9724 -2.8914  0.5243
 5581SOL    HW228203   2.703   4.056   7.001 -0.1134 -1.0538 -0.1366
 5582SOL     OW28204   1.276   3.484   1.790 -0.0522 -0.4364  0.3093
 5582SOL    HW128205   1.234   3.567   1.769 -0.9683 -0.5782  1.5481
 5582SOL    HW228206   1.209   3.446   1.847 -0.9096  0.7211  0.0515
 5583SOL     OW28207   4.128   2.878  15.253 -0.3337  0.8961 -0.1171
 5583SOL    HW128208   4.212   2.860  15.296  0.2196  0.1485 -1.4838
 5583SOL    HW228209   4.156   2.878  15.161  0.8990  0.5722  0.2561
 5584SOL     OW28210   2.425   2.415  11.131 -0.1730  0.1496  0.0662
 5584SOL    HW128211   2.461   2.378  11.050  2.3667 -0.2163  1.3715
 5584SOL    HW228212   2.501   2.458  11.170  0.3587  0.8663 -1.7749
 5585SOL     OW28213   1.770   3.726   0.087 -0.0628 -0.2657  0.2607
 5585SOL    HW128214   1.700   3.694   0.143  0.2797 -1.2635  0.1332
 5585SOL    HW228215   1.715   3.765   0.020  0.0270 -0.0623  0.3077
 5586SOL     OW28216   0.530   3.346   1.389 -0.2566  0.2525 -0.4501
 5586SOL    HW128217   0.556   3.359   1.481 -0.6354  1.0333 -0.4494
 5586SOL    HW228218   0.453   3.402   1.385 -1.0252 -0.7209  0.6063
 5587SOL     OW28219   2.611   1.748  16.116  0.1777 -0.1977  0.3845
 5587SOL    HW128220   2.605   1.714  16.027 -0.5451 -1.3997  0.8868
 5587SOL    HW228221   2.590   1.668  16.164  1.5672  0.1944  1.6570
 5588SOL     OW28222   0.899   2.696   2.036  0.0379 -0.4671  0.0512
 5588SOL    HW128223   0.993   2.708   2.051  0.4365 -2.2586 -1.0059
 5588SOL    HW228224   0.882   2.713   1.943  1.2335 -0.9187 -0.2425
 5589SOL     OW28225   4.191   0.372   2.337 -0.3942 -0.4294  0.0595
 5589SOL    HW128226   4.097   0.360   2.336 -0.3979 -0.5337  0.9672
 5589SOL    HW228227   4.219   0.346   2.250  1.6831 -2.1091  1.2048
 5590SOL     OW28228   3.203   4.124   7.118  1.0419  0.5200 -0.2046
 5590SOL    HW128229   3.159   4.209   7.110 -2.3248 -1.4097 -1.8455
 5590SOL    HW228230   3.280   4.148   7.170  0.3839  2.2713 -0.0434
 5591SOL     OW28231   3.602   0.166  14.126 -0.1985  0.1993  0.8837
 5591SOL    HW128232   3.594   0.095  14.189 -1.6445 -0.8337 -0.4616
 5591SOL    HW228233   3.518   0.207  14.146  0.0635  2.4819 -2.7885
 5592SOL     OW28234   2.191   3.725   8.339 -0.4213  0.0500 -0.4854
 5592SOL    HW128235   2.109   3.683   8.313 -1.8225  1.8669  0.9928
 5592SOL    HW228236   2.191   3.707   8.433  0.7842 -0.0075 -0.4885
 5593SOL     OW28237   2.516   0.091   7.260 -0.0106  0.5572  0.7442
 5593SOL    HW128238   2.471   0.176   7.255 -0.3955  0.3051 -0.1259
 5593SOL    HW228239   2.483   0.041   7.185  1.7672 -1.4501  1.2986
 5594SOL     OW28240   0.288   2.103   2.233 -0.0965  0.2163  0.4168
 5594SOL    HW128241   0.249   2.016   2.229  0.1490  0.2146 -2.2109
 5594SOL    HW228242   0.240   2.149   2.301 -1.7770  0.0406 -0.6487
 5595SOL     OW28243   4.612   0.921  10.965  0.1029  0.2702 -0.4849
 5595SOL    HW128244   4.563   0.983  10.912  1.8206  1.2654 -0.9136
 5595SOL    HW228245   4.548   0.850  10.967  3.3477 -2.6765 -0.7469
 5596SOL     OW28246   3.370   1.126   0.083  0.5018 -0.0769 -0.1889
 5596SOL    HW128247   3.313   1.203   0.082  0.7388  0.1144  0.6794
 5596SOL    HW228248   3.437   1.152   0.146 -2.2216  0.0197  2.6525
 5597SOL     OW28249   0.775   0.316   9.373 -0.0742  0.1557  0.3129
 5597SOL    HW128250   0.776   0.381   9.302  1.6070 -0.3765 -0.1602
 5597SOL    HW228251   0.793   0.370   9.451 -0.0137 -0.0503  0.4409
 5598SOL     OW28252   0.205   0.291   8.849  0.2570  0.3855  0.6208
 5598SOL    HW128253   0.238   0.268   8.763 -1.2751 -0.1361  0.1720
 5598SOL    HW228254   0.283   0.298   8.905  1.4179 -0.5424 -0.8971
 5599SOL     OW28255   1.608   0.246  15.725  0.3165 -0.6516 -0.0947
 5599SOL    HW128256   1.616   0.263  15.631  2.0520 -0.4657  0.0887
 5599SOL    HW228257   1.702   0.240  15.739 -0.1221 -0.1280  3.1812
 5600SOL     OW28258   0.968   1.835   9.473 -0.0054  0.1439 -0.3108
 5600SOL    HW128259   1.026   1.910   9.482 -1.8580  1.5730 -0.3143
 5600SOL    HW228260   0.987   1.790   9.556  2.0643  0.8423 -0.4054
 5601SOL     OW28261   2.373   3.766   7.630  0.0362  0.6845 -0.3066
 5601SOL    HW128262   2.393   3.834   7.695 -0.5531  0.9838 -0.4418
 5601SOL    HW228263   2.384   3.687   7.683 -1.8780 -0.0069 -0.9355
 5602SOL     OW28264   4.152   1.019  12.285  0.3145  0.4832  0.1824
 5602SOL    HW128265   4.065   1.032  12.324  0.0088  0.8822 -0.6252
 5602SOL    HW228266   4.211   1.047  12.355  0.6992 -1.6783  0.7018
 5603SOL     OW28267   4.412   1.823   1.776 -0.5472 -0.5081  0.8281
 5603SOL    HW128268   4.369   1.817   1.690  1.2454  0.7514 -0.1586
 5603SOL    HW228269   4.417   1.918   1.791 -0.0465 -0.3636 -0.2478
 5604SOL     OW28270   4.490   0.110  12.144  0.1033 -0.6445 -0.5983
 5604SOL    HW128271   4.403   0.096  12.107 -0.5396 -1.7908  1.4115
 5604SOL    HW228272   4.466   0.130  12.234  1.0488 -1.6175 -0.1471
 5605SOL     OW28273   4.714   2.508  14.516  0.1303 -0.2175 -0.3022
 5605SOL    HW128274   4.675   2.421  14.512 -0.6387  0.1835 -1.6393
 5605SOL    HW228275   0.060   2.479  14.573 -1.0374  0.9807  1.7456
 5606SOL     OW28276   2.941   0.603   5.267 -0.1769  0.3717  0.0058
 5606SOL    HW128277   2.873   0.536   5.263  0.3128 -0.0267 -1.9046
 5606SOL    HW228278   2.896   0.673   5.313 -0.5302  0.4842 -0.5025
 5607SOL     OW28279   0.875   1.780   7.239  0.4970 -0.4000  0.2677
 5607SOL    HW128280   0.925   1.850   7.279 -1.8091  0.9300  0.8295
 5607SOL    HW228281   0.863   1.718   7.311  1.8018 -0.5253  0.3763
 5608SOL     OW28282   2.131   3.165   1.729  0.4284  0.4450 -0.5921
 5608SOL    HW128283   2.070   3.192   1.797  0.2648 -0.8651 -0.2189
 5608SOL    HW228284   2.220   3.182   1.761 -0.0783 -1.9904  2.0422
 5609SOL     OW28285   0.221   1.879   1.803  0.0114 -0.1905 -0.2754
 5609SOL    HW128286   0.154   1.821   1.769 -0.8696  1.0123 -0.6074
 5609SOL    HW228287   0.178   1.964   1.794 -0.0001  0.0666  2.3081
 5610SOL     OW28288   3.377   2.995   3.447  0.1024 -0.9249 -0.0339
 5610SOL    HW128289   3.415   2.917   3.488 -1.7227 -2.1327 -0.6319
 5610SOL    HW228290   3.452   3.050   3.467  0.2630 -1.6666  1.4310
 5611SOL     OW28291   3.372   2.968   3.761  0.1109 -0.1432  0.2394
 5611SOL    HW128292   3.400   3.048   3.806 -0.3069 -0.2745  0.7377
 5611SOL    HW228293   3.448   2.954   3.704  0.2777  0.9124  0.1998
 5612SOL     OW28294   3.142   4.189   4.660 -0.1599  0.1498  0.5780
 5612SOL    HW128295   3.165   4.201   4.568  1.5500  0.7114  1.0922
 5612SOL    HW228296   3.108   4.101   4.644  0.5166  0.1739 -0.9395
 5613SOL     OW28297   4.463   1.771  17.424 -0.1632 -0.0572  0.2881
 5613SOL    HW128298   4.534   1.713  17.397  0.8290  1.6193 -0.7527
 5613SOL    HW228299   4.509   1.842  17.468  1.5139 -1.6268  1.0624
 5614SOL     OW28300   0.025   3.344   1.433 -0.0119 -0.2660  0.2008
 5614SOL    HW128301   0.011   3.256   1.398  0.2494 -0.4818  0.6398
 5614SOL    HW228302   0.057   3.392   1.357  3.9868 -1.1092  1.3673
 5615SOL     OW28303   0.207   2.549  13.819  0.2991  0.1589  1.1625
 5615SOL    HW128304   0.114   2.562  13.839  0.6026  3.7734  0.2823
 5615SOL    HW228305   0.249   2.602  13.888  1.9781  1.9604 -1.2221
 5616SOL     OW28306   1.672   2.715   8.844  0.0953 -0.4491 -0.0741
 5616SOL    HW128307   1.660   2.714   8.939 -0.2373  0.9386 -0.0937
 5616SOL    HW228308   1.655   2.806   8.817 -0.4642 -1.6443 -3.8047
 5617SOL     OW28309   0.371   3.082  12.220 -0.5685  0.0758  0.3015
 5617SOL    HW128310   0.316   3.135  12.277  1.3489  0.7789  1.4977
 5617SOL    HW228311   0.417   3.029  12.286 -2.3534 -1.4080  0.3582
 5618SOL     OW28312   4.500   3.809   5.246  0.1330  0.3716  0.4395
 5618SOL    HW128313   4.466   3.883   5.195  1.1103 -0.2448 -1.0999
 5618SOL    HW228314   4.590   3.832   5.268  0.8112 -0.2770 -1.6936
 5619SOL     OW28315   1.340   0.808   7.218  0.4958  0.4454 -0.5998
 5619SOL    HW128316   1.285   0.874   7.177 -0.1805 -0.1945 -0.7123
 5619SOL    HW228317   1.350   0.839   7.309  0.2473 -1.0660 -0.0638
 5620SOL     OW28318   3.219   0.516   0.817 -0.3911  0.1987  0.1240
 5620SOL    HW128319   3.208   0.463   0.738  1.3014 -1.7602  1.2215
 5620SOL    HW228320   3.259   0.600   0.794 -0.7419  0.5444  0.7764
 5621SOL     OW28321   1.916   0.274   1.931 -0.1651  0.5777 -0.1504
 5621SOL    HW128322   1.900   0.339   1.863 -1.2520  0.2813 -0.1748
 5621SOL    HW228323   1.990   0.312   1.979  0.5237 -0.6930 -0.2109
 5622SOL     OW28324   3.849   4.219  12.362 -0.2515  0.1025  0.4087
 5622SOL    HW128325   3.940   4.207  12.333 -0.7395  0.5902 -1.3137
 5622SOL    HW228326   3.831   4.281  12.292  3.3026  0.8241  0.1127
 5623SOL     OW28327   1.650   4.648   3.969 -0.0967  0.2478  0.0707
 5623SOL    HW128328   1.555   4.639   3.965 -0.0173 -1.9680  3.3046
 5623SOL    HW228329   1.687   4.568   4.006 -1.1991 -0.5590 -0.5813
 5624SOL     OW28330   2.013   0.824  10.305 -0.0913  0.0997  0.3703
 5624SOL    HW128331   1.984   0.733  10.301  2.4778 -0.7362  0.2412
 5624SOL    HW228332   2.108   0.811  10.315 -0.3099 -1.1801  0.7603
 5625SOL     OW28333   0.268   4.133  13.752 -0.3085 -0.3319 -0.0980
 5625SOL    HW128334   0.340   4.157  13.693  2.7110  0.0522  3.7309
 5625SOL    HW228335   0.196   4.169  13.700  0.0701  0.9474  0.2707
 5626SOL     OW28336   2.880   1.055   4.260  0.0934 -0.3553  0.2168
 5626SOL    HW128337   2.969   1.064   4.227  0.2877 -1.0819  0.5378
 5626SOL    HW228338   2.861   0.962   4.272 -0.7297 -0.4359 -1.7290
 5627SOL     OW28339   1.130   4.381   6.255 -0.1986 -0.1392 -0.0486
 5627SOL    HW128340   1.115   4.366   6.348  0.1181  2.1291  0.3633
 5627SOL    HW228341   1.046   4.413   6.222 -0.6104 -0.8776  0.2939
 5628SOL     OW28342   1.922   0.426  11.781 -0.4481  0.3384 -0.0363
 5628SOL    HW128343   1.957   0.383  11.859 -2.0497 -0.6870  0.1292
 5628SOL    HW228344   1.875   0.352  11.744  0.4720  0.6048 -1.7049
 5629SOL     OW28345   2.637   3.717   3.330  0.3804  0.3224  0.3835
 5629SOL    HW128346   2.670   3.711   3.241 -0.5748 -0.8092  0.1014
 5629SOL    HW228347   2.584   3.638   3.339  0.1899  0.3752 -0.2791
 5630SOL     OW28348   2.265   4.242   4.586 -0.6418  0.4704 -0.5184
 5630SOL    HW128349   2.175   4.271   4.603 -0.0835  1.0545  1.4712
 5630SOL    HW228350   2.312   4.322   4.613 -2.1870  1.2126 -0.0183
 5631SOL     OW28351   3.393   0.941   7.351  0.0950  0.1450 -0.2441
 5631SOL    HW128352   3.350   1.026   7.356  1.9528  1.0807 -0.2975
 5631SOL    HW228353   3.374   0.903   7.266  1.5271 -1.0091 -0.0560
 5632SOL     OW28354   2.150   2.414   1.776  0.4644  1.1297  0.1809
 5632SOL    HW128355   2.179   2.460   1.855 -1.0877  0.4297  1.1592
 5632SOL    HW228356   2.238   2.395   1.743 -1.3115 -4.0975 -1.4997
 5633SOL     OW28357   0.671   1.128   8.144  0.1332  0.5082  0.3497
 5633SOL    HW128358   0.599   1.160   8.198 -0.8339 -0.4901 -0.3354
 5633SOL    HW228359   0.746   1.126   8.204  1.2948 -2.6176 -1.2035
 5634SOL     OW28360   0.285   0.399   2.580  0.8435  0.1600  0.2598
 5634SOL    HW128361   0.196   0.405   2.544  0.7692 -1.5753  0.1838
 5634SOL    HW228362   0.266   0.442   2.664  2.4562  1.5294 -0.0874
 5635SOL     OW28363   4.104   2.900   0.770  0.1504 -0.1843  0.2384
 5635SOL    HW128364   4.190   2.879   0.807 -1.2882 -0.0520  3.6538
 5635SOL    HW228365   4.106   2.849   0.689 -1.0311 -2.2836  1.5517
 5636SOL     OW28366   2.956   4.522   9.048 -0.1613 -0.1852 -0.1632
 5636SOL    HW128367   2.947   4.448   9.107 -2.3562  0.8874  0.8550
 5636SOL    HW228368   2.949   4.482   8.962 -0.5747  0.7536 -0.5636
 5637SOL     OW28369   1.056   0.689   9.895  0.2939  0.2395  0.7346
 5637SOL    HW128370   1.128   0.752   9.901  1.1534 -0.5897 -0.9238
 5637SOL    HW228371   0.992   0.736   9.840  0.4889 -0.8982 -0.4539
 5638SOL     OW28372   1.497   0.684   9.328  0.5528 -0.1597  0.4560
 5638SOL    HW128373   1.513   0.736   9.407  0.2200 -0.4760  0.7329
 5638SOL    HW228374   1.408   0.654   9.349  2.2815 -4.3506  1.7829
 5639SOL     OW28375   1.335   2.034   5.037 -0.1300 -0.8406  0.1159
 5639SOL    HW128376   1.317   2.114   4.988  2.2408 -0.5646 -0.2844
 5639SOL    HW228377   1.383   2.068   5.113  2.4000 -2.6973 -0.6646
 5640SOL     OW28378   1.304   2.564   5.167 -0.1034 -0.3086  0.1108
 5640SOL    HW128379   1.299   2.644   5.218  0.8630 -1.0162  1.2963
 5640SOL    HW228380   1.399   2.552   5.174  0.0970  2.9812  2.9530
 5641SOL     OW28381   2.458   0.196   1.262 -0.3529 -0.7884  0.0495
 5641SOL    HW128382   2.512   0.270   1.237  1.6866 -1.8409  1.3636
 5641SOL    HW228383   2.470   0.129   1.195 -0.9055 -2.2123  1.3509
 5642SOL     OW28384   4.636   1.509  15.604 -0.0163  0.2982  0.4611
 5642SOL    HW128385   4.566   1.573  15.617  0.4981  0.9864 -0.2163
 5642SOL    HW228386   4.646   1.468  15.690 -3.1327 -0.0700  0.6416
 5643SOL     OW28387   1.804   2.038   4.223 -0.4174  0.2415  0.8478
 5643SOL    HW128388   1.888   2.024   4.179 -0.8207 -0.1724  0.2121
 5643SOL    HW228389   1.836   2.040   4.313  0.0632  0.6656  0.6620
 5644SOL     OW28390   1.182   0.479   3.098 -0.3034 -0.3404  0.3809
 5644SOL    HW128391   1.094   0.473   3.060  0.2408  0.4231 -1.0087
 5644SOL    HW228392   1.233   0.427   3.036 -0.4639 -0.1417  0.0773
 5645SOL     OW28393   3.414   1.604   0.475  0.8635 -0.3350  0.1151
 5645SOL    HW128394   3.402   1.643   0.561 -1.0705  0.5556 -0.5356
 5645SOL    HW228395   3.412   1.678   0.414 -2.6308 -0.4326  0.1084
 5646SOL     OW28396   2.260   2.440   5.187 -0.3671 -0.4150  0.0092
 5646SOL    HW128397   2.248   2.347   5.202 -0.2039 -0.1428  1.8267
 5646SOL    HW228398   2.355   2.447   5.199 -0.5458 -0.3708  1.4421
 5647SOL     OW28399   0.374   4.387  11.706 -0.0687  0.3911 -0.1734
 5647SOL    HW128400   0.300   4.433  11.745  1.4142  1.0117  1.9426
 5647SOL    HW228401   0.420   4.458  11.661  1.5798 -0.4428  0.1832
 5648SOL     OW28402   0.128   2.833   1.831 -0.2535 -0.3539  0.1230
 5648SOL    HW128403   0.118   2.903   1.895 -0.4462 -0.4688  0.2193
 5648SOL    HW228404   0.046   2.783   1.838 -0.9732  0.7174 -0.6727
 5649SOL     OW28405   2.743   1.957  15.265 -0.1389  0.1856  0.0121
 5649SOL    HW128406   2.647   1.960  15.264 -0.2150 -1.4099  1.6389
 5649SOL    HW228407   2.767   2.029  15.207 -0.0319 -0.2460 -0.4869
 5650SOL     OW28408   4.264   3.052   2.992  0.7631  0.2680 -0.2653
 5650SOL    HW128409   4.201   3.077   2.925  0.0658  3.8024  1.6849
 5650SOL    HW228410   4.271   2.957   2.994  0.6280  0.2452 -0.8253
 5651SOL     OW28411   0.679   4.018   8.319  0.1544  0.4178  0.4112
 5651SOL    HW128412   0.690   3.937   8.270  2.3536  2.1442 -1.9479
 5651SOL    HW228413   0.584   4.035   8.320 -0.4010 -2.6759 -0.7036
 5652SOL     OW28414   4.475   1.610   7.423  0.3916 -0.1568 -0.5369
 5652SOL    HW128415   4.387   1.573   7.416 -0.1283  1.2227 -1.2564
 5652SOL    HW228416   4.497   1.591   7.514  0.3704 -4.8408 -1.4961
 5653SOL     OW28417   0.730   3.923  10.228 -0.8860 -0.0694 -0.6730
 5653SOL    HW128418   0.753   4.012  10.256  1.1999 -0.5978 -0.7261
 5653SOL    HW228419   0.813   3.903  10.185 -0.2273 -2.1567  1.6097
 5654SOL     OW28420   4.709   0.028   7.378 -1.0217 -0.0095 -0.0650
 5654SOL    HW128421   0.051   4.714   7.320 -0.1282  0.8887  0.3680
 5654SOL    HW228422   4.637   0.051   7.319 -2.0774 -0.2275  1.1283
 5655SOL     OW28423   3.294   0.004   6.236 -0.2814 -0.5846 -0.6088
 5655SOL    HW128424   3.358   0.074   6.223  0.8467 -1.4380  0.3479
 5655SOL    HW228425   3.334   4.644   6.211 -1.0291 -0.5529 -1.9233
 5656SOL     OW28426   2.995   1.665  17.310 -0.8109  0.2097  0.7192
 5656SOL    HW128427   2.973   1.728  17.241  2.1180  0.6146  0.1488
 5656SOL    HW228428   2.929   1.601  17.283 -0.0796  0.4447 -1.6959
 5657SOL     OW28429   4.210   1.564  10.840 -0.3555  0.2700 -0.0257
 5657SOL    HW128430   4.122   1.541  10.809  0.2932 -1.2111 -0.8018
 5657SOL    HW228431   4.234   1.618  10.765  1.0922  0.6006  0.6712
 5658SOL     OW28432   2.242   1.024   6.920  0.2980  0.1961 -0.2948
 5658SOL    HW128433   2.238   1.102   6.865 -1.5896  0.4679  0.2269
 5658SOL    HW228434   2.223   0.952   6.860  0.9511 -0.1547 -0.0880
 5659SOL     OW28435   1.416   1.280  13.031  0.0307 -0.3267  0.4471
 5659SOL    HW128436   1.444   1.196  12.995 -2.9294 -0.5053 -1.4729
 5659SOL    HW228437   1.496   1.321  13.064  0.0252  2.4530 -3.0828
 5660SOL     OW28438   1.989   1.259   4.322  0.1333 -0.4269 -0.1469
 5660SOL    HW128439   1.924   1.252   4.392 -0.8945  2.3386 -0.8311
 5660SOL    HW228440   1.969   1.348   4.294  1.3077  0.0645  0.5879
 5661SOL     OW28441   1.405   2.131  15.008 -0.1261  0.0818 -0.3493
 5661SOL    HW128442   1.396   2.155  14.915  1.8676 -0.4707 -0.6849
 5661SOL    HW228443   1.493   2.156  15.036  0.6224 -1.2439 -1.5333
 5662SOL     OW28444   4.459   4.674   2.985 -0.0083 -0.3266  0.0067
 5662SOL    HW128445   4.441   4.655   3.077  1.6946 -0.6824  0.2734
 5662SOL    HW228446   4.491   0.038   3.002  0.5740 -0.7629  1.1891
 5663SOL     OW28447   3.848   1.735   5.701  0.4194 -0.0334 -0.4637
 5663SOL    HW128448   3.929   1.700   5.664  0.2498  0.3440 -1.1993
 5663SOL    HW228449   3.829   1.659   5.757  1.0692 -0.6225 -1.0407
 5664SOL     OW28450   2.366   2.700   2.278 -0.0265 -0.2834 -0.6060
 5664SOL    HW128451   2.382   2.792   2.301 -0.2750 -0.5242  0.5261
 5664SOL    HW228452   2.327   2.669   2.360  1.3538  2.6527  1.1516
 5665SOL     OW28453   2.498   3.404   6.157  0.2128  0.0049 -0.3593
 5665SOL    HW128454   2.411   3.416   6.195  0.4694  0.5489  0.0582
 5665SOL    HW228455   2.560   3.457   6.207  2.1814 -2.5478 -0.1268
 5666SOL     OW28456   0.675   2.492   6.969  0.0511 -0.1589  0.3003
 5666SOL    HW128457   0.736   2.552   7.012  1.5668 -0.6742 -1.1511
 5666SOL    HW228458   0.665   2.421   7.031  1.7534 -0.8963 -0.2722
 5667SOL     OW28459   0.082   3.177  13.051 -0.1439 -0.3872 -0.3611
 5667SOL    HW128460   0.017   3.200  13.117 -0.1661 -1.7793  0.1078
 5667SOL    HW228461   0.060   3.249  12.991  3.1943  0.3624 -0.6714
 5668SOL     OW28462   4.723   1.830   5.526 -1.0764 -0.1252  0.3323
 5668SOL    HW128463   0.084   1.794   5.501  0.6516  4.0154  0.2846
 5668SOL    HW228464   4.659   1.811   5.457  1.5954 -1.6925 -1.7144
 5669SOL     OW28465   0.393   4.458   0.709 -0.3029  0.4955  0.3480
 5669SOL    HW128466   0.347   4.395   0.764 -1.0981  1.6600  0.9953
 5669SOL    HW228467   0.474   4.409   0.695 -0.4989  0.8045 -1.9254
 5670SOL     OW28468   2.772   1.706   4.355 -0.4326  0.0223 -0.4380
 5670SOL    HW128469   2.727   1.632   4.395  1.2121 -0.3111  0.8189
 5670SOL    HW228470   2.738   1.690   4.267 -0.5426 -1.2933 -0.1564
 5671SOL     OW28471   3.248   0.750  15.701  0.3906  0.1089 -0.2548
 5671SOL    HW128472   3.318   0.758  15.765  0.4698  0.0233 -0.3299
 5671SOL    HW228473   3.298   0.786  15.628 -1.1603  0.9664 -0.8769
 5672SOL     OW28474   3.944   0.890   0.596 -0.1348 -0.1124  1.0366
 5672SOL    HW128475   3.969   0.817   0.652  2.3935 -0.8510 -1.0097
 5672SOL    HW228476   3.897   0.939   0.664  0.6254 -0.2867  1.6842
 5673SOL     OW28477   2.419   1.252   6.022 -0.2566  0.7961 -0.2031
 5673SOL    HW128478   2.447   1.324   5.966 -1.2571  0.7558 -0.7614
 5673SOL    HW228479   2.481   1.246   6.094  0.7862 -1.3196 -1.2665
 5674SOL     OW28480   3.841   3.361  10.698 -0.0113  1.0460 -0.4669
 5674SOL    HW128481   3.910   3.332  10.758 -0.5894  1.2725  0.3055
 5674SOL    HW228482   3.808   3.444  10.732  0.2682  1.0000 -0.0897
 5675SOL     OW28483   1.771   4.129  17.099 -0.0227  0.3601  0.0817
 5675SOL    HW128484   1.726   4.212  17.117 -0.6566 -0.0018  0.1541
 5675SOL    HW228485   1.766   4.119  17.004  1.5749  0.1083  0.0172
 5676SOL     OW28486   1.773   0.908  15.023  0.9631 -0.3682 -0.1497
 5676SOL    HW128487   1.788   0.914  15.117 -0.5717  1.5584 -0.0352
 5676SOL    HW228488   1.801   0.820  14.997 -0.5195 -0.6300 -0.8741
 5677SOL     OW28489   2.234   1.409   9.414  0.1716 -0.1831 -0.2684
 5677SOL    HW128490   2.170   1.385   9.481 -0.3007 -1.1811 -1.0665
 5677SOL    HW228491   2.280   1.488   9.444 -1.4676 -0.3744  2.7513
 5678SOL     OW28492   1.111   3.888   4.073 -0.0533  0.2425  0.0237
 5678SOL    HW128493   1.168   3.963   4.089  0.8024 -0.4852  0.3409
 5678SOL    HW228494   1.126   3.873   3.980  0.6644 -1.7505  0.4740
 5679SOL     OW28495   2.303   3.726   1.100  0.7308  0.1842 -0.0598
 5679SOL    HW128496   2.239   3.661   1.072 -1.1524  1.6704  0.7722
 5679SOL    HW228497   2.373   3.668   1.132 -0.0827 -1.6185 -1.5727
 5680SOL     OW28498   1.380   1.486  15.871 -0.0575  0.2316 -0.0519
 5680SOL    HW128499   1.449   1.513  15.932  1.4153  0.7915 -1.9537
 5680SOL    HW228500   1.298   1.522  15.903  0.1369 -0.7676  1.5698
 5681SOL     OW28501   0.805   2.982   3.667  0.1775  0.3222 -0.6301
 5681SOL    HW128502   0.721   3.026   3.651 -0.1332  0.4274  1.3148
 5681SOL    HW228503   0.842   3.027   3.743  2.5136 -2.1806 -0.2810
 5682SOL     OW28504   2.425   4.708  11.924  0.3403 -0.3597 -0.3643
 5682SOL    HW128505   2.497   0.026  11.877 -0.1767  0.0047 -0.8246
 5682SOL    HW228506   2.368   0.057  11.948  0.8799  0.4109 -1.4049
 5683SOL     OW28507   0.521   1.624   1.285  0.3662 -0.6406 -0.1195
 5683SOL    HW128508   0.520   1.542   1.236 -0.6444 -0.0310 -1.1224
 5683SOL    HW228509   0.563   1.592   1.365  2.1367  1.0695 -0.3742
 5684SOL     OW28510   0.213   2.932   1.470 -0.2542 -0.2546  0.4450
 5684SOL    HW128511   0.147   2.868   1.445  0.2990 -0.8677  0.5664
 5684SOL    HW228512   0.283   2.867   1.477 -1.7161 -1.7475  1.0088
 5685SOL     OW28513   3.456   1.250   4.880  0.3285  0.0148 -0.1751
 5685SOL    HW128514   3.449   1.345   4.875 -0.7297 -0.0859 -0.7419
 5685SOL    HW228515   3.497   1.228   4.796 -0.5170 -0.9876 -0.3332
 5686SOL     OW28516   1.120   2.416  11.378 -0.1117 -0.0701 -0.4792
 5686SOL    HW128517   1.179   2.488  11.356  0.3588 -0.5927 -0.9309
 5686SOL    HW228518   1.039   2.458  11.407  1.9330  3.0009  0.7711
 5687SOL     OW28519   0.455   2.188   8.885 -0.2577  0.1509  0.0168
 5687SOL    HW128520   0.500   2.182   8.800 -0.1472  1.8274 -0.0479
 5687SOL    HW228521   0.477   2.099   8.913  0.7034  0.2010 -0.5512
 5688SOL     OW28522   2.051   4.662  12.615 -0.0305  0.0967 -0.4916
 5688SOL    HW128523   2.107   4.719  12.562 -0.7669  0.1143 -1.2489
 5688SOL    HW228524   2.095   4.578  12.630 -1.5063 -0.4826  0.6132
 5689SOL     OW28525   0.667   3.400   3.265 -0.2509  0.0950  0.1304
 5689SOL    HW128526   0.587   3.432   3.224  0.4697 -0.4086 -1.6762
 5689SOL    HW228527   0.699   3.336   3.201  0.4133 -2.2950  2.8761
 5690SOL     OW28528   0.721   0.443   7.854  0.6415 -0.3649 -0.2886
 5690SOL    HW128529   0.761   0.511   7.800 -0.5898  0.6578  0.0838
 5690SOL    HW228530   0.654   0.490   7.904  0.0608 -1.2668 -0.2251
 5691SOL     OW28531   4.693   2.683   6.780 -0.0344  0.3529 -0.6716
 5691SOL    HW128532   4.658   2.596   6.798 -0.2749  1.0297  2.2175
 5691SOL    HW228533   0.063   2.672   6.795  0.1098 -0.0121 -1.8517
 5692SOL     OW28534   2.033   1.711   5.119 -0.0868 -0.0424 -0.3651
 5692SOL    HW128535   2.124   1.682   5.114 -0.5772 -1.6871  0.2702
 5692SOL    HW228536   2.039   1.796   5.076  0.2901 -0.0124 -0.2546
 5693SOL     OW28537   4.348   1.277   1.868 -0.1976 -0.9113 -0.5618
 5693SOL    HW128538   4.255   1.291   1.883 -0.0537 -0.5125 -0.0488
 5693SOL    HW228539   4.346   1.198   1.814 -0.3879 -1.4136  0.1785
 5694SOL     OW28540   1.839   3.432   9.015  0.5559 -0.5324 -0.3856
 5694SOL    HW128541   1.766   3.381   8.980  0.6734 -0.0984 -1.2581
 5694SOL    HW228542   1.828   3.519   8.977 -1.5502 -0.2974  0.8049
 5695SOL     OW28543   4.196   0.670   2.224  0.3286 -0.1533 -0.6900
 5695SOL    HW128544   4.210   0.706   2.137  2.7511  0.3900 -0.0913
 5695SOL    HW228545   4.270   0.608   2.226  0.1054 -0.3621  1.1989
 5696SOL     OW28546   4.640   4.693   8.744 -0.2825  0.2999  0.0467
 5696SOL    HW128547   4.572   4.659   8.685  1.1416 -1.0369 -0.8207
 5696SOL    HW228548   4.709   4.705   8.679  0.5589 -1.4203  0.6199
 5697SOL     OW28549   2.286   0.739   5.810  0.6140 -0.3004  0.7012
 5697SOL    HW128550   2.318   0.685   5.738  1.3416  1.6230 -0.4339
 5697SOL    HW228551   2.327   0.824   5.791  1.4380 -0.7324  0.5465
 5698SOL     OW28552   1.882   0.925   8.348  0.1599  0.2788  0.1869
 5698SOL    HW128553   1.857   0.901   8.437 -0.3897  1.3433  0.3262
 5698SOL    HW228554   1.795   0.940   8.311 -0.5986 -0.5999  1.6352
 5699SOL     OW28555   2.955   2.921  14.564 -0.3451  0.8136  0.2420
 5699SOL    HW128556   3.017   2.856  14.531 -0.9986 -0.8644  2.2855
 5699SOL    HW228557   2.911   2.967  14.493  0.3068  1.4200  0.2364
 5700SOL     OW28558   0.444   0.891   0.062 -0.3029 -0.0182 -0.6415
 5700SOL    HW128559   0.400   0.899   0.147  2.4506  1.6610  0.6088
 5700SOL    HW228560   0.482   0.803   0.064 -2.0517 -0.8165 -2.4684
 5701SOL     OW28561   0.843   1.650   6.213 -0.2125 -0.0590  0.1004
 5701SOL    HW128562   0.806   1.705   6.282  0.9788  0.0628  0.6526
 5701SOL    HW228563   0.931   1.688   6.209 -0.9454  1.6809  0.3127
 5702SOL     OW28564   0.693   2.730   1.512  0.4489 -0.6971  0.1214
 5702SOL    HW128565   0.749   2.799   1.477 -2.2339  2.0008  1.1094
 5702SOL    HW228566   0.740   2.652   1.484  0.7471  0.4814 -2.5985
 5703SOL     OW28567   2.615   0.378  13.705 -0.2496 -0.9037  0.2566
 5703SOL    HW128568   2.701   0.356  13.670  0.3411  2.7395 -0.5688
 5703SOL    HW228569   2.586   0.303  13.756 -0.7893 -1.2771 -0.5918
 5704SOL     OW28570   1.905   2.087   1.192  0.1723  0.3457  0.4864
 5704SOL    HW128571   1.967   2.033   1.241  0.2109 -1.1041 -1.1877
 5704SOL    HW228572   1.824   2.039   1.202 -0.1163  1.1787  2.2015
 5705SOL     OW28573   2.898   0.246   0.658  0.2274 -0.1689 -0.5019
 5705SOL    HW128574   2.933   0.295   0.584 -1.1348 -1.2024 -1.8332
 5705SOL    HW228575   2.810   0.217   0.633  0.5166 -2.2320  0.8501
 5706SOL     OW28576   0.463   1.674   5.224  0.4434  0.0529 -0.2859
 5706SOL    HW128577   0.483   1.639   5.137  2.2041 -0.6416  0.3929
 5706SOL    HW228578   0.544   1.716   5.253  1.2605 -2.5143  1.2008
 5707SOL     OW28579   4.682   0.587  13.998  0.1449  0.1105 -0.4216
 5707SOL    HW128580   0.052   0.577  13.988  0.6511  2.0231  2.1949
 5707SOL    HW228581   4.649   0.626  13.917  0.0475 -1.5155 -1.1628
 5708SOL     OW28582   1.872   4.538  10.739 -0.2640 -0.3236  0.0022
 5708SOL    HW128583   1.914   4.618  10.771 -1.9835 -0.0099  1.4765
 5708SOL    HW228584   1.904   4.519  10.651 -1.0542 -0.4963 -0.2439
 5709SOL     OW28585   2.169   2.796   4.326 -0.0233  0.5769 -0.6148
 5709SOL    HW128586   2.073   2.803   4.326 -0.2136 -1.9461 -1.6107
 5709SOL    HW228587   2.191   2.726   4.387 -2.4010 -1.3270 -1.9333
 5710SOL     OW28588   1.548   0.889   2.430  0.0286 -0.6220  0.3133
 5710SOL    HW128589   1.538   0.946   2.506 -1.7461  0.5314 -0.7943
 5710SOL    HW228590   1.550   0.945   2.353 -0.1705  1.0977  1.5486
 5711SOL     OW28591   2.522   1.105  12.888  0.5574 -0.2313  0.3383
 5711SOL    HW128592   2.470   1.164  12.834 -0.5054 -0.9247  0.6170
 5711SOL    HW228593   2.457   1.091  12.957 -1.9580 -0.7678 -2.1356
 5712SOL     OW28594   0.511   4.579  14.110  0.2356  0.0661 -0.0720
 5712SOL    HW128595   0.430   4.622  14.138  0.9444  1.4189 -0.0854
 5712SOL    HW228596   0.474   4.497  14.078 -0.0369  0.2077 -0.1270
 5713SOL     OW28597   3.218   0.410   0.552  0.6396 -0.9353 -0.2537
 5713SOL    HW128598   3.161   0.350   0.503 -0.3035 -0.4675  0.2626
 5713SOL    HW228599   3.279   0.434   0.482  0.3647 -1.0993 -0.5522
 5714SOL     OW28600   1.506   1.471   4.760  0.7604 -0.6761 -0.7733
 5714SOL    HW128601   1.418   1.499   4.786  0.7693 -0.0123 -1.4499
 5714SOL    HW228602   1.547   1.552   4.730  1.1940  0.4488  2.8213
 5715SOL     OW28603   0.699   4.037   6.940  0.0716  0.0862 -0.6377
 5715SOL    HW128604   0.781   4.013   6.897  0.4079  1.4308 -0.7390
 5715SOL    HW228605   0.641   4.079   6.876 -0.0993  0.4923 -0.2143
 5716SOL     OW28606   2.485   3.076   8.498 -0.3575  0.4908  0.0494
 5716SOL    HW128607   2.490   2.986   8.467 -0.0733  0.5380 -0.0421
 5716SOL    HW228608   2.536   3.077   8.578 -1.8928 -0.3738  1.0371
 5717SOL     OW28609   0.517   1.050   6.589 -0.0296 -0.3893  0.2673
 5717SOL    HW128610   0.522   0.968   6.540 -0.8648 -0.4572  0.2891
 5717SOL    HW228611   0.604   1.064   6.626  1.0084 -1.6824 -1.7145
 5718SOL     OW28612   0.156   2.943   4.725  0.4492 -0.3863  0.7345
 5718SOL    HW128613   0.104   3.011   4.683 -2.0525 -0.8260  3.1256
 5718SOL    HW228614   0.089   2.877   4.739  0.8070 -0.8438  0.2679
 5719SOL     OW28615   2.319   1.522  12.224 -0.3354 -0.1681 -0.2783
 5719SOL    HW128616   2.247   1.484  12.274 -0.9003 -0.1955 -1.1243
 5719SOL    HW228617   2.338   1.446  12.169 -2.6382  0.1632 -1.5094
 5720SOL     OW28618   1.478   0.629   6.433  0.3065  0.1221  0.2454
 5720SOL    HW128619   1.383   0.635   6.438  0.3439 -1.1304  2.1929
 5720SOL    HW228620   1.498   0.661   6.345  0.3298 -0.8830 -0.1138
 5721SOL     OW28621   2.295   4.596   4.984  0.6269 -0.2028 -0.8031
 5721SOL    HW128622   2.326   4.615   4.895 -1.3845  1.7394 -1.0855
 5721SOL    HW228623   2.358   4.534   5.020  1.5193  2.1765  1.7299
 5722SOL     OW28624   1.376   1.892  16.313 -0.5697  0.0267  0.3388
 5722SOL    HW128625   1.374   1.807  16.268 -2.8125  0.5715 -0.5832
 5722SOL    HW228626   1.431   1.950  16.260 -0.2969 -1.5428 -1.0919
 5723SOL     OW28627   3.443   3.862   3.789 -0.1175  0.4738  0.0321
 5723SOL    HW128628   3.512   3.924   3.812 -2.2681  1.6736  3.2328
 5723SOL    HW228629   3.485   3.833   3.708  0.1294  0.1624  0.2750
 5724SOL     OW28630   4.470   2.484   7.858 -0.1291 -0.0250 -0.5703
 5724SOL    HW128631   4.555   2.527   7.865 -1.2155  1.7351  2.0815
 5724SOL    HW228632   4.439   2.512   7.772  0.2611  0.2837 -0.6088
 5725SOL     OW28633   0.096   1.010   0.216  0.2991  0.3434 -0.5298
 5725SOL    HW128634   0.081   1.079   0.280  2.7433  0.5395 -0.1492
 5725SOL    HW228635   0.163   0.956   0.259 -0.2267  1.4750  1.7142
 5726SOL     OW28636   2.625   1.698   3.783  0.1709  0.1437 -0.3511
 5726SOL    HW128637   2.666   1.779   3.813 -0.4257  0.8172 -1.3348
 5726SOL    HW228638   2.691   1.641   3.822  2.1792 -1.5545 -6.2024
 5727SOL     OW28639   3.519   2.732  12.104  0.6004 -0.0258 -0.2167
 5727SOL    HW128640   3.496   2.709  12.194  1.9017 -1.4565 -0.2511
 5727SOL    HW228641   3.472   2.668  12.051  2.2820  0.3119 -2.0701
 5728SOL     OW28642   1.892   3.964   8.479 -0.4013  0.1677 -0.1813
 5728SOL    HW128643   1.929   3.888   8.524  0.0709  1.2238  1.2066
 5728SOL    HW228644   1.821   3.917   8.435 -1.7679  0.7594  1.4018
 5729SOL     OW28645   0.655   1.845   2.297  1.0177  0.1681  0.1255
 5729SOL    HW128646   0.642   1.922   2.242 -0.5203 -1.2557 -1.5461
 5729SOL    HW228647   0.565   1.841   2.329  1.1015 -1.0920  0.1925
 5730SOL     OW28648   1.574   2.520  15.139 -0.4285 -0.4432 -0.1338
 5730SOL    HW128649   1.491   2.549  15.177  1.3414  1.3235  2.3927
 5730SOL    HW228650   1.624   2.600  15.151 -0.3981 -0.4781 -0.0252
 5731SOL     OW28651   1.461   0.389   9.674 -0.3663 -1.0322 -0.2058
 5731SOL    HW128652   1.425   0.476   9.690 -0.3872 -1.3445  1.3557
 5731SOL    HW228653   1.505   0.406   9.590 -2.0455 -1.6869 -1.2342
 5732SOL     OW28654   3.016   4.297   8.832  0.3116  0.3480  0.2311
 5732SOL    HW128655   3.000   4.204   8.813  2.1958  0.4798 -2.0147
 5732SOL    HW228656   3.111   4.294   8.838  0.2435  0.1625  1.1954
 5733SOL     OW28657   1.061   0.651  12.594 -0.1578 -0.1464  0.1691
 5733SOL    HW128658   0.966   0.658  12.608 -0.3685  1.8201 -2.3103
 5733SOL    HW228659   1.065   0.640  12.499  1.2371  0.4711  0.1648
 5734SOL     OW28660   1.313   3.102   7.396 -0.3014 -0.2390  0.0748
 5734SOL    HW128661   1.316   3.188   7.437 -2.2202 -0.4578  0.6361
 5734SOL    HW228662   1.404   3.093   7.368 -0.4231 -0.2108 -0.3232
 5735SOL     OW28663   4.246   3.351   3.482  0.4075  0.3426 -0.5990
 5735SOL    HW128664   4.287   3.342   3.568  0.1018  2.1617 -0.2720
 5735SOL    HW228665   4.321   3.318   3.431 -0.0957 -0.5133 -0.7955
 5736SOL     OW28666   4.129   0.353   7.888 -0.6824  0.0082 -0.2500
 5736SOL    HW128667   4.138   0.432   7.942  2.1760 -1.0505  0.8616
 5736SOL    HW228668   4.036   0.333   7.887 -0.9385  1.3595 -2.9706
 5737SOL     OW28669   4.193   3.714   3.735 -0.2140  0.6477  0.6742
 5737SOL    HW128670   4.218   3.675   3.651 -2.5107  1.9089 -0.6250
 5737SOL    HW228671   4.142   3.638   3.764 -1.2008  0.0007 -2.7105
 5738SOL     OW28672   2.398   1.897   1.972  0.4355 -0.2147  0.5800
 5738SOL    HW128673   2.408   1.829   1.906 -0.3752 -1.1164  1.3942
 5738SOL    HW228674   2.320   1.939   1.935 -0.0013 -1.5364  0.0119
 5739SOL     OW28675   1.234   4.597   6.383 -0.3001  0.1543 -0.0403
 5739SOL    HW128676   1.234   4.527   6.318 -0.5619 -0.1111  0.2465
 5739SOL    HW228677   1.176   4.652   6.330 -1.0644 -0.1295  0.5099
 5740SOL     OW28678   3.382   0.186  13.024  0.5220 -0.4807 -0.0322
 5740SOL    HW128679   3.417   0.247  12.960 -0.1725 -1.1693 -1.0765
 5740SOL    HW228680   3.317   0.141  12.970  0.6448 -0.3022 -0.3232
 5741SOL     OW28681   2.785   2.317   2.643  0.2917 -0.1520  0.2907
 5741SOL    HW128682   2.713   2.262   2.613  0.3962  0.3827 -0.9023
 5741SOL    HW228683   2.861   2.266   2.615  0.1053  1.6589 -3.3816
 5742SOL     OW28684   3.774   0.046  12.640 -0.1245  0.4506 -0.1545
 5742SOL    HW128685   3.748   0.073  12.552 -0.6406 -0.0341 -0.1510
 5742SOL    HW228686   3.702   4.724  12.683 -0.6767 -0.5730 -2.1663
 5743SOL     OW28687   0.119   4.314   3.733 -0.3510 -0.0169 -0.0320
 5743SOL    HW128688   0.106   4.341   3.823  2.5403 -1.3547  0.7856
 5743SOL    HW228689   0.153   4.226   3.751 -0.5377  0.0646  0.6913
 5744SOL     OW28690   3.340   2.828   1.712 -0.1892 -0.8626 -0.0419
 5744SOL    HW128691   3.376   2.845   1.626 -0.9970  0.5281 -0.1046
 5744SOL    HW228692   3.407   2.766   1.740 -0.7828  0.1661  3.6556
 5745SOL     OW28693   1.986   3.714   4.840  0.1203 -0.3057  0.5677
 5745SOL    HW128694   1.944   3.694   4.756 -0.1929 -0.3499  0.7338
 5745SOL    HW228695   1.963   3.631   4.883 -3.0857 -0.0334 -0.6446
 5746SOL     OW28696   0.917   3.538   5.652 -0.1996  0.3013  0.0134
 5746SOL    HW128697   0.825   3.552   5.631  0.0534 -0.6044 -1.7334
 5746SOL    HW228698   0.954   3.623   5.631 -0.2459  0.7063  1.5540
 5747SOL     OW28699   2.137   2.936   8.021 -0.6606  0.0510  0.5077
 5747SOL    HW128700   2.064   2.899   8.071 -1.7162  1.5393  0.0700
 5747SOL    HW228701   2.161   2.877   7.949 -2.1840  0.6534 -0.5007
 5748SOL     OW28702   0.332   4.529  13.040 -0.8396 -0.6729  0.4364
 5748SOL    HW128703   0.399   4.480  13.089 -0.5598 -1.0083 -0.2854
 5748SOL    HW228704   0.380   4.574  12.971 -1.9859  0.5811  0.4538
 5749SOL     OW28705   0.063   1.898   3.999 -0.2924 -0.1876 -0.1563
 5749SOL    HW128706   0.109   1.890   3.915 -1.3358  0.9480 -0.8369
 5749SOL    HW228707   0.127   1.952   4.046  0.1714 -1.5060  0.7229
 5750SOL     OW28708   1.666   3.405   1.446  0.4131 -0.0829  0.2877
 5750SOL    HW128709   1.692   3.451   1.526 -0.6266  0.8437  0.0815
 5750SOL    HW228710   1.620   3.474   1.400 -1.5209 -0.6029  1.4465
 5751SOL     OW28711   0.835   1.294  12.629 -0.0447 -0.0060 -0.3499
 5751SOL    HW128712   0.882   1.357  12.684  0.5231  0.0491 -0.9102
 5751SOL    HW228713   0.801   1.351  12.561  0.2921  0.8283  0.1773
 5752SOL     OW28714   1.453   2.150  17.514  0.2932  0.0545  0.0469
 5752SOL    HW128715   1.462   2.105  17.598  3.5091 -0.2253 -0.4387
 5752SOL    HW228716   1.495   2.092  17.450 -0.5008 -1.0300  0.4990
 5753SOL     OW28717   4.095   0.365   5.428 -0.2986 -0.5761  0.3901
 5753SOL    HW128718   4.126   0.417   5.354 -1.4563 -0.7663 -0.2246
 5753SOL    HW228719   4.040   0.298   5.387  0.8662 -1.0864 -0.3400
 5754SOL     OW28720   0.204   4.310   1.717 -0.0746  0.1042  0.4361
 5754SOL    HW128721   0.264   4.253   1.765  1.1672 -0.5552 -1.8726
 5754SOL    HW228722   0.122   4.261   1.713  1.8834 -2.8736 -3.5440
 5755SOL     OW28723   2.395   2.596  16.553 -0.2942 -0.0346 -0.5261
 5755SOL    HW128724   2.361   2.674  16.597 -0.5311 -1.4573  1.7761
 5755SOL    HW228725   2.488   2.607  16.571 -0.5877  1.8229 -0.1350
 5756SOL     OW28726   1.382   4.497   6.038 -0.0173  0.0094  0.5253
 5756SOL    HW128727   1.452   4.540   6.087  1.2255 -1.0420 -0.3192
 5756SOL    HW228728   1.430   4.436   5.983 -3.6065 -0.3567 -2.1675
 5757SOL     OW28729   4.013   4.659  17.620 -0.2537  0.5942 -0.2747
 5757SOL    HW128730   3.958   4.584  17.643  0.1130 -0.0138 -1.3774
 5757SOL    HW228731   4.097   4.629  17.653 -0.7590  0.1830  0.6247
 5758SOL     OW28732   4.501   3.564   2.095  0.4283  0.4862  0.2186
 5758SOL    HW128733   4.571   3.530   2.150  1.2902  1.0179 -0.5405
 5758SOL    HW228734   4.549   3.634   2.050 -1.7502  2.4027  0.8311
 5759SOL     OW28735   1.796   3.980   1.858  0.1295 -0.0392  0.4822
 5759SOL    HW128736   1.719   3.923   1.852  0.8827 -1.0553  0.3149
 5759SOL    HW228737   1.756   4.057   1.818  1.6642  1.0471  1.0358
 5760SOL     OW28738   4.525   1.011   2.730  0.1895 -0.0910 -0.1288
 5760SOL    HW128739   4.502   1.044   2.643 -0.2444 -1.8496 -0.6757
 5760SOL    HW228740   4.599   1.068   2.751  0.9676 -1.8838  2.1081
 5761SOL     OW28741   2.626   1.813  16.876 -0.1137 -0.8607  0.2190
 5761SOL    HW128742   2.646   1.861  16.796 -0.9270 -1.5278 -0.3903
 5761SOL    HW228743   2.684   1.858  16.936  1.0311  0.0536 -1.5749
 5762SOL     OW28744   0.833   2.195   4.432  0.5174 -0.1362 -0.6384
 5762SOL    HW128745   0.754   2.184   4.379 -0.1868 -0.6041  0.5025
 5762SOL    HW228746   0.884   2.242   4.365  0.1299 -0.5880 -1.2513
 5763SOL     OW28747   0.814   0.280   2.064 -0.3246  0.0445 -0.2516
 5763SOL    HW128748   0.757   0.262   1.988  1.6158  5.1954 -2.9312
 5763SOL    HW228749   0.899   0.262   2.023 -0.2889 -0.6455  0.1320
 5764SOL     OW28750   3.667   1.678   4.922 -0.3879 -0.8023 -0.0169
 5764SOL    HW128751   3.744   1.734   4.926 -0.2889 -1.0872  1.9918
 5764SOL    HW228752   3.669   1.646   5.012 -2.7443 -1.4148 -0.1886
 5765SOL     OW28753   1.170   1.921   8.996  0.4385  0.4154  0.2277
 5765SOL    HW128754   1.149   2.004   9.039 -1.6239 -1.3848  2.7526
 5765SOL    HW228755   1.186   1.948   8.906 -0.7023  0.5311  0.0506
 5766SOL     OW28756   1.294   4.053   7.840 -0.3661  0.4811  0.1914
 5766SOL    HW128757   1.345   4.063   7.921 -0.7758  2.2185  0.2304
 5766SOL    HW228758   1.245   4.133   7.854  0.0519  0.6664  0.6074
 5767SOL     OW28759   0.261   2.521   2.536  0.2086 -0.4852  0.2012
 5767SOL    HW128760   0.355   2.515   2.522  0.6067 -0.8131  3.0391
 5767SOL    HW228761   0.246   2.438   2.489  0.9412  0.4062 -1.6276
 5768SOL     OW28762   2.206   1.769   1.588  0.1745 -0.3539  0.2294
 5768SOL    HW128763   2.300   1.784   1.580  0.3233 -1.9894 -1.0186
 5768SOL    HW228764   2.198   1.684   1.544 -1.5336  1.1273 -2.3417
 5769SOL     OW28765   3.810   2.970   2.132  0.0365 -0.8595 -0.1312
 5769SOL    HW128766   3.834   2.902   2.195  0.2627 -1.5067 -0.9202
 5769SOL    HW228767   3.875   3.037   2.153  1.4526 -2.9502  2.1283
 5770SOL     OW28768   2.928   3.307   7.124  0.0409 -0.2055  0.4770
 5770SOL    HW128769   2.856   3.279   7.068  1.0107 -0.5529 -0.6127
 5770SOL    HW228770   2.990   3.343   7.061 -1.4223  1.4731  0.0187
 5771SOL     OW28771   0.730   1.463   3.454 -0.0718 -0.1686 -0.0196
 5771SOL    HW128772   0.700   1.509   3.376  2.0011  1.3939  0.0930
 5771SOL    HW228773   0.738   1.526   3.525 -0.4467  0.5166 -0.5916
 5772SOL     OW28774   3.632   4.500   4.091 -0.0546  0.5119 -0.5740
 5772SOL    HW128775   3.669   4.414   4.114 -1.6399  0.1085  0.5168
 5772SOL    HW228776   3.682   4.521   4.013  1.0200  1.6623  0.4297
 5773SOL     OW28777   0.518   4.435   7.188 -0.1604 -0.1248 -0.6276
 5773SOL    HW128778   0.570   4.449   7.267  1.2789 -3.2698 -1.0340
 5773SOL    HW228779   0.579   4.381   7.139  0.5561 -1.4306  1.6985
 5774SOL     OW28780   0.363   3.305  10.922 -0.4703 -0.2946  0.2912
 5774SOL    HW128781   0.433   3.268  10.976  0.9530  0.1693 -1.2363
 5774SOL    HW228782   0.309   3.226  10.918 -1.9123  0.6859  0.0746
 5775SOL     OW28783   2.721   4.604   5.212 -0.1752  0.1001 -0.5235
 5775SOL    HW128784   2.751   4.591   5.122  0.6583  0.1806 -0.2531
 5775SOL    HW228785   2.712   4.699   5.216 -0.7848 -0.0921  2.8546
 5776SOL     OW28786   3.453   3.711   2.111  0.3526 -0.0658 -0.7593
 5776SOL    HW128787   3.548   3.711   2.126  0.1810 -2.5697  0.2584
 5776SOL    HW228788   3.438   3.801   2.082  0.1595 -0.2253 -1.1488
 5777SOL     OW28789   1.327   3.899   5.461 -0.0640  0.3032 -0.3083
 5777SOL    HW128790   1.283   3.870   5.381 -2.2033 -0.8192  1.2824
 5777SOL    HW228791   1.422   3.891   5.450 -0.0649 -0.1182 -0.0058
 5778SOL     OW28792   3.963   1.357   4.528 -0.0224  0.1003 -0.3930
 5778SOL    HW128793   4.020   1.432   4.510  0.6036 -0.3839 -0.4268
 5778SOL    HW228794   4.007   1.282   4.487 -0.8221 -0.9253  0.6354
 5779SOL     OW28795   2.801   3.203  16.421 -0.5302  0.2569  0.0929
 5779SOL    HW128796   2.859   3.127  16.406  0.2567  0.8571  0.1080
 5779SOL    HW228797   2.761   3.175  16.503 -2.9787 -0.2919 -1.2949
 5780SOL     OW28798   4.471   4.589   5.713  0.3812 -0.0795  0.1175
 5780SOL    HW128799   4.478   4.677   5.678  0.9365 -1.0236 -2.1025
 5780SOL    HW228800   4.558   4.594   5.751 -0.1904 -0.8133  1.5569
 5781SOL     OW28801   0.848   2.722   4.455  0.3010 -0.3137  0.0437
 5781SOL    HW128802   0.857   2.630   4.429 -0.1289 -1.1370  2.8967
 5781SOL    HW228803   0.897   2.767   4.386  0.9929  0.6824  1.1924
 5782SOL     OW28804   0.512   1.886   4.311 -0.1462 -0.4345 -0.4045
 5782SOL    HW128805   0.563   1.840   4.377  0.5427 -0.0401 -0.6700
 5782SOL    HW228806   0.420   1.869   4.331 -0.2757  0.8380  0.0713
 5783SOL     OW28807   3.213   0.718   9.941 -0.4428  0.1258  0.1798
 5783SOL    HW128808   3.212   0.631   9.981  0.1920 -0.6425 -1.4390
 5783SOL    HW228809   3.308   0.730   9.935 -0.3729 -0.9320 -0.8731
 5784SOL     OW28810   0.854   2.740   2.781 -0.0073  0.0111 -0.0080
 5784SOL    HW128811   0.914   2.684   2.733  0.3426  1.0869 -0.8411
 5784SOL    HW228812   0.801   2.675   2.827  3.1107 -1.6445  1.1898
 5785SOL     OW28813   4.214   2.514  16.847 -0.3997  0.6161 -0.3000
 5785SOL    HW128814   4.292   2.465  16.823 -0.5266 -0.1379  0.8449
 5785SOL    HW228815   4.151   2.449  16.816 -0.1528 -0.4114  1.3798
 5786SOL     OW28816   1.202   2.538   3.393 -0.0516 -0.1667  0.1172
 5786SOL    HW128817   1.248   2.598   3.453  0.6749  0.9050 -1.5047
 5786SOL    HW228818   1.272   2.483   3.359 -0.3240 -0.6609  0.3638
 5787SOL     OW28819   2.632   4.512  14.031  0.2404 -0.6016 -0.4084
 5787SOL    HW128820   2.720   4.506  13.992 -0.0621  1.8931 -1.4603
 5787SOL    HW228821   2.581   4.496  13.952 -0.5640 -0.5900  0.1132
 5788SOL     OW28822   3.500   2.395  12.592  0.4811  0.4641 -0.3031
 5788SOL    HW128823   3.510   2.395  12.497  1.4362 -1.3209 -0.1983
 5788SOL    HW228824   3.410   2.362  12.589  0.7830 -0.0822 -2.6323
 5789SOL     OW28825   0.675   4.297   7.036  0.1924  0.2557  0.1159
 5789SOL    HW128826   0.713   4.220   6.993  1.1119  1.3145 -0.9798
 5789SOL    HW228827   0.720   4.364   6.984 -1.0718  0.3577 -0.8685
 5790SOL     OW28828   1.018   0.818  10.845 -0.5112  0.2742 -0.3471
 5790SOL    HW128829   0.932   0.782  10.868 -0.7911 -0.3950 -2.4335
 5790SOL    HW228830   1.067   0.736  10.846 -1.9544 -0.5565  0.9098
 5791SOL     OW28831   3.794   1.317  14.418 -0.2676  0.1625  0.0291
 5791SOL    HW128832   3.729   1.380  14.387  1.6062  2.4589  0.7237
 5791SOL    HW228833   3.818   1.276  14.335  2.3715  0.3522  0.7038
 5792SOL     OW28834   1.003   3.439   3.284 -0.2224 -0.8223  0.5893
 5792SOL    HW128835   0.996   3.365   3.224 -0.1423 -1.0550  0.8645
 5792SOL    HW228836   0.998   3.390   3.366 -0.1758 -0.7948  0.6087
 5793SOL     OW28837   3.305   3.213  13.757  0.1600  0.2844  0.9624
 5793SOL    HW128838   3.344   3.298  13.735  0.0873  0.0531 -0.0610
 5793SOL    HW228839   3.267   3.247  13.838 -0.8600 -1.0444  1.0300
 5794SOL     OW28840   0.039   0.682   4.931  0.3149  0.2910  0.2839
 5794SOL    HW128841   0.005   0.765   4.963  0.8429 -0.5253  3.0086
 5794SOL    HW228842   0.092   0.714   4.858  1.6902 -2.2107  0.1700
 5795SOL     OW28843   0.708   2.107   5.742 -0.4367 -0.5199  1.1974
 5795SOL    HW128844   0.653   2.038   5.706  0.2137  0.0208 -0.8300
 5795SOL    HW228845   0.800   2.087   5.726 -0.3966  2.5129 -2.5046
 5796SOL     OW28846   3.491   1.794   2.573 -0.3167 -0.3351 -0.1654
 5796SOL    HW128847   3.524   1.710   2.540 -2.1621  0.4267 -4.0172
 5796SOL    HW228848   3.417   1.759   2.623  0.6341  0.8841  2.0487
 5797SOL     OW28849   1.328   4.117   2.804 -0.2550 -0.2501 -0.4139
 5797SOL    HW128850   1.389   4.190   2.820  0.6049 -0.9598 -0.4341
 5797SOL    HW228851   1.382   4.041   2.827 -1.1828 -0.1906  1.9352
 5798SOL     OW28852   3.122   1.129  12.607 -0.9784 -0.6908  0.0421
 5798SOL    HW128853   3.030   1.128  12.583 -0.3125  0.8534 -2.6309
 5798SOL    HW228854   3.153   1.047  12.570  0.7211 -0.2245  0.3784
 5799SOL     OW28855   1.198   1.150   2.852 -0.6581 -0.1331  0.7626
 5799SOL    HW128856   1.137   1.079   2.873 -2.3472  1.7640  2.3392
 5799SOL    HW228857   1.143   1.223   2.881 -4.0327 -2.0202 -0.9095
 5800SOL     OW28858   1.568   3.101   0.211  0.9650  0.3087  0.0320
 5800SOL    HW128859   1.633   3.163   0.180 -1.1571  2.7600  0.4860
 5800SOL    HW228860   1.623   3.057   0.276  1.9405 -0.0049 -1.0263
 5801SOL     OW28861   2.142   3.281   6.859 -0.3536 -0.0332  0.3313
 5801SOL    HW128862   2.210   3.214   6.857 -0.8620 -0.4676 -1.4962
 5801SOL    HW228863   2.113   3.271   6.950 -1.0044 -1.2548 -0.0156
 5802SOL     OW28864   3.243   3.206   7.385  0.2269 -0.5103  0.4005
 5802SOL    HW128865   3.259   3.127   7.437  0.7515 -0.7303 -0.0843
 5802SOL    HW228866   3.162   3.230   7.429  0.7699  0.8559  0.6394
 5803SOL     OW28867   4.656   2.308   5.593  0.4998  0.2425  0.0566
 5803SOL    HW128868   4.605   2.362   5.533  1.2567  0.4588 -0.3839
 5803SOL    HW228869   4.681   2.377   5.654  3.4517 -1.2015  0.4644
 5804SOL     OW28870   0.765   0.970   7.930 -0.3167 -0.3803  0.3303
 5804SOL    HW128871   0.860   0.986   7.928 -0.2661 -0.8973 -1.6597
 5804SOL    HW228872   0.732   1.026   8.000 -1.1926  1.4680 -1.5664
 5805SOL     OW28873   0.400   4.505   6.404  0.2338 -0.4275  0.2820
 5805SOL    HW128874   0.459   4.527   6.476  1.9872 -0.2743 -1.2039
 5805SOL    HW228875   0.403   4.412   6.381 -3.5455  0.1792 -2.6555
 5806SOL     OW28876   3.954   1.039   9.465  0.2608 -0.0499  0.3894
 5806SOL    HW128877   3.981   1.129   9.446  2.0934 -0.7402 -0.3639
 5806SOL    HW228878   4.035   0.988   9.463  0.5827  0.4486  0.6199
 5807SOL     OW28879   1.997   0.443  16.602 -0.2525  0.7405  0.3626
 5807SOL    HW128880   1.963   0.357  16.577  4.4807 -1.4465  1.4267
 5807SOL    HW228881   1.947   0.498  16.542  0.0465 -0.3789 -0.8944
 5808SOL     OW28882   2.245   2.892   1.658 -0.2286  0.8108  0.0143
 5808SOL    HW128883   2.244   2.913   1.751 -0.4652  3.3790 -0.5724
 5808SOL    HW228884   2.155   2.862   1.644  0.8765 -3.6248  2.3412
 5809SOL     OW28885   3.140   1.421   4.817  0.7104  0.0816  0.0279
 5809SOL    HW128886   3.098   1.335   4.809  1.3536 -0.2620  0.3984
 5809SOL    HW228887   3.146   1.459   4.729  0.8706 -2.5182 -1.1060
 5810SOL     OW28888   1.618   0.655   5.742  0.0621  0.0049 -0.2269
 5810SOL    HW128889   1.686   0.590   5.763  1.0392  1.1573  0.1845
 5810SOL    HW228890   1.574   0.610   5.670  0.2018 -1.1546  0.4008
 5811SOL     OW28891   0.420   2.294   7.642 -0.6109  0.6732  0.5927
 5811SOL    HW128892   0.442   2.236   7.716  0.5426  2.5867  1.7613
 5811SOL    HW228893   0.325   2.282   7.637 -0.3925 -2.0782  2.5839
 5812SOL     OW28894   2.020   3.585  11.634 -0.2940  0.5697 -0.5944
 5812SOL    HW128895   2.025   3.489  11.628  0.7639  0.6303 -0.8279
 5812SOL    HW228896   2.040   3.611  11.544  1.3537 -2.1782 -1.0468
 5813SOL     OW28897   3.975   4.706  14.096  0.1255 -0.1280  0.0040
 5813SOL    HW128898   3.945   0.069  14.071 -1.6097 -1.1617 -1.5817
 5813SOL    HW228899   3.997   4.706  14.189  1.2970 -0.3713 -0.2785
 5814SOL     OW28900   1.891   1.612   7.359  0.5154 -0.2713 -0.1777
 5814SOL    HW128901   1.862   1.683   7.301  0.7359  0.3800  0.5049
 5814SOL    HW228902   1.817   1.552   7.359 -0.4830  0.9509  0.7943
 5815SOL     OW28903   4.055   0.001   4.467  0.4231  0.2006  0.1566
 5815SOL    HW128904   3.965   4.694   4.462  0.5489 -0.0447 -0.6626
 5815SOL    HW228905   4.109   4.647   4.484 -1.4996 -0.6201  2.4267
 5816SOL     OW28906   4.320   2.590  14.799 -0.5380  0.1705  0.6513
 5816SOL    HW128907   4.312   2.524  14.730 -0.9212 -0.6455  1.4723
 5816SOL    HW228908   4.407   2.628  14.783  0.3567 -3.0537 -2.1016
 5817SOL     OW28909   1.831   3.902   1.331 -0.4187 -0.2069 -0.1526
 5817SOL    HW128910   1.882   3.980   1.309 -0.9098 -0.8265 -3.4314
 5817SOL    HW228911   1.879   3.845   1.271  0.8465 -0.7186  1.3400
 5818SOL     OW28912   2.339   4.247   1.680  0.4463 -0.3220  0.3206
 5818SOL    HW128913   2.311   4.167   1.636 -1.0953 -0.6477  1.9017
 5818SOL    HW228914   2.342   4.310   1.608 -0.4104 -0.4871  0.1376
 5819SOL     OW28915   0.342   0.259   5.862  0.2429 -0.6750 -0.1350
 5819SOL    HW128916   0.311   0.265   5.952 -0.5247 -1.9793 -0.3144
 5819SOL    HW228917   0.268   0.305   5.822 -2.3798 -2.7029  2.3807
 5820SOL     OW28918   1.728   4.573  14.433 -0.2601  0.2501 -0.0961
 5820SOL    HW128919   1.659   4.575  14.366 -0.2970 -0.2575 -0.0705
 5820SOL    HW228920   1.736   4.482  14.463 -0.5097  0.9316  2.0098
 5821SOL     OW28921   1.834   3.710   6.134  0.5766 -0.2049 -0.5011
 5821SOL    HW128922   1.907   3.740   6.188  0.6768  1.7254 -1.7227
 5821SOL    HW228923   1.840   3.614   6.133 -0.3391 -0.2612 -0.5918
 5822SOL     OW28924   0.523   3.460   6.508  0.5919 -0.2532  0.0165
 5822SOL    HW128925   0.455   3.397   6.486  1.2079 -1.7771  2.5566
 5822SOL    HW228926   0.503   3.464   6.601  0.9698 -1.2727  0.1332
 5823SOL     OW28927   0.242   4.641  11.555 -0.2451  0.0713 -0.6523
 5823SOL    HW128928   0.154   4.643  11.519  0.3645 -0.4038 -2.1728
 5823SOL    HW228929   0.244   4.715  11.616 -1.5870 -0.0822 -0.4197
 5824SOL     OW28930   2.856   3.951   3.116 -0.5922  0.4963 -0.3169
 5824SOL    HW128931   2.891   3.926   3.202 -0.3505  0.0423 -0.5521
 5824SOL    HW228932   2.775   3.899   3.111 -1.4312  1.6901  0.7430
 5825SOL     OW28933   1.918   2.079  11.072  0.4018 -0.3111  0.2603
 5825SOL    HW128934   1.838   2.044  11.113 -0.6682 -0.6224 -2.0749
 5825SOL    HW228935   1.888   2.161  11.033  2.2048 -0.7244 -1.9249
 5826SOL     OW28936   1.140   1.692   5.786  0.2336  0.0356 -0.5775
 5826SOL    HW128937   1.099   1.643   5.857 -0.7189  0.8944 -0.5515
 5826SOL    HW228938   1.127   1.630   5.714  2.6867  0.5569 -1.4918
 5827SOL     OW28939   4.156   4.490   4.841 -0.6061  0.4450 -0.0346
 5827SOL    HW128940   4.174   4.556   4.907 -0.6869  0.0450  0.3882
 5827SOL    HW228941   4.076   4.531   4.808 -1.1365  0.1282  0.8438
 5828SOL     OW28942   1.800   2.780   6.086  0.3512  0.3668  0.0645
 5828SOL    HW128943   1.848   2.839   6.028 -0.2731  0.2112 -0.6094
 5828SOL    HW228944   1.866   2.763   6.153  0.1086  1.1183  0.4954
 5829SOL     OW28945   3.317   1.497  16.418 -0.1946 -0.1453 -0.1825
 5829SOL    HW128946   3.237   1.548  16.406 -0.3426  0.1506  2.0049
 5829SOL    HW228947   3.337   1.516  16.510 -1.3904 -2.5502  0.5596
 5830SOL     OW28948   4.589   0.019   9.403  0.0062 -0.3435  0.0493
 5830SOL    HW128949   4.619   0.097   9.356  1.5186 -1.4923 -0.8507
 5830SOL    HW228950   4.657   0.007   9.469 -0.9199 -3.4727  0.4253
 5831SOL     OW28951   1.379   0.745  10.713 -0.1662  0.0768  0.0860
 5831SOL    HW128952   1.353   0.661  10.750 -0.9415  0.4422  0.3759
 5831SOL    HW228953   1.412   0.707  10.631  0.1391  2.8981 -1.1100
 5832SOL     OW28954   4.435   2.618   2.938 -0.0118 -0.1765 -0.3716
 5832SOL    HW128955   4.503   2.569   2.984 -2.1106 -1.9356  0.8656
 5832SOL    HW228956   4.500   2.661   2.883 -0.6578 -0.0665 -1.0436
 5833SOL     OW28957   4.021   0.306   8.945 -0.0385 -0.0227  0.5986
 5833SOL    HW128958   3.978   0.344   8.869 -1.2380 -1.2031  0.6911
 5833SOL    HW228959   3.983   0.219   8.959 -0.2238 -0.3243 -1.7216
 5834SOL     OW28960   1.720   1.471   9.850 -0.6882 -0.6099 -0.4274
 5834SOL    HW128961   1.672   1.529   9.791  1.0041  0.5475 -0.6583
 5834SOL    HW228962   1.669   1.488   9.930  1.9183 -0.6336  1.2237
 5835SOL     OW28963   1.599   4.402  17.419  0.4027  0.1375  0.9107
 5835SOL    HW128964   1.664   4.462  17.455  0.5382  0.7610 -0.4011
 5835SOL    HW228965   1.614   4.421  17.327 -2.1861 -3.7811 -0.3148
 5836SOL     OW28966   3.923   3.863  10.017  0.0290 -0.1820 -0.3935
 5836SOL    HW128967   3.877   3.800   9.961 -0.4862  0.0389 -0.2260
 5836SOL    HW228968   4.013   3.850   9.988 -0.5333  0.0948 -2.2964
 5837SOL     OW28969   0.864   4.235   6.695 -0.4925 -0.5789  0.2800
 5837SOL    HW128970   0.813   4.314   6.712 -1.1529 -0.3214 -2.8656
 5837SOL    HW228971   0.947   4.269   6.727 -0.2319 -1.0230  0.0760
 5838SOL     OW28972   0.115   3.017   6.731 -0.0528 -0.5888 -0.2069
 5838SOL    HW128973   0.138   3.100   6.773 -0.7324  0.1610 -1.3279
 5838SOL    HW228974   0.188   3.014   6.669 -0.5558 -3.0150 -0.6952
 5839SOL     OW28975   4.616   3.976   2.386 -0.3780  0.0845  0.2711
 5839SOL    HW128976   4.559   3.900   2.394 -0.3380 -0.2408 -2.3574
 5839SOL    HW228977   4.651   3.967   2.474  2.2722  0.8533 -0.6970
 5840SOL     OW28978   1.159   2.613   3.993  0.7525 -0.2335 -0.0437
 5840SOL    HW128979   1.235   2.556   3.977 -0.2379 -1.1626 -1.3963
 5840SOL    HW228980   1.192   2.687   4.044 -2.7665 -0.2559  2.2469
 5841SOL     OW28981   2.752   0.128   0.266  0.2156 -0.7959 -0.2023
 5841SOL    HW128982   2.794   0.126   0.180  0.3000 -2.3528 -0.1170
 5841SOL    HW228983   2.758   0.036   0.293  3.3047 -0.5524 -0.0416
 5842SOL     OW28984   1.837   2.904   7.614 -0.2477 -0.3268 -0.6759
 5842SOL    HW128985   1.790   2.828   7.648 -1.6927  0.0240 -1.8904
 5842SOL    HW228986   1.782   2.975   7.647  0.0109  1.2358 -3.5569
 5843SOL     OW28987   0.754   3.622   6.561  0.1173  0.1129 -0.1764
 5843SOL    HW128988   0.735   3.711   6.531 -2.9378  0.2782  2.2204
 5843SOL    HW228989   0.666   3.593   6.584 -0.7168  2.5256 -0.3420
 5844SOL     OW28990   1.172   0.011   4.628 -0.5110 -0.1010 -0.5697
 5844SOL    HW128991   1.131   4.718   4.543 -0.6277  0.0094 -0.5352
 5844SOL    HW228992   1.213   0.097   4.621  2.4968 -1.2050  3.4942
 5845SOL     OW28993   1.026   0.784   8.680 -0.1258  0.5597  0.0429
 5845SOL    HW128994   0.982   0.854   8.729 -0.2764  1.4013 -1.3076
 5845SOL    HW228995   1.114   0.819   8.661  0.4731  0.4724  2.6112
 5846SOL     OW28996   1.807   0.250   7.013 -0.0635  0.1039 -0.5098
 5846SOL    HW128997   1.736   0.288   6.960  0.7217  0.6064 -1.2062
 5846SOL    HW228998   1.762   0.179   7.059  0.2828  0.0417 -0.2718
 5847SOL     OW28999   0.478   2.126   1.664 -0.0070 -0.1276 -0.2862
 5847SOL    HW129000   0.415   2.075   1.613 -0.8784 -0.3259  0.9715
 5847SOL    HW229001   0.549   2.144   1.603  0.1016 -0.1532 -0.1669
 5848SOL     OW29002   0.145   2.093   6.431 -0.5862  0.0716  0.9117
 5848SOL    HW129003   0.148   2.187   6.451 -0.2269  0.4247 -0.8009
 5848SOL    HW229004   0.084   2.062   6.498 -0.9304  0.2654  0.6924
 5849SOL     OW29005   4.243   0.635  13.364  0.5167  0.3597  0.1468
 5849SOL    HW129006   4.171   0.611  13.422  0.6399  1.9526  0.9492
 5849SOL    HW229007   4.223   0.572  13.294 -1.1355  1.1547 -0.0930
 5850SOL     OW29008   0.146   2.170   3.831 -0.0692 -0.2209  0.2799
 5850SOL    HW129009   0.067   2.218   3.855 -1.1225 -1.6137 -0.3673
 5850SOL    HW229010   0.212   2.234   3.857 -0.1184  0.8209 -2.1379
 5851SOL     OW29011   0.915   2.374   2.756 -0.2064  0.1500 -0.4248
 5851SOL    HW129012   0.901   2.316   2.831 -0.3169  0.2170 -0.3941
 5851SOL    HW229013   0.898   2.312   2.685 -1.4176 -0.5187  0.4418
 5852SOL     OW29014   0.073   0.906   9.079 -0.0126 -0.5783  0.2235
 5852SOL    HW129015   0.131   0.979   9.058 -0.7944 -0.8179 -2.7798
 5852SOL    HW229016   0.106   0.835   9.023  0.8304  0.1938 -0.2663
 5853SOL     OW29017   3.961   3.521   6.424 -0.7374 -0.2075 -0.5681
 5853SOL    HW129018   4.004   3.579   6.361  0.7950 -1.2151 -0.4699
 5853SOL    HW229019   3.874   3.549   6.396 -1.5966 -0.9316  1.3634
 5854SOL     OW29020   0.857   2.194   9.473 -0.0051  0.6633 -0.1109
 5854SOL    HW129021   0.811   2.176   9.555  1.0433 -1.3231  0.0334
 5854SOL    HW229022   0.943   2.211   9.512  0.0299  0.0109  0.0982
 5855SOL     OW29023   4.421   1.088   9.346 -0.2895 -0.4860 -0.2587
 5855SOL    HW129024   4.405   1.134   9.428  0.6373 -0.5240 -0.0538
 5855SOL    HW229025   4.453   1.167   9.302 -0.4395  0.7792  1.9242
 5856SOL     OW29026   4.097   2.459   4.657 -0.1034  0.4106  0.4429
 5856SOL    HW129027   4.067   2.378   4.698  0.3701 -1.2214 -2.4540
 5856SOL    HW229028   4.091   2.519   4.732 -1.6414 -0.9812  1.4528
 5857SOL     OW29029   2.081   3.456   7.434  0.0705  0.2180 -0.2517
 5857SOL    HW129030   2.130   3.426   7.511 -0.7170  0.8353  0.4813
 5857SOL    HW229031   2.108   3.546   7.418  1.6952 -0.0696  0.8268
 5858SOL     OW29032   1.787   0.210   4.915 -0.2418  0.5332  0.1191
 5858SOL    HW129033   1.758   0.212   4.824 -5.3540 -0.8957  1.6551
 5858SOL    HW229034   1.877   0.180   4.903 -1.1367 -1.6183 -1.1382
 5859SOL     OW29035   1.760   3.163   3.202 -0.1093  0.0303  0.1863
 5859SOL    HW129036   1.818   3.134   3.131  1.5106  1.6917  0.8265
 5859SOL    HW229037   1.698   3.217   3.153 -0.4490 -0.4923  0.0483
 5860SOL     OW29038   3.676   1.920  14.265  0.3430 -0.2493 -0.0773
 5860SOL    HW129039   3.673   1.845  14.206  1.3148 -0.8940  0.7111
 5860SOL    HW229040   3.604   1.974  14.231  0.6897  1.0003  1.1562
 5861SOL     OW29041   0.714   1.813   6.426  0.1841  0.2182 -0.1993
 5861SOL    HW129042   0.742   1.904   6.432  0.7009 -0.0675  1.9046
 5861SOL    HW229043   0.629   1.808   6.470 -0.3408 -1.9681 -1.4650
 5862SOL     OW29044   2.146   4.115   7.346 -0.4258  0.0574 -0.1099
 5862SOL    HW129045   2.217   4.077   7.293 -0.8924  0.0911 -0.7654
 5862SOL    HW229046   2.192   4.168   7.411 -1.4364  0.8238 -0.0244
 5863SOL     OW29047   4.483   4.325   4.301 -0.3105 -0.2372 -0.1357
 5863SOL    HW129048   4.420   4.345   4.370 -1.3697 -1.6525 -0.7125
 5863SOL    HW229049   4.491   4.409   4.255  1.7712 -0.9399 -1.0564
 5864SOL     OW29050   2.883   1.742  15.714 -0.2137 -0.6616  0.7119
 5864SOL    HW129051   2.841   1.771  15.633 -1.0214 -1.7118  0.7395
 5864SOL    HW229052   2.973   1.739  15.681  0.1672  3.7727  1.3453
 5865SOL     OW29053   0.965   0.285   8.472  0.0189  0.3391 -0.5446
 5865SOL    HW129054   0.929   0.205   8.435 -0.1574  0.8534 -1.4799
 5865SOL    HW229055   0.997   0.246   8.553  0.7331  2.1780  0.0714
 5866SOL     OW29056   4.272   3.533   2.437 -0.2055  0.2184 -0.1324
 5866SOL    HW129057   4.363   3.502   2.443 -0.6483 -0.8413  1.0843
 5866SOL    HW229058   4.243   3.513   2.526 -1.5396  0.5484 -0.4999
 5867SOL     OW29059   4.717   3.295  11.536  0.1204 -0.0619  0.2060
 5867SOL    HW129060   0.050   3.362  11.499  1.3100 -0.0708  2.0416
 5867SOL    HW229061   4.652   3.280  11.467  0.8191 -0.7274 -0.3013
 5868SOL     OW29062   4.243   2.987   1.365  0.6688  0.2467 -0.1260
 5868SOL    HW129063   4.207   3.075   1.374  1.1696  0.5116 -0.7992
 5868SOL    HW229064   4.167   2.928   1.365  1.2368 -0.4719  1.4807
 5869SOL     OW29065   2.176   1.282  13.478 -0.2400  0.0146  0.0472
 5869SOL    HW129066   2.269   1.283  13.457  0.1137  0.9983  1.7044
 5869SOL    HW229067   2.173   1.332  13.559  0.0049  2.3764 -1.4095
 5870SOL     OW29068   0.617   0.374   7.223  0.3499 -0.2421 -0.8250
 5870SOL    HW129069   0.621   0.311   7.295  1.1364  0.0297 -0.6228
 5870SOL    HW229070   0.544   0.338   7.172 -0.0245 -0.8202  0.1315
 5871SOL     OW29071   0.187   4.539   1.998  0.2994 -0.3696 -0.2404
 5871SOL    HW129072   0.199   4.562   1.906 -0.5418  1.4877  0.1154
 5871SOL    HW229073   0.279   4.543   2.025  0.0925  2.9465 -0.0556
 5872SOL     OW29074   3.451   2.509   1.611  0.2737  0.3156  0.2003
 5872SOL    HW129075   3.481   2.558   1.534  0.5901  2.9016  1.9733
 5872SOL    HW229076   3.456   2.582   1.672 -1.1078  0.5837 -0.0069
 5873SOL     OW29077   0.176   1.444  17.485  0.0763  0.3118  0.1093
 5873SOL    HW129078   0.216   1.359  17.464  1.0362  0.3410  1.8032
 5873SOL    HW229079   0.172   1.447  17.581 -1.3250  0.6862  0.0304
 5874SOL     OW29080   1.020   4.524   7.666 -0.1183  0.1271 -0.4610
 5874SOL    HW129081   1.082   4.576   7.616 -0.2925 -1.5849 -2.4750
 5874SOL    HW229082   0.965   4.599   7.690 -0.6598 -0.9014  1.5644
 5875SOL     OW29083   2.403   1.524   3.724 -0.4306  0.6893  0.3063
 5875SOL    HW129084   2.370   1.591   3.783  0.1916  0.3170  1.0808
 5875SOL    HW229085   2.496   1.546   3.725 -0.3201  0.1699  2.9437
 5876SOL     OW29086   2.842   3.485  13.081 -0.5554  0.1941  0.5002
 5876SOL    HW129087   2.769   3.528  13.037 -0.5806 -0.3996 -0.0366
 5876SOL    HW229088   2.861   3.549  13.151  0.4537  0.3880  0.0503
 5877SOL     OW29089   0.304   4.563   4.718  0.6632  0.0999 -0.1062
 5877SOL    HW129090   0.212   4.545   4.699  0.2508 -0.7966  2.8465
 5877SOL    HW229091   0.306   4.561   4.814 -2.4224  1.0046 -0.0164
 5878SOL     OW29092   1.273   4.394   0.259  0.1967 -0.2820 -0.1836
 5878SOL    HW129093   1.249   4.303   0.238  0.5433 -0.6368  0.9477
 5878SOL    HW229094   1.224   4.434   0.187  0.8602  1.5312  0.3904
 5879SOL     OW29095   1.356   2.232   2.372  0.5471 -0.0857 -0.2395
 5879SOL    HW129096   1.261   2.229   2.360  0.6920 -1.4654 -1.0188
 5879SOL    HW229097   1.369   2.280   2.453  0.4662  1.8249 -1.3551
 5880SOL     OW29098   0.458   0.769   6.996  0.0897  0.0390  0.5014
 5880SOL    HW129099   0.422   0.707   7.059  0.4390 -1.0294 -0.3464
 5880SOL    HW229100   0.553   0.757   7.001  0.2386  0.6834 -0.8997
 5881SOL     OW29101   0.349   3.136  12.908  0.1317 -0.0923  0.1078
 5881SOL    HW129102   0.410   3.156  12.979 -0.1848 -0.0101  0.3529
 5881SOL    HW229103   0.264   3.154  12.949 -0.3729  0.7972 -1.3252
 5882SOL     OW29104   3.599   2.682  15.124  0.1659 -0.7952 -0.1574
 5882SOL    HW129105   3.693   2.686  15.139 -0.0394  0.8111  0.7986
 5882SOL    HW229106   3.578   2.776  15.124 -1.2728 -1.1116 -1.0152
 5883SOL     OW29107   4.550   1.923   2.770 -0.0440  0.1901  0.3099
 5883SOL    HW129108   4.538   1.870   2.691  0.3531  1.9158 -0.8949
 5883SOL    HW229109   4.461   1.954   2.788 -0.1556  0.2289 -0.3209
 5884SOL     OW29110   0.240   2.367   5.398  0.0663 -0.0153 -0.2515
 5884SOL    HW129111   0.230   2.450   5.444 -1.7613 -0.4837  0.1859
 5884SOL    HW229112   0.329   2.346   5.427 -0.2331 -0.5443  0.2860
 5885SOL     OW29113   4.291   2.025  13.393 -0.0663  0.0221  0.4282
 5885SOL    HW129114   4.353   2.070  13.451 -1.4644 -0.9562  2.7082
 5885SOL    HW229115   4.230   2.096  13.374  2.3996  1.9825 -0.1959
 5886SOL     OW29116   0.075   0.147   3.729  0.0084  0.1566  0.5669
 5886SOL    HW129117   0.071   0.241   3.716 -2.9457 -0.2122 -1.1477
 5886SOL    HW229118   0.164   0.115   3.710 -0.5871 -1.3890  0.3402
 5887SOL     OW29119   2.809   0.909   5.085 -0.3738  0.1169 -0.2643
 5887SOL    HW129120   2.773   0.874   5.166 -0.5761 -0.5021 -0.6243
 5887SOL    HW229121   2.865   0.983   5.112 -2.9053  0.7125  3.3264
 5888SOL     OW29122   0.929   1.807  16.218  0.2920 -0.1683  0.1769
 5888SOL    HW129123   0.850   1.754  16.227  0.9983 -1.1112  0.8321
 5888SOL    HW229124   0.941   1.812  16.123 -0.9320  0.2143  0.0478
 5889SOL     OW29125   1.588   3.664   9.522 -0.0815  0.2389 -0.7326
 5889SOL    HW129126   1.560   3.695   9.608 -0.3046 -1.4071 -0.2059
 5889SOL    HW229127   1.504   3.624   9.499  1.8112 -2.3138 -3.2301
 5890SOL     OW29128   2.909   2.981  15.656  0.0171 -0.7103  0.3653
 5890SOL    HW129129   2.832   2.965  15.601  1.4252 -0.7315 -1.5697
 5890SOL    HW229130   2.964   2.904  15.641  0.2275 -0.3976 -0.4547
 5891SOL     OW29131   1.637   0.935   6.383  0.4822 -0.1976 -0.0023
 5891SOL    HW129132   1.612   0.872   6.315  0.1928  0.3272 -0.3825
 5891SOL    HW229133   1.555   0.980   6.405  0.4293 -0.1482 -0.2951
 5892SOL     OW29134   3.535   2.920   8.210 -0.4117  0.0489 -0.0166
 5892SOL    HW129135   3.603   2.897   8.147 -1.2877  2.5792 -1.9044
 5892SOL    HW229136   3.558   3.006   8.246  0.3279 -0.4954  0.7861
 5893SOL     OW29137   3.102   3.862   8.923  0.4994 -0.2195 -0.1673
 5893SOL    HW129138   3.067   3.853   9.011  1.3666  0.6923  0.2706
 5893SOL    HW229139   3.185   3.906   8.943  1.4510 -1.5027 -1.2517
 5894SOL     OW29140   3.465   2.406   2.479  0.0810 -0.3747 -0.0447
 5894SOL    HW129141   3.520   2.371   2.410  0.2422 -0.9392  0.3633
 5894SOL    HW229142   3.510   2.368   2.555  1.3110 -0.5664 -0.8773
 5895SOL     OW29143   1.333   3.085  15.030  0.1293  0.0867  0.3477
 5895SOL    HW129144   1.365   3.053  15.114 -0.1549  0.8656  0.7448
 5895SOL    HW229145   1.415   3.107  14.985 -0.1778 -0.4199 -0.4658
 5896SOL     OW29146   1.561   1.054  13.252 -0.0818 -0.0863 -0.1357
 5896SOL    HW129147   1.536   1.033  13.162 -1.1207  2.7882 -0.5232
 5896SOL    HW229148   1.482   1.101  13.280  0.1649 -0.0763  0.5509
 5897SOL     OW29149   4.624   2.293   4.360 -0.0009  0.2516 -0.1384
 5897SOL    HW129150   4.634   2.381   4.325 -1.3663  0.1845 -0.7151
 5897SOL    HW229151   4.692   2.245   4.312  0.5762 -0.8416  1.7417
 5898SOL     OW29152   4.460   0.754   4.082 -0.3157  0.1783  0.2107
 5898SOL    HW129153   4.472   0.792   3.995  0.0539 -0.8125 -0.1636
 5898SOL    HW229154   4.436   0.835   4.127 -2.1018 -1.0929  1.5232
 5899SOL     OW29155   1.613   0.230  11.638  0.3943  0.0432  0.0741
 5899SOL    HW129156   1.632   0.229  11.544 -0.6372  0.3574 -0.1429
 5899SOL    HW229157   1.698   0.219  11.680  0.4507  0.8745  0.1808
 5900SOL     OW29158   3.944   3.252   8.314 -0.5290  0.9289  0.3434
 5900SOL    HW129159   3.896   3.331   8.289 -2.4423 -0.2458  0.3030
 5900SOL    HW229160   4.018   3.286   8.365  1.2321 -1.8662 -0.3781
 5901SOL     OW29161   1.379   2.197  14.739 -0.7590  0.1582  0.4977
 5901SOL    HW129162   1.444   2.255  14.700 -0.1763 -2.5814 -2.6381
 5901SOL    HW229163   1.323   2.170  14.666  0.4868  2.5257 -1.3321
 5902SOL     OW29164   3.584   4.078   5.745  0.2390  0.2347  0.2847
 5902SOL    HW129165   3.610   4.112   5.830 -0.3992 -0.5059  0.7685
 5902SOL    HW229166   3.661   4.024   5.725 -0.8124 -0.5502 -1.6584
 5903SOL     OW29167   0.762   2.710   2.296  0.0948 -0.1209  0.8118
 5903SOL    HW129168   0.781   2.729   2.204 -0.4688  2.6096  1.2566
 5903SOL    HW229169   0.671   2.738   2.304  0.6458  2.2531 -1.3072
 5904SOL     OW29170   3.041   1.778   6.466  0.0007 -0.0659 -0.3462
 5904SOL    HW129171   3.045   1.846   6.400 -0.8739 -0.0007 -0.3341
 5904SOL    HW229172   3.131   1.755   6.489  0.3372  0.7152 -0.9118
 5905SOL     OW29173   4.074   1.118   1.583  0.4534 -0.2132  0.1135
 5905SOL    HW129174   4.055   1.081   1.669  0.5050  0.6863  0.5128
 5905SOL    HW229175   4.104   1.203   1.617  0.4262 -0.7034  1.3521
 5906SOL     OW29176   0.323   0.781   2.483  0.3158  0.5508  0.5133
 5906SOL    HW129177   0.310   0.699   2.435 -1.7598  1.6442 -0.8250
 5906SOL    HW229178   0.401   0.765   2.536  0.3772 -1.9689 -0.3434
 5907SOL     OW29179   0.243   0.244   6.900 -0.4530  0.4083 -0.3852
 5907SOL    HW129180   0.281   0.242   6.988  1.4946 -1.9590 -1.2555
 5907SOL    HW229181   0.291   0.322   6.870  1.4299 -1.5208 -2.4235
 5908SOL     OW29182   4.201   2.133   6.909 -0.1883 -0.1084  0.3876
 5908SOL    HW129183   4.289   2.126   6.947  0.7632 -0.1762 -1.8547
 5908SOL    HW229184   4.153   2.187   6.973 -2.0364 -0.7665 -0.4429
 5909SOL     OW29185   4.420   4.242   8.565  0.1176 -0.0300 -0.6783
 5909SOL    HW129186   4.450   4.156   8.597 -1.6880 -0.1402  0.7273
 5909SOL    HW229187   4.371   4.277   8.639 -0.4669 -0.4948 -0.8389
 5910SOL     OW29188   1.621   3.396   5.514 -0.2892  0.2343  0.1688
 5910SOL    HW129189   1.634   3.487   5.489 -0.8221  0.1465 -0.4210
 5910SOL    HW229190   1.554   3.364   5.455 -1.8349 -0.9302  2.5643
 5911SOL     OW29191   0.040   1.109   4.420  0.1612 -0.1331 -0.2927
 5911SOL    HW129192   4.674   1.126   4.394  0.2839 -0.2538 -0.8043
 5911SOL    HW229193   0.033   1.103   4.515  3.7171 -1.3212 -0.0885
 5912SOL     OW29194   4.217   2.264   6.661  0.3742  0.1560  0.0284
 5912SOL    HW129195   4.310   2.271   6.640  0.4057  0.4763  0.2862
 5912SOL    HW229196   4.231   2.198   6.729  0.9834  0.6016  0.3360
 5913SOL     OW29197   1.832   1.565   8.471  0.0106  0.1661 -0.4353
 5913SOL    HW129198   1.917   1.525   8.452 -0.0575 -0.7045  1.0719
 5913SOL    HW229199   1.857   1.569   8.563  2.3413  3.1133 -1.1699
 5914SOL     OW29200   1.805   2.498   3.636  0.2329  0.2343 -0.1645
 5914SOL    HW129201   1.858   2.571   3.604  2.7758 -0.7934  1.6871
 5914SOL    HW229202   1.863   2.423   3.628 -1.4995 -1.2717  1.4219
 5915SOL     OW29203   1.917   0.145   0.995 -0.0129 -0.1038 -0.2269
 5915SOL    HW129204   1.884   0.233   1.012 -1.1072 -0.1653 -2.0401
 5915SOL    HW229205   1.985   0.168   0.931  0.7541  1.0550  1.0191
 5916SOL     OW29206   1.681   2.926   4.081 -0.2782  0.1623 -0.1634
 5916SOL    HW129207   1.679   3.017   4.111  0.6738  0.0050  0.3694
 5916SOL    HW229208   1.754   2.922   4.018 -0.7059 -0.2109 -0.6389
 5917SOL     OW29209   1.257   2.008   6.159  0.0888  0.0257 -0.4646
 5917SOL    HW129210   1.322   1.948   6.123  0.1706 -1.2386  1.8153
 5917SOL    HW229211   1.314   2.065   6.210 -0.4548  0.5130 -0.3899
 5918SOL     OW29212   0.966   3.834  10.141  0.1713  0.1605 -0.1384
 5918SOL    HW129213   0.984   3.793  10.225  0.4825 -0.8629 -0.7047
 5918SOL    HW229214   1.024   3.910  10.143 -0.4508  0.6392 -0.1491
 5919SOL     OW29215   2.263   1.196   9.179 -0.0709  0.6466  0.0354
 5919SOL    HW129216   2.283   1.266   9.241  0.0979  1.2237 -0.6809
 5919SOL    HW229217   2.187   1.164   9.228 -0.2921 -0.1267 -0.8005
 5920SOL     OW29218   0.209   0.614   5.980  0.2851 -0.1906 -0.2038
 5920SOL    HW129219   0.274   0.608   5.910 -0.4191  0.6294 -0.9403
 5920SOL    HW229220   0.130   0.578   5.940 -0.1281  2.1098 -1.4866
 5921SOL     OW29221   4.211   1.559   7.368 -0.2523 -0.2801 -0.2319
 5921SOL    HW129222   4.169   1.506   7.300  2.1147 -0.2040 -1.7547
 5921SOL    HW229223   4.186   1.647   7.340  2.3780  0.3886 -0.4441
 5922SOL     OW29224   4.331   0.163   3.399  0.2836 -0.1457 -0.4493
 5922SOL    HW129225   4.237   0.150   3.412  0.2286  0.4339 -0.2534
 5922SOL    HW229226   4.344   0.103   3.326  1.9528 -0.8871  0.4471
 5923SOL     OW29227   3.954   1.753  14.971  0.3569 -0.1343  0.1868
 5923SOL    HW129228   4.035   1.740  14.920  0.1723  0.7566 -0.3432
 5923SOL    HW229229   3.898   1.803  14.912  0.8353  0.0117 -0.1463
 5924SOL     OW29230   0.699   2.151   9.696 -0.2491 -0.0903 -0.2986
 5924SOL    HW129231   0.692   2.112   9.783  1.5618 -1.3564 -0.7228
 5924SOL    HW229232   0.669   2.241   9.709  1.6241  0.6575 -1.1749
 5925SOL     OW29233   0.160   1.493   3.567  0.0931  0.0575 -0.3972
 5925SOL    HW129234   0.117   1.576   3.546 -1.5758 -1.1622 -1.7644
 5925SOL    HW229235   0.098   1.429   3.533 -3.4217  1.9263  2.5392
 5926SOL     OW29236   2.177   1.097  11.380 -0.2799 -0.0341 -0.1710
 5926SOL    HW129237   2.110   1.075  11.445 -0.4858  1.6014  0.1674
 5926SOL    HW229238   2.226   1.156  11.437  0.7721  0.6184 -1.7522
 5927SOL     OW29239   0.605   0.814   3.162 -0.0285 -0.1837  0.6640
 5927SOL    HW129240   0.701   0.817   3.154  0.0695 -2.9478  0.8728
 5927SOL    HW229241   0.579   0.890   3.109  0.1297 -1.5292 -1.3649
 5928SOL     OW29242   4.479   1.984   5.659 -0.5934 -0.3169  0.2735
 5928SOL    HW129243   4.405   2.032   5.622 -1.5227 -0.8517  1.4291
 5928SOL    HW229244   4.472   1.899   5.616 -1.3131  0.3608 -0.9328
 5929SOL     OW29245   3.678   3.557  16.607 -0.4329  0.0204  0.1455
 5929SOL    HW129246   3.593   3.513  16.611 -0.5388  0.0540 -2.1737
 5929SOL    HW229247   3.669   3.640  16.654 -3.3860  0.9037 -1.9680
 5930SOL     OW29248   0.924   3.688   4.795  0.0423 -0.1966 -0.4028
 5930SOL    HW129249   0.872   3.768   4.791  1.9629  1.0676 -0.0358
 5930SOL    HW229250   0.856   3.623   4.813 -0.8859  0.8282 -0.2206
 5931SOL     OW29251   0.858   2.895   5.189  0.7285  0.1266  0.6253
 5931SOL    HW129252   0.808   2.961   5.237  0.3166 -0.6906  1.3198
 5931SOL    HW229253   0.891   2.840   5.260 -0.1688  0.7318  1.5186
 5932SOL     OW29254   3.804   4.494   0.067 -0.0065 -0.2547 -0.7538
 5932SOL    HW129255   3.768   4.560   0.126  0.8481 -0.7679  0.3331
 5932SOL    HW229256   3.739   4.494  17.694 -0.3413  1.5791 -0.4446
 5933SOL     OW29257   1.139   2.856   1.597 -0.2501  0.1004 -0.0505
 5933SOL    HW129258   1.205   2.875   1.663 -0.0066 -0.1665 -0.2173
 5933SOL    HW229259   1.189   2.826   1.521  1.6705  0.4325  1.0796
 5934SOL     OW29260   3.379   2.580   4.343 -0.0365 -0.2521 -0.1405
 5934SOL    HW129261   3.395   2.664   4.386 -2.0366  1.3104 -2.4791
 5934SOL    HW229262   3.444   2.525   4.387 -1.2407  0.1641  2.1175
 5935SOL     OW29263   4.592   3.356   1.083 -0.6832  0.9363  0.8853
 5935SOL    HW129264   4.575   3.412   1.007  1.2958 -0.1555 -0.3835
 5935SOL    HW229265   4.506   3.336   1.120 -0.6492  2.1078  1.5859
 5936SOL     OW29266   4.716   0.728   0.231  0.2729 -0.2563 -0.3218
 5936SOL    HW129267   0.046   0.654   0.203 -2.3303 -3.0402  1.8932
 5936SOL    HW229268   4.654   0.678   0.285 -1.3824  1.6724 -0.4090
 5937SOL     OW29269   4.415   4.351  17.069  0.1510  0.2564 -0.4661
 5937SOL    HW129270   4.360   4.429  17.076 -1.2420 -0.7768  0.1984
 5937SOL    HW229271   4.481   4.379  17.006  0.0240  1.6462  0.0252
 5938SOL     OW29272   3.165   4.558   3.293 -0.2432 -0.1504  0.0235
 5938SOL    HW129273   3.114   4.638   3.313  0.1018 -0.6590  2.9917
 5938SOL    HW229274   3.259   4.572   3.287 -0.2678  1.3176  2.7849
 5939SOL     OW29275   0.425   2.655  10.952  0.0431 -0.2877  0.3637
 5939SOL    HW129276   0.410   2.735  11.003  3.4420  0.6919 -0.1435
 5939SOL    HW229277   0.337   2.619  10.961  0.3504 -1.1987 -0.3750
 5940SOL     OW29278   1.531   3.105   4.851  0.0244 -0.5187  0.1926
 5940SOL    HW129279   1.521   3.177   4.913 -2.6360 -1.2393  0.6033
 5940SOL    HW229280   1.448   3.115   4.803  0.6615  0.7055 -0.6500
 5941SOL     OW29281   3.263   2.168   7.512  0.2442 -0.0601  0.0724
 5941SOL    HW129282   3.295   2.118   7.588  2.6228  0.1919 -0.7518
 5941SOL    HW229283   3.333   2.148   7.449  0.8214 -0.7529  0.9304
 5942SOL     OW29284   1.391   0.432  10.581 -0.0300  0.5819  0.4377
 5942SOL    HW129285   1.458   0.483  10.537 -1.0065  1.1358 -0.4022
 5942SOL    HW229286   1.430   0.345  10.587 -1.7727 -0.2693 -0.8060
 5943SOL     OW29287   4.309   3.685   6.169 -0.0792  0.3786 -0.0029
 5943SOL    HW129288   4.370   3.640   6.228 -0.9154 -0.1205  0.4708
 5943SOL    HW229289   4.358   3.767   6.159  0.1941  0.7248  4.2803
 5944SOL     OW29290   1.745   2.393  10.296  0.1856  0.1120  0.0940
 5944SOL    HW129291   1.773   2.475  10.256 -2.5662  1.4912  0.9833
 5944SOL    HW229292   1.685   2.355  10.232  2.8701 -1.9152 -1.1991
 5945SOL     OW29293   0.166   4.113   7.139  0.6336 -0.4526  0.2201
 5945SOL    HW129294   0.132   4.076   7.221  3.2339 -2.5653  0.3363
 5945SOL    HW229295   0.169   4.206   7.160 -0.7027 -0.6392  1.2650
 5946SOL     OW29296   1.690   3.465   7.878  0.2157 -0.1570  0.2450
 5946SOL    HW129297   1.761   3.469   7.814  2.3401 -1.3100  2.5277
 5946SOL    HW229298   1.700   3.545   7.931 -3.5926 -0.0858  0.8475
 5947SOL     OW29299   1.807   0.258   1.621 -0.9134  0.2820  0.4934
 5947SOL    HW129300   1.876   0.248   1.555  0.9733  0.5658  2.4020
 5947SOL    HW229301   1.817   0.179   1.675  0.6174  0.1015 -0.0358
 5948SOL     OW29302   2.431   2.353   7.014  0.1781 -0.2048 -0.3796
 5948SOL    HW129303   2.416   2.307   6.932 -0.7677  0.0066 -0.3257
 5948SOL    HW229304   2.520   2.381   6.994  0.3957 -0.7378 -0.1468
 5949SOL     OW29305   2.498   1.848   3.557  0.2148  0.3350 -0.6742
 5949SOL    HW129306   2.495   1.786   3.630  2.0931  0.0129 -0.8626
 5949SOL    HW229307   2.534   1.926   3.599  0.4841 -0.4818  0.6327
 5950SOL     OW29308   0.118   3.924   7.590  0.1503 -0.0730  0.3535
 5950SOL    HW129309   0.178   3.855   7.618 -0.7372 -1.3634 -0.9702
 5950SOL    HW229310   0.162   4.004   7.620  3.0146 -1.2316 -0.6983
 5951SOL     OW29311   0.040   2.980   5.319 -0.3611  0.1619  0.8222
 5951SOL    HW129312   0.096   3.036   5.373 -0.1388  1.8659 -1.1734
 5951SOL    HW229313   0.109   2.944   5.263 -1.9106  1.8547 -2.1984
 5952SOL     OW29314   3.476   4.332   5.623  0.4684 -0.7873 -0.3421
 5952SOL    HW129315   3.505   4.331   5.714  1.3276  0.6736 -0.5894
 5952SOL    HW229316   3.553   4.360   5.572 -0.5671  0.9934 -0.9546
 5953SOL     OW29317   4.300   1.741   5.706  0.1028  0.3743 -0.0610
 5953SOL    HW129318   4.233   1.791   5.752 -1.0353  1.0205 -2.4084
 5953SOL    HW229319   4.361   1.711   5.774 -1.2889 -1.4295  0.3747
 5954SOL     OW29320   0.157   2.521   9.722 -0.4358  0.3071  0.4948
 5954SOL    HW129321   0.187   2.553   9.637 -2.4386  0.3393 -0.1990
 5954SOL    HW229322   0.217   2.448   9.739  0.6413  1.1180  0.2122
 5955SOL     OW29323   0.523   0.669   0.472 -0.6546 -0.1604 -0.0463
 5955SOL    HW129324   0.473   0.613   0.413 -1.9243  1.3717 -0.4255
 5955SOL    HW229325   0.470   0.670   0.552 -1.6903 -0.9101 -0.7317
 5956SOL     OW29326   0.117   4.078  16.240  0.4203 -0.3759 -0.2328
 5956SOL    HW129327   0.113   4.051  16.332  1.5210 -1.0442 -0.3885
 5956SOL    HW229328   0.181   4.149  16.241 -0.8610  0.7658  1.7398
 5957SOL     OW29329   2.209   0.691   5.338 -0.2402  0.3600  0.1499
 5957SOL    HW129330   2.300   0.666   5.321  0.6451  4.8922 -1.7664
 5957SOL    HW229331   2.168   0.619   5.386 -2.2500 -0.5631 -3.0017
 5958SOL     OW29332   4.049   2.105   9.052 -0.0736  0.6733 -0.2527
 5958SOL    HW129333   4.029   2.109   9.146 -2.9331 -2.2822 -0.7471
 5958SOL    HW229334   4.017   2.193   9.033 -0.0131  0.6779 -0.3319
 5959SOL     OW29335   4.472   0.921   0.217 -0.1062  0.3034 -0.5046
 5959SOL    HW129336   4.452   1.002   0.265  0.0978  2.0181 -3.3257
 5959SOL    HW229337   4.415   0.856   0.259  1.9614 -1.8142 -0.9753
 5960SOL     OW29338   3.589   0.785   2.183 -0.5644 -0.1447 -0.1773
 5960SOL    HW129339   3.567   0.766   2.274  1.3115  2.1281  0.7556
 5960SOL    HW229340   3.555   0.708   2.138  0.7010  1.1688 -3.4610
 5961SOL     OW29341   3.847   1.028   8.976  0.0599 -0.7863 -0.3112
 5961SOL    HW129342   3.934   0.997   9.000  0.4545  0.5141 -0.0253
 5961SOL    HW229343   3.792   1.028   9.054 -0.9130 -0.2885 -0.9932
 5962SOL     OW29344   3.556   2.520   3.877  0.2358  0.2283 -0.2114
 5962SOL    HW129345   3.497   2.574   3.929  0.1018  0.2543 -0.3905
 5962SOL    HW229346   3.634   2.576   3.874  1.1484 -1.0719 -0.7728
 5963SOL     OW29347   0.595   2.788   6.382  0.0038 -0.4090 -0.1924
 5963SOL    HW129348   0.509   2.828   6.373 -0.0210 -0.7001 -1.2622
 5963SOL    HW229349   0.576   2.695   6.364  0.6552 -0.9270  1.8287
 5964SOL     OW29350   1.216   2.759   0.182  0.2896 -0.3089  0.4117
 5964SOL    HW129351   1.258   2.762   0.096 -0.9388 -0.6094 -0.1941
 5964SOL    HW229352   1.150   2.692   0.164  2.1478 -2.0829  0.2638
 5965SOL     OW29353   1.080   0.003   6.196  0.0585 -0.6328 -0.4433
 5965SOL    HW129354   1.153   0.058   6.166 -0.9428  0.6013 -0.6093
 5965SOL    HW229355   1.017   0.070   6.224  0.0108 -2.0600  2.8199
 5966SOL     OW29356   4.136   2.858   3.931  0.2449  0.2858  0.5469
 5966SOL    HW129357   4.133   2.899   4.018  1.0757 -2.1830  1.7372
 5966SOL    HW229358   4.184   2.776   3.940 -1.4243 -0.8118 -0.5859
 5967SOL     OW29359   3.780   3.615  12.471  0.2634  0.2454 -0.0916
 5967SOL    HW129360   3.862   3.588  12.429 -1.0192 -1.5236 -1.4792
 5967SOL    HW229361   3.731   3.654  12.398  0.8904  1.0630 -0.0773
 5968SOL     OW29362   2.374   1.478   3.457 -0.1506  0.1120 -0.0537
 5968SOL    HW129363   2.348   1.508   3.544 -0.7089  0.2128 -0.2536
 5968SOL    HW229364   2.424   1.400   3.480 -0.4209 -0.3035 -0.8738
 5969SOL     OW29365   2.817   4.185   0.449  0.3496 -0.5812  0.0684
 5969SOL    HW129366   2.730   4.220   0.428  1.3776  0.6850 -2.1310
 5969SOL    HW229367   2.873   4.262   0.446  1.9748 -1.8566 -2.5410
 5970SOL     OW29368   0.562   0.782   8.290 -0.4324  0.3437  0.1781
 5970SOL    HW129369   0.636   0.784   8.230 -0.9456 -1.6722 -0.5246
 5970SOL    HW229370   0.602   0.819   8.369  0.4342 -3.0634  1.3362
 5971SOL     OW29371   3.786   2.013  11.539  0.3113  0.2414  0.5644
 5971SOL    HW129372   3.790   2.102  11.574  1.7111  0.1396  0.6794
 5971SOL    HW229373   3.827   1.957  11.605 -1.4379  0.1489  1.5814
 5972SOL     OW29374   0.059   3.515   3.459 -0.1623  0.1013  0.3204
 5972SOL    HW129375   0.114   3.437   3.470 -1.4047 -0.5999  1.5442
 5972SOL    HW229376   0.102   3.577   3.518  0.0184 -2.7177  3.1789
 5973SOL     OW29377   1.037   4.428   2.803 -0.2665 -0.4192 -0.0181
 5973SOL    HW129378   1.038   4.336   2.827 -0.4698 -0.0047  1.5747
 5973SOL    HW229379   1.023   4.472   2.887 -1.3930  1.7222 -1.3079
 5974SOL     OW29380   0.870   3.608   9.984  0.3268 -0.3581  0.2112
 5974SOL    HW129381   0.903   3.674  10.045  0.0570  0.6218 -0.7072
 5974SOL    HW229382   0.897   3.646   9.900  1.3806  0.1439  0.7810
 5975SOL     OW29383   4.170   3.825  11.265  0.5546 -0.1907  0.3656
 5975SOL    HW129384   4.151   3.918  11.252  1.2593  0.2595  2.4815
 5975SOL    HW229385   4.152   3.797  11.175 -1.5928 -1.0958  1.0674
 5976SOL     OW29386   1.149   3.026  17.393 -0.0890 -0.4409  0.2925
 5976SOL    HW129387   1.231   3.050  17.437  0.7504  0.4754 -1.7641
 5976SOL    HW229388   1.091   3.053  17.464 -0.9519 -1.1632 -0.1375
 5977SOL     OW29389   2.595   4.469   0.430 -0.0077  0.3257  0.9033
 5977SOL    HW129390   2.607   4.454   0.523 -2.3866 -1.3458  0.9363
 5977SOL    HW229391   2.570   4.380   0.407 -0.5437  0.8322 -0.5372
 5978SOL     OW29392   2.702   0.867  14.949  0.3551 -0.0834 -0.4138
 5978SOL    HW129393   2.732   0.952  14.981 -0.2862  0.2645 -0.7535
 5978SOL    HW229394   2.702   0.875  14.854  0.6003  1.4808 -0.2772
 5979SOL     OW29395   4.378   0.600  13.599  0.3014 -0.1687  0.0709
 5979SOL    HW129396   4.380   0.504  13.600  0.3049 -0.1582  1.2285
 5979SOL    HW229397   4.368   0.616  13.505  1.1141  0.7697  0.1371
 5980SOL     OW29398   3.544   1.978   4.259 -0.0406 -0.3294 -0.4626
 5980SOL    HW129399   3.556   1.994   4.165  0.6062 -1.5746 -0.5929
 5980SOL    HW229400   3.453   2.004   4.273  0.6327  2.3063 -0.9345
 5981SOL     OW29401   1.774   0.672   7.256 -0.4432  0.2742 -0.0872
 5981SOL    HW129402   1.739   0.583   7.263 -1.0906  0.3904 -1.8977
 5981SOL    HW229403   1.864   0.647   7.238  0.6819  3.0351  1.5475
 5982SOL     OW29404   2.277   0.020   5.573 -0.3538 -0.0980 -0.0801
 5982SOL    HW129405   2.292   0.114   5.563  0.2162 -0.2809 -0.9238
 5982SOL    HW229406   2.300   0.016   5.666 -0.2066  2.2024 -0.0262
 5983SOL     OW29407   2.375   0.850   2.391 -0.3968  0.3026 -0.1219
 5983SOL    HW129408   2.330   0.859   2.475 -2.0759 -0.7369 -0.9136
 5983SOL    HW229409   2.445   0.791   2.421 -1.9969 -0.8531  1.3294
 5984SOL     OW29410   3.857   1.948   7.824  0.2799  0.1140  0.2377
 5984SOL    HW129411   3.903   1.999   7.757  1.1540 -0.3992  0.4458
 5984SOL    HW229412   3.919   1.877   7.841 -0.5708 -0.4742  0.8138
 5985SOL     OW29413   1.766   1.381   1.486 -0.5018  0.0708 -0.0097
 5985SOL    HW129414   1.745   1.297   1.527  2.0260 -0.5481  0.0377
 5985SOL    HW229415   1.680   1.402   1.450 -0.5155 -1.4013 -0.8276
 5986SOL     OW29416   0.131   3.511  12.326 -0.5855  0.6889 -1.1274
 5986SOL    HW129417   0.181   3.572  12.272  2.0601 -1.4844 -1.1444
 5986SOL    HW229418   0.070   3.466  12.268  0.0205 -1.3929 -0.1720
 5987SOL     OW29419   2.900   1.079  14.750 -0.2481  0.2207 -0.0367
 5987SOL    HW129420   2.864   1.117  14.830 -0.0056  1.5813 -0.5653
 5987SOL    HW229421   2.862   1.142  14.689 -0.4024 -0.1323 -0.3034
 5988SOL     OW29422   0.640   4.105   0.445  0.0659 -0.2299 -0.1901
 5988SOL    HW129423   0.684   4.095   0.361 -0.1625  1.4219 -0.5089
 5988SOL    HW229424   0.562   4.149   0.410 -1.0904 -2.6605 -0.6203
 5989SOL     OW29425   0.996   2.645   7.398 -0.4946  0.5435 -0.5942
 5989SOL    HW129426   0.964   2.613   7.314 -0.6934  1.0942 -0.7283
 5989SOL    HW229427   0.917   2.628   7.450 -0.3672  0.7630 -0.3284
 5990SOL     OW29428   1.192   2.064  10.309  0.4130 -0.3456 -0.3167
 5990SOL    HW129429   1.208   2.148  10.264  2.3109 -0.3315  0.3835
 5990SOL    HW229430   1.110   2.082  10.354  0.4185 -0.5954 -0.2096
 5991SOL     OW29431   1.574   2.416  15.851 -0.3354 -0.5116 -0.1116
 5991SOL    HW129432   1.585   2.439  15.943 -0.4865 -1.8630  0.2456
 5991SOL    HW229433   1.488   2.446  15.821 -0.0008 -1.3732 -1.9868
 5992SOL     OW29434   2.984   3.817   5.375 -0.0201  0.2736 -0.5901
 5992SOL    HW129435   2.960   3.862   5.293 -2.7205  0.8573  0.5218
 5992SOL    HW229436   2.986   3.891   5.435 -0.2551 -0.3625  0.2007
 5993SOL     OW29437   3.552   4.687  11.801  0.1603  0.2534 -0.0858
 5993SOL    HW129438   3.458   4.703  11.805  0.1833  0.4447 -0.3216
 5993SOL    HW229439   3.564   4.646  11.714  0.4783 -1.3561  0.7094
 5994SOL     OW29440   0.790   1.055   3.347 -0.1821 -0.5704  0.6376
 5994SOL    HW129441   0.781   1.040   3.253 -2.3135  1.0561  0.5941
 5994SOL    HW229442   0.835   0.974   3.372 -0.5798 -0.5464  1.4268
 5995SOL     OW29443   1.664   1.470   9.326  1.0102 -0.2013  0.3469
 5995SOL    HW129444   1.704   1.529   9.389 -0.3023 -1.9936  2.9139
 5995SOL    HW229445   1.572   1.466   9.353  0.2549 -1.8873 -2.4795
 5996SOL     OW29446   4.396   0.424   8.652  0.4815  0.2078 -0.1387
 5996SOL    HW129447   4.362   0.488   8.715 -2.9098 -0.3310 -1.4123
 5996SOL    HW229448   4.342   0.347   8.670 -2.5769  2.2587 -0.5476
 5997SOL     OW29449   0.566   3.172  11.516  0.2435  0.1660  0.1032
 5997SOL    HW129450   0.486   3.167  11.567  0.9892  1.5242  1.4172
 5997SOL    HW229451   0.526   3.154  11.431  1.0469  1.3397 -0.5279
 5998SOL     OW29452   2.019   1.874   2.575  0.2663  0.0901 -0.1366
 5998SOL    HW129453   1.987   1.884   2.485 -2.0108  1.5424  0.8494
 5998SOL    HW229454   2.082   1.806   2.552  0.9789  0.6968  0.0139
 5999SOL     OW29455   0.531   2.750   3.783 -0.2418  0.1505 -0.3595
 5999SOL    HW129456   0.515   2.762   3.689 -3.4809  0.6019  0.2525
 5999SOL    HW229457   0.539   2.655   3.792  0.2179  0.2220 -0.0083
 6000SOL     OW29458   2.099   2.902   3.659 -1.1937  0.6077  0.3424
 6000SOL    HW129459   2.077   2.960   3.586  4.7299  1.4316 -0.8619
 6000SOL    HW229460   2.056   2.947   3.732  2.7298  0.3503  2.8287
 6001SOL     OW29461   1.261   1.761   2.928 -0.1261 -0.6116  0.2048
 6001SOL    HW129462   1.224   1.839   2.886  2.9609  0.4847 -0.4819
 6001SOL    HW229463   1.221   1.769   3.015  0.4321 -0.4294  0.4514
 6002SOL     OW29464   1.983   3.348  16.487 -0.1346 -0.3825 -0.2560
 6002SOL    HW129465   2.044   3.304  16.547  0.7115  0.1904 -0.6987
 6002SOL    HW229466   1.909   3.390  16.531 -1.0512 -0.0603 -2.1314
 6003SOL     OW29467   2.798   0.606   8.026 -0.1242  0.3945 -0.4684
 6003SOL    HW129468   2.830   0.678   7.971 -0.5731  0.4363 -0.6711
 6003SOL    HW229469   2.704   0.623   8.022  0.0936  1.2854 -1.6635
 6004SOL     OW29470   3.742   4.439   7.268 -0.1326 -0.0757 -0.0841
 6004SOL    HW129471   3.798   4.365   7.245 -0.8668 -1.4652  2.6080
 6004SOL    HW229472   3.680   4.424   7.197 -1.4502  0.7097  0.9116
 6005SOL     OW29473   3.656   3.207   0.616  0.3038 -0.1671  0.2181
 6005SOL    HW129474   3.630   3.199   0.525  2.8991 -1.2765 -0.4434
 6005SOL    HW229475   3.659   3.113   0.636  0.3828 -0.3020 -0.4253
 6006SOL     OW29476   2.085   1.286   7.723 -0.0505  0.4303  0.1048
 6006SOL    HW129477   2.050   1.197   7.724  1.6560 -0.2254  0.6003
 6006SOL    HW229478   2.053   1.317   7.807  1.0022  1.0674  0.2690
 6007SOL     OW29479   1.933   4.122   9.103  0.0064  0.3756  0.1418
 6007SOL    HW129480   1.845   4.101   9.136  0.0294 -3.0712 -1.9811
 6007SOL    HW229481   1.986   4.043   9.113 -0.8760 -0.1198  0.9418
 6008SOL     OW29482   4.607   0.804   5.754  0.4788  0.5704  0.0103
 6008SOL    HW129483   4.641   0.716   5.738 -1.4757 -0.4190  1.3930
 6008SOL    HW229484   4.629   0.853   5.674 -0.6019  2.0998  0.6640
 6009SOL     OW29485   2.834   1.002   3.157  0.2504  0.0133  0.7035
 6009SOL    HW129486   2.920   0.970   3.129 -0.1968  0.5732 -1.3475
 6009SOL    HW229487   2.823   1.093   3.130 -2.1778 -0.5633 -0.2361
 6010SOL     OW29488   2.270   2.887   8.386  0.7074  0.7442 -0.2443
 6010SOL    HW129489   2.323   2.821   8.341  1.8241  1.1177  0.5220
 6010SOL    HW229490   2.192   2.873   8.332  1.6546 -0.4616 -1.2889
 6011SOL     OW29491   3.406   1.726   7.058 -0.1560  0.4657 -0.3621
 6011SOL    HW129492   3.468   1.681   7.116 -0.3253  1.1648  0.3648
 6011SOL    HW229493   3.434   1.682   6.978  2.4120  2.0998 -0.3833
 6012SOL     OW29494   0.729   3.772   8.754  0.5278  0.1407  0.4998
 6012SOL    HW129495   0.676   3.817   8.688  0.8232 -1.2685 -0.7005
 6012SOL    HW229496   0.789   3.725   8.696  1.8703 -1.0518  2.8910
 6013SOL     OW29497   4.602   1.502   2.746  0.1614 -0.0290 -0.1187
 6013SOL    HW129498   4.650   1.584   2.733  0.1196  0.2396  1.4096
 6013SOL    HW229499   4.671   1.440   2.723  0.4198  0.9591 -1.9759
 6014SOL     OW29500   3.131   0.072   3.043  0.6163  0.0068 -0.0618
 6014SOL    HW129501   3.067   0.048   3.110  2.0360 -2.5677  0.3740
 6014SOL    HW229502   3.119   0.003   2.977 -0.8046  2.1905 -2.0983
 6015SOL     OW29503   3.594   1.907   8.876 -0.0400  0.7212  0.2497
 6015SOL    HW129504   3.585   1.999   8.853  0.6678  0.7966  0.2684
 6015SOL    HW229505   3.659   1.877   8.813 -1.9830 -0.2740 -1.2730
 6016SOL     OW29506   0.322   1.569   2.559  0.4699 -0.0733  0.1148
 6016SOL    HW129507   0.298   1.481   2.528 -0.4803  0.5000 -0.7957
 6016SOL    HW229508   0.377   1.608   2.492 -1.3963  0.1579 -1.2782
 6017SOL     OW29509   2.731   1.248   3.791 -0.1227  0.1541 -0.1772
 6017SOL    HW129510   2.713   1.248   3.697 -2.1766  0.0043  0.2023
 6017SOL    HW229511   2.649   1.210   3.824 -0.5318  0.2417 -1.0745
 6018SOL     OW29512   0.413   1.417   3.882  0.1232  0.1620 -0.1345
 6018SOL    HW129513   0.413   1.439   3.975 -1.3837 -0.6431  0.0730
 6018SOL    HW229514   0.384   1.501   3.846  1.5636  0.7757  0.1507
 6019SOL     OW29515   3.717   4.090  13.260 -0.1500  0.4064 -0.0726
 6019SOL    HW129516   3.651   4.144  13.216 -1.1621 -0.7043  0.0547
 6019SOL    HW229517   3.804   4.127  13.251 -1.0072  2.4173  0.0500
 6020SOL     OW29518   3.278   2.961   7.491  0.6796  0.0897  0.2097
 6020SOL    HW129519   3.250   2.889   7.547 -1.6263  1.2369  0.5416
 6020SOL    HW229520   3.373   2.962   7.503  0.5134  0.3144  1.5267
 6021SOL     OW29521   2.784   1.551  13.379 -0.2107  0.2134  0.9907
 6021SOL    HW129522   2.849   1.505  13.432  1.1119  1.2005  0.1918
 6021SOL    HW229523   2.778   1.484  13.311  2.0873  3.0630 -1.9774
 6022SOL     OW29524   0.378   0.622  10.417 -0.2166 -0.3172 -0.2233
 6022SOL    HW129525   0.385   0.570  10.497 -0.8017  1.6064  1.0831
 6022SOL    HW229526   0.464   0.665  10.413  0.7656 -2.2620  0.3304
 6023SOL     OW29527   1.223   0.393   2.733 -0.5022 -0.4117  0.0499
 6023SOL    HW129528   1.260   0.349   2.657 -2.4312 -0.4323 -0.8737
 6023SOL    HW229529   1.261   0.348   2.809  2.2460 -0.2596 -1.2123
 6024SOL     OW29530   0.404   3.472   7.936  0.1560  0.3080 -0.0710
 6024SOL    HW129531   0.395   3.515   7.851  2.4199 -0.6898 -0.8153
 6024SOL    HW229532   0.435   3.388   7.902  2.8669  0.5988  1.7271
 6025SOL     OW29533   2.143   0.553  17.649 -0.2756 -0.0702 -0.7588
 6025SOL    HW129534   2.214   0.504  17.692  0.6709  2.2263  0.2716
 6025SOL    HW229535   2.172   0.525  17.562  2.5310 -0.9641  0.4522
 6026SOL     OW29536   3.628   3.521  13.544  0.1563  0.1223  0.1002
 6026SOL    HW129537   3.638   3.581  13.471 -3.4809 -0.9023 -1.2333
 6026SOL    HW229538   3.689   3.451  13.519  1.2370  0.6564  1.2031
 6027SOL     OW29539   1.856   3.831  12.897 -0.2040  0.1479  0.6165
 6027SOL    HW129540   1.890   3.919  12.883  0.3949 -0.3444 -1.0744
 6027SOL    HW229541   1.901   3.824  12.981 -1.0022  0.3609  1.0640
 6028SOL     OW29542   4.495   2.051   8.895  0.5342 -0.0179  0.2892
 6028SOL    HW129543   4.408   2.014   8.907  0.8380 -1.4294 -1.8084
 6028SOL    HW229544   4.549   1.993   8.948  0.7354  0.1470  0.2629
 6029SOL     OW29545   0.733   4.426   7.709 -0.2544  0.1692  0.3244
 6029SOL    HW129546   0.691   4.366   7.771  1.2530  1.0649  2.1947
 6029SOL    HW229547   0.827   4.407   7.706 -0.5916 -1.6899  1.4974
 6030SOL     OW29548   1.344   2.356   8.085  1.0101 -0.2247  0.2359
 6030SOL    HW129549   1.377   2.407   8.011  0.6806 -1.5597 -0.8293
 6030SOL    HW229550   1.390   2.274   8.071  0.5287 -0.1806 -1.6172
 6031SOL     OW29551   3.826   0.985   0.171 -0.2589 -0.3424 -0.0775
 6031SOL    HW129552   3.834   0.905   0.119 -0.9120 -0.6019  0.2165
 6031SOL    HW229553   3.900   0.973   0.230 -0.3898  0.5249  0.2669
 6032SOL     OW29554   3.061   0.189  12.997 -0.0070  0.1469  0.2743
 6032SOL    HW129555   3.091   0.279  12.988  0.2555 -0.2676 -3.1058
 6032SOL    HW229556   2.996   0.203  13.065 -0.4578 -0.4286 -0.0363
 6033SOL     OW29557   4.113   0.470   8.617  0.2228 -0.3351  0.0148
 6033SOL    HW129558   4.030   0.470   8.665  0.5072 -0.5048  0.5109
 6033SOL    HW229559   4.159   0.534   8.672 -1.1545  0.4608  0.2559
 6034SOL     OW29560   3.674   0.424   7.040 -0.1781  0.6310 -0.0060
 6034SOL    HW129561   3.585   0.394   7.021  0.4972 -1.7955  0.7276
 6034SOL    HW229562   3.671   0.447   7.133 -2.7131 -1.2421  0.3585
 6035SOL     OW29563   1.045   1.665   8.869  0.3598 -0.5674 -0.2484
 6035SOL    HW129564   1.025   1.757   8.887  1.5353 -0.4443  0.3908
 6035SOL    HW229565   0.994   1.624   8.939 -1.2661  0.9727 -0.5405
 6036SOL     OW29566   1.992   3.672   7.998  0.0110 -0.1185  0.2306
 6036SOL    HW129567   1.959   3.759   7.974  0.2642 -0.5260 -1.5955
 6036SOL    HW229568   1.936   3.653   8.073  0.4811  1.5267  0.9980
 6037SOL     OW29569   3.208   1.421   0.578  0.0639  0.2494 -0.2975
 6037SOL    HW129570   3.269   1.459   0.515  0.4971  1.2533  0.7148
 6037SOL    HW229571   3.272   1.381   0.637  0.5745 -0.0096 -1.0266
 6038SOL     OW29572   3.301   0.761   7.557 -0.4171  0.3432 -0.4095
 6038SOL    HW129573   3.240   0.803   7.618 -1.9315 -1.5809 -0.5998
 6038SOL    HW229574   3.331   0.832   7.501 -0.2008 -0.1763 -0.9533
 6039SOL     OW29575   2.559   1.021  16.160 -0.5606 -0.0653  0.0406
 6039SOL    HW129576   2.528   1.014  16.250 -0.3764  0.6111  0.1564
 6039SOL    HW229577   2.478   1.009  16.111  0.0392 -1.5564 -0.5852
 6040SOL     OW29578   2.666   1.344   5.821  0.0698 -0.2717  0.0218
 6040SOL    HW129579   2.753   1.311   5.800 -0.4038 -1.8364  0.4840
 6040SOL    HW229580   2.681   1.431   5.858 -2.2259  0.4780 -0.8036
 6041SOL     OW29581   4.036   0.890   0.320  0.6209 -0.1448 -0.1638
 6041SOL    HW129582   4.118   0.842   0.308  1.3791  0.9297  0.6654
 6041SOL    HW229583   4.014   0.877   0.412  0.1843 -1.4108 -0.4502
 6042SOL     OW29584   0.955   4.398  13.563  0.3839  0.1167 -0.3588
 6042SOL    HW129585   0.964   4.493  13.560  1.6952 -0.1185 -3.3019
 6042SOL    HW229586   1.019   4.374  13.630 -1.6427 -0.6148  1.3265
 6043SOL     OW29587   4.353   0.072   8.170  0.1461  0.0696  0.4579
 6043SOL    HW129588   4.312   0.010   8.108 -0.3475  0.4671  0.3853
 6043SOL    HW229589   4.434   0.084   8.121  0.5814  2.1274  1.7118
 6044SOL     OW29590   3.897   0.196   4.265 -0.0569 -0.3021  0.3000
 6044SOL    HW129591   3.977   0.204   4.316 -0.2106 -2.9282  0.9592
 6044SOL    HW229592   3.911   0.111   4.223 -1.7683 -0.8651  0.8320
 6045SOL     OW29593   1.999   3.991  16.238  0.3455  0.1870  0.0548
 6045SOL    HW129594   2.041   4.036  16.165  0.2873  1.6984  0.9428
 6045SOL    HW229595   2.062   3.928  16.271 -0.6040 -1.1100 -0.6209
 6046SOL     OW29596   0.341   3.855   2.170  0.0501  0.2409 -0.1696
 6046SOL    HW129597   0.392   3.800   2.110 -3.1307 -1.2348 -1.5294
 6046SOL    HW229598   0.322   3.789   2.237  0.5098  1.1810  0.8770
 6047SOL     OW29599   3.911   0.583   5.983  0.1992  0.1124 -0.0240
 6047SOL    HW129600   3.930   0.676   5.973 -1.5728  0.5146  0.4742
 6047SOL    HW229601   3.994   0.537   5.967  0.7205  0.7351  0.8491
 6048SOL     OW29602   2.820   2.926  15.028 -0.3816 -0.7624  0.7511
 6048SOL    HW129603   2.768   3.001  14.999  1.1292 -0.2019 -0.5112
 6048SOL    HW229604   2.900   2.960  15.067 -0.1531 -1.6486  1.0665
 6049SOL     OW29605   2.338   2.817   4.123  0.7362  0.0030 -0.2438
 6049SOL    HW129606   2.306   2.746   4.067 -1.0962  0.1834  0.5714
 6049SOL    HW229607   2.285   2.795   4.199  0.1577 -0.9338 -0.9248
 6050SOL     OW29608   3.253   1.497   4.023  0.0087 -0.2779 -0.0671
 6050SOL    HW129609   3.322   1.555   4.054  0.6775 -0.9510 -0.3162
 6050SOL    HW229610   3.303   1.438   3.968  1.3737 -0.1738  1.0811
 6051SOL     OW29611   1.860   0.583  16.419 -1.0465 -0.3425  0.2296
 6051SOL    HW129612   1.781   0.636  16.431 -0.2778  0.2071  2.8744
 6051SOL    HW229613   1.869   0.571  16.324 -1.9141  1.2703 -0.0495
 6052SOL     OW29614   0.033   0.875   6.205  0.3326 -0.4004 -0.1275
 6052SOL    HW129615   4.705   0.794   6.207 -0.2912 -0.0055 -0.4870
 6052SOL    HW229616   0.049   0.887   6.112 -0.2754  1.1149 -0.0362
 6053SOL     OW29617   0.209   3.092   6.380  0.3776  0.2935  0.2685
 6053SOL    HW129618   0.114   3.087   6.396  0.2415 -0.2298 -0.7263
 6053SOL    HW229619   0.250   3.066   6.463  1.2945 -0.0087 -0.2889
 6054SOL     OW29620   2.898   0.014  15.967 -0.3531 -0.8657 -0.1972
 6054SOL    HW129621   2.828   0.044  16.025 -1.1174 -1.0248 -1.0444
 6054SOL    HW229622   2.971   4.718  16.027 -0.6260 -0.7718  0.1653
 6055SOL     OW29623   2.349   4.026  13.522 -0.9037 -0.2980  0.6111
 6055SOL    HW129624   2.413   3.987  13.581  0.9050 -0.1584 -1.2436
 6055SOL    HW229625   2.384   4.112  13.502 -2.6497 -0.1770 -1.9192
 6056SOL     OW29626   4.187   3.647   9.841 -0.1569  0.4484  0.2094
 6056SOL    HW129627   4.239   3.568   9.827 -0.8442  0.1995 -0.9477
 6056SOL    HW229628   4.106   3.624   9.796  1.1337  1.2627 -2.5102
 6057SOL     OW29629   3.304   2.440   9.801  0.0766  0.5490  0.9638
 6057SOL    HW129630   3.213   2.466   9.787  0.5431  1.7564  0.1718
 6057SOL    HW229631   3.316   2.347   9.787 -1.3363  0.3271  1.1561
 6058SOL     OW29632   3.347   3.646   7.985 -0.6506  0.3965 -0.2755
 6058SOL    HW129633   3.253   3.662   7.996 -0.7639 -0.9295  0.7888
 6058SOL    HW229634   3.367   3.728   7.941 -0.8928  0.0379 -1.0488
 6059SOL     OW29635   2.394   0.629   7.198 -0.2496 -0.2103 -0.3449
 6059SOL    HW129636   2.361   0.632   7.109  1.2351  0.1753 -0.8857
 6059SOL    HW229637   2.332   0.687   7.242 -1.2110 -1.3159 -0.2581
 6060SOL     OW29638   4.715   1.600   8.797  0.5732  0.2290  0.1468
 6060SOL    HW129639   4.716   1.538   8.870 -0.7549 -0.3674 -0.3403
 6060SOL    HW229640   0.083   1.595   8.770  0.6344  1.4947  0.1201
 6061SOL     OW29641   0.949   2.799   8.501 -0.0083  0.2730  0.4566
 6061SOL    HW129642   0.991   2.736   8.558  3.1712  0.1752 -2.0297
 6061SOL    HW229643   0.866   2.797   8.549 -1.4044  2.4853 -1.8055
 6062SOL     OW29644   4.072   2.411   6.434  0.6335  0.7818 -0.3786
 6062SOL    HW129645   4.122   2.332   6.454  0.4079  0.9529  0.9125
 6062SOL    HW229646   4.038   2.438   6.520 -1.5944 -0.7207 -0.7714
 6063SOL     OW29647   3.102   2.620   4.630 -0.0116 -0.3320  0.5684
 6063SOL    HW129648   3.018   2.577   4.641 -1.0940  2.1809  2.2141
 6063SOL    HW229649   3.077   2.691   4.570 -0.1744  1.4427  2.7179
 6064SOL     OW29650   0.484   0.883   5.599 -0.2605 -0.4364 -0.1011
 6064SOL    HW129651   0.530   0.859   5.680  0.0282  1.0687  0.1735
 6064SOL    HW229652   0.482   0.978   5.600  0.5703 -0.4236  0.3078
 6065SOL     OW29653   0.754   2.302   3.692 -0.5978 -0.1157 -0.2649
 6065SOL    HW129654   0.795   2.328   3.609 -0.2799  0.5137  0.0889
 6065SOL    HW229655   0.803   2.220   3.703  2.2483  1.5104 -0.6782
 6066SOL     OW29656   0.046   3.320   3.688 -0.2900 -0.7325  0.3411
 6066SOL    HW129657   0.125   3.351   3.732 -1.0726  2.5626 -0.5449
 6066SOL    HW229658   0.093   3.271   3.621  0.4490 -1.3800  1.3358
 6067SOL     OW29659   4.191   2.234   4.416 -0.0217 -0.1607  0.2203
 6067SOL    HW129660   4.113   2.207   4.464 -0.1162 -1.7916 -0.8707
 6067SOL    HW229661   4.200   2.327   4.437 -1.8947  0.3466 -1.1286
 6068SOL     OW29662   2.385   4.371  13.583  0.2122  0.5027  0.2070
 6068SOL    HW129663   2.336   4.426  13.522  0.5149 -1.6715 -2.0240
 6068SOL    HW229664   2.424   4.307  13.523 -0.0572  0.5975 -0.0715
 6069SOL     OW29665   4.328   2.353   5.037  0.5575 -0.2348  0.5681
 6069SOL    HW129666   4.314   2.283   4.973  1.0645  0.7638 -0.6288
 6069SOL    HW229667   4.240   2.356   5.076  0.3568 -1.2687  0.2174
 6070SOL     OW29668   1.226   0.367   5.479 -0.4248 -0.3618  0.2274
 6070SOL    HW129669   1.271   0.286   5.457  1.7792  0.2123  2.6427
 6070SOL    HW229670   1.139   0.355   5.441  1.3712 -0.4161 -3.9337
 6071SOL     OW29671   0.107   3.468   1.187  0.0069 -0.4584  0.0027
 6071SOL    HW129672   0.030   3.443   1.136  0.2316 -1.1775  0.0135
 6071SOL    HW229673   0.118   3.561   1.167  2.4119 -0.3935  1.5658
 6072SOL     OW29674   2.358   4.191  11.052  0.3064  0.2755  0.5826
 6072SOL    HW129675   2.278   4.230  11.088  1.3617  1.3193  1.7578
 6072SOL    HW229676   2.316   4.134  10.987 -1.6402  2.2143  0.1245
 6073SOL     OW29677   1.406   4.404   8.156  0.1188  0.4580  0.5631
 6073SOL    HW129678   1.404   4.415   8.251 -1.0064  0.0775  0.5836
 6073SOL    HW229679   1.481   4.463   8.143 -0.1769  0.7139  0.0218
 6074SOL     OW29680   0.068   1.062   1.012  0.4045 -0.0068 -0.6350
 6074SOL    HW129681   0.093   0.990   1.070 -0.1216  0.8114  0.6154
 6074SOL    HW229682   0.003   1.104   1.068 -0.2145 -0.5851 -0.9287
 6075SOL     OW29683   2.113   3.494   2.885  0.2419  0.3011  0.4585
 6075SOL    HW129684   2.036   3.543   2.858  1.7131  2.5001  0.2127
 6075SOL    HW229685   2.147   3.555   2.950 -0.0171  0.6335  0.2810
 6076SOL     OW29686   1.638   0.673  13.578 -0.0629 -0.5397 -0.1798
 6076SOL    HW129687   1.620   0.581  13.596 -4.6829 -0.0589 -2.3920
 6076SOL    HW229688   1.688   0.659  13.498  1.3370  1.7890  0.2862
 6077SOL     OW29689   2.931   2.145   7.549 -0.3482 -0.8094  0.0653
 6077SOL    HW129690   2.923   2.214   7.483 -1.0356 -0.5128  0.4588
 6077SOL    HW229691   2.997   2.088   7.509 -0.9051 -0.7525 -0.9162
 6078SOL     OW29692   4.479   1.651   5.499  0.4726 -0.1106 -0.0961
 6078SOL    HW129693   4.427   1.645   5.578  0.2551 -0.2169 -0.2467
 6078SOL    HW229694   4.406   1.677   5.442 -0.7170 -0.1391  1.4272
 6079SOL     OW29695   0.130   3.030  11.556  0.0613 -0.4312 -0.4076
 6079SOL    HW129696   0.096   3.120  11.561 -1.4923 -1.0069 -0.4620
 6079SOL    HW229697   0.178   3.028  11.473  1.1611  0.1248  0.2140
 6080SOL     OW29698   0.889   1.341   5.510 -0.5507  0.8547 -0.0737
 6080SOL    HW129699   0.950   1.281   5.552 -1.0265  0.0577 -0.5144
 6080SOL    HW229700   0.849   1.279   5.449 -2.0258  0.6568  1.0839
 6081SOL     OW29701   1.129   4.035   0.828 -0.2582 -0.2602  0.7680
 6081SOL    HW129702   1.145   3.991   0.911  1.1001  1.1894  1.2881
 6081SOL    HW229703   1.197   3.980   0.789 -0.0593  0.3081  0.3137
 6082SOL     OW29704   1.493   1.729   8.632 -0.3780 -0.3690 -0.1359
 6082SOL    HW129705   1.421   1.682   8.673 -0.9221  0.6345  0.0735
 6082SOL    HW229706   1.538   1.659   8.584 -0.8411  0.3700 -1.6623
 6083SOL     OW29707   2.044   1.324   9.594 -0.9074 -0.2417 -0.1170
 6083SOL    HW129708   2.027   1.238   9.556  0.4430 -0.8589  0.6657
 6083SOL    HW229709   2.027   1.305   9.686 -0.0908  0.8664  0.2571
 6084SOL     OW29710   3.624   4.663  16.302  0.7844  0.1629 -0.0946
 6084SOL    HW129711   3.662   4.673  16.216 -2.1314 -0.0962 -1.4253
 6084SOL    HW229712   3.601   0.031  16.317  2.6510  0.6903 -0.5335
 6085SOL     OW29713   3.702   3.666  15.190  0.1814 -0.0573 -0.0951
 6085SOL    HW129714   3.681   3.583  15.232  1.9895 -0.4417  0.0161
 6085SOL    HW229715   3.760   3.700  15.258  2.2762  1.1255 -2.4664
 6086SOL     OW29716   0.519   2.288   5.542 -0.4575 -0.1698  0.2259
 6086SOL    HW129717   0.547   2.374   5.572  0.2336 -0.3074 -0.0297
 6086SOL    HW229718   0.602   2.242   5.545 -0.6268 -0.3337  2.1431
 6087SOL     OW29719   2.892   0.291   3.317  0.0350 -0.0117 -0.4617
 6087SOL    HW129720   2.831   0.345   3.268  0.0078  2.0785  1.8284
 6087SOL    HW229721   2.938   0.363   3.361  0.6463 -1.8889  1.9713
 6088SOL     OW29722   1.535   3.820   5.690 -0.6330 -0.6346  0.3350
 6088SOL    HW129723   1.460   3.871   5.720  0.7837  1.2435  0.6058
 6088SOL    HW229724   1.492   3.735   5.678 -0.2276 -0.8547  0.4329
 6089SOL     OW29725   3.829   2.211   3.428  0.4216 -0.7089 -0.3751
 6089SOL    HW129726   3.768   2.234   3.358  1.9903 -0.1076 -1.5573
 6089SOL    HW229727   3.761   2.187   3.491  1.0910 -0.2509  0.5243
 6090SOL     OW29728   0.353   0.823   9.461  0.4724 -0.0317  0.3920
 6090SOL    HW129729   0.286   0.766   9.421  1.4302 -1.4083  0.7513
 6090SOL    HW229730   0.323   0.830   9.552 -0.1872 -2.1346  0.3479
 6091SOL     OW29731   0.796   3.182   0.853 -0.1934  0.2891 -0.2397
 6091SOL    HW129732   0.837   3.267   0.869 -0.8151  0.5949 -0.3069
 6091SOL    HW229733   0.774   3.166   0.945  1.3110 -1.3113 -0.1501
 6092SOL     OW29734   1.414   0.327   1.301 -0.0797  0.0842  0.1005
 6092SOL    HW129735   1.379   0.405   1.344 -0.5146 -0.0742  0.0429
 6092SOL    HW229736   1.504   0.330   1.333 -0.1023  0.1525  0.1577
 6093SOL     OW29737   0.518   0.557   5.745 -0.7841 -0.3446  0.4273
 6093SOL    HW129738   0.565   0.634   5.777 -0.7678 -0.3834  0.4975
 6093SOL    HW229739   0.562   0.487   5.793 -0.9217 -0.1546  0.8301
 6094SOL     OW29740   0.422   2.731   1.518  0.4871  0.1452 -0.6321
 6094SOL    HW129741   0.516   2.720   1.528  0.3355  1.6056  2.7866
 6094SOL    HW229742   0.416   2.691   1.432  1.5822  0.2114 -0.7293
 6095SOL     OW29743   1.172   4.500   8.033  0.0713  0.3982  0.5417
 6095SOL    HW129744   1.219   4.577   8.001 -1.7360  1.5890  0.7556
 6095SOL    HW229745   1.244   4.445   8.064  0.6566  0.9212  0.1002
 6096SOL     OW29746   0.794   3.436   7.973 -0.1737 -0.2795  0.4236
 6096SOL    HW129747   0.831   3.355   8.008 -1.2878  0.3880  3.1541
 6096SOL    HW229748   0.787   3.426   7.879 -5.1226  0.9281  0.6787
 6097SOL     OW29749   0.041   3.127  10.698  0.0631  0.2241 -0.1224
 6097SOL    HW129750   0.103   3.143  10.627 -0.0655 -0.3541 -0.3664
 6097SOL    HW229751   0.100   3.072  10.750 -1.9892 -0.7217  1.2134
 6098SOL     OW29752   3.775   0.443   3.846 -0.4653 -0.2187  0.0712
 6098SOL    HW129753   3.812   0.411   3.764 -1.7928  0.7258 -0.8817
 6098SOL    HW229754   3.851   0.434   3.904 -0.7871 -1.6886  0.2787
 6099SOL     OW29755   2.329   4.203  11.818  0.8539 -0.0434  0.4392
 6099SOL    HW129756   2.368   4.247  11.743  0.1123  1.2206  0.8026
 6099SOL    HW229757   2.404   4.152  11.850  0.0934 -1.8196 -0.5893
 6100SOL     OW29758   3.622   2.705   2.474 -0.0336  0.4145  0.0617
 6100SOL    HW129759   3.540   2.725   2.519  0.0368  1.7507 -0.4025
 6100SOL    HW229760   3.681   2.776   2.501  0.1840  0.0302  0.5996
 6101SOL     OW29761   4.717   2.092   7.200  0.0220 -0.3908 -0.5770
 6101SOL    HW129762   4.670   2.136   7.130  1.2262  0.1336 -1.0494
 6101SOL    HW229763   4.659   2.016   7.206 -1.3763  0.5678 -1.8917
 6102SOL     OW29764   4.118   4.600   5.564 -0.8202 -0.3708  0.3739
 6102SOL    HW129765   4.158   4.682   5.594  0.4706 -0.7524 -0.3093
 6102SOL    HW229766   4.190   4.549   5.528  1.2115  1.7544  1.4360
 6103SOL     OW29767   1.184   3.623   0.907  0.3889 -0.5267  0.1066
 6103SOL    HW129768   1.227   3.563   0.845  1.4990  0.5885 -0.2183
 6103SOL    HW229769   1.242   3.612   0.982 -1.5509 -1.0495  1.5128
 6104SOL     OW29770   1.627   4.421   4.836  0.1838  0.2573 -0.3764
 6104SOL    HW129771   1.670   4.506   4.841 -1.1884  0.9626 -0.6310
 6104SOL    HW229772   1.534   4.445   4.832  0.0710  0.4303  3.3177
 6105SOL     OW29773   1.462   3.069  17.278  0.9376 -0.2215  0.1704
 6105SOL    HW129774   1.498   2.996  17.328  0.9321  0.1692  0.7532
 6105SOL    HW229775   1.423   3.113  17.354 -1.1902 -2.2856  0.2630
 6106SOL     OW29776   3.834   3.628   1.274  0.1532 -0.4710  0.2942
 6106SOL    HW129777   3.767   3.572   1.313  1.1389 -2.2153 -0.4995
 6106SOL    HW229778   3.839   3.583   1.190  0.4638  0.3355 -0.1157
 6107SOL     OW29779   1.010   3.673   7.030 -0.5897 -0.2185 -0.4401
 6107SOL    HW129780   1.034   3.583   7.011 -1.5175 -0.3824 -0.8650
 6107SOL    HW229781   0.928   3.671   6.981 -0.4748 -0.6374 -0.6157
 6108SOL     OW29782   1.688   2.377   7.695  0.1220 -0.1075  0.2431
 6108SOL    HW129783   1.599   2.374   7.661  0.4281 -2.2264 -0.3392
 6108SOL    HW229784   1.695   2.468   7.724 -0.5127  0.3700 -1.1334
 6109SOL     OW29785   4.066   3.146  14.117 -0.2089 -0.2236  0.3050
 6109SOL    HW129786   4.022   3.209  14.174 -3.3340 -1.6049 -0.5718
 6109SOL    HW229787   3.993   3.085  14.105 -0.4739  0.4752 -1.7559
 6110SOL     OW29788   1.243   4.284   7.029  0.1101 -0.2270  0.0629
 6110SOL    HW129789   1.306   4.355   7.023  1.8413 -1.6501  1.1797
 6110SOL    HW229790   1.300   4.218   7.069 -0.2242 -1.3774 -1.3703
 6111SOL     OW29791   2.344   0.376  10.199 -0.1985  0.4347  0.6039
 6111SOL    HW129792   2.412   0.377  10.266  1.5075 -1.9095 -1.0654
 6111SOL    HW229793   2.347   0.282  10.180 -0.5666  0.3900  0.7714
 6112SOL     OW29794   0.876   3.744   3.891  0.1697  0.2326 -0.0754
 6112SOL    HW129795   0.890   3.803   3.966  3.0920 -0.0412 -0.4321
 6112SOL    HW229796   0.869   3.799   3.813 -1.9381  0.0789 -0.0160
 6113SOL     OW29797   1.851   0.294   6.245 -0.7047  0.4425 -0.0977
 6113SOL    HW129798   1.835   0.218   6.189  0.0213 -0.0693  0.3668
 6113SOL    HW229799   1.776   0.283   6.303 -1.7736  0.5404 -1.4818
 6114SOL     OW29800   4.651   4.569   2.121  0.1081 -0.3186 -0.1855
 6114SOL    HW129801   0.018   4.542   2.139  0.0839 -0.7792 -0.7650
 6114SOL    HW229802   4.603   4.511   2.180 -2.5139  0.4065 -1.6237
 6115SOL     OW29803   1.616   3.004  10.743  0.2104  0.6943 -0.3695
 6115SOL    HW129804   1.673   3.053  10.685  1.0236  0.6055  0.3640
 6115SOL    HW229805   1.661   2.923  10.722 -1.1928  0.1622 -1.3582
 6116SOL     OW29806   2.446   1.652   5.957 -0.1276 -0.3543  0.5647
 6116SOL    HW129807   2.470   1.648   5.864 -0.4470  0.2287  0.4636
 6116SOL    HW229808   2.395   1.733   5.958 -0.6865 -0.6818 -0.8938
 6117SOL     OW29809   2.233   4.087  12.238  0.2540 -0.0861 -0.1757
 6117SOL    HW129810   2.262   4.026  12.306  0.7074 -0.2562 -0.5210
 6117SOL    HW229811   2.156   4.044  12.200 -0.0162 -0.9360  1.3360
 6118SOL     OW29812   2.377   0.796  13.658 -0.2106  0.0314  0.4526
 6118SOL    HW129813   2.298   0.741  13.662 -0.1022 -0.4459 -3.1286
 6118SOL    HW229814   2.345   0.858  13.593 -3.9289 -2.1253  0.1853
 6119SOL     OW29815   4.343   4.688   2.099  0.5324  0.5032  0.1137
 6119SOL    HW129816   4.328   4.613   2.156 -1.6148  1.9359  1.3902
 6119SOL    HW229817   4.272   4.691   2.035  0.8818  1.6304 -0.2157
 6120SOL     OW29818   0.555   3.213   9.283  0.7785 -0.6568  0.0198
 6120SOL    HW129819   0.530   3.138   9.228  1.0748 -1.5792  1.1601
 6120SOL    HW229820   0.503   3.275   9.232  0.2095 -1.3920 -0.2978
 6121SOL     OW29821   1.609   0.384   6.371  0.0428  0.2878  0.5982
 6121SOL    HW129822   1.584   0.472   6.399 -0.1756 -0.3764  2.5506
 6121SOL    HW229823   1.609   0.395   6.276 -1.2841  1.6758  0.7635
 6122SOL     OW29824   1.635   0.666  15.161  0.3231  0.5378 -0.5487
 6122SOL    HW129825   1.681   0.613  15.097  0.0011 -0.3695 -0.0200
 6122SOL    HW229826   1.652   0.618  15.242  2.4263  1.4572 -0.4374
 6123SOL     OW29827   3.448   3.093   4.163  0.4216 -0.0415 -0.5323
 6123SOL    HW129828   3.468   3.023   4.101  1.1607 -1.5736  1.4223
 6123SOL    HW229829   3.366   3.127   4.126  0.7288  0.3539 -0.8477
 6124SOL     OW29830   3.405   3.916   4.511  0.1547 -0.5122  0.5679
 6124SOL    HW129831   3.460   3.839   4.528  0.1846 -0.4961  0.5436
 6124SOL    HW229832   3.369   3.934   4.598  1.5364 -0.3425  1.1154
 6125SOL     OW29833   3.623   3.363   3.633 -0.0651  0.1283 -0.1860
 6125SOL    HW129834   3.662   3.394   3.715 -0.3668  2.8254 -1.0742
 6125SOL    HW229835   3.566   3.434   3.606 -0.3750 -0.4149 -0.9686
 6126SOL     OW29836   2.412   3.807   9.264 -0.4492  1.3408  0.1314
 6126SOL    HW129837   2.414   3.789   9.358  1.6931  1.2388  0.0650
 6126SOL    HW229838   2.322   3.839   9.253  0.1490  2.5900 -1.1504
 6127SOL     OW29839   4.350   1.415  15.921  0.0844  0.3118  0.6397
 6127SOL    HW129840   4.419   1.450  15.977  0.2976 -0.2971  0.7583
 6127SOL    HW229841   4.320   1.492  15.873  1.7656  1.6344  1.7009
 6128SOL     OW29842   2.499   3.851   0.928  0.0608  0.1128  0.0014
 6128SOL    HW129843   2.425   3.814   0.977 -1.7244  1.9036 -1.3878
 6128SOL    HW229844   2.556   3.775   0.918 -0.2609  0.3907 -3.7743
 6129SOL     OW29845   2.329   0.010   5.856  0.0008 -0.1141 -0.7398
 6129SOL    HW129846   2.318   0.099   5.891  0.7590 -0.5483  0.5999
 6129SOL    HW229847   2.317   4.682   5.936  0.1909 -0.4349 -0.9194
 6130SOL     OW29848   3.078   3.011   1.790  0.4689 -0.6204 -0.5492
 6130SOL    HW129849   3.158   3.048   1.826  0.1004  1.6835 -2.0654
 6130SOL    HW229850   3.088   3.047   1.702 -1.8491  2.1990  0.3560
 6131SOL     OW29851   2.522   3.975  10.609  0.3642 -0.5631 -0.5062
 6131SOL    HW129852   2.467   4.048  10.638  1.3971  0.4110 -0.9765
 6131SOL    HW229853   2.523   3.981  10.513 -1.8327  0.2654 -0.4695
 6132SOL     OW29854   0.460   4.088   0.920  0.0204  0.4747 -0.2084
 6132SOL    HW129855   0.405   4.166   0.933  1.2825  1.0308  1.7982
 6132SOL    HW229856   0.515   4.110   0.844 -0.5078  1.6319 -0.2611
 6133SOL     OW29857   3.330   1.089   3.642  0.4773 -0.3985  0.4635
 6133SOL    HW129858   3.292   1.138   3.569 -1.0482 -2.1831  0.0587
 6133SOL    HW229859   3.307   1.153   3.710 -1.2626  1.4450 -1.8444
 6134SOL     OW29860   1.824   1.875  12.891 -0.2656  0.2462 -0.0008
 6134SOL    HW129861   1.739   1.912  12.869 -0.9925 -1.4276  0.0422
 6134SOL    HW229862   1.817   1.876  12.987  0.1568  1.9028  0.0140
 6135SOL     OW29863   2.139   0.621   2.715  0.3583  0.1025 -0.1478
 6135SOL    HW129864   2.149   0.700   2.662  0.1507 -1.0312 -1.8834
 6135SOL    HW229865   2.208   0.563   2.681  0.2312 -1.0373  1.5540
 6136SOL     OW29866   3.266   0.139   4.076  0.6097  0.6336 -0.1870
 6136SOL    HW129867   3.230   0.214   4.125  0.5264 -0.3073  1.1970
 6136SOL    HW229868   3.272   0.180   3.989  1.6313  2.7965  0.8753
 6137SOL     OW29869   1.148   1.198   6.619  0.2298  0.1025  0.1160
 6137SOL    HW129870   1.213   1.267   6.629  1.5267 -1.2015  0.7301
 6137SOL    HW229871   1.066   1.247   6.617 -0.1897 -0.6104 -0.3858
 6138SOL     OW29872   2.194   1.578   6.258  0.1316  0.0535 -0.9287
 6138SOL    HW129873   2.265   1.520   6.230  1.2747  1.5866 -1.2070
 6138SOL    HW229874   2.210   1.652   6.199  0.7562  1.0860  0.5501
 6139SOL     OW29875   3.528   1.251   6.424  0.3939  0.5014  0.8226
 6139SOL    HW129876   3.618   1.277   6.403 -0.9709  2.0054 -3.1657
 6139SOL    HW229877   3.488   1.332   6.456 -1.3455 -0.6492  1.5177
 6140SOL     OW29878   2.935   2.665  16.987 -0.2413 -0.3053  0.2532
 6140SOL    HW129879   3.027   2.694  16.986 -0.7208  1.1914 -0.9221
 6140SOL    HW229880   2.905   2.699  16.903 -0.8448 -0.9933  0.1925
 6141SOL     OW29881   3.784   2.912   6.370 -0.8601 -0.1288  0.1825
 6141SOL    HW129882   3.843   2.850   6.414 -0.4080 -1.1073 -1.8149
 6141SOL    HW229883   3.839   2.971   6.318 -1.6441  0.6409  0.2412
 6142SOL     OW29884   0.588   3.731  16.324 -0.2783  0.3376 -0.1506
 6142SOL    HW129885   0.535   3.808  16.301  0.1639  1.4979  2.6951
 6142SOL    HW229886   0.526   3.708  16.393 -0.4757  1.3331  0.0013
 6143SOL     OW29887   3.689   4.601   6.076  0.4516 -0.0312  0.6740
 6143SOL    HW129888   3.637   4.677   6.099 -2.3035 -1.4367 -0.8815
 6143SOL    HW229889   3.775   4.632   6.106 -0.6089  3.8171 -0.2741
 6144SOL     OW29890   1.906   0.653   1.099  0.6264 -0.7173  0.1617
 6144SOL    HW129891   1.934   0.708   1.172 -0.8169 -0.2908  0.3907
 6144SOL    HW229892   1.821   0.691   1.078 -0.2155 -3.7171 -1.7749
 6145SOL     OW29893   4.062   1.020   6.191 -0.0743 -0.4071 -0.0763
 6145SOL    HW129894   4.040   1.105   6.230  0.3092 -1.0745  1.6301
 6145SOL    HW229895   4.152   1.042   6.167 -0.3472  0.6308 -0.1512
 6146SOL     OW29896   0.247   3.987   1.247 -0.0609 -0.5617  0.1438
 6146SOL    HW129897   0.223   4.056   1.185 -2.1151  0.0219  1.5996
 6146SOL    HW229898   0.342   3.989   1.243 -0.1936  1.1107 -2.0273
 6147SOL     OW29899   3.672   3.060   4.723 -0.3275 -0.0109  0.2218
 6147SOL    HW129900   3.732   3.026   4.789 -0.5415 -2.1244 -0.6861
 6147SOL    HW229901   3.658   2.978   4.676  0.0243  1.4573 -2.4557
 6148SOL     OW29902   3.084   3.116   3.383 -0.7021  0.0294  0.1511
 6148SOL    HW129903   3.142   3.108   3.307 -1.5724  0.0325 -0.5122
 6148SOL    HW229904   3.138   3.087   3.457  0.1009  0.4694 -0.2608
 6149SOL     OW29905   1.635   0.887  10.382 -0.7086  0.0832 -0.0465
 6149SOL    HW129906   1.614   0.897  10.475 -1.2238  1.0577 -0.2658
 6149SOL    HW229907   1.724   0.922  10.394 -1.0379  1.3882 -1.4354
 6150SOL     OW29908   1.755   3.429   5.211  0.0657 -0.2672 -0.1479
 6150SOL    HW129909   1.691   3.493   5.244  1.3077  0.1015  1.5227
 6150SOL    HW229910   1.763   3.371   5.286 -1.7830  0.3946  0.5648
 6151SOL     OW29911   0.662   3.918  14.968  0.2303  0.5653  0.1402
 6151SOL    HW129912   0.592   3.967  14.924 -0.8338 -1.5530 -0.5144
 6151SOL    HW229913   0.620   3.900  15.052 -0.8887 -0.4237 -0.6275
 6152SOL     OW29914   0.760   2.161   6.635  0.8223 -0.1155 -0.0117
 6152SOL    HW129915   0.832   2.171   6.697  1.7098 -0.3278 -1.0097
 6152SOL    HW229916   0.732   2.249   6.612 -1.9082 -0.4241  2.1129
 6153SOL     OW29917   2.215   2.454  16.408 -0.6000 -0.0714  0.2274
 6153SOL    HW129918   2.295   2.489  16.447  0.2763  0.6297 -2.2155
 6153SOL    HW229919   2.170   2.445  16.492  0.2916 -2.1988  0.4616
 6154SOL     OW29920   2.266   2.886  11.880  0.7119 -0.1802 -0.1815
 6154SOL    HW129921   2.319   2.900  11.958 -0.8712 -0.5449  0.9629
 6154SOL    HW229922   2.292   2.800  11.846  1.0148 -0.3423  0.4645
 6155SOL     OW29923   1.103   2.905   6.201  1.0545 -0.1932  0.7871
 6155SOL    HW129924   1.009   2.914   6.217  0.8716  0.2668 -0.6113
 6155SOL    HW229925   1.137   2.877   6.287 -0.0200  0.5278  1.4460
 6156SOL     OW29926   0.816   3.736   7.976  0.0249 -0.1660  0.3053
 6156SOL    HW129927   0.821   3.720   8.071 -0.1010  1.1430  0.5323
 6156SOL    HW229928   0.833   3.644   7.954  1.3878  0.4820 -1.2808
 6157SOL     OW29929   1.730   1.696   3.445  0.7574 -0.2143  0.0623
 6157SOL    HW129930   1.670   1.625   3.469  0.0898 -0.5812 -2.6383
 6157SOL    HW229931   1.805   1.646   3.413 -0.1180 -2.0588  0.8589
 6158SOL     OW29932   1.659   0.939   1.310 -0.0838  0.4567 -0.4257
 6158SOL    HW129933   1.680   0.940   1.403 -1.5966 -1.0488 -0.0566
 6158SOL    HW229934   1.600   1.014   1.306  0.1364  0.4951 -3.1001
 6159SOL     OW29935   1.888   2.227   1.982  0.2577 -0.6005 -0.4470
 6159SOL    HW129936   1.887   2.315   1.945 -2.9067  1.3828  4.3690
 6159SOL    HW229937   1.840   2.259   2.059  3.1913  1.1883  0.6480
 6160SOL     OW29938   2.435   0.701   1.913 -0.0466 -0.0801  0.3076
 6160SOL    HW129939   2.471   0.678   1.998  0.6123  1.9408  0.5750
 6160SOL    HW229940   2.403   0.790   1.928 -0.5642 -0.1510 -0.3605
 6161SOL     OW29941   2.554   3.919  11.326 -0.0579 -0.1221  0.5585
 6161SOL    HW129942   2.514   3.876  11.402  0.3245  3.9379  3.1063
 6161SOL    HW229943   2.585   3.849  11.269  0.1968 -0.8600  1.6056
 6162SOL     OW29944   3.058   0.501   8.784  0.1365  0.0388  0.4111
 6162SOL    HW129945   3.096   0.498   8.872  1.0056 -3.6592 -0.0708
 6162SOL    HW229946   2.981   0.445   8.793 -0.8085  0.7941 -2.9376
 6163SOL     OW29947   4.005   3.705   6.817 -0.5755  0.0767 -0.4927
 6163SOL    HW129948   3.940   3.759   6.860 -0.5697  0.5406 -1.0640
 6163SOL    HW229949   3.952   3.628   6.797 -0.0597 -0.5498  0.5507
 6164SOL     OW29950   3.633   2.062   8.521  0.0883  0.5577  0.2584
 6164SOL    HW129951   3.543   2.082   8.497  0.2357  0.4713 -0.3850
 6164SOL    HW229952   3.672   2.149   8.531 -1.3319  1.2321 -0.1767
 6165SOL     OW29953   2.855   2.763   7.271 -0.1521  0.0019  0.5605
 6165SOL    HW129954   2.892   2.851   7.272  1.3765 -0.6255 -0.0132
 6165SOL    HW229955   2.891   2.730   7.354 -1.4202 -0.2447  1.0173
 6166SOL     OW29956   2.636   1.617   6.561  0.2575  0.2522 -0.0205
 6166SOL    HW129957   2.564   1.563   6.527 -0.1233  0.9406 -0.3070
 6166SOL    HW229958   2.605   1.649   6.646  0.6770 -3.9714  1.7521
 6167SOL     OW29959   1.782   0.116  11.112  0.1418 -0.3738 -0.0874
 6167SOL    HW129960   1.832   0.104  11.031 -1.5672 -0.2460 -1.1551
 6167SOL    HW229961   1.748   0.204  11.101 -0.9923 -0.5483  2.1060
 6168SOL     OW29962   0.321   0.942   7.218  0.1167  0.3231  0.1080
 6168SOL    HW129963   0.241   0.971   7.261  0.9754 -1.7635  3.0783
 6168SOL    HW229964   0.300   0.849   7.216 -0.5227  0.4698  0.2042
 6169SOL     OW29965   0.758   0.020  15.165 -0.4799 -0.2069  0.4891
 6169SOL    HW129966   0.795   4.723  15.079  0.6695  0.8079  0.7429
 6169SOL    HW229967   0.834   0.009  15.221 -0.0979 -0.8725 -0.1597
 6170SOL     OW29968   2.352   3.284   0.148  0.1289  0.0640 -0.2598
 6170SOL    HW129969   2.415   3.288   0.219 -1.4748 -1.7998  1.2679
 6170SOL    HW229970   2.418   3.264   0.081 -1.3973  0.6371 -1.9488
 6171SOL     OW29971   2.726   0.933   1.107 -0.0329  0.0551 -0.0040
 6171SOL    HW129972   2.721   0.962   1.198 -0.7670  0.6148 -0.2305
 6171SOL    HW229973   2.726   0.841   1.133 -0.6461  0.2951  0.8416
 6172SOL     OW29974   3.561   3.692   7.469  0.4369  0.2064  0.2873
 6172SOL    HW129975   3.558   3.648   7.384  0.2925  0.4603  0.1612
 6172SOL    HW229976   3.517   3.632   7.529  0.3867  0.4719  0.5136
 6173SOL     OW29977   3.150   2.319  11.932  0.2305 -0.9633 -0.1193
 6173SOL    HW129978   3.099   2.342  11.854  2.7551  0.1795 -1.4568
 6173SOL    HW229979   3.137   2.398  11.985 -4.3577 -1.9494  0.2620
 6174SOL     OW29980   4.306   0.930   2.201 -0.3138  0.0647  0.3529
 6174SOL    HW129981   4.260   1.013   2.195 -1.4998 -0.7768 -2.2331
 6174SOL    HW229982   4.247   0.858   2.223 -1.1761  0.4062 -0.8294
 6175SOL     OW29983   3.195   3.828  12.236  0.0964 -0.0247  0.2517
 6175SOL    HW129984   3.150   3.743  12.235  0.0934 -0.0200 -0.6037
 6175SOL    HW229985   3.177   3.856  12.146 -1.9682 -1.0234  0.3629
 6176SOL     OW29986   4.563   0.476   3.188  0.1327  0.0307 -0.9727
 6176SOL    HW129987   4.563   0.510   3.098  0.1229  0.3552 -0.8494
 6176SOL    HW229988   4.647   0.513   3.217 -0.7150  0.6732  0.6343
 6177SOL     OW29989   2.266   4.664  10.377  0.0065 -0.0209  0.5998
 6177SOL    HW129990   2.244   0.001  10.306 -3.1013 -0.6669  1.0472
 6177SOL    HW229991   2.349   4.628  10.343  1.2299  3.8503 -0.5510
 6178SOL     OW29992   2.519   4.254   9.388  0.2556 -0.2253  0.1153
 6178SOL    HW129993   2.505   4.334   9.439  4.7554  1.6518 -1.5875
 6178SOL    HW229994   2.547   4.192   9.456  2.5273 -1.1383 -1.6581
 6179SOL     OW29995   1.963   2.592   7.344  0.3573  0.1674  0.6593
 6179SOL    HW129996   1.995   2.587   7.254 -2.0702 -0.9049 -0.1618
 6179SOL    HW229997   2.035   2.633   7.392  0.3661 -1.6690  2.2244
 6180SOL     OW29998   3.479   2.722  16.904  0.9043  0.1621 -0.6510
 6180SOL    HW129999   3.541   2.694  16.971 -0.2817 -0.5880  0.1363
 6180SOL    HW230000   3.480   2.656  16.834  1.9511 -1.0966  0.5384
 6181SOL     OW30001   4.660   1.994   6.603  0.9623 -0.7965 -0.2365
 6181SOL    HW130002   4.571   1.983   6.568  0.5171  1.8900  0.0155
 6181SOL    HW230003   4.697   1.906   6.598 -3.3407 -2.6204  0.0783
 6182SOL     OW30004   2.329   3.116   4.962 -0.0556 -0.2286  0.0274
 6182SOL    HW130005   2.341   3.071   5.045  2.0763  0.9712  0.3656
 6182SOL    HW230006   2.274   3.192   4.982  3.0872  1.9971  0.2614
 6183SOL     OW30007   2.870   0.394  13.636  0.3247  0.3339  0.4297
 6183SOL    HW130008   2.928   0.324  13.606  0.2336  0.7732 -0.7609
 6183SOL    HW230009   2.894   0.467  13.578  0.5560 -0.0321  0.0622
 6184SOL     OW30010   1.151   1.547  15.554  0.6364  0.1870 -0.1566
 6184SOL    HW130011   1.132   1.453  15.564  2.6028 -0.1687  0.1643
 6184SOL    HW230012   1.186   1.564  15.466  1.4344 -1.6970 -0.2108
 6185SOL     OW30013   0.904   4.115   1.132 -0.4518  0.0965  0.2227
 6185SOL    HW130014   0.845   4.088   1.061  2.1900 -3.2027 -0.6708
 6185SOL    HW230015   0.974   4.163   1.089 -1.8806  1.2711 -0.8119
 6186SOL     OW30016   0.296   1.212   3.349  0.3376  0.5483 -0.0379
 6186SOL    HW130017   0.373   1.257   3.313  0.0637  2.4504  1.7347
 6186SOL    HW230018   0.307   1.239   3.440 -0.3650  0.4470  0.0733
 6187SOL     OW30019   1.786   1.249   3.720  0.2087  0.2799  0.5003
 6187SOL    HW130020   1.847   1.197   3.772 -0.1319  0.1944  0.8049
 6187SOL    HW230021   1.821   1.240   3.631 -0.7580  1.1970  0.0235
 6188SOL     OW30022   0.827   4.668  10.212 -0.1077 -0.3697 -0.3029
 6188SOL    HW130023   0.893   4.600  10.221 -0.4771 -0.8685 -1.4046
 6188SOL    HW230024   0.769   4.651  10.286 -0.5623  0.4857 -0.4544
 6189SOL     OW30025   4.096   4.313  17.368 -0.1840 -0.0792  0.6787
 6189SOL    HW130026   4.112   4.218  17.366  2.6932  0.4318 -0.2565
 6189SOL    HW230027   4.067   4.322  17.459  1.9081 -1.8590  1.5375
 6190SOL     OW30028   1.441   0.119   7.001  0.0983 -0.4436 -0.7251
 6190SOL    HW130029   1.348   0.124   6.979 -0.4741 -2.5998  1.1217
 6190SOL    HW230030   1.480   0.120   6.914 -3.2294  1.3425 -2.1994
 6191SOL     OW30031   4.209   3.128   7.926  0.7293 -0.2215 -0.5601
 6191SOL    HW130032   4.256   3.205   7.958 -0.5458  0.5318 -0.4876
 6191SOL    HW230033   4.173   3.095   8.009  2.0043  0.3623  0.2210
 6192SOL     OW30034   0.566   2.741   4.444  0.1478  0.4468  0.3874
 6192SOL    HW130035   0.527   2.828   4.443 -0.0918  0.3500  1.2419
 6192SOL    HW230036   0.659   2.764   4.449  1.0047 -3.1504  1.2555
 6193SOL     OW30037   0.305   3.266   3.036  0.0427 -0.2881 -0.4243
 6193SOL    HW130038   0.358   3.345   3.036 -0.1671 -0.1471 -0.8190
 6193SOL    HW230039   0.339   3.214   2.963  0.0822  1.1466 -1.4278
 6194SOL     OW30040   1.112   0.928  12.844  0.6314  0.1541 -0.1152
 6194SOL    HW130041   1.114   0.840  12.806  0.1819  1.0192 -2.1137
 6194SOL    HW230042   1.185   0.969  12.798 -0.7546 -0.5220 -2.8898
 6195SOL     OW30043   0.303   0.515   5.610  0.0655 -0.4236 -0.1142
 6195SOL    HW130044   0.315   0.540   5.519 -1.2925 -0.7072 -0.3736
 6195SOL    HW230045   0.389   0.535   5.647 -0.0980  2.7186 -1.4517
 6196SOL     OW30046   1.256   0.262   0.379 -0.1177  0.0314  0.3616
 6196SOL    HW130047   1.237   0.221   0.294 -1.0725 -0.6491  0.9067
 6196SOL    HW230048   1.176   0.313   0.390 -0.1740 -0.2401  1.1635
 6197SOL     OW30049   0.364   0.908   0.326 -0.6184  0.6807 -0.0013
 6197SOL    HW130050   0.429   0.938   0.390 -0.4279 -1.6586  0.9028
 6197SOL    HW230051   0.328   0.845   0.389 -1.0271  0.3233 -0.5909
 6198SOL     OW30052   3.824   3.788   3.073  0.2204  0.0545 -0.9779
 6198SOL    HW130053   3.907   3.801   3.119 -0.2563  1.9954 -0.6997
 6198SOL    HW230054   3.853   3.762   2.986  1.2427 -1.6371 -0.1414
 6199SOL     OW30055   2.873   3.222   4.716 -0.5383 -0.5488  0.1410
 6199SOL    HW130056   2.951   3.182   4.677 -0.9653 -3.2029  1.9835
 6199SOL    HW230057   2.814   3.233   4.642 -1.2860 -1.6533  0.5671
 6200SOL     OW30058   3.979   1.139   7.914 -0.2900 -0.1136 -0.4934
 6200SOL    HW130059   3.946   1.087   7.840 -0.4882  0.9114 -1.1212
 6200SOL    HW230060   3.958   1.082   7.988  0.0395  2.4338  1.5630
 6201SOL     OW30061   3.277   0.056   1.490  0.2405  0.2721 -0.3258
 6201SOL    HW130062   3.222   0.107   1.549 -2.1332 -2.8102  0.0681
 6201SOL    HW230063   3.363   0.080   1.523  1.2538 -1.2077 -1.8555
 6202SOL     OW30064   0.281   2.488   3.687  0.4598 -0.0117  0.2124
 6202SOL    HW130065   0.244   2.446   3.764  0.2241  0.6215  0.4418
 6202SOL    HW230066   0.363   2.494   3.736  0.2316  0.6808  0.5207
 6203SOL     OW30067   4.089   1.458   5.846  0.2493  0.2346 -0.2751
 6203SOL    HW130068   4.098   1.506   5.763  2.7101  1.1326  0.4986
 6203SOL    HW230069   4.178   1.424   5.858 -0.8196 -1.7786  1.9663
 6204SOL     OW30070   0.868   3.177   5.432 -0.1769 -0.0512  0.4151
 6204SOL    HW130071   0.788   3.222   5.458  0.1226 -0.8041  2.6688
 6204SOL    HW230072   0.880   3.113   5.502  3.5176  0.2421  0.0542
 6205SOL     OW30073   1.321   3.840   0.770  0.0791 -0.1311  0.0304
 6205SOL    HW130074   1.286   3.754   0.791  0.1883  0.4813  2.7115
 6205SOL    HW230075   1.388   3.818   0.705  1.7574  1.9501  1.0743
 6206SOL     OW30076   3.536   2.821   7.097 -0.7773 -0.5519  0.7638
 6206SOL    HW130077   3.448   2.856   7.089 -0.3185  0.8098  1.6361
 6206SOL    HW230078   3.543   2.773   7.180 -0.6432  0.7436  1.4948
 6207SOL     OW30079   2.400   0.341   7.256 -0.3114 -0.5984 -0.3245
 6207SOL    HW130080   2.465   0.330   7.186  0.4179 -0.2681  0.3009
 6207SOL    HW230081   2.392   0.436   7.252 -0.8527 -0.6364 -0.1250
 6208SOL     OW30082   3.735   1.847   5.456 -0.1764  0.6079 -0.4277
 6208SOL    HW130083   3.767   1.809   5.538 -0.5496  0.3782 -0.3912
 6208SOL    HW230084   3.692   1.769   5.422 -2.6511  1.7367  0.0467
 6209SOL     OW30085   0.847   1.323   3.718 -0.1545  0.1923 -0.1653
 6209SOL    HW130086   0.934   1.343   3.751 -0.2006  0.5429 -0.2491
 6209SOL    HW230087   0.794   1.384   3.770 -0.2162 -0.7087  0.8028
 6210SOL     OW30088   4.362   3.094  12.675  0.2797 -0.0860 -0.1425
 6210SOL    HW130089   4.348   3.186  12.697 -1.5772 -0.4081  0.0098
 6210SOL    HW230090   4.335   3.054  12.758  0.7620 -2.7423 -1.2690
 6211SOL     OW30091   1.453   1.053   9.114 -0.3687 -0.5215  0.2554
 6211SOL    HW130092   1.474   1.046   9.207 -0.7634 -2.6207  0.1922
 6211SOL    HW230093   1.434   1.147   9.117 -1.0870 -0.5474 -2.9885
 6212SOL     OW30094   4.713   1.432   8.997  0.3881 -0.4345 -0.0441
 6212SOL    HW130095   0.009   1.375   9.071  0.6597 -1.2376 -0.7394
 6212SOL    HW230096   4.623   1.444   9.027  0.0100  1.6366 -1.9721
 6213SOL     OW30097   4.051   3.216   7.393 -0.3472  0.2884 -0.4076
 6213SOL    HW130098   4.123   3.272   7.424  1.2509 -2.4609  0.8567
 6213SOL    HW230099   4.078   3.130   7.427  1.8589  0.8938 -0.6006
 6214SOL     OW30100   3.517   0.807   3.632 -0.0353 -0.4934 -0.0448
 6214SOL    HW130101   3.564   0.887   3.605 -0.3046  0.0240  1.0218
 6214SOL    HW230102   3.459   0.811   3.556  1.1414  3.3600 -0.7815
 6215SOL     OW30103   2.998   2.709   6.755  0.1911  0.2628  0.1687
 6215SOL    HW130104   2.981   2.681   6.844  0.3405 -0.7404 -0.1166
 6215SOL    HW230105   3.088   2.679   6.738  0.5011  1.0466  0.4081
 6216SOL     OW30106   3.498   4.345   6.509  0.3796 -0.0360  0.7779
 6216SOL    HW130107   3.455   4.395   6.439  1.1412  2.4412  2.0793
 6216SOL    HW230108   3.589   4.374   6.496  0.6169 -1.0704  0.1223
 6217SOL     OW30109   3.441   3.499  14.843  0.1246  0.3250  0.3675
 6217SOL    HW130110   3.373   3.456  14.894  0.6747 -1.2764 -0.2578
 6217SOL    HW230111   3.391   3.567  14.798 -0.0960  0.1407  0.3313
 6218SOL     OW30112   3.442   4.042   1.640 -0.1180 -0.5208  0.0605
 6218SOL    HW130113   3.450   4.130   1.677 -0.0442 -0.8107  0.7337
 6218SOL    HW230114   3.464   4.051   1.547 -1.7538  2.4723 -0.0166
 6219SOL     OW30115   0.379   2.546   4.410 -0.2126  0.0711  0.7705
 6219SOL    HW130116   0.300   2.574   4.456 -1.9551 -1.4321 -1.2854
 6219SOL    HW230117   0.441   2.609   4.444  0.0612  0.0700  0.2775
 6220SOL     OW30118   2.989   1.383  15.645 -0.2678  0.4136  0.7311
 6220SOL    HW130119   3.064   1.443  15.649  1.9467 -2.1959 -1.4763
 6220SOL    HW230120   2.937   1.414  15.719 -3.3738  0.4756 -1.4688
 6221SOL     OW30121   2.657   4.162   7.680  0.0135 -0.0572 -0.0846
 6221SOL    HW130122   2.597   4.123   7.616  1.0639 -0.9441 -0.5299
 6221SOL    HW230123   2.735   4.113   7.652  0.0232  0.2366 -0.5790
 6222SOL     OW30124   3.765   2.204   7.910  0.1151  0.2254  0.6673
 6222SOL    HW130125   3.799   2.117   7.889 -0.7512 -0.1503  0.8035
 6222SOL    HW230126   3.686   2.172   7.956  0.3971 -0.2048  0.8549
 6223SOL     OW30127   3.784   4.635   4.416  0.1180  0.6592  0.1010
 6223SOL    HW130128   3.799   4.703   4.351  1.1514 -1.6642 -2.1146
 6223SOL    HW230129   3.689   4.622   4.419  0.4522 -1.4788  1.3880
 6224SOL     OW30130   1.907   2.954   0.591  0.1574 -0.8672  0.1883
 6224SOL    HW130131   1.886   2.940   0.683 -1.3165 -0.8221 -0.1481
 6224SOL    HW230132   2.003   2.948   0.586  0.3604 -0.5836  4.0709
 6225SOL     OW30133   1.816   1.126   1.985  0.3527  0.0017  0.7365
 6225SOL    HW130134   1.783   1.201   1.936 -2.4063 -1.1469  0.8122
 6225SOL    HW230135   1.862   1.082   1.913  0.1662  2.9568 -1.2009
 6226SOL     OW30136   4.358   3.424   4.041  0.6988  0.4197 -0.4704
 6226SOL    HW130137   4.347   3.512   4.005 -1.3466 -0.1708 -1.2469
 6226SOL    HW230138   4.417   3.383   3.977 -1.6919 -1.0104 -1.7211
 6227SOL     OW30139   2.213   1.124   8.154  0.5215  0.5051 -0.4414
 6227SOL    HW130140   2.145   1.059   8.138 -3.1256  3.6056  2.3019
 6227SOL    HW230141   2.221   1.118   8.249  0.2799  1.4357 -0.3581
 6228SOL     OW30142   1.879   2.261   7.842 -0.2138 -0.3283  0.1995
 6228SOL    HW130143   1.868   2.312   7.923 -2.3144 -0.1538 -0.2073
 6228SOL    HW230144   1.819   2.310   7.786  2.4257  0.4922 -1.9203
 6229SOL     OW30145   1.161   0.608   4.694 -0.0283 -0.2119 -0.0019
 6229SOL    HW130146   1.195   0.526   4.730 -1.3251 -0.2282  1.1760
 6229SOL    HW230147   1.071   0.609   4.726  0.2163 -1.4563  0.7379
 6230SOL     OW30148   1.189   3.604   4.771 -0.6506  0.3809  0.0886
 6230SOL    HW130149   1.208   3.682   4.718 -1.3506  0.7872  0.4392
 6230SOL    HW230150   1.096   3.622   4.783 -0.3939  1.2025  0.8772
 6231SOL     OW30151   1.647   2.119  11.730  0.4113  0.4253  0.7145
 6231SOL    HW130152   1.689   2.070  11.801  0.0668 -1.4299 -0.3798
 6231SOL    HW230153   1.685   2.093  11.646  0.7091  1.4181  0.5416
 6232SOL     OW30154   3.325   2.584  11.713 -0.6953 -0.5023 -0.0612
 6232SOL    HW130155   3.392   2.539  11.661 -0.8286 -0.3019 -0.4107
 6232SOL    HW230156   3.347   2.546  11.797  0.8462  1.5450  0.4753
 6233SOL     OW30157   2.156   2.553   3.555 -0.0528 -0.1238  0.0191
 6233SOL    HW130158   2.081   2.612   3.554 -0.5235 -0.7249 -0.6674
 6233SOL    HW230159   2.232   2.608   3.538  1.2681 -2.0083 -0.1789
 6234SOL     OW30160   2.212   0.134   3.996 -1.1319  0.2120 -0.0691
 6234SOL    HW130161   2.285   0.172   4.044  0.7779 -0.9398 -2.0466
 6234SOL    HW230162   2.153   0.210   3.996 -0.5810  0.6409 -0.7408
 6235SOL     OW30163   1.571   4.173   0.964 -0.2152 -0.1744 -0.0468
 6235SOL    HW130164   1.636   4.242   0.955  0.3666 -0.9022 -1.4468
 6235SOL    HW230165   1.601   4.131   1.046 -1.4833 -2.6819 -0.8552
 6236SOL     OW30166   2.034   1.076   4.735  0.0022  0.0946 -0.6922
 6236SOL    HW130167   2.044   1.074   4.830  1.0125 -2.4828 -0.8466
 6236SOL    HW230168   2.105   1.139   4.720 -0.1239  0.3398 -0.2643
 6237SOL     OW30169   3.879   3.079  13.495  0.2302 -0.3790 -0.2569
 6237SOL    HW130170   3.795   3.051  13.459 -0.5607 -0.7166  1.8314
 6237SOL    HW230171   3.937   3.068  13.420  0.6292 -1.0893  0.1533
 6238SOL     OW30172   0.371   3.919   8.196 -0.7313 -0.7416  0.1682
 6238SOL    HW130173   0.424   3.965   8.131 -3.2177  0.8381 -0.7859
 6238SOL    HW230174   0.284   3.929   8.156 -0.8126 -3.0497 -0.2330
 6239SOL     OW30175   3.074   3.941   7.308  0.3604  0.1621 -0.1502
 6239SOL    HW130176   3.168   3.943   7.293  0.1975 -1.9734 -1.5106
 6239SOL    HW230177   3.057   4.034   7.319  1.9316  0.3140  1.0442
 6240SOL     OW30178   1.650   2.191   3.946  0.5100 -0.3637  0.1274
 6240SOL    HW130179   1.576   2.188   3.885  1.2078 -2.4718 -0.5778
 6240SOL    HW230180   1.682   2.281   3.934 -1.0564  0.3885  1.5974
 6241SOL     OW30181   0.283   2.803   8.434 -0.4384  0.3517  0.3802
 6241SOL    HW130182   0.205   2.757   8.403 -0.3565  0.1062  0.5393
 6241SOL    HW230183   0.309   2.754   8.512 -1.1224  1.1954  1.1381
 6242SOL     OW30184   2.466   3.130   7.663 -0.3085  0.6002  0.1723
 6242SOL    HW130185   2.431   3.072   7.731  0.4580  0.6075  0.5709
 6242SOL    HW230186   2.557   3.106   7.678 -0.4403  1.8410  3.0029
 6243SOL     OW30187   4.162   2.940   6.866 -0.2203 -0.0289  0.0220
 6243SOL    HW130188   4.201   3.027   6.877 -1.8812  1.0339 -2.4059
 6243SOL    HW230189   4.245   2.894   6.874  0.1048  0.1573 -2.3414
 6244SOL     OW30190   4.050   2.425   2.101 -0.4543 -0.1938  0.0907
 6244SOL    HW130191   4.022   2.395   2.187  0.1385 -0.7403  0.0901
 6244SOL    HW230192   4.001   2.373   2.038  0.2435  1.1864 -1.5975
 6245SOL     OW30193   3.174   3.183   7.697  0.6130 -0.1993  0.3744
 6245SOL    HW130194   3.111   3.216   7.633 -1.9755 -0.8626  2.6074
 6245SOL    HW230195   3.170   3.255   7.760 -1.6932 -1.6132  1.8408
 6246SOL     OW30196   3.751   0.314   6.253  0.5839  0.9364 -0.0331
 6246SOL    HW130197   3.788   0.397   6.282  1.3419  0.3179  0.7621
 6246SOL    HW230198   3.773   0.321   6.160 -0.0738  1.5213 -0.1527
 6247SOL     OW30199   0.404   3.049   5.916 -0.2994  0.3045 -0.6159
 6247SOL    HW130200   0.467   2.992   5.961 -0.0519  1.8418  1.0176
 6247SOL    HW230201   0.387   2.999   5.836  2.0931 -0.1203 -0.8590
 6248SOL     OW30202   1.720   0.379  11.085  0.7428 -0.0104  0.1636
 6248SOL    HW130203   1.684   0.466  11.104  1.0675  0.0843  0.3510
 6248SOL    HW230204   1.806   0.381  11.128  0.5715 -1.1850  0.5618
 6249SOL     OW30205   2.342   0.414   0.136 -0.2362 -0.2207 -0.1932
 6249SOL    HW130206   2.391   0.338   0.167  0.4420 -0.4761 -1.8826
 6249SOL    HW230207   2.305   0.444   0.219 -0.0993 -1.2247  0.2330
 6250SOL     OW30208   0.610   1.741   5.878 -0.0129  0.3503  0.5184
 6250SOL    HW130209   0.689   1.703   5.839 -0.7034  0.6927 -1.1955
 6250SOL    HW230210   0.574   1.802   5.814  1.3680 -0.2819 -0.8677
 6251SOL     OW30211   1.525   4.254   6.554 -0.5108 -0.0786  0.4496
 6251SOL    HW130212   1.455   4.306   6.593 -2.0949 -2.2111  0.4661
 6251SOL    HW230213   1.503   4.258   6.461  1.5616 -0.2495 -0.0456
 6252SOL     OW30214   0.839   0.499   9.876  0.1494 -0.1106 -0.4585
 6252SOL    HW130215   0.820   0.466   9.788  1.6653  0.7178 -1.1018
 6252SOL    HW230216   0.925   0.540   9.866 -0.7626  1.5277 -1.6733
 6253SOL     OW30217   4.453   2.379   8.781  0.1274 -0.3108 -0.0489
 6253SOL    HW130218   4.533   2.336   8.812  0.8517  1.0664  0.0010
 6253SOL    HW230219   4.405   2.395   8.862  0.3888 -0.8377  0.2090
 6254SOL     OW30220   2.366   2.103   2.919 -0.1707  0.1560 -0.0523
 6254SOL    HW130221   2.395   2.149   2.840 -0.3678 -1.1082 -0.8624
 6254SOL    HW230222   2.299   2.040   2.892 -2.4485  2.1182  1.1002
 6255SOL     OW30223   0.003   0.648  11.571  0.0994 -0.3104 -0.2067
 6255SOL    HW130224   4.694   0.706  11.640 -1.6119  0.9696 -2.0960
 6255SOL    HW230225   4.703   0.705  11.499 -0.8385  0.8578  1.0193
 6256SOL     OW30226   0.469   1.241   4.685 -0.2807  0.0193 -0.1141
 6256SOL    HW130227   0.557   1.277   4.700  0.0758 -0.7454 -0.3603
 6256SOL    HW230228   0.416   1.311   4.722 -1.1653  0.3968 -2.1038
 6257SOL     OW30229   1.423   0.469   6.725 -0.1727 -0.2087  0.2620
 6257SOL    HW130230   1.337   0.502   6.751  0.2487 -0.2036  1.6442
 6257SOL    HW230231   1.386   0.393   6.680  0.0639 -1.5729  2.3964
 6258SOL     OW30232   0.325   4.448   3.611 -0.1248 -0.4656 -0.7139
 6258SOL    HW130233   0.395   4.441   3.676 -1.0498 -1.8698  0.1316
 6258SOL    HW230234   0.257   4.392   3.649 -0.7997  1.8066  1.4164
 6259SOL     OW30235   0.058   2.990   7.152 -0.0098  0.2251  0.5870
 6259SOL    HW130236   0.076   2.900   7.181 -1.4910 -0.6420 -1.1901
 6259SOL    HW230237   4.720   2.969   7.082 -0.7374  1.2769  0.9330
 6260SOL     OW30238   1.443   4.281   5.878  0.5025 -0.1681  0.3224
 6260SOL    HW130239   1.353   4.250   5.869  0.1692  0.5810  1.0965
 6260SOL    HW230240   1.479   4.210   5.930 -2.4349 -0.2766  2.2150
 6261SOL     OW30241   3.315   2.884   4.913  0.4521  0.3656  0.3137
 6261SOL    HW130242   3.337   2.893   4.820 -0.0364  0.1032  0.1673
 6261SOL    HW230243   3.300   2.977   4.928  0.3537  0.4931 -0.5833
 6262SOL     OW30244   3.408   0.031  17.633  0.0466  0.1577  0.2026
 6262SOL    HW130245   3.332   4.714  17.592 -0.2271 -0.7698  1.6550
 6262SOL    HW230246   3.399   0.028   0.031 -1.1891  0.1372  0.0773
 6263SOL     OW30247   2.886   0.229   7.703 -0.0920  0.3718  0.2978
 6263SOL    HW130248   2.811   0.243   7.645 -0.6829 -2.0132  0.4983
 6263SOL    HW230249   2.845   0.176   7.772 -0.4002 -1.2567 -1.1321
 6264SOL     OW30250   0.912   4.393   4.438 -0.1819 -0.2276 -0.4295
 6264SOL    HW130251   0.947   4.393   4.527 -2.4989  2.2543  0.4596
 6264SOL    HW230252   0.821   4.422   4.443 -1.1636 -3.1536 -1.1752
 6265SOL     OW30253   1.523   0.780   9.066 -0.0332 -0.4408  0.0582
 6265SOL    HW130254   1.511   0.729   9.146 -0.0608 -1.0592 -0.3379
 6265SOL    HW230255   1.483   0.865   9.084  1.8028  0.1222  1.4356
 6266SOL     OW30256   0.893   1.539   5.959 -0.8796  0.4966 -0.0111
 6266SOL    HW130257   0.967   1.511   6.011 -0.7977 -0.3353 -0.5804
 6266SOL    HW230258   0.843   1.592   6.022 -1.1166  2.7919 -2.1232
 6267SOL     OW30259   3.084   3.060  13.707  0.1023 -0.4509 -0.4851
 6267SOL    HW130260   3.039   3.087  13.627  1.5679  0.1825 -1.0825
 6267SOL    HW230261   3.144   3.134  13.715  0.2376 -0.6186  0.0806
 6268SOL     OW30262   0.849   2.009   5.990  1.0844 -0.3831 -0.5542
 6268SOL    HW130263   0.910   1.940   6.016 -0.3261  0.2247  4.2556
 6268SOL    HW230264   0.824   1.973   5.905 -0.5359 -0.0099 -0.2252
 6269SOL     OW30265   2.716   0.581   3.936 -0.3910 -0.3555 -0.6044
 6269SOL    HW130266   2.779   0.596   4.006 -0.7424 -3.6850  0.4371
 6269SOL    HW230267   2.691   0.490   3.953 -1.9856  0.4923  1.5704
 6270SOL     OW30268   1.782   0.457   3.282 -0.5276  0.3711  1.0504
 6270SOL    HW130269   1.875   0.445   3.264 -1.0368 -1.8517 -0.1678
 6270SOL    HW230270   1.768   0.534   3.227 -2.0476 -0.9122 -0.3528
 6271SOL     OW30271   3.375   2.898   2.571  0.1211  0.3614  0.5596
 6271SOL    HW130272   3.305   2.937   2.624 -0.9723 -1.6332  0.5674
 6271SOL    HW230273   3.326   2.825   2.534  1.4976  0.6652 -1.8418
 6272SOL     OW30274   0.947   4.485   0.794 -0.4751  0.2619 -0.1211
 6272SOL    HW130275   0.949   4.565   0.741  3.4965 -0.3101 -0.8383
 6272SOL    HW230276   1.014   4.430   0.755  0.2328  0.4852  0.7558
 6273SOL     OW30277   1.842   0.317  14.585 -0.6597  0.2447 -0.2186
 6273SOL    HW130278   1.915   0.255  14.577 -1.0404 -0.4818  1.7516
 6273SOL    HW230279   1.809   0.324  14.496  1.0701 -2.7663 -1.1027
 6274SOL     OW30280   4.625   4.384   2.667 -0.0209  0.2752  0.0259
 6274SOL    HW130281   4.548   4.438   2.684  0.1139  0.0082  1.4614
 6274SOL    HW230282   4.655   4.369   2.756  1.9266 -0.6720 -0.7730
 6275SOL     OW30283   3.725   2.509   3.583 -0.2068 -0.2476 -0.4110
 6275SOL    HW130284   3.719   2.532   3.676 -0.2013 -0.9115 -0.2477
 6275SOL    HW230285   3.770   2.589   3.554 -1.8167  1.0123  0.5647
 6276SOL     OW30286   1.190   3.628   8.432  0.3652 -0.5065  0.1710
 6276SOL    HW130287   1.139   3.569   8.377  3.0201 -0.5268 -2.2738
 6276SOL    HW230288   1.280   3.595   8.437 -0.1325 -1.9100 -0.0500
 6277SOL     OW30289   2.591   0.634   2.772 -0.7080 -0.2238  0.2462
 6277SOL    HW130290   2.543   0.660   2.694 -0.4390 -3.1493 -0.8873
 6277SOL    HW230291   2.569   0.541   2.774  1.4418 -0.7108  1.4904
 6278SOL     OW30292   0.988   2.773  13.713 -0.0666  0.6452 -0.3241
 6278SOL    HW130293   1.035   2.723  13.780 -0.8847  0.8785  0.4286
 6278SOL    HW230294   0.996   2.862  13.748 -0.5237 -0.1079  1.6819
 6279SOL     OW30295   4.600   4.377   8.890 -0.5755 -0.0449  0.0621
 6279SOL    HW130296   4.544   4.303   8.914  0.2872 -0.9731 -0.7742
 6279SOL    HW230297   4.647   4.352   8.810  2.5983  1.0027  1.5696
 6280SOL     OW30298   2.968   1.130   5.098 -0.3889 -0.9033  0.7701
 6280SOL    HW130299   3.057   1.160   5.083 -1.7551  2.7105 -0.2246
 6280SOL    HW230300   2.941   1.220   5.118 -0.9898 -1.1990  1.3155
 6281SOL     OW30301   4.031   0.718   3.852 -0.1800  0.0632 -0.4723
 6281SOL    HW130302   4.035   0.641   3.796 -1.0490  1.2373 -2.1305
 6281SOL    HW230303   4.124   0.741   3.849 -0.1273  0.0656  1.1471
 6282SOL     OW30304   1.973   1.854   8.871  0.2031 -0.0302 -0.2104
 6282SOL    HW130305   1.965   1.935   8.922  1.6168  0.1635 -0.2852
 6282SOL    HW230306   1.933   1.880   8.788 -0.3623 -1.4041 -0.3494
 6283SOL     OW30307   0.465   1.101   4.442  0.1009  0.2063 -0.3861
 6283SOL    HW130308   0.465   1.132   4.532 -0.2543 -0.5555 -0.1213
 6283SOL    HW230309   0.531   1.033   4.447 -0.0507 -0.0554 -1.7097
 6284SOL     OW30310   3.921   0.076   3.279 -0.0198 -0.1449 -0.2050
 6284SOL    HW130311   3.995   0.087   3.220 -0.2287 -1.5594 -0.7387
 6284SOL    HW230312   3.880   0.162   3.291 -0.2251 -0.4914  1.5343
 6285SOL     OW30313   0.166   1.898   9.548 -0.0122 -0.1107  0.2386
 6285SOL    HW130314   0.259   1.920   9.535  0.0952 -0.8791 -0.3073
 6285SOL    HW230315   0.130   1.986   9.553  2.5490  0.8088  2.5106
 6286SOL     OW30316   3.915   2.087   2.794  0.3994  0.2361  0.7963
 6286SOL    HW130317   3.851   2.016   2.791  0.3358  0.4088 -2.4706
 6286SOL    HW230318   3.996   2.040   2.813  1.1349  0.5768 -1.4171
 6287SOL     OW30319   2.218   3.557  14.518  0.4608  0.1988 -0.1914
 6287SOL    HW130320   2.190   3.613  14.446 -0.7652 -0.4738 -0.2291
 6287SOL    HW230321   2.239   3.630  14.576  1.3647  1.6630 -2.3631
 6288SOL     OW30322   4.013   2.024   7.379 -0.0388 -0.2127  0.1965
 6288SOL    HW130323   3.949   2.056   7.443 -1.2093 -0.7268 -0.7202
 6288SOL    HW230324   4.079   2.093   7.368  0.9061 -1.0849  0.4268
 6289SOL     OW30325   1.183   1.611   2.061  0.3097 -0.1508  0.0571
 6289SOL    HW130326   1.102   1.631   2.014  0.7097 -1.6275 -1.2805
 6289SOL    HW230327   1.163   1.539   2.121 -0.8887  0.6888  0.6663
 6290SOL     OW30328   2.416   0.021   2.738 -0.4807  0.2438 -0.6286
 6290SOL    HW130329   2.498   0.070   2.730 -0.9420  1.1843  0.3733
 6290SOL    HW230330   2.438   4.666   2.688 -0.4672  0.7687 -1.4484
 6291SOL     OW30331   0.663   3.004  10.915 -0.1198 -0.0187  0.1511
 6291SOL    HW130332   0.609   3.052  10.977  0.0343 -0.3529  0.5495
 6291SOL    HW230333   0.634   3.049  10.837 -1.3286  0.7052  1.0305
 6292SOL     OW30334   4.698   4.290   8.337 -0.6889 -0.2862  0.3942
 6292SOL    HW130335   4.677   4.342   8.415 -0.2796 -1.5382  1.3360
 6292SOL    HW230336   4.622   4.308   8.283  0.0911  2.1904  0.1211
 6293SOL     OW30337   4.492   4.599   7.493 -0.7052  0.2551 -0.4117
 6293SOL    HW130338   4.425   4.649   7.448 -1.6280 -2.3446 -1.9479
 6293SOL    HW230339   4.571   4.649   7.473 -0.5986  0.8815  1.5992
 6294SOL     OW30340   1.244   0.976   5.540  0.4617  0.2223 -0.5255
 6294SOL    HW130341   1.292   0.922   5.477  0.8302  1.3653 -1.2168
 6294SOL    HW230342   1.317   0.997   5.599  0.0192  0.6891 -0.1516
 6295SOL     OW30343   0.239   0.950   1.528 -0.0148  0.0339  0.9103
 6295SOL    HW130344   0.146   0.963   1.545 -0.1568  0.1688  0.0385
 6295SOL    HW230345   0.265   0.871   1.576 -0.8617 -0.4724  0.5424
 6296SOL     OW30346   1.357   2.187   4.539 -0.2860  0.6507  0.3901
 6296SOL    HW130347   1.322   2.101   4.516 -1.5185  1.3895 -0.4984
 6296SOL    HW230348   1.445   2.176   4.576 -1.0032 -0.5833  1.6816
 6297SOL     OW30349   2.142   3.901   2.068  0.0356 -0.4466 -0.8218
 6297SOL    HW130350   2.090   3.895   1.988  1.3683 -1.0779 -1.6412
 6297SOL    HW230351   2.221   3.856   2.039  0.0117 -1.1477  0.2057
 6298SOL     OW30352   2.606   1.223  11.901 -0.1346  0.5075 -0.4282
 6298SOL    HW130353   2.562   1.184  11.826 -1.0280  0.9781 -0.1382
 6298SOL    HW230354   2.696   1.189  11.904 -1.2445 -2.3401  0.1804
 6299SOL     OW30355   1.196   2.724   6.459  0.0152 -0.3653 -0.1113
 6299SOL    HW130356   1.214   2.657   6.394  0.1080 -0.8473  0.4092
 6299SOL    HW230357   1.120   2.678   6.496  0.2638  0.0091  0.8625
 6300SOL     OW30358   4.440   1.636   6.326  0.1011  0.1916  0.0719
 6300SOL    HW130359   4.525   1.640   6.282  0.5976 -0.1581  0.9944
 6300SOL    HW230360   4.389   1.704   6.283  1.5901  0.1407 -1.7507
 6301SOL     OW30361   1.332   0.921   4.411  0.9417 -0.1590 -0.3073
 6301SOL    HW130362   1.367   0.950   4.495 -2.8949 -1.0776  1.6245
 6301SOL    HW230363   1.410   0.892   4.364 -0.4748 -1.7500 -1.6731
 6302SOL     OW30364   0.674   1.323  13.968  0.4076 -0.1649 -0.5237
 6302SOL    HW130365   0.766   1.349  13.971  0.4561 -0.3418 -0.4381
 6302SOL    HW230366   0.624   1.389  13.920  0.1381  0.4204  0.5842
 6303SOL     OW30367   1.419   2.813   9.103 -0.1444  0.7396 -0.1782
 6303SOL    HW130368   1.494   2.851   9.149  0.3013  0.7990 -0.9492
 6303SOL    HW230369   1.419   2.858   9.019  0.9379  0.9256 -0.0830
 6304SOL     OW30370   1.810   4.252   4.718  0.7009 -0.1531  0.3679
 6304SOL    HW130371   1.845   4.167   4.744 -1.1722 -0.7586  0.8413
 6304SOL    HW230372   1.763   4.290   4.792  1.3963  1.5592 -0.0481
 6305SOL     OW30373   3.349   4.074   0.178  0.0619 -0.2839 -0.0516
 6305SOL    HW130374   3.365   4.006   0.114  1.1853  0.1445 -0.2182
 6305SOL    HW230375   3.428   4.072   0.232  0.6092  0.9256 -0.8039
 6306SOL     OW30376   1.062   2.965  13.447  0.2715 -0.1771  0.2552
 6306SOL    HW130377   1.074   2.971  13.542  0.5274 -2.0026  0.3366
 6306SOL    HW230378   0.975   3.004  13.445  0.2974 -0.0335  1.7433
 6307SOL     OW30379   0.204   2.747  15.159  0.0761 -0.0351 -0.2221
 6307SOL    HW130380   0.234   2.808  15.226 -0.1509  1.0683 -1.1244
 6307SOL    HW230381   0.252   2.789  15.087  1.1729  0.9969  1.1112
 6308SOL     OW30382   1.072   1.525   7.201 -1.5582  0.1474  0.8617
 6308SOL    HW130383   1.062   1.598   7.139  3.9622  0.8680  0.7898
 6308SOL    HW230384   1.015   1.463   7.155  0.7652 -0.4493 -1.2450
 6309SOL     OW30385   0.769   3.724   2.304  0.0975  0.6160 -0.3971
 6309SOL    HW130386   0.739   3.792   2.244  2.3845  1.7926 -0.2336
 6309SOL    HW230387   0.683   3.685   2.311  0.0609  0.4816 -1.5845
 6310SOL     OW30388   2.872   4.347  10.801 -0.5080 -0.4880 -0.2513
 6310SOL    HW130389   2.801   4.410  10.810 -0.7106 -0.7936  0.2330
 6310SOL    HW230390   2.831   4.261  10.790 -0.4892 -0.3901 -1.0936
 6311SOL     OW30391   1.181   1.323   5.372 -0.4691 -0.3908  0.1993
 6311SOL    HW130392   1.164   1.236   5.336 -1.9808 -0.5058  1.1824
 6311SOL    HW230393   1.270   1.327   5.339 -0.2724  0.0405  0.7875
 6312SOL     OW30394   1.609   0.662   8.772 -0.3178 -0.0273  0.1157
 6312SOL    HW130395   1.704   0.675   8.769 -0.1157 -1.7918 -0.9479
 6312SOL    HW230396   1.583   0.682   8.862 -3.8238  0.3618 -0.9770
 6313SOL     OW30397   1.118   1.004  13.106  0.1724  0.2512  0.2918
 6313SOL    HW130398   1.193   0.944  13.113 -1.4478 -1.6555  1.3451
 6313SOL    HW230399   1.079   0.979  13.022 -2.0568  1.3689  1.0189
 6314SOL     OW30400   2.864   1.941   3.669 -0.0837  0.2110  0.4328
 6314SOL    HW130401   2.829   1.943   3.580  1.2953 -1.6443 -0.1321
 6314SOL    HW230402   2.934   2.005   3.661 -0.1075  0.3393  1.2308
 6315SOL     OW30403   1.758   1.295  12.154  0.1923  0.2833 -0.0944
 6315SOL    HW130404   1.686   1.261  12.101 -1.6299  3.2485  0.4822
 6315SOL    HW230405   1.731   1.386  12.164 -0.4605  0.0822 -0.0476
 6316SOL     OW30406   1.575   0.837  14.165  0.4855  0.3705 -0.6250
 6316SOL    HW130407   1.630   0.866  14.237 -0.5147  0.5824  0.0506
 6316SOL    HW230408   1.517   0.911  14.150 -0.6141 -0.8886 -2.5507
 6317SOL     OW30409   1.522   4.219   5.600  0.0539  0.2021 -0.0343
 6317SOL    HW130410   1.512   4.294   5.543  2.7065  0.6426  0.0540
 6317SOL    HW230411   1.537   4.257   5.687  2.3022  0.3400 -0.4869
 6318SOL     OW30412   4.425   1.693  11.650 -0.3665 -0.7318  0.5546
 6318SOL    HW130413   4.478   1.751  11.595 -0.4860 -0.6236  0.5537
 6318SOL    HW230414   4.490   1.674  11.718  2.0390  0.4103 -1.4599
 6319SOL     OW30415   3.635   3.273   6.421  0.2646 -0.0976  0.3634
 6319SOL    HW130416   3.714   3.250   6.470  0.3574  2.9528  1.6840
 6319SOL    HW230417   3.597   3.350   6.463 -2.0434  0.2602 -2.3810
 6320SOL     OW30418   4.635   2.923   6.883 -0.5640 -0.2526  0.2548
 6320SOL    HW130419   4.702   2.941   6.817 -1.3950 -0.0096 -0.5206
 6320SOL    HW230420   4.624   2.829   6.867 -2.0242  0.0759 -0.6034
 6321SOL     OW30421   3.020   3.650   6.535  0.1902  0.0487  0.1608
 6321SOL    HW130422   2.997   3.559   6.515 -0.8917  0.4906 -0.6055
 6321SOL    HW230423   3.105   3.650   6.490 -0.0111  1.0112 -0.2059
 6322SOL     OW30424   4.218   2.789  15.003 -0.9799  0.1686  0.3047
 6322SOL    HW130425   4.221   2.716  14.941  0.4592  1.5178 -1.2190
 6322SOL    HW230426   4.313   2.800  15.013 -1.1218  2.1136 -0.5100
 6323SOL     OW30427   3.687   4.250   3.760  0.4662  0.1193  0.1675
 6323SOL    HW130428   3.605   4.296   3.776  0.0156  0.2227 -2.5242
 6323SOL    HW230429   3.677   4.178   3.822 -1.0202 -1.2219 -1.6497
 6324SOL     OW30430   2.496   4.525  16.037  0.3251  0.1204 -0.3306
 6324SOL    HW130431   2.460   4.443  16.003 -0.5212 -0.2489  1.4596
 6324SOL    HW230432   2.429   4.546  16.103 -1.6778  0.9295 -2.6344
 6325SOL     OW30433   1.106   3.004  12.552 -0.0804  0.2264 -0.1260
 6325SOL    HW130434   1.075   2.996  12.462  1.5485  1.4613 -0.7796
 6325SOL    HW230435   1.113   2.910  12.570 -1.4372 -0.2374 -2.0641
 6326SOL     OW30436   4.700   1.259   8.172 -0.3592 -1.1261  0.6083
 6326SOL    HW130437   4.613   1.250   8.211  0.6473  2.8417  3.8539
 6326SOL    HW230438   4.690   1.209   8.091 -0.2109  1.0457 -0.7410
 6327SOL     OW30439   3.022   4.569   4.640  0.6228 -0.0422  0.0576
 6327SOL    HW130440   3.051   4.659   4.653 -2.1460  0.7314  0.8397
 6327SOL    HW230441   3.026   4.542   4.732 -2.6773 -0.7849 -0.0438
 6328SOL     OW30442   0.221   3.620   4.004 -0.2635  0.0224 -0.0100
 6328SOL    HW130443   0.260   3.561   4.068  0.6328  0.9059  0.2497
 6328SOL    HW230444   0.288   3.685   3.985 -1.1756  0.1513 -2.9262
 6329SOL     OW30445   2.690   1.669   7.314  0.6182 -0.1057  0.3913
 6329SOL    HW130446   2.748   1.600   7.347  1.3761 -0.2379 -1.2253
 6329SOL    HW230447   2.752   1.742   7.321  1.4308 -0.7440 -0.2591
 6330SOL     OW30448   4.318   3.736  13.750  0.5336  0.0764 -0.1438
 6330SOL    HW130449   4.405   3.764  13.780  1.2448 -1.7060 -0.5415
 6330SOL    HW230450   4.246   3.790  13.782  1.3304  1.9468 -1.4706
 6331SOL     OW30451   3.491   3.398   0.973 -0.6991 -0.3330 -0.3131
 6331SOL    HW130452   3.418   3.359   0.925 -1.9531  1.9408 -0.2288
 6331SOL    HW230453   3.553   3.325   0.966  1.0985  1.0414  1.5471
 6332SOL     OW30454   3.618   3.905   2.644  0.1807 -0.0818 -0.2917
 6332SOL    HW130455   3.639   3.994   2.676 -2.0869  0.4693 -0.3739
 6332SOL    HW230456   3.647   3.899   2.553  2.6226  0.4781  0.4406
 6333SOL     OW30457   1.675   1.679  16.960 -0.8248 -0.0100 -0.4161
 6333SOL    HW130458   1.627   1.727  16.892 -0.6508  0.6922 -0.0519
 6333SOL    HW230459   1.652   1.719  17.044  1.0055 -1.2960  0.7050
 6334SOL     OW30460   2.997   3.470   5.663 -0.5096 -0.0976  0.8470
 6334SOL    HW130461   2.930   3.525   5.624 -1.9692 -1.9717  0.7200
 6334SOL    HW230462   3.064   3.539   5.656 -0.0548 -0.7011 -0.7566
 6335SOL     OW30463   3.584   4.228   1.414 -0.1323  0.2089  0.1646
 6335SOL    HW130464   3.517   4.296   1.424  0.2493  0.4816  0.8442
 6335SOL    HW230465   3.544   4.158   1.362  2.5624 -0.9618 -0.3289
 6336SOL     OW30466   2.429   1.614   9.924  0.8667 -0.0290  0.1976
 6336SOL    HW130467   2.473   1.616   9.839  0.5858 -2.0504  0.0059
 6336SOL    HW230468   2.468   1.539   9.969  0.3412  0.3795  1.3422
 6337SOL     OW30469   1.053   1.709   6.987 -0.7611  0.4394  0.3434
 6337SOL    HW130470   0.989   1.776   6.965  0.2978  0.8745 -1.4304
 6337SOL    HW230471   1.133   1.742   6.946 -0.2246 -0.9909  0.2220
 6338SOL     OW30472   3.834   4.410  12.154  0.0413 -0.0689 -0.0133
 6338SOL    HW130473   3.762   4.384  12.096 -0.6779  1.4106  0.2098
 6338SOL    HW230474   3.897   4.445  12.091 -0.4239  0.9392  0.0816
 6339SOL     OW30475   4.392   3.596  10.706 -0.0688 -0.3310 -0.2550
 6339SOL    HW130476   4.481   3.588  10.671 -0.0066 -2.0099  0.2792
 6339SOL    HW230477   4.383   3.527  10.772  1.3581  0.4119  0.7241
 6340SOL     OW30478   0.164   0.989   5.710  0.1360 -0.3869  0.9274
 6340SOL    HW130479   0.114   0.930   5.654 -0.5554  1.3209 -0.2467
 6340SOL    HW230480   0.209   1.037   5.641 -1.2062 -1.3215 -0.5788
 6341SOL     OW30481   2.067   0.512   8.404  0.8212 -0.1002 -0.5504
 6341SOL    HW130482   2.111   0.435   8.442 -1.9887 -0.5906  1.7512
 6341SOL    HW230483   2.022   0.526   8.487  2.0248  3.5556 -0.5160
 6342SOL     OW30484   2.928   2.099   5.893  0.3576  0.3027 -0.3997
 6342SOL    HW130485   2.870   2.157   5.943  1.5135 -0.0361  1.3402
 6342SOL    HW230486   2.931   2.141   5.807 -1.2205  2.1696  0.4570
 6343SOL     OW30487   4.337   1.209   3.889 -0.4358 -0.1592 -0.4950
 6343SOL    HW130488   4.380   1.145   3.832  0.4710 -0.8838  0.9873
 6343SOL    HW230489   4.367   1.292   3.853  0.6267  0.4444  1.7755
 6344SOL     OW30490   0.655   0.070   9.313  0.2569 -0.1103  0.4974
 6344SOL    HW130491   0.714   0.138   9.344 -1.1731  1.5527 -0.3715
 6344SOL    HW230492   0.685   4.715   9.358  1.1841  0.3020  0.5997
 6345SOL     OW30493   2.716   4.156  16.192 -0.3457 -0.0344  0.4545
 6345SOL    HW130494   2.804   4.118  16.190 -0.7423 -0.9187  0.1745
 6345SOL    HW230495   2.698   4.172  16.100  1.3361 -0.7177  0.0039
 6346SOL     OW30496   2.327   2.090   4.545 -0.4677 -0.2328 -0.1619
 6346SOL    HW130497   2.290   2.048   4.467  1.2019 -2.4346  0.2455
 6346SOL    HW230498   2.407   2.038   4.555 -1.9462 -2.4023  0.3197
 6347SOL     OW30499   2.863   0.637  16.155  0.1622 -0.3719  0.5024
 6347SOL    HW130500   2.787   0.578  16.159 -0.4714  0.2022 -2.6557
 6347SOL    HW230501   2.838   0.705  16.218 -1.2781 -1.3390  0.9662
 6348SOL     OW30502   2.773   2.311   9.524 -0.0599 -0.0119  0.0398
 6348SOL    HW130503   2.845   2.278   9.578  1.4356  0.7585 -1.5068
 6348SOL    HW230504   2.826   2.342   9.452 -0.3072 -0.1101 -0.1836
 6349SOL     OW30505   4.234   4.598   5.864 -0.6465 -0.2764  0.7659
 6349SOL    HW130506   4.323   4.598   5.830 -1.4653  0.5995 -1.3891
 6349SOL    HW230507   4.243   4.661   5.935  0.2502  1.2780 -0.7348
 6350SOL     OW30508   4.461   2.463   6.282  0.1772 -0.8846  0.0716
 6350SOL    HW130509   4.407   2.536   6.312 -0.0403 -0.8525 -0.4022
 6350SOL    HW230510   4.436   2.397   6.346  1.2043 -0.3175  1.0480
 6351SOL     OW30511   2.127   1.900   8.355  0.4168  0.1461 -0.0322
 6351SOL    HW130512   2.137   1.848   8.275  2.6426  1.1838 -0.4326
 6351SOL    HW230513   2.181   1.858   8.422  1.1459 -2.2671 -2.1401
 6352SOL     OW30514   4.467   3.475   5.749  0.5153 -0.3529 -0.3404
 6352SOL    HW130515   4.396   3.494   5.809 -0.0048 -1.5495 -0.5749
 6352SOL    HW230516   4.495   3.387   5.775 -1.7257 -1.1078 -0.5185
 6353SOL     OW30517   2.089   3.239   5.961  0.2755  0.2333 -0.2383
 6353SOL    HW130518   2.062   3.231   5.869 -1.2037  1.6289  0.0774
 6353SOL    HW230519   2.101   3.331   5.983  0.6769 -0.2911  1.6935
 6354SOL     OW30520   4.183   4.132   6.864 -0.2626 -0.5518 -0.3422
 6354SOL    HW130521   4.272   4.122   6.896 -1.3186 -2.3300  2.0911
 6354SOL    HW230522   4.144   4.214   6.895  1.5531  0.9396 -2.0115
 6355SOL     OW30523   1.318   0.686   6.029  0.2645 -0.3077 -0.3871
 6355SOL    HW130524   1.334   0.610   5.973 -0.6989 -0.1038 -0.9475
 6355SOL    HW230525   1.223   0.696   6.039  0.2851 -0.7518  0.2409
 6356SOL     OW30526   1.902   2.602  10.855 -0.7370  0.8522  0.7861
 6356SOL    HW130527   1.977   2.658  10.870  1.2063 -1.8419  1.1996
 6356SOL    HW230528   1.853   2.660  10.796 -0.1678  0.6827  0.1491
 6357SOL     OW30529   2.348   3.708   5.259  0.1063  0.4068  0.5056
 6357SOL    HW130530   2.273   3.675   5.308  0.3266  0.9326  1.2082
 6357SOL    HW230531   2.320   3.795   5.229 -3.8468  0.3365  4.0749
 6358SOL     OW30532   2.962   2.400  11.753  0.2724  0.3511 -0.2571
 6358SOL    HW130533   2.989   2.486  11.786 -1.6500 -0.6113  3.8169
 6358SOL    HW230534   2.882   2.385  11.802  1.2391 -2.3363  0.5483
 6359SOL     OW30535   0.576   4.296   8.041  0.0774  0.0667  0.0637
 6359SOL    HW130536   0.648   4.347   8.078  0.3330 -1.0299  1.0715
 6359SOL    HW230537   0.533   4.261   8.120 -0.4548 -0.0343 -0.2703
 6360SOL     OW30538   1.000   3.088   0.081  0.3112  0.0048 -0.1224
 6360SOL    HW130539   0.955   3.052   0.157 -0.2510 -0.9012 -0.8883
 6360SOL    HW230540   1.091   3.062   0.098 -0.1382 -0.9345  0.7935
 6361SOL     OW30541   3.831   2.282   5.104  0.3462 -0.1447 -0.4294
 6361SOL    HW130542   3.747   2.248   5.073  0.3048  1.0052 -1.5656
 6361SOL    HW230543   3.802   2.303   5.192 -0.1331 -1.0893 -0.3647
 6362SOL     OW30544   2.767   1.892   3.914 -0.4996 -0.1154  0.0115
 6362SOL    HW130545   2.811   1.954   3.973 -2.3140  1.1886 -0.0098
 6362SOL    HW230546   2.798   1.925   3.829  0.7786 -1.8311 -0.1851
 6363SOL     OW30547   3.695   3.242   5.415  0.0311 -0.2877  0.6104
 6363SOL    HW130548   3.635   3.212   5.484  1.2690  0.0023  1.8268
 6363SOL    HW230549   3.695   3.172   5.350  1.3328  1.2911 -1.0653
 6364SOL     OW30550   4.403   2.959   4.027 -0.1174 -0.6518  0.6120
 6364SOL    HW130551   4.426   2.966   3.935 -0.7509  1.5670  0.6228
 6364SOL    HW230552   4.427   3.043   4.066  1.5091 -1.1915  0.7679
 6365SOL     OW30553   2.251   0.977  10.018 -0.1629 -0.0067 -0.3294
 6365SOL    HW130554   2.211   0.952   9.935  0.9810 -0.9184 -0.6055
 6365SOL    HW230555   2.223   1.067  10.032  0.5634  0.4005 -1.5344
 6366SOL     OW30556   2.052   0.384   5.710 -0.6320 -0.6118 -0.1261
 6366SOL    HW130557   2.022   0.345   5.628 -0.5657 -2.0885  0.5569
 6366SOL    HW230558   2.143   0.362   5.725 -0.3142  0.5805 -0.2832
 6367SOL     OW30559   0.791   1.252   5.933  0.3505  0.2101 -0.1915
 6367SOL    HW130560   0.822   1.339   5.960  0.5302  0.2934 -0.6621
 6367SOL    HW230561   0.851   1.199   5.985  0.0075 -1.2270 -1.2647
 6368SOL     OW30562   4.010   4.493   7.731 -0.1658 -0.0824 -0.6688
 6368SOL    HW130563   4.038   4.402   7.744 -0.6491  0.0367  1.2003
 6368SOL    HW230564   3.995   4.522   7.821  2.1209 -1.9179  0.3045
 6369SOL     OW30565   0.578   4.008   8.012 -0.8265  0.5783 -0.1103
 6369SOL    HW130566   0.649   4.017   7.948 -1.2526 -0.2909 -0.7048
 6369SOL    HW230567   0.562   4.099   8.039  0.0651  0.2523  1.5277
 6370SOL     OW30568   4.164   4.633  12.271  0.6256  0.2034 -0.3886
 6370SOL    HW130569   4.086   4.689  12.266  0.4664 -0.0924 -1.1842
 6370SOL    HW230570   4.195   4.658  12.184 -3.1087  1.1115 -1.4531
 6371SOL     OW30571   3.917   3.416   3.045  0.6151 -0.9561  0.7049
 6371SOL    HW130572   3.963   3.445   3.124  0.8113  1.5228 -0.3345
 6371SOL    HW230573   3.961   3.476   2.985 -0.9367 -0.1045  0.4230
 6372SOL     OW30574   3.252   1.140   5.033  0.0048  0.1462 -0.0088
 6372SOL    HW130575   3.298   1.056   5.032 -3.2716 -1.6422  0.2659
 6372SOL    HW230576   3.317   1.202   5.000  0.2592 -0.6333 -0.9975
 6373SOL     OW30577   3.766   3.878   1.368  0.3530 -0.6212 -0.5606
 6373SOL    HW130578   3.848   3.896   1.413 -0.4415  1.6087  0.0127
 6373SOL    HW230579   3.776   3.783   1.362 -2.0600 -0.7334 -2.7260
 6374SOL     OW30580   3.049   1.028   6.874 -0.1084  0.1500  0.0933
 6374SOL    HW130581   2.961   1.003   6.902 -0.3611 -0.6564 -1.4061
 6374SOL    HW230582   3.028   1.047   6.782  0.6807  0.1289 -0.0917
 6375SOL     OW30583   2.511   4.054   2.488 -0.1373  0.2952  0.1503
 6375SOL    HW130584   2.479   4.139   2.458  1.2081  0.6887 -0.1624
 6375SOL    HW230585   2.582   4.032   2.428  0.8789 -0.8579  1.7650
 6376SOL     OW30586   2.572   3.743  10.743 -0.4479 -0.1670 -0.0190
 6376SOL    HW130587   2.568   3.823  10.690 -0.5729 -2.0373 -2.8215
 6376SOL    HW230588   2.494   3.694  10.717 -0.6277  0.0301  0.1489
 6377SOL     OW30589   1.580   1.761   4.768 -0.1924 -0.1746 -0.1933
 6377SOL    HW130590   1.503   1.800   4.809 -0.4696 -1.1012  0.1744
 6377SOL    HW230591   1.589   1.823   4.697  0.5849  4.0207  3.5726
 6378SOL     OW30592   0.539   3.405  15.432 -0.4584  0.3297  0.7700
 6378SOL    HW130593   0.480   3.358  15.373  0.4592 -1.2274  1.0902
 6378SOL    HW230594   0.472   3.460  15.472 -3.8654 -2.1745 -1.4507
 6379SOL     OW30595   2.492   0.845   7.871 -0.6747  0.5153 -0.2526
 6379SOL    HW130596   2.542   0.920   7.904 -0.1501  0.6483 -1.3560
 6379SOL    HW230597   2.528   0.771   7.920 -0.7148  0.9803  0.4760
 6380SOL     OW30598   3.698   3.239   3.069  0.1418  0.7311 -0.2962
 6380SOL    HW130599   3.768   3.186   3.106 -0.0436  1.4996  1.1516
 6380SOL    HW230600   3.745   3.322   3.062  2.4674 -0.3908  2.2739
 6381SOL     OW30601   4.538   3.568  16.195 -0.2837 -0.1557 -0.2633
 6381SOL    HW130602   4.533   3.588  16.102 -2.9332  0.4248  0.0045
 6381SOL    HW230603   4.453   3.524  16.196 -0.2479 -0.2154  0.2123
 6382SOL     OW30604   0.107   3.854   3.631  0.1990  0.1753 -0.2045
 6382SOL    HW130605   0.075   3.782   3.685 -1.9118 -0.4896 -2.3741
 6382SOL    HW230606   0.024   3.878   3.589 -1.0900 -2.4335  0.8720
 6383SOL     OW30607   3.632   0.371   7.332 -0.1187 -0.0739  0.3074
 6383SOL    HW130608   3.650   0.360   7.426  0.3434  1.2870  0.3836
 6383SOL    HW230609   3.680   0.453   7.318  1.0509 -1.5409 -4.1076
 6384SOL     OW30610   2.629   3.913   9.084  0.2662  0.1361 -0.6255
 6384SOL    HW130611   2.597   4.002   9.068  0.4001  0.6191  1.8315
 6384SOL    HW230612   2.565   3.879   9.146 -0.7926  0.8827 -1.3200
 6385SOL     OW30613   3.563   1.185   6.030  0.1538  0.2421 -0.1970
 6385SOL    HW130614   3.482   1.206   6.076 -0.2178 -1.2802 -0.1359
 6385SOL    HW230615   3.552   1.209   5.938 -2.5775 -1.1022 -0.2140
 6386SOL     OW30616   1.402   3.488   1.160  0.2770 -0.2063 -0.0682
 6386SOL    HW130617   1.446   3.544   1.096 -0.1605  1.8952  1.4974
 6386SOL    HW230618   1.422   3.404   1.119  0.0976  0.0042 -0.5969
 6387SOL     OW30619   4.713   2.057   1.866 -0.0432  0.3314 -0.1075
 6387SOL    HW130620   4.620   2.040   1.851  0.0299 -1.1111  1.1816
 6387SOL    HW230621   4.709   2.064   1.961 -0.9318 -1.2273 -0.0321
 6388SOL     OW30622   0.004   2.457   3.655  0.1092 -0.5787  0.2437
 6388SOL    HW130623   4.710   2.525   3.721  0.5368  0.3634 -0.6073
 6388SOL    HW230624   0.100   2.464   3.657  0.0336 -0.3915  2.9391
 6389SOL     OW30625   1.651   4.708   0.951  0.1617  0.0748 -0.0082
 6389SOL    HW130626   1.725   0.023   0.998 -0.4644  1.5233 -0.2026
 6389SOL    HW230627   1.654   0.026   0.865 -1.9948 -0.5290 -0.3866
 6390SOL     OW30628   1.691   4.084   7.268  0.3190 -0.3770  0.4681
 6390SOL    HW130629   1.786   4.098   7.270  0.4933 -1.4497  0.0657
 6390SOL    HW230630   1.671   4.083   7.361 -0.9326  1.0232  0.2076
 6391SOL     OW30631   3.269   4.264  16.491  0.2988  0.3343  0.1581
 6391SOL    HW130632   3.270   4.334  16.556  0.4040 -0.1853  0.7192
 6391SOL    HW230633   3.348   4.280  16.439 -1.2774  0.6909 -2.1245
 6392SOL     OW30634   3.601   3.948   5.011  0.5986  0.2204 -0.3530
 6392SOL    HW130635   3.693   3.943   5.038  0.2617  2.9340  1.2913
 6392SOL    HW230636   3.566   3.920   5.095  1.4728 -1.4818 -0.5545
 6393SOL     OW30637   1.994   0.327   7.799 -0.3781 -0.2494  0.4462
 6393SOL    HW130638   1.981   0.248   7.747 -2.3613  0.3182  0.0715
 6393SOL    HW230639   1.996   0.292   7.888 -0.6735 -1.1862  0.0747
 6394SOL     OW30640   1.235   1.365  16.713  0.6192 -0.5287 -0.0701
 6394SOL    HW130641   1.187   1.291  16.675  1.4662 -0.2532 -1.6735
 6394SOL    HW230642   1.253   1.325  16.798  0.1135 -1.9844 -0.6469
 6395SOL     OW30643   1.585   2.518   4.239  0.2239  0.1900  0.4553
 6395SOL    HW130644   1.561   2.585   4.303  1.2449  0.3561  0.6636
 6395SOL    HW230645   1.673   2.489   4.261 -0.6191 -2.0688  0.8569
 6396SOL     OW30646   3.638   1.836   8.358  0.3192 -0.4585 -0.4439
 6396SOL    HW130647   3.717   1.862   8.309  0.7620  2.8526  2.1043
 6396SOL    HW230648   3.634   1.899   8.429 -0.4146 -0.0482 -0.8505
 6397SOL     OW30649   3.089   0.100   4.700  0.0919  0.6015  0.1894
 6397SOL    HW130650   3.087   0.076   4.792  1.4809 -0.5791 -0.0855
 6397SOL    HW230651   3.079   0.195   4.699 -2.3631  0.3367  0.9320
 6398SOL     OW30652   0.612   1.836   3.942 -0.5359 -0.3535 -0.2554
 6398SOL    HW130653   0.553   1.769   3.977 -0.6547  0.1431  0.4842
 6398SOL    HW230654   0.541   1.901   3.935 -1.2704 -1.1288  0.0136
 6399SOL     OW30655   3.033   4.280   5.382  0.0291  0.1077  0.0137
 6399SOL    HW130656   3.117   4.276   5.428 -0.0675 -0.2738  0.1590
 6399SOL    HW230657   3.061   4.270   5.291 -0.6023  1.0977 -0.2943
 6400SOL     OW30658   4.020   2.018  10.545  0.0450  0.4531  0.1027
 6400SOL    HW130659   4.071   1.941  10.570  0.9652  1.0644  0.0876
 6400SOL    HW230660   4.058   2.033  10.458 -0.9905  1.6558 -0.1481
 6401SOL     OW30661   0.993   4.455  10.217 -0.0647  0.1353 -0.2796
 6401SOL    HW130662   0.989   4.435  10.311  1.4713 -0.6475 -0.3867
 6401SOL    HW230663   1.075   4.419  10.184  0.6754  2.7666 -1.2827
 6402SOL     OW30664   3.408   0.247  10.224  0.4494  0.1408 -0.1274
 6402SOL    HW130665   3.326   0.288  10.250  0.7264  0.1101  0.8177
 6402SOL    HW230666   3.474   0.306  10.261  1.2289  0.4325 -1.9688
 6403SOL     OW30667   4.186   4.652  16.510 -0.5586 -0.2930  0.5341
 6403SOL    HW130668   4.206   4.693  16.594 -0.3989  1.3140 -0.2851
 6403SOL    HW230669   4.272   4.644  16.468 -0.6744  1.4017 -0.0170
 6404SOL     OW30670   2.969   3.031  16.303  0.2806 -0.1884 -0.0304
 6404SOL    HW130671   2.960   2.937  16.289  1.7027 -0.4087  0.5737
 6404SOL    HW230672   3.058   3.036  16.337  0.1625 -0.2731  0.3002
 6405SOL     OW30673   2.794   2.760  16.752  0.2807 -0.4621 -0.6333
 6405SOL    HW130674   2.836   2.744  16.668  2.0224 -0.3769  0.2143
 6405SOL    HW230675   2.706   2.777  16.718 -0.5876 -2.3337  0.7028
 6406SOL     OW30676   0.841   2.594   3.757 -0.2661 -0.4049 -0.6320
 6406SOL    HW130677   0.747   2.578   3.763 -0.2621  0.7329  2.5921
 6406SOL    HW230678   0.878   2.513   3.721  3.2206  1.3163 -0.9369
 6407SOL     OW30679   2.531   0.608   8.050 -0.1470 -0.1138 -0.1190
 6407SOL    HW130680   2.506   0.629   8.140 -0.6735 -4.0280  0.6075
 6407SOL    HW230681   2.445   0.576   8.025 -0.2529  2.0394 -2.5919
 6408SOL     OW30682   0.317   3.699   4.375  0.2436  0.3023 -0.0652
 6408SOL    HW130683   0.243   3.638   4.370 -0.6818  1.3094  1.4938
 6408SOL    HW230684   0.278   3.763   4.435 -1.5284  0.6261 -1.5698
 6409SOL     OW30685   2.719   1.770   3.086  0.5304  0.1472  0.3077
 6409SOL    HW130686   2.745   1.860   3.066  0.7487  0.5076  2.2218
 6409SOL    HW230687   2.627   1.779   3.108  0.1970  0.3027 -1.1482
 6410SOL     OW30688   3.693   2.933   1.685 -0.6271  0.2087 -0.0202
 6410SOL    HW130689   3.610   2.954   1.642 -0.5288 -1.2726 -0.9366
 6410SOL    HW230690   3.681   2.844   1.718  2.9393 -0.0751  0.4812
 6411SOL     OW30691   0.796   1.597  14.021 -0.1298 -0.4103 -0.0021
 6411SOL    HW130692   0.850   1.613  13.944  0.1403 -2.4789 -0.2559
 6411SOL    HW230693   0.804   1.687  14.054  3.2340 -0.7295  0.0253
 6412SOL     OW30694   3.252   3.646   6.391 -0.2224  0.2030 -0.6344
 6412SOL    HW130695   3.281   3.596   6.315 -2.8927  3.0409 -3.5220
 6412SOL    HW230696   3.312   3.721   6.394 -1.8529  1.4993  0.4455
 6413SOL     OW30697   0.643   1.525   8.600  0.0602 -0.0843  0.2298
 6413SOL    HW130698   0.603   1.504   8.685 -0.7805 -3.4528 -0.9876
 6413SOL    HW230699   0.730   1.491   8.619  0.7273  1.1604 -0.7194
 6414SOL     OW30700   2.160   1.910  15.789  0.2794  0.5968 -0.3338
 6414SOL    HW130701   2.156   1.828  15.837 -3.7739 -0.2134 -2.0860
 6414SOL    HW230702   2.160   1.964  15.868 -0.0402 -0.3770  0.3291
 6415SOL     OW30703   2.135   2.187   5.216  0.0928 -0.4413  0.0185
 6415SOL    HW130704   2.217   2.148   5.247  0.6604 -1.2368 -2.4208
 6415SOL    HW230705   2.077   2.167   5.289  0.7379  0.0381  0.6536
 6416SOL     OW30706   3.376   1.597   2.278  0.6102  0.3558  0.0064
 6416SOL    HW130707   3.391   1.566   2.367  1.0696  2.9309  0.8276
 6416SOL    HW230708   3.461   1.601   2.235  1.0454 -0.7928  0.7599
 6417SOL     OW30709   2.504   4.410   2.922 -0.2430  0.0731 -0.0530
 6417SOL    HW130710   2.440   4.452   2.979 -2.6998 -1.0316 -2.0056
 6417SOL    HW230711   2.565   4.484   2.918 -3.1774  2.3399 -3.0321
 6418SOL     OW30712   0.378   3.889   6.886  0.0796 -0.2773  0.1072
 6418SOL    HW130713   0.413   3.876   6.974  1.5316 -1.1874 -0.5992
 6418SOL    HW230714   0.356   3.982   6.888  0.9470 -0.1313  3.8061
 6419SOL     OW30715   4.028   3.458   1.823  0.3528  0.6030  0.6663
 6419SOL    HW130716   4.008   3.458   1.917 -0.0955 -0.7782  0.5681
 6419SOL    HW230717   3.974   3.529   1.791  1.2323  0.7435 -0.4966
 6420SOL     OW30718   3.314   0.075  12.772  0.4429 -0.1380 -0.2679
 6420SOL    HW130719   3.347   0.160  12.742  0.5243 -0.1480 -0.2076
 6420SOL    HW230720   3.390   0.018  12.784  0.6679  0.0009 -1.0167
 6421SOL     OW30721   2.102   4.385  11.661 -0.2464  0.3205  0.0769
 6421SOL    HW130722   2.161   4.432  11.721  0.9095 -1.5982  0.4259
 6421SOL    HW230723   2.058   4.319  11.714 -1.9586  0.9296 -0.6013
 6422SOL     OW30724   0.761   4.371   2.860 -0.5331  0.4553 -0.3560
 6422SOL    HW130725   0.841   4.322   2.879 -1.9651 -1.7951 -0.1978
 6422SOL    HW230726   0.795   4.448   2.815  0.7159 -1.4013 -2.6213
 6423SOL     OW30727   0.864   3.973   9.820  0.0894 -0.3934 -0.0462
 6423SOL    HW130728   0.780   4.014   9.801  0.4990  1.1540  1.4616
 6423SOL    HW230729   0.879   4.022   9.901 -1.0207 -1.5944  0.8803
 6424SOL     OW30730   0.590   3.565   7.415  0.1561  0.6844  0.5790
 6424SOL    HW130731   0.641   3.526   7.344  0.3706  1.2904  0.3994
 6424SOL    HW230732   0.653   3.610   7.471 -0.5448  1.1698  0.9841
 6425SOL     OW30733   3.249   3.333   4.104 -0.3352 -0.0019 -0.0534
 6425SOL    HW130734   3.239   3.422   4.070  0.3236  0.8557  2.0154
 6425SOL    HW230735   3.163   3.306   4.073 -1.0591  0.8619  1.1905
 6426SOL     OW30736   2.708   4.176   3.927  0.4468 -1.1434  0.9016
 6426SOL    HW130737   2.736   4.098   3.975  0.7564 -0.2159  2.2317
 6426SOL    HW230738   2.653   4.221   3.992  0.0751  1.4561 -1.2324
 6427SOL     OW30739   1.617   0.493   1.017 -0.4703  0.1050  0.2552
 6427SOL    HW130740   1.704   0.473   1.050  0.2193  0.1198 -1.5660
 6427SOL    HW230741   1.630   0.464   0.927  0.5096 -2.0493  1.1082
 6428SOL     OW30742   3.057   3.623   2.985  0.4619 -0.4126  0.0060
 6428SOL    HW130743   2.965   3.618   3.009 -0.1697  1.9429 -1.9414
 6428SOL    HW230744   3.088   3.585   3.067  1.6361 -1.4155 -0.9140
 6429SOL     OW30745   3.564   3.447   5.599  0.6664 -0.2943 -0.1134
 6429SOL    HW130746   3.529   3.392   5.669 -0.0931 -0.1354 -0.3767
 6429SOL    HW230747   3.627   3.390   5.556  1.1637 -2.3803  3.3430
 6430SOL     OW30748   0.100   1.144   4.697  0.5079 -0.4447 -0.1841
 6430SOL    HW130749   0.114   1.238   4.692 -1.4332  0.0123  2.9044
 6430SOL    HW230750   0.074   1.138   4.789  3.7861  0.9103  0.8348
 6431SOL     OW30751   4.176   2.003  10.218  0.4591  0.2235  0.7784
 6431SOL    HW130752   4.199   1.912  10.201 -0.5683  0.2649 -0.8274
 6431SOL    HW230753   4.220   2.042  10.142 -0.0904 -1.0184 -0.1726
 6432SOL     OW30754   2.511   1.124   5.298 -0.0411  0.1836 -0.3452
 6432SOL    HW130755   2.575   1.109   5.368 -1.3538  0.8646  0.9987
 6432SOL    HW230756   2.550   1.203   5.259  0.0508  0.0455 -0.5336
 6433SOL     OW30757   4.329   4.123   6.634  0.4268  0.0100 -0.2955
 6433SOL    HW130758   4.283   4.148   6.714 -0.8317  0.3790 -1.1372
 6433SOL    HW230759   4.278   4.044   6.623  2.1759 -0.8328 -2.4657
 6434SOL     OW30760   1.968   3.487   7.778 -0.5923 -1.2579 -0.5127
 6434SOL    HW130761   2.002   3.526   7.858 -1.9064 -0.3627 -0.3911
 6434SOL    HW230762   1.951   3.558   7.715 -0.8608 -0.7956  0.0868
 6435SOL     OW30763   3.776   2.611   0.049  0.2359 -0.0562 -0.0763
 6435SOL    HW130764   3.844   2.548   0.074 -0.8948 -0.9565  0.7594
 6435SOL    HW230765   3.706   2.550   0.026 -0.6593  0.4252  1.4030
 6436SOL     OW30766   2.862   0.988   7.574  0.2571 -0.2116 -0.0142
 6436SOL    HW130767   2.817   0.920   7.524  1.5693 -0.0134 -1.4709
 6436SOL    HW230768   2.878   1.055   7.507 -0.2573  0.8745  0.9506
 6437SOL     OW30769   1.491   1.380   0.532 -0.1289  0.3112 -0.4854
 6437SOL    HW130770   1.561   1.344   0.586 -1.6767  1.3817  2.2156
 6437SOL    HW230771   1.521   1.471   0.533  3.1612 -0.7659 -1.3856
 6438SOL     OW30772   1.225   1.146   2.452  0.0626  0.0840 -0.2477
 6438SOL    HW130773   1.193   1.056   2.458 -0.4169  0.3189  0.6626
 6438SOL    HW230774   1.274   1.144   2.370  1.7327 -0.4103  0.7536
 6439SOL     OW30775   2.700   1.649   2.187 -0.2248  0.0105 -0.4378
 6439SOL    HW130776   2.691   1.744   2.186  2.4019  0.2248 -2.3455
 6439SOL    HW230777   2.770   1.642   2.252  1.7719 -0.2990 -2.6395
 6440SOL     OW30778   3.406   0.872   3.089  0.6465 -0.4950  0.1602
 6440SOL    HW130779   3.410   0.886   3.184 -0.2895 -1.3570  0.3198
 6440SOL    HW230780   3.418   0.777   3.088  1.1178 -0.4198 -2.4128
 6441SOL     OW30781   3.883   3.004   5.210 -0.3333 -0.2854 -0.4435
 6441SOL    HW130782   3.885   2.945   5.285  2.2231 -1.0580 -1.1157
 6441SOL    HW230783   3.968   3.048   5.215 -0.1783 -0.9830  2.9688
 6442SOL     OW30784   1.408   1.754   9.262  0.1566  0.0912  0.5879
 6442SOL    HW130785   1.393   1.849   9.254  1.7281  0.3130  0.2954
 6442SOL    HW230786   1.342   1.718   9.321  0.6389 -0.9833  0.4663
 6443SOL     OW30787   4.232   1.896   1.261 -0.0802  0.5376 -0.0014
 6443SOL    HW130788   4.152   1.932   1.222 -0.5559  0.1630  0.6201
 6443SOL    HW230789   4.273   1.850   1.188  1.7198  0.2205  1.2164
 6444SOL     OW30790   2.597   4.545   6.067 -0.2413  0.3927  0.6097
 6444SOL    HW130791   2.645   4.628   6.063  2.0532 -1.0457 -1.6629
 6444SOL    HW230792   2.507   4.576   6.056  1.3461  3.5936 -3.2453
 6445SOL     OW30793   4.648   1.519   4.249 -0.4597  0.2058 -0.6204
 6445SOL    HW130794   4.665   1.474   4.332  1.1989 -0.2898 -1.2299
 6445SOL    HW230795   4.607   1.450   4.196  0.5920 -1.3068  0.5500
 6446SOL     OW30796   4.724   3.962  16.479  0.0823 -0.2404  0.3248
 6446SOL    HW130797   4.709   3.875  16.442  1.3002  0.1832 -1.1229
 6446SOL    HW230798   4.709   3.945  16.572 -2.0358 -2.6614 -0.4475
 6447SOL     OW30799   0.153   0.876   1.898  0.6424 -0.2351  0.2055
 6447SOL    HW130800   0.062   0.848   1.898 -0.0554  2.0053 -1.7594
 6447SOL    HW230801   0.182   0.847   1.812 -2.5835  0.2434 -1.0234
 6448SOL     OW30802   1.290   0.843   8.597  0.4482 -1.0015  0.0731
 6448SOL    HW130803   1.318   0.906   8.530  4.4716 -1.9976  0.8443
 6448SOL    HW230804   1.343   0.769   8.569 -1.0184 -0.7421 -3.4245
 6449SOL     OW30805   4.548   4.000   0.704 -0.3894  0.3715  0.3342
 6449SOL    HW130806   4.524   4.008   0.611  0.4008  1.2036  0.1949
 6449SOL    HW230807   4.464   4.008   0.748 -0.4275  1.1608  0.1179
 6450SOL     OW30808   3.547   0.962   6.407  0.0721 -0.1892  0.0099
 6450SOL    HW130809   3.543   1.055   6.430 -2.7184 -0.2286 -0.3168
 6450SOL    HW230810   3.638   0.959   6.375  0.0228  2.2633 -0.4136
 6451SOL     OW30811   2.461   0.280  13.369 -0.5359 -0.4041  0.0138
 6451SOL    HW130812   2.400   0.210  13.345 -0.4247 -0.1772 -0.9539
 6451SOL    HW230813   2.408   0.359  13.357 -1.7343 -1.1742  0.2189
 6452SOL     OW30814   0.363   0.182   3.360  0.2052 -0.4223  0.5576
 6452SOL    HW130815   0.343   0.101   3.314 -0.0230  0.3255 -0.6597
 6452SOL    HW230816   0.436   0.215   3.308  0.8889 -0.6607  1.3537
 6453SOL     OW30817   2.363   1.858   3.326 -0.6308  0.5610  0.5031
 6453SOL    HW130818   2.287   1.910   3.353 -2.1762 -0.2763 -2.2522
 6453SOL    HW230819   2.416   1.867   3.405 -0.8636  0.6752  0.6487
 6454SOL     OW30820   3.021   1.713   9.782 -0.2017  0.1180 -0.1355
 6454SOL    HW130821   2.973   1.701   9.864  0.8670  1.1872  0.6520
 6454SOL    HW230822   3.004   1.805   9.762 -1.8316  0.2780  1.9805
 6455SOL     OW30823   1.567   0.062   2.606  0.1360 -0.2540 -0.7640
 6455SOL    HW130824   1.591   4.717   2.544 -1.5858 -1.7836  0.2551
 6455SOL    HW230825   1.625   0.131   2.575 -1.4299  1.2722 -0.3276
 6456SOL     OW30826   1.852   4.235  13.932  0.1467  0.1393 -0.1017
 6456SOL    HW130827   1.809   4.315  13.902 -0.0103 -1.1480 -3.2929
 6456SOL    HW230828   1.885   4.206  13.847  1.9615  0.1793  0.5925
 6457SOL     OW30829   3.746   0.973   6.127  0.5574 -0.0650  0.0223
 6457SOL    HW130830   3.673   1.022   6.088  0.6782 -0.6133 -0.8874
 6457SOL    HW230831   3.819   1.030   6.101  0.6488  0.6406  1.8379
 6458SOL     OW30832   2.543   3.405   3.298  0.7747 -0.0507  0.5085
 6458SOL    HW130833   2.606   3.339   3.268  1.3701  0.3474  0.8729
 6458SOL    HW230834   2.480   3.403   3.226 -2.1070 -0.4687  3.0176
 6459SOL     OW30835   0.891   0.034   7.721  0.1551  0.0552 -0.3781
 6459SOL    HW130836   0.827   0.070   7.783 -0.8664  0.2437 -1.5515
 6459SOL    HW230837   0.890   0.107   7.660  1.2258  0.9792  0.7173
 6460SOL     OW30838   3.531   1.583  10.099  0.4142  0.3442 -0.0442
 6460SOL    HW130839   3.497   1.672  10.110  0.3320  0.1505  1.3258
 6460SOL    HW230840   3.462   1.542  10.152  0.4062 -0.2739 -0.5356
 6461SOL     OW30841   3.080   4.392  10.622 -0.2829  0.3382  0.2915
 6461SOL    HW130842   3.012   4.370  10.686  1.2175 -1.5506  1.2292
 6461SOL    HW230843   3.158   4.351  10.658 -0.6972  0.1987  1.0422
 6462SOL     OW30844   1.921   0.656   5.183  0.2947 -0.1932  0.5795
 6462SOL    HW130845   1.925   0.741   5.140  0.1092 -0.2441  0.4588
 6462SOL    HW230846   1.970   0.603   5.120  1.1802  1.2768  0.0287
 6463SOL     OW30847   4.667   0.347   7.095 -0.3575 -0.6035  0.3987
 6463SOL    HW130848   4.628   0.370   7.011 -2.1501 -0.9909  1.1332
 6463SOL    HW230849   0.025   0.308   7.065  0.2909  0.1174  1.2216
 6464SOL     OW30850   1.139   3.802   3.532  0.0351 -0.3978  0.3560
 6464SOL    HW130851   1.150   3.720   3.485  3.7083 -0.6424  1.6379
 6464SOL    HW230852   1.096   3.844   3.457  1.7195 -1.3242 -1.1409
 6465SOL     OW30853   1.494   0.389   6.132  0.5905  0.8050 -0.1258
 6465SOL    HW130854   1.438   0.464   6.148  1.7623  1.7824 -0.5828
 6465SOL    HW230855   1.498   0.384   6.036  1.6058 -0.3178 -0.0284
 6466SOL     OW30856   0.749   2.158  13.933  0.1067  0.2552  0.4344
 6466SOL    HW130857   0.793   2.090  13.881  3.6047  1.8719  1.3340
 6466SOL    HW230858   0.822   2.196  13.981  1.8730 -1.7142 -0.6644
 6467SOL     OW30859   4.458   1.969   1.405  0.0598  0.2575  0.6716
 6467SOL    HW130860   4.390   1.966   1.338 -1.3163  0.7493  2.0651
 6467SOL    HW230861   4.470   1.877   1.429 -0.6788 -0.0139 -0.0071
 6468SOL     OW30862   0.751   1.027   6.714 -0.1043 -0.0222 -0.6218
 6468SOL    HW130863   0.729   1.106   6.763  0.1979  0.9100 -1.9661
 6468SOL    HW230864   0.801   0.969   6.771 -2.2929 -1.1370  0.1257
 6469SOL     OW30865   4.074   3.236  11.878  0.9276 -0.2762  0.5870
 6469SOL    HW130866   4.028   3.253  11.960  0.4323  0.1565  0.2124
 6469SOL    HW230867   4.117   3.321  11.868  1.6562 -0.6750  0.3366
 6470SOL     OW30868   0.641   1.900   6.870  0.1299  0.0289 -0.0082
 6470SOL    HW130869   0.731   1.928   6.851  0.5156 -2.0938 -1.2528
 6470SOL    HW230870   0.653   1.815   6.912  0.0251  0.1622  0.2913
 6471SOL     OW30871   2.683   4.702   1.456 -0.4300  0.1806 -0.3934
 6471SOL    HW130872   2.732   4.622   1.439  1.2294  0.9363  0.9736
 6471SOL    HW230873   2.745   0.051   1.449 -1.4467  1.2239  1.6012
 6472SOL     OW30874   0.827   1.729   5.513  0.5366  0.2921 -0.2417
 6472SOL    HW130875   0.827   1.666   5.441  0.1069  1.7433 -1.4985
 6472SOL    HW230876   0.813   1.666   5.584  0.0474  1.5025  0.7300
 6473SOL     OW30877   0.184   2.581   2.226  0.2030  0.3104 -0.1317
 6473SOL    HW130878   0.130   2.636   2.169  1.9315  1.5606 -0.5645
 6473SOL    HW230879   0.181   2.496   2.183 -2.5431  0.6637 -0.6899
 6474SOL     OW30880   2.448   4.239   0.589 -0.9830  0.0385  0.3013
 6474SOL    HW130881   2.450   4.240   0.494  1.0907 -0.9121  0.3463
 6474SOL    HW230882   2.444   4.149   0.620  1.2803 -0.7283 -1.6798
 6475SOL     OW30883   1.441   3.909   2.925  0.1178  0.2175 -0.2772
 6475SOL    HW130884   1.401   3.830   2.961  1.2247 -0.0228  0.4307
 6475SOL    HW230885   1.477   3.965   2.993  0.7172  1.1491 -1.3537
 6476SOL     OW30886   0.815   3.494   0.918 -0.4599  0.0095 -0.0401
 6476SOL    HW130887   0.727   3.500   0.957 -0.2865 -2.1120  0.6612
 6476SOL    HW230888   0.848   3.582   0.938 -3.0216  0.8496  0.4952
 6477SOL     OW30889   0.357   3.359  14.238 -0.1699 -0.5236 -0.0375
 6477SOL    HW130890   0.300   3.412  14.293 -2.5570 -2.0812 -1.0151
 6477SOL    HW230891   0.353   3.413  14.159 -0.3802 -0.0948  0.2629
 6478SOL     OW30892   2.215   0.817   7.890  0.1659 -0.4670  0.2076
 6478SOL    HW130893   2.184   0.902   7.922 -0.4222 -0.7372  0.3445
 6478SOL    HW230894   2.307   0.840   7.901  0.5403 -1.8491 -0.0686
 6479SOL     OW30895   4.481   0.208   0.767 -0.4548 -0.5654 -0.6955
 6479SOL    HW130896   4.408   0.155   0.800  0.3603 -1.6664 -0.6396
 6479SOL    HW230897   4.560   0.159   0.793  2.1563  2.8004 -2.3096
 6480SOL     OW30898   1.951   2.276  16.473  0.4348 -0.1065 -0.1022
 6480SOL    HW130899   1.900   2.317  16.404 -0.3682  1.9802  1.7345
 6480SOL    HW230900   2.028   2.332  16.482 -0.3522  0.9285  0.0566
 6481SOL     OW30901   0.398   0.735  10.830  0.2171  0.3370  0.1330
 6481SOL    HW130902   0.382   0.741  10.924 -2.4726  2.0979 -0.4053
 6481SOL    HW230903   0.488   0.767  10.827 -0.0668  1.3710  2.5111
 6482SOL     OW30904   3.293   1.228   2.618 -1.0359 -0.4926  0.0626
 6482SOL    HW130905   3.365   1.195   2.564 -0.6653 -0.5770  0.6093
 6482SOL    HW230906   3.341   1.292   2.671 -1.4714  1.6412 -2.1132
 6483SOL     OW30907   1.929   3.263   1.213 -0.1459  0.1960 -0.0275
 6483SOL    HW130908   2.022   3.241   1.212 -0.0865  0.4610 -0.3941
 6483SOL    HW230909   1.914   3.274   1.307 -1.5352 -0.1560 -0.1971
 6484SOL     OW30910   4.516   3.821   3.422  0.1668  0.3122  0.0043
 6484SOL    HW130911   4.541   3.909   3.451  2.1312 -0.4799  0.6960
 6484SOL    HW230912   4.586   3.814   3.357  0.1622  0.6776 -0.0409
 6485SOL     OW30913   1.622   0.467   7.562  0.4277 -0.4417  0.0305
 6485SOL    HW130914   1.544   0.516   7.588  0.6642 -0.6179  1.0708
 6485SOL    HW230915   1.603   0.422   7.480  0.8386  1.1009 -0.8887
 6486SOL     OW30916   2.866   2.627   6.486 -0.1697 -0.7074  0.0208
 6486SOL    HW130917   2.771   2.634   6.497 -0.0515  0.8929 -0.0422
 6486SOL    HW230918   2.900   2.649   6.572 -0.1733  0.0358 -0.1700
 6487SOL     OW30919   0.313   0.206   7.533  0.2090  0.1556  0.2488
 6487SOL    HW130920   0.283   0.120   7.561  1.3144 -1.2419 -2.8387
 6487SOL    HW230921   0.329   0.243   7.620 -0.6894 -0.5495  0.7140
 6488SOL     OW30922   1.995   1.609   7.664 -0.0591 -0.3412  0.1881
 6488SOL    HW130923   1.901   1.599   7.655  0.1418 -1.5938 -0.4957
 6488SOL    HW230924   1.999   1.581   7.756 -1.2919  0.2711  0.4377
 6489SOL     OW30925   4.594   2.326  12.634  0.1819 -0.7453  0.3485
 6489SOL    HW130926   4.537   2.305  12.559 -1.1123  1.2732  0.7798
 6489SOL    HW230927   4.525   2.327  12.701 -1.1073 -0.7300 -0.9622
 6490SOL     OW30928   4.476   2.587   5.091 -0.7857 -0.3058  0.4803
 6490SOL    HW130929   4.533   2.535   5.148 -1.1201 -0.6037  0.5473
 6490SOL    HW230930   4.437   2.520   5.035  4.0991 -1.5306 -1.5227
 6491SOL     OW30931   1.305   2.561   0.442  0.3493 -0.0505  0.1829
 6491SOL    HW130932   1.331   2.545   0.533  0.4436 -1.1283 -0.0269
 6491SOL    HW230933   1.306   2.468   0.416 -1.2414  0.4828 -1.8412
 6492SOL     OW30934   2.739   3.116   7.678 -0.0804 -0.8941  0.7419
 6492SOL    HW130935   2.753   3.046   7.742  1.5865 -2.3278 -1.1874
 6492SOL    HW230936   2.798   3.083   7.611  0.7223 -0.8066  1.4053
 6493SOL     OW30937   0.818   1.600   4.587 -0.0053 -0.3778 -0.2630
 6493SOL    HW130938   0.887   1.542   4.620  1.0100 -0.4112 -2.4576
 6493SOL    HW230939   0.860   1.630   4.506  1.4255 -0.0884  0.5770
 6494SOL     OW30940   4.377   0.884   3.848 -0.0973  0.0920 -0.3910
 6494SOL    HW130941   4.462   0.862   3.810 -0.0527 -0.6863  0.1645
 6494SOL    HW230942   4.327   0.919   3.773 -0.8036 -0.3499 -0.1273
 6495SOL     OW30943   2.752   1.126  15.002 -0.1277  0.2579  0.1010
 6495SOL    HW130944   2.700   1.154  15.076 -0.2637  1.0327 -0.2888
 6495SOL    HW230945   2.826   1.186  15.012  0.5008 -0.5105  0.1372
 6496SOL     OW30946   1.536   2.054  16.163 -0.0591  0.0821 -0.1312
 6496SOL    HW130947   1.481   2.085  16.091  0.4590 -0.9648 -0.9766
 6496SOL    HW230948   1.553   2.130  16.220  0.2359  0.7423 -1.0968
 6497SOL     OW30949   4.591   0.277   0.170 -0.2595 -0.3824 -0.2722
 6497SOL    HW130950   4.635   0.192   0.166  0.1222 -0.0992 -2.0347
 6497SOL    HW230951   4.512   0.253   0.217  0.0594 -1.0530 -0.0791
 6498SOL     OW30952   2.810   0.700   0.121  0.6432 -0.4038 -0.1570
 6498SOL    HW130953   2.762   0.714   0.039  0.6463  3.3429  0.4630
 6498SOL    HW230954   2.884   0.759   0.108 -1.4858  1.5075 -3.7159
 6499SOL     OW30955   3.799   2.571   4.427 -0.2437  0.2516  0.1177
 6499SOL    HW130956   3.893   2.585   4.441  0.2752  0.0381 -3.1423
 6499SOL    HW230957   3.769   2.519   4.501 -0.7941  0.5937  0.1310
 6500SOL     OW30958   1.398   1.070   1.846 -0.4095  0.4316  0.1350
 6500SOL    HW130959   1.354   1.154   1.842 -0.4748  0.3417 -1.0057
 6500SOL    HW230960   1.486   1.094   1.875  0.6288 -1.4906 -1.4707
 6501SOL     OW30961   1.187   0.533   4.367  0.0445 -0.4682 -0.1870
 6501SOL    HW130962   1.128   0.477   4.417  0.7637 -1.2746 -0.2387
 6501SOL    HW230963   1.145   0.619   4.374 -0.5614 -0.7106 -0.8088
 6502SOL     OW30964   2.368   3.973   7.247  0.0290 -0.3298  0.2701
 6502SOL    HW130965   2.313   3.917   7.192  2.5001 -0.4628 -2.0612
 6502SOL    HW230966   2.450   3.957   7.199  0.6993 -2.6520  2.1648
 6503SOL     OW30967   4.278   3.641   4.228 -0.2361  0.1108  0.2481
 6503SOL    HW130968   4.285   3.673   4.138 -1.5663  1.4298  0.6076
 6503SOL    HW230969   4.368   3.611   4.246 -0.7333 -0.8519  1.1424
 6504SOL     OW30970   3.264   3.546  14.598 -0.8552  0.0808  0.1124
 6504SOL    HW130971   3.339   3.493  14.572 -0.7791  0.0438  0.4070
 6504SOL    HW230972   3.218   3.472  14.637 -1.2704  0.6024  0.6043
 6505SOL     OW30973   0.273   2.610   5.137 -0.1678  0.0792  0.0971
 6505SOL    HW130974   0.349   2.554   5.124  0.9828  1.0235  2.8732
 6505SOL    HW230975   0.219   2.532   5.150 -0.5317  0.3755  0.3549
 6506SOL     OW30976   3.662   2.126  14.440 -0.4611 -0.1905  0.5968
 6506SOL    HW130977   3.580   2.104  14.485  0.2874 -1.7014  1.1941
 6506SOL    HW230978   3.685   2.046  14.393 -1.2281 -0.4726  0.7057
 6507SOL     OW30979   3.433   2.616   5.197 -0.1213  0.2425  0.6355
 6507SOL    HW130980   3.517   2.585   5.230  1.1082  0.3885 -2.3374
 6507SOL    HW230981   3.419   2.705   5.228 -0.3308  0.5682 -0.3931
 6508SOL     OW30982   4.386   3.759   9.167  0.0836 -0.1999 -0.0182
 6508SOL    HW130983   4.474   3.785   9.139  0.5911 -3.0047 -1.0562
 6508SOL    HW230984   4.388   3.736   9.260  1.2012 -1.7574 -0.4170
 6509SOL     OW30985   2.231   1.197   0.483 -0.1879  0.2433  0.6818
 6509SOL    HW130986   2.270   1.216   0.398  1.0372 -2.3223  0.6729
 6509SOL    HW230987   2.310   1.157   0.519  0.2824 -0.3252 -1.0239
 6510SOL     OW30988   3.951   3.477   4.728  0.3304  0.0374 -0.6032
 6510SOL    HW130989   3.926   3.560   4.770 -0.5640 -0.5386  0.0015
 6510SOL    HW230990   3.903   3.414   4.782 -1.0430  1.5589 -0.0201
 6511SOL     OW30991   3.125   1.438   3.458  0.2101 -0.5932  0.0454
 6511SOL    HW130992   3.189   1.475   3.518  2.5223  0.8765 -3.3496
 6511SOL    HW230993   3.051   1.497   3.470 -0.4483 -1.7312  1.6846
 6512SOL     OW30994   0.075   3.225   0.745  0.3156 -0.0507  0.0739
 6512SOL    HW130995   0.083   3.289   0.816 -0.7570 -0.2202  0.3470
 6512SOL    HW230996   0.143   3.261   0.687  0.3099  1.4033  0.9486
 6513SOL     OW30997   0.615   3.678  10.018  0.3254 -0.3135 -0.2518
 6513SOL    HW130998   0.698   3.631  10.012 -0.7254 -2.2014 -0.2169
 6513SOL    HW230999   0.555   3.605  10.004  0.8217 -0.8405  0.3662
 6514SOL     OW31000   1.717   1.449   3.980 -0.2862  0.9386 -0.3642
 6514SOL    HW131001   1.804   1.427   3.946 -0.7042  0.2795 -1.0022
 6514SOL    HW231002   1.692   1.513   3.914  1.2466  0.8597 -1.0244
 6515SOL     OW31003   3.783   4.621   7.512 -0.3761 -0.8262 -0.0105
 6515SOL    HW131004   3.766   4.580   7.428  0.7380 -1.6028  0.1501
 6515SOL    HW231005   3.874   4.599   7.528  0.1638  1.5868  0.1988
 6516SOL     OW31006   2.482   2.294   9.446  0.1761 -0.0810 -0.0362
 6516SOL    HW131007   2.469   2.321   9.355  2.7709 -0.1092 -0.4253
 6516SOL    HW231008   2.577   2.303   9.458  0.2514  1.6977 -1.9461
 6517SOL     OW31009   0.948   0.282   4.911 -0.2600 -0.0426 -0.5452
 6517SOL    HW131010   0.905   0.342   4.850 -1.5390  0.1362  0.5299
 6517SOL    HW231011   0.887   0.208   4.908 -0.5603  0.2543 -1.9529
 6518SOL     OW31012   2.950   2.541   5.768  0.1543  0.2718 -0.0819
 6518SOL    HW131013   2.962   2.459   5.720 -0.4557 -0.1417  0.4615
 6518SOL    HW231014   2.948   2.509   5.858 -1.0460 -0.6229 -0.4148
 6519SOL     OW31015   2.482   0.769   3.975 -0.3185  0.3330  0.2505
 6519SOL    HW131016   2.393   0.800   3.956  0.1290  1.5138  0.1148
 6519SOL    HW231017   2.502   0.836   4.041 -1.6393  0.9821 -0.0045
 6520SOL     OW31018   0.403   2.681  13.964  0.2430 -0.3010 -0.5857
 6520SOL    HW131019   0.495   2.683  13.940 -0.5578  0.7715 -3.6573
 6520SOL    HW231020   0.410   2.641  14.050 -1.4803  0.1749 -0.2187
 6521SOL     OW31021   0.363   0.744  11.120 -0.0241 -0.3097  0.0632
 6521SOL    HW131022   0.378   0.753  11.215 -0.1277  1.0914 -0.0581
 6521SOL    HW231023   0.271   0.769  11.121  0.1478  0.3271 -1.1111
 6522SOL     OW31024   4.100   0.841  16.762 -0.0952  0.2238 -0.4142
 6522SOL    HW131025   4.154   0.777  16.717  0.5718  0.4230  0.1082
 6522SOL    HW231026   4.029   0.838  16.697 -0.0268  1.1108 -0.5302
 6523SOL     OW31027   4.110   1.022   0.993  0.1633 -0.2919  0.6362
 6523SOL    HW131028   4.030   1.014   0.941 -0.2480 -2.8375  1.6527
 6523SOL    HW231029   4.186   1.014   0.935  1.2695 -1.0679  2.1707
 6524SOL     OW31030   1.017   3.264  13.676 -0.5495  0.7838  0.4313
 6524SOL    HW131031   0.941   3.230  13.629 -0.4636  1.0130  0.1316
 6524SOL    HW231032   1.064   3.183  13.698 -1.0869 -0.7194 -4.0877
 6525SOL     OW31033   0.745   1.865  14.646  0.2792 -0.0300 -0.1441
 6525SOL    HW131034   0.748   1.855  14.741 -0.3321 -0.5030 -0.1758
 6525SOL    HW231035   0.838   1.872  14.625  0.2706  0.9965  0.1800
 6526SOL     OW31036   0.428   2.612   9.036  0.3032 -0.4907  0.0388
 6526SOL    HW131037   0.462   2.611   9.126  2.7923 -1.6299 -0.9099
 6526SOL    HW231038   0.355   2.673   9.044 -1.7935 -2.8564 -1.2729
 6527SOL     OW31039   4.044   3.431   3.322  0.1692 -0.1212 -0.3487
 6527SOL    HW131040   4.109   3.467   3.261  0.5807 -1.6914 -0.8255
 6527SOL    HW231041   4.099   3.418   3.399 -1.0594  3.2555  1.0948
 6528SOL     OW31042   2.015   0.820   1.696 -0.3703  0.4728 -0.2122
 6528SOL    HW131043   2.035   0.742   1.748  1.9166  2.1140  1.3866
 6528SOL    HW231044   2.037   0.790   1.608 -2.7169 -3.5489  0.5710
 6529SOL     OW31045   1.201   0.866  12.167 -0.5786 -0.5537  0.4027
 6529SOL    HW131046   1.212   0.903  12.079 -0.2312 -0.5960  0.4254
 6529SOL    HW231047   1.180   0.941  12.221  1.0704  2.5655 -3.3013
 6530SOL     OW31048   1.689   3.763   6.372 -0.1049  0.4855  0.3858
 6530SOL    HW131049   1.759   3.774   6.437  2.2468  2.5109 -2.5081
 6530SOL    HW231050   1.728   3.786   6.288 -2.6913  1.5226 -0.5283
 6531SOL     OW31051   4.299   4.240   5.215  0.4861 -0.4953 -0.5167
 6531SOL    HW131052   4.388   4.206   5.200  0.6239 -0.2580 -0.2474
 6531SOL    HW231053   4.246   4.195   5.149 -3.1131 -1.0492  2.8056
 6532SOL     OW31054   3.435   2.119   5.212  0.3488  0.0188 -0.3748
 6532SOL    HW131055   3.397   2.148   5.295  0.5211  0.1232 -0.3311
 6532SOL    HW231056   3.387   2.039   5.192 -1.3879  0.1577  3.2564
 6533SOL     OW31057   0.616   4.339   2.370  0.5158 -0.1329 -0.8602
 6533SOL    HW131058   0.561   4.321   2.446  1.1758  1.9541  0.1007
 6533SOL    HW231059   0.608   4.254   2.326  0.1484 -0.7043  0.3125
 6534SOL     OW31060   0.831   0.732   3.409 -0.3149 -0.5297 -0.1665
 6534SOL    HW131061   0.916   0.767   3.436  0.4407 -2.1439 -0.4479
 6534SOL    HW231062   0.837   0.752   3.316 -3.8637  0.9751 -0.0491
 6535SOL     OW31063   0.107   3.242   8.253  0.0351 -0.2479  0.2267
 6535SOL    HW131064   0.024   3.268   8.292 -0.9077 -1.0974 -1.2185
 6535SOL    HW231065   0.137   3.330   8.230  0.2772 -0.4975 -0.4195
 6536SOL     OW31066   0.388   0.387   1.448 -0.7858 -0.0515  1.0306
 6536SOL    HW131067   0.470   0.348   1.417 -0.2169  2.0064 -0.0873
 6536SOL    HW231068   0.419   0.478   1.455  0.0083 -0.1838 -0.6698
 6537SOL     OW31069   1.552   2.849  14.268  0.1336  0.2627 -0.1168
 6537SOL    HW131070   1.515   2.772  14.225 -0.0241 -1.0690  2.4245
 6537SOL    HW231071   1.562   2.904  14.190  0.7550 -0.3832 -0.4889
 6538SOL     OW31072   3.144   2.043   6.280  0.4584  0.1152 -0.9556
 6538SOL    HW131073   3.181   1.996   6.205  0.6937 -0.3240 -0.5619
 6538SOL    HW231074   3.224   2.048   6.334 -0.4471 -1.9333  0.5588
 6539SOL     OW31075   0.059   2.201  17.492  0.9991 -0.3499 -0.2147
 6539SOL    HW131076   0.134   2.149  17.463  1.9755  0.4712  0.8072
 6539SOL    HW231077   0.016   2.228  17.411 -0.4965  0.8401  0.9596
 6540SOL     OW31078   3.717   2.607  14.159  0.3482  0.3639  0.5431
 6540SOL    HW131079   3.784   2.645  14.103  1.2597  1.6082  2.4572
 6540SOL    HW231080   3.687   2.531  14.109  1.9140  0.6657 -0.8500
 6541SOL     OW31081   0.395   0.047  12.905  0.2020  0.4682  0.1822
 6541SOL    HW131082   0.354   0.058  12.991  0.5311 -0.2048  0.4217
 6541SOL    HW231083   0.474   0.098  12.920 -1.0539  2.7105 -0.8531
 6542SOL     OW31084   0.238   0.565   1.928 -0.9500  0.0692  0.2774
 6542SOL    HW131085   0.210   0.478   1.899  0.5711  0.1806 -1.5282
 6542SOL    HW231086   0.280   0.610   1.855 -1.0722 -1.9532 -1.0515
 6543SOL     OW31087   4.067   2.793   9.414 -0.3007 -0.2846 -1.3069
 6543SOL    HW131088   4.000   2.838   9.466 -0.9437 -1.8861 -0.7396
 6543SOL    HW231089   4.143   2.849   9.431 -0.0617 -1.1389  0.4744
 6544SOL     OW31090   1.990   2.571  13.516 -0.4039  0.1166  0.1967
 6544SOL    HW131091   1.920   2.632  13.537 -0.5157 -0.0093  0.1930
 6544SOL    HW231092   1.966   2.491  13.563 -0.1465 -0.9902 -1.5409
 6545SOL     OW31093   1.985   0.333   6.557 -0.2770 -0.0163  0.1316
 6545SOL    HW131094   1.891   0.323   6.545  0.1078 -2.9384 -0.3748
 6545SOL    HW231095   2.002   0.428   6.559  0.2267 -0.1235  0.7311
 6546SOL     OW31096   2.019   0.802  17.662 -0.5567  0.2997  0.2819
 6546SOL    HW131097   2.114   0.791  17.662 -0.4652  1.1017  0.0653
 6546SOL    HW231098   1.996   0.845  17.580 -0.4728 -0.8192 -0.3272
 6547SOL     OW31099   2.676   4.037   1.061 -0.0274 -0.2770  0.0375
 6547SOL    HW131100   2.667   3.974   0.990 -0.5887 -1.8083  1.4630
 6547SOL    HW231101   2.626   4.001   1.134 -1.1881 -0.5082 -0.8688
 6548SOL     OW31102   3.762   3.598   1.857  0.0965 -0.0264 -0.4840
 6548SOL    HW131103   3.703   3.667   1.827 -0.6672  0.3335  1.8254
 6548SOL    HW231104   3.750   3.544   1.779 -1.5481 -1.0913  0.5154
 6549SOL     OW31105   2.123   2.550  12.605  0.0805  0.3929  0.4289
 6549SOL    HW131106   2.101   2.459  12.587  0.6811 -0.3186  3.3383
 6549SOL    HW231107   2.094   2.558  12.696 -0.0500  1.6409  0.2785
 6550SOL     OW31108   3.886   2.315   4.819 -0.3415 -0.1832 -0.0340
 6550SOL    HW131109   3.864   2.351   4.905 -1.5176  1.7774 -1.1721
 6550SOL    HW231110   3.949   2.248   4.846  0.5689  1.3561  1.6787
 6551SOL     OW31111   1.755   4.413   4.104 -0.2724 -0.2495 -0.0958
 6551SOL    HW131112   1.726   4.331   4.064  2.0416 -0.7169 -0.8338
 6551SOL    HW231113   1.850   4.403   4.104 -0.5502 -2.7493 -0.2743
 6552SOL     OW31114   2.941   1.648   6.184  0.1735  0.3258 -0.4420
 6552SOL    HW131115   2.990   1.642   6.102 -2.5544  0.2288 -2.0595
 6552SOL    HW231116   2.878   1.717   6.164  0.0742  0.2617 -0.3517
 6553SOL     OW31117   2.357   2.942   0.793  0.1573  0.0225  0.2732
 6553SOL    HW131118   2.427   2.942   0.727 -3.0168  0.7268 -3.0748
 6553SOL    HW231119   2.283   2.986   0.753 -0.7202  0.9201  2.8885
 6554SOL     OW31120   1.354   1.179   5.929  0.1287  0.5006  0.1880
 6554SOL    HW131121   1.339   1.232   5.852 -0.2027 -1.4094 -1.0622
 6554SOL    HW231122   1.271   1.131   5.931  1.3977 -1.6894  0.8523
 6555SOL     OW31123   2.530   0.867   8.585 -0.5547 -0.1454  0.4661
 6555SOL    HW131124   2.568   0.802   8.644  0.6499 -0.0326 -0.1946
 6555SOL    HW231125   2.528   0.940   8.647  0.8430  0.0248  0.3212
 6556SOL     OW31126   1.565   0.405   4.648  0.1924 -0.0309  0.5025
 6556SOL    HW131127   1.608   0.418   4.563 -0.4677 -0.5386  0.0853
 6556SOL    HW231128   1.644   0.398   4.702  0.0374  0.9720  0.8458
 6557SOL     OW31129   0.683   1.418   2.309 -0.3311  0.3261 -0.2281
 6557SOL    HW131130   0.722   1.334   2.333 -0.5437  0.2113 -0.2890
 6557SOL    HW231131   0.608   1.385   2.260  1.2045 -3.5031 -0.0038
 6558SOL     OW31132   0.190   3.496   5.038  0.0559 -0.6740 -0.0378
 6558SOL    HW131133   0.112   3.553   5.039  1.2081  0.9048  0.6845
 6558SOL    HW231134   0.254   3.547   5.088 -1.0973  0.8391 -0.0795
 6559SOL     OW31135   2.464   0.390   0.674 -0.3060  0.4255 -0.0997
 6559SOL    HW131136   2.410   0.325   0.628  0.8885 -0.4638 -0.2765
 6559SOL    HW231137   2.549   0.350   0.653 -0.1498  1.3033 -1.1613
 6560SOL     OW31138   1.767   1.332   6.671 -0.3825  0.2351 -0.1358
 6560SOL    HW131139   1.842   1.342   6.730 -2.1716 -3.4188  2.7645
 6560SOL    HW231140   1.753   1.239   6.686 -0.3167  0.4818  1.4373
 6561SOL     OW31141   3.924   4.690   7.263 -0.7247  0.3607 -0.3527
 6561SOL    HW131142   3.946   0.052   7.298  2.0969 -0.3595 -0.3843
 6561SOL    HW231143   3.954   4.634   7.335 -0.6604 -1.8413 -2.0710
 6562SOL     OW31144   3.778   4.332   6.558 -0.0151  0.3008 -0.7765
 6562SOL    HW131145   3.843   4.264   6.543  0.4267  0.4489  0.4464
 6562SOL    HW231146   3.807   4.366   6.643 -1.4722 -1.3888  0.3894
 6563SOL     OW31147   3.200   3.334   6.487 -0.6493  0.2494 -0.0078
 6563SOL    HW131148   3.115   3.354   6.447 -0.3172  0.9248 -0.3921
 6563SOL    HW231149   3.177   3.265   6.549  0.4294 -0.7599 -0.7339
 6564SOL     OW31150   3.428   0.095   5.823 -0.5581  0.0254 -0.1764
 6564SOL    HW131151   3.457   0.027   5.884 -1.8819  0.8585  1.3575
 6564SOL    HW231152   3.493   0.080   5.754 -0.7365  1.4333 -0.6523
 6565SOL     OW31153   3.907   0.431   5.019  0.4829 -0.7732  0.2519
 6565SOL    HW131154   3.881   0.515   5.055 -1.5044 -0.4833 -1.8575
 6565SOL    HW231155   3.830   0.375   5.028 -1.4658  1.9106  0.1778
 6566SOL     OW31156   1.000   4.383   5.305  0.4040  0.1726 -0.0365
 6566SOL    HW131157   1.025   4.441   5.233 -1.2188  1.4038  0.3721
 6566SOL    HW231158   1.010   4.447   5.376 -1.7718  1.0417 -0.4936
 6567SOL     OW31159   0.033   1.058   9.996  0.5054 -0.3985  0.2789
 6567SOL    HW131160   4.710   1.039  10.077 -1.2905  2.0792 -0.1981
 6567SOL    HW231161   0.072   1.141  10.025 -1.3903  0.4338  0.4719
 6568SOL     OW31162   0.635   0.817   5.376  0.2618  0.3747 -0.5555
 6568SOL    HW131163   0.570   0.838   5.444 -0.6621 -1.0528 -0.9782
 6568SOL    HW231164   0.717   0.824   5.425 -0.4006 -0.7604  0.7559
 6569SOL     OW31165   1.151   4.285   7.829 -0.1915 -0.4156  0.4619
 6569SOL    HW131166   1.096   4.321   7.759  1.4220  1.3027  0.0700
 6569SOL    HW231167   1.139   4.347   7.900 -1.0574  1.4242 -1.2945
 6570SOL     OW31168   0.178   1.779   5.217 -0.0294 -0.2763 -0.5762
 6570SOL    HW131169   0.188   1.872   5.237 -2.3716  0.0251 -0.8656
 6570SOL    HW231170   0.262   1.732   5.216 -0.4119 -0.9693 -0.3363
 6571SOL     OW31171   4.682   3.064   0.496 -0.1112 -0.5602 -0.1677
 6571SOL    HW131172   4.691   3.128   0.566 -0.2132  0.3743 -1.0128
 6571SOL    HW231173   4.697   2.978   0.537 -0.6558 -0.3031  0.5753
 6572SOL     OW31174   2.201   2.189   9.834  0.2916 -0.2915 -0.0996
 6572SOL    HW131175   2.184   2.213   9.743  0.9180 -1.2056 -0.4598
 6572SOL    HW231176   2.260   2.113   9.825 -0.4771 -1.0369  1.0524
 6573SOL     OW31177   0.848   3.526   2.136 -0.2221 -0.3902  0.3045
 6573SOL    HW131178   0.815   3.596   2.192  0.0210 -0.8645  1.0334
 6573SOL    HW231179   0.935   3.563   2.121 -1.3729  2.2322  0.0774
 6574SOL     OW31180   4.163   2.349  10.916  0.5204  0.2686  0.0169
 6574SOL    HW131181   4.109   2.426  10.898 -0.7884 -0.2991  1.4931
 6574SOL    HW231182   4.116   2.274  10.879 -1.0947  1.0197  0.5562
 6575SOL     OW31183   3.271   2.035   4.257  0.3565  0.0916 -0.3938
 6575SOL    HW131184   3.256   1.958   4.203  0.1924  0.1821 -0.4769
 6575SOL    HW231185   3.200   2.093   4.231  0.4484  0.3955  0.0449
 6576SOL     OW31186   0.739   2.646  15.691 -0.6714  0.3535 -0.2618
 6576SOL    HW131187   0.752   2.700  15.614 -1.7144  0.2880 -0.4868
 6576SOL    HW231188   0.802   2.689  15.749  1.4124  0.8244 -2.8683
 6577SOL     OW31189   1.914   1.057   3.865  0.0065 -0.0727 -0.1985
 6577SOL    HW131190   1.995   1.088   3.905  0.8578  1.6886 -3.2878
 6577SOL    HW231191   1.956   0.982   3.821 -1.0405 -0.2244 -0.9507
 6578SOL     OW31192   2.787   3.066   6.929 -0.3911 -0.2069 -0.6240
 6578SOL    HW131193   2.793   3.012   6.850  0.3215 -1.0283 -0.0106
 6578SOL    HW231194   2.838   3.143   6.903  1.5371 -0.3900  2.4992
 6579SOL     OW31195   1.048   4.651   8.691  0.2709  0.0439 -0.0689
 6579SOL    HW131196   1.014   4.597   8.620 -0.0333  1.3466 -0.9240
 6579SOL    HW231197   0.964   4.695   8.705  1.4222  1.8611  1.1576
 6580SOL     OW31198   2.537   2.854   1.770 -0.4065  0.3601 -0.0317
 6580SOL    HW131199   2.608   2.897   1.723  0.4319 -0.1901  0.7297
 6580SOL    HW231200   2.471   2.852   1.700 -1.5008 -1.1013  1.0338
 6581SOL     OW31201   4.048   0.023   8.092 -0.4664  0.1390 -0.5765
 6581SOL    HW131202   4.013   0.096   8.144  1.3868 -0.3774  1.4129
 6581SOL    HW231203   4.096   4.707   8.165  1.4209  1.6282 -0.9746
 6582SOL     OW31204   1.335   0.269   2.955 -0.2850 -0.2214 -0.3226
 6582SOL    HW131205   1.401   0.211   2.916  0.7978  0.3931  0.6347
 6582SOL    HW231206   1.269   0.202   2.975  0.2351 -0.1234  1.6389
 6583SOL     OW31207   2.834   3.531   2.214  0.3777 -0.1468  0.1984
 6583SOL    HW131208   2.802   3.548   2.125 -0.4638  0.6598  0.6556
 6583SOL    HW231209   2.810   3.439   2.220  1.4659 -0.3619  1.1178
 6584SOL     OW31210   0.900   1.390   8.681 -0.0052  0.0939 -0.2789
 6584SOL    HW131211   0.989   1.394   8.647 -0.2911  1.4549 -0.8755
 6584SOL    HW231212   0.909   1.367   8.774  1.4360 -1.2916 -0.7654
 6585SOL     OW31213   1.331   1.216  16.956 -0.1079  0.1793 -1.0722
 6585SOL    HW131214   1.364   1.279  17.020  0.7020 -0.1254 -1.1941
 6585SOL    HW231215   1.367   1.136  16.994  0.3781  0.7170 -0.4120
 6586SOL     OW31216   2.043   0.614   1.475 -0.3046  0.4949 -0.1231
 6586SOL    HW131217   2.043   0.561   1.396 -1.4272 -1.8045  1.4169
 6586SOL    HW231218   2.098   0.563   1.534  0.1896 -0.5027 -1.4519
 6587SOL     OW31219   3.125   4.399   0.780  0.2120 -0.4318 -1.1344
 6587SOL    HW131220   3.118   4.479   0.832 -0.1697 -1.8737  0.9960
 6587SOL    HW231221   3.219   4.381   0.777  0.2678  0.0921 -2.5115
 6588SOL     OW31222   0.444   2.565  13.638  0.4088 -0.3003  0.1879
 6588SOL    HW131223   0.500   2.574  13.715  1.9480 -0.3554 -0.9205
 6588SOL    HW231224   0.353   2.558  13.667 -0.5658  2.6130 -2.1319
 6589SOL     OW31225   1.351   1.692   5.529  0.0889  0.7684 -0.2208
 6589SOL    HW131226   1.268   1.645   5.534  0.8140 -0.3342  1.6575
 6589SOL    HW231227   1.412   1.618   5.534  0.7456  1.3448  0.3735
 6590SOL     OW31228   2.248   0.785   5.052  0.0530 -0.0654  0.1016
 6590SOL    HW131229   2.235   0.799   5.146  1.3410 -0.6799  0.3742
 6590SOL    HW231230   2.266   0.876   5.031  1.8948 -0.0945  1.5573
 6591SOL     OW31231   0.738   1.327   4.728  0.5174  0.2379  0.0910
 6591SOL    HW131232   0.769   1.400   4.782  1.0143 -0.7204  1.1073
 6591SOL    HW231233   0.811   1.266   4.738  1.7020  1.4948 -0.8872
 6592SOL     OW31234   1.145   0.148   9.773 -0.1629 -0.3313  0.0408
 6592SOL    HW131235   1.142   0.194   9.857  1.1874 -1.0756  0.4985
 6592SOL    HW231236   1.229   0.103   9.782 -0.5809 -0.9009  1.0790
 6593SOL     OW31237   0.766   0.707   3.997 -0.1113  0.4125 -0.5065
 6593SOL    HW131238   0.705   0.646   3.955 -0.5463 -0.1135  0.9038
 6593SOL    HW231239   0.829   0.723   3.927 -0.8192 -1.2227 -1.5264
 6594SOL     OW31240   3.080   0.777   7.700 -0.0604  0.1546  0.1500
 6594SOL    HW131241   3.038   0.847   7.651  0.5235 -1.0773 -2.1118
 6594SOL    HW231242   3.025   0.699   7.690 -2.1807  1.7629 -0.6831
 6595SOL     OW31243   4.580   3.191  16.517 -0.1512 -0.1069  0.6005
 6595SOL    HW131244   4.614   3.245  16.588  0.2877  1.6026 -0.9187
 6595SOL    HW231245   4.640   3.226  16.452  0.7193 -1.7515  0.5179
 6596SOL     OW31246   4.625   2.975  12.255 -0.2082 -0.0585  0.2776
 6596SOL    HW131247   4.707   2.941  12.289 -0.2095 -1.0648 -0.7009
 6596SOL    HW231248   4.580   2.984  12.339 -2.0153  0.0550 -0.7010
 6597SOL     OW31249   0.989   0.805   9.069  0.3218 -0.1200  0.6084
 6597SOL    HW131250   0.905   0.823   9.027  0.8958  2.4201  0.5552
 6597SOL    HW231251   1.008   0.719   9.031  0.8587  0.4415 -0.3839
 6598SOL     OW31252   1.340   3.094   0.976 -0.0018  0.1456  0.0431
 6598SOL    HW131253   1.284   3.149   0.922  1.3909  1.4518 -0.0933
 6598SOL    HW231254   1.391   3.045   0.911  0.5529  0.6703  0.0707
 6599SOL     OW31255   3.815   2.866   7.772  0.0879  0.4443  0.5683
 6599SOL    HW131256   3.838   2.881   7.680  0.1186  0.8658  0.6459
 6599SOL    HW231257   3.723   2.886   7.752  0.4796 -0.5473 -2.2695
 6600SOL     OW31258   2.969   1.178   3.913 -0.7327  0.1564 -0.1366
 6600SOL    HW131259   2.888   1.227   3.922 -1.5629 -0.8460 -2.3554
 6600SOL    HW231260   2.942   1.087   3.903 -1.0387  0.1600  0.6029
 6601SOL     OW31261   0.722   4.700   5.856  0.0550  0.3409 -0.3230
 6601SOL    HW131262   0.758   4.692   5.944 -0.6863 -0.2369 -0.0724
 6601SOL    HW231263   0.635   4.667   5.879  0.8797 -2.6823 -1.5174
 6602SOL     OW31264   2.466   3.876   0.183 -0.4525 -0.1809  0.3768
 6602SOL    HW131265   2.475   3.783   0.205 -0.5987 -0.2007  0.3489
 6602SOL    HW231266   2.500   3.917   0.262  0.7637 -0.3075 -0.0740
 6603SOL     OW31267   1.603   2.862   4.949 -0.1982  0.5895  0.1202
 6603SOL    HW131268   1.545   2.838   4.877 -1.7835  0.6738  1.3738
 6603SOL    HW231269   1.607   2.955   4.926  0.9272 -0.1236 -2.5980
 6604SOL     OW31270   4.667   0.788   2.419  0.4428  0.4179 -0.1310
 6604SOL    HW131271   4.722   0.777   2.341  0.0457  0.5173 -0.4309
 6604SOL    HW231272   4.677   0.883   2.431 -1.3898  0.5278  0.5974
 6605SOL     OW31273   0.529   3.950   3.144  0.4446  0.3577 -0.1636
 6605SOL    HW131274   0.607   4.006   3.142  1.4768 -1.0143  1.4494
 6605SOL    HW231275   0.516   3.959   3.239 -1.0853  2.1613 -0.5418
 6606SOL     OW31276   1.949   2.567   6.804  0.2960 -0.7448  0.2417
 6606SOL    HW131277   1.959   2.555   6.899  0.7288  0.0417  0.2961
 6606SOL    HW231278   1.873   2.623   6.788 -0.0405 -0.5403  2.4848
 6607SOL     OW31279   2.226   1.230   5.428  0.1349 -0.3649 -0.2560
 6607SOL    HW131280   2.154   1.168   5.415 -0.9689  1.1318 -1.4212
 6607SOL    HW231281   2.303   1.175   5.413  0.1141 -0.8621  1.4908
 6608SOL     OW31282   4.298   2.765   5.164  0.2480  0.4456 -0.1332
 6608SOL    HW131283   4.359   2.692   5.153  0.0190 -0.2391  3.1603
 6608SOL    HW231284   4.239   2.748   5.091 -1.1380 -0.2742  1.1560
 6609SOL     OW31285   0.248   2.097  15.729  0.2586 -0.1294 -0.5750
 6609SOL    HW131286   0.221   2.154  15.657 -1.1743 -0.4360 -0.2807
 6609SOL    HW231287   0.181   2.123  15.793 -0.8424 -2.0441 -0.9612
 6610SOL     OW31288   3.879   3.999   8.367  0.0993  0.3595 -0.0288
 6610SOL    HW131289   3.951   3.995   8.430 -0.2695  2.1337  0.5022
 6610SOL    HW231290   3.897   3.921   8.314 -2.3987  0.7503 -1.4375
 6611SOL     OW31291   0.510   0.604   4.160  0.2687 -0.0509  0.2257
 6611SOL    HW131292   0.572   0.645   4.100  0.3276  1.4923  1.3307
 6611SOL    HW231293   0.514   0.511   4.142 -1.2550 -0.0214 -0.2990
 6612SOL     OW31294   1.003   2.569   6.586 -0.2644  0.2462 -0.5633
 6612SOL    HW131295   1.031   2.548   6.676  0.0338 -1.4462 -1.0543
 6612SOL    HW231296   0.918   2.609   6.603  1.0073  1.5627  2.6812
 6613SOL     OW31297   1.256   3.808   4.323  0.1027 -0.1434  0.7261
 6613SOL    HW131298   1.313   3.733   4.307  2.8299  2.2337 -0.6780
 6613SOL    HW231299   1.183   3.797   4.262  0.8595 -1.7729  0.0955
 6614SOL     OW31300   0.636   2.616  10.798  0.2456  0.4168  0.2309
 6614SOL    HW131301   0.708   2.631  10.860  1.3651 -0.1360 -0.9390
 6614SOL    HW231302   0.564   2.648  10.852 -0.3490  0.9359 -0.8974
 6615SOL     OW31303   0.528   4.706   6.542 -0.0319  0.5830 -0.5467
 6615SOL    HW131304   0.607   0.030   6.567  0.2611  0.5755 -1.4351
 6615SOL    HW231305   0.452   0.015   6.590  0.5415  3.1568 -1.4106
 6616SOL     OW31306   0.130   0.060  11.309 -0.4476  0.0286  0.4261
 6616SOL    HW131307   0.046   0.092  11.276  0.0198 -1.2681 -2.0479
 6616SOL    HW231308   0.167   0.127  11.367  0.2477 -0.9433  1.0925
 6617SOL     OW31309   2.829   4.337   4.191 -0.5078 -0.7589 -0.0637
 6617SOL    HW131310   2.895   4.379   4.247  0.5015  0.2879 -2.0143
 6617SOL    HW231311   2.844   4.397   4.118 -0.7722 -0.1143  0.4093
 6618SOL     OW31312   3.709   2.924   3.802  0.4668  0.2530  0.0643
 6618SOL    HW131313   3.674   2.960   3.720 -1.7784 -3.6483 -0.6893
 6618SOL    HW231314   3.753   2.997   3.845 -1.1417  0.6287  1.0851
 6619SOL     OW31315   0.007   1.424   2.480  0.2149 -0.0371  0.3895
 6619SOL    HW131316   0.042   1.500   2.525  0.7488  0.2008 -0.4192
 6619SOL    HW231317   0.083   1.400   2.427  0.8446  1.1622  0.7389
 6620SOL     OW31318   1.038   1.245   4.270 -0.5199  0.2839  0.4042
 6620SOL    HW131319   0.969   1.252   4.336 -1.0306 -0.5939 -0.0312
 6620SOL    HW231320   1.085   1.329   4.276  1.1652 -0.7491  1.5065
 6621SOL     OW31321   1.168   2.630   8.059  0.1246 -0.4373 -0.2092
 6621SOL    HW131322   1.161   2.600   8.150 -1.6412  2.5610  0.6580
 6621SOL    HW231323   1.237   2.579   8.018 -0.4403 -0.5535 -1.0202
 6622SOL     OW31324   4.625   3.291   0.216  0.6896  0.0461  0.0339
 6622SOL    HW131325   4.576   3.373   0.225 -1.8413 -1.8459  3.3487
 6622SOL    HW231326   4.718   3.312   0.220  0.7594 -0.7258  2.5360
 6623SOL     OW31327   4.344   0.564   9.413 -0.4669  0.2779 -0.1688
 6623SOL    HW131328   4.371   0.629   9.479 -0.7415 -0.2248  0.4412
 6623SOL    HW231329   4.315   0.505   9.483 -0.8323  0.5150 -0.1180
 6624SOL     OW31330   3.314   1.904   1.585  0.1775 -0.1018  0.3343
 6624SOL    HW131331   3.338   1.825   1.536  0.3209  0.0179  0.2120
 6624SOL    HW231332   3.362   1.892   1.666 -0.3154 -2.6303  0.2579
 6625SOL     OW31333   0.822   2.225   8.972 -0.1419  0.4552  0.3202
 6625SOL    HW131334   0.894   2.277   9.007 -0.7141 -0.6387  3.1429
 6625SOL    HW231335   0.750   2.273   9.012  1.3641  1.4953  1.8143
 6626SOL     OW31336   3.510   3.633   1.123  0.1585 -0.0300 -0.4735
 6626SOL    HW131337   3.513   3.576   1.200  1.4685 -0.1833 -0.6454
 6626SOL    HW231338   3.522   3.570   1.052  2.2489 -0.8422  0.6128
 6627SOL     OW31339   3.089   2.734   1.309 -0.2780 -0.1862 -0.2948
 6627SOL    HW131340   3.166   2.681   1.288 -0.2803  0.2643 -1.4758
 6627SOL    HW231341   3.140   2.814   1.319  1.1838 -0.7946 -2.7862
 6628SOL     OW31342   2.999   2.325  11.460 -0.1367 -0.0690  0.7696
 6628SOL    HW131343   3.041   2.239  11.468  1.1274  0.6295  1.5623
 6628SOL    HW231344   2.977   2.349  11.549 -0.7659 -0.2603  0.6678
 6629SOL     OW31345   3.960   3.928   9.121 -0.8021 -0.0910 -0.3419
 6629SOL    HW131346   4.024   3.951   9.054  0.5815 -1.1130  0.6551
 6629SOL    HW231347   4.019   3.873   9.173 -0.5362  0.8327  0.3276
 6630SOL     OW31348   0.700   4.487   4.585 -0.0613  0.2025 -0.5177
 6630SOL    HW131349   0.612   4.450   4.581  0.1871 -0.4939  0.4331
 6630SOL    HW231350   0.685   4.582   4.583 -0.6930  0.1184  0.0049
 6631SOL     OW31351   0.376   3.375   9.143 -0.1735  0.9693 -0.7439
 6631SOL    HW131352   0.354   3.467   9.153 -0.1164  0.7697  1.2609
 6631SOL    HW231353   0.289   3.344   9.118 -0.4683  1.2001 -0.0054
 6632SOL     OW31354   4.646   1.817  16.319  0.2646 -0.3094  0.7211
 6632SOL    HW131355   4.558   1.779  16.318  1.5368 -3.1591 -1.0537
 6632SOL    HW231356   4.685   1.789  16.237  1.0188  0.2495  0.8983
 6633SOL     OW31357   3.114   3.043  11.838  0.4683  0.0252  0.0671
 6633SOL    HW131358   3.119   2.988  11.760 -0.4946 -0.3376  0.2677
 6633SOL    HW231359   3.202   3.035  11.874  0.9984 -0.9425 -1.4212
 6634SOL     OW31360   1.824   3.913   0.369  0.5849  0.0563 -0.2487
 6634SOL    HW131361   1.730   3.913   0.351  0.7015 -2.1794 -0.8862
 6634SOL    HW231362   1.842   4.006   0.356 -0.2796  0.8483  4.3069
 6635SOL     OW31363   1.500   3.807   3.283  0.7478  0.2739  0.0153
 6635SOL    HW131364   1.557   3.824   3.208 -0.5415 -0.6392 -1.1803
 6635SOL    HW231365   1.429   3.869   3.267  0.3888 -0.9766 -3.4272
 6636SOL     OW31366   0.724   4.492   7.419  0.0908 -0.3459  0.1625
 6636SOL    HW131367   0.721   4.426   7.488 -1.5574 -1.4787 -0.9987
 6636SOL    HW231368   0.807   4.537   7.435 -1.0604  1.3271  1.4567
 6637SOL     OW31369   4.297   3.041   8.368 -0.3831 -0.2640 -0.7108
 6637SOL    HW131370   4.258   3.061   8.283  0.7419  3.0378 -0.4626
 6637SOL    HW231371   4.252   2.959   8.387 -0.6380  0.3901  1.5081
 6638SOL     OW31372   2.257   3.503   0.326  0.4487 -0.1259  0.3573
 6638SOL    HW131373   2.178   3.556   0.312  2.2130  3.0356  2.3152
 6638SOL    HW231374   2.310   3.538   0.254  3.7986 -0.6376  2.5592
 6639SOL     OW31375   3.497   0.701   2.447  0.0221 -0.5380 -0.2945
 6639SOL    HW131376   3.512   0.700   2.541  2.4714  1.4155 -0.6535
 6639SOL    HW231377   3.479   0.607   2.435 -0.2116 -0.3142 -1.7285
 6640SOL     OW31378   0.053   0.200   3.363  0.0058  0.0433  0.0058
 6640SOL    HW131379   0.037   0.264   3.433 -1.0815 -0.3265  0.0977
 6640SOL    HW231380   0.148   0.210   3.359  0.1122 -1.1432 -0.2322
 6641SOL     OW31381   2.158   2.298   7.496  0.1250  0.4899  0.1130
 6641SOL    HW131382   2.108   2.223   7.527  0.5489 -0.4043 -1.4027
 6641SOL    HW231383   2.082   2.354   7.515  0.1194  0.1064  1.2447
 6642SOL     OW31384   2.367   0.341   4.654  0.0558 -0.0896  0.1315
 6642SOL    HW131385   2.447   0.300   4.621 -0.3340 -1.0455  0.3907
 6642SOL    HW231386   2.301   0.272   4.649  0.7496 -0.6179 -1.7573
 6643SOL     OW31387   3.767   3.294   4.837  0.1055 -0.1427 -0.1972
 6643SOL    HW131388   3.739   3.219   4.786  0.5250  0.9310 -2.0023
 6643SOL    HW231389   3.680   3.303   4.876 -1.0767 -2.3810 -2.3862
 6644SOL     OW31390   0.410   2.073  11.664  0.1875  0.1046  0.1971
 6644SOL    HW131391   0.490   2.028  11.691 -0.5984 -0.8175  0.9848
 6644SOL    HW231392   0.347   2.001  11.657 -0.0243  0.3764 -0.6515
 6645SOL     OW31393   2.542   3.333  14.567 -0.3070  0.4943  0.2029
 6645SOL    HW131394   2.629   3.361  14.538 -0.2267 -1.1771 -1.1948
 6645SOL    HW231395   2.554   3.328  14.662  0.2949 -4.8511 -0.1520
 6646SOL     OW31396   4.061   2.074   3.905  0.1002  0.2291 -0.3879
 6646SOL    HW131397   4.057   2.165   3.878 -1.3368  0.4379  0.5060
 6646SOL    HW231398   3.997   2.032   3.848  2.7208 -0.9922 -2.4187
 6647SOL     OW31399   2.235   2.080  15.998 -0.5494  0.6375  1.1608
 6647SOL    HW131400   2.325   2.052  16.013 -0.2808  0.2992 -1.0824
 6647SOL    HW231401   2.221   2.139  16.072 -1.9548  0.2119  1.2387
 6648SOL     OW31402   3.475   1.653  12.086 -0.2134  0.1916 -0.3886
 6648SOL    HW131403   3.389   1.689  12.105 -0.0658  0.7223 -0.7396
 6648SOL    HW231404   3.494   1.683  11.997  0.2734  0.3056 -0.2448
 6649SOL     OW31405   3.399   3.436  13.358  0.3610 -0.8854  0.1627
 6649SOL    HW131406   3.470   3.498  13.340  1.4780 -2.4677 -0.8243
 6649SOL    HW231407   3.393   3.444  13.453 -0.2578 -0.9947  0.1328
 6650SOL     OW31408   0.705   0.991   7.632  0.3346 -0.1609  0.3970
 6650SOL    HW131409   0.716   0.999   7.726 -0.6180  1.5523  0.3630
 6650SOL    HW231410   0.616   1.027   7.629  0.6505  0.5901  0.0175
 6651SOL     OW31411   2.619   2.655   2.523  0.5980  0.0793 -0.5271
 6651SOL    HW131412   2.690   2.647   2.459 -0.3037 -1.9907 -1.2527
 6651SOL    HW231413   2.666   2.644   2.606  0.8961 -0.2484 -0.7398
 6652SOL     OW31414   3.015   0.321   8.491 -0.1787  0.1304  0.0184
 6652SOL    HW131415   3.051   0.236   8.468  0.7658  0.3667  0.5998
 6652SOL    HW231416   2.972   0.298   8.574 -1.0340 -2.9642 -1.3022
 6653SOL     OW31417   0.064   0.153   6.388  0.1366  0.0933  0.0345
 6653SOL    HW131418   0.142   0.209   6.389  0.9450 -0.9812 -1.9222
 6653SOL    HW231419   0.102   0.070   6.357  0.9736  0.3148  0.4693
 6654SOL     OW31420   1.491   0.646   4.926  0.2519  0.7855  0.0125
 6654SOL    HW131421   1.576   0.619   4.960 -0.5877  0.2311  1.6964
 6654SOL    HW231422   1.501   0.610   4.838 -3.1575  1.9686 -0.8626
 6655SOL     OW31423   0.268   1.138   1.317 -0.7275 -0.0461 -0.2272
 6655SOL    HW131424   0.252   1.073   1.385 -1.6447 -1.5138 -1.8455
 6655SOL    HW231425   0.183   1.183   1.324 -0.4227  0.4689  0.1736
 6656SOL     OW31426   2.108   1.177  17.455  0.8373  0.3856  0.1598
 6656SOL    HW131427   2.193   1.132  17.455  0.2556 -0.7049  2.1293
 6656SOL    HW231428   2.135   1.253  17.403 -0.4533  1.4252  1.0115
 6657SOL     OW31429   1.674   0.229   3.440 -0.5478 -0.5477  0.6045
 6657SOL    HW131430   1.734   0.256   3.371 -0.9340  2.3573  1.4337
 6657SOL    HW231431   1.737   0.213   3.510  1.2273 -0.1470 -0.9050
 6658SOL     OW31432   4.555   2.710   1.818  0.0603 -0.4813  0.4396
 6658SOL    HW131433   4.542   2.788   1.872  1.5655 -0.6457  1.0352
 6658SOL    HW231434   4.485   2.703   1.753 -0.3711 -0.7853  0.9376
 6659SOL     OW31435   0.342   2.556   4.778  0.6058 -0.8110  0.4194
 6659SOL    HW131436   0.351   2.649   4.796 -3.6208 -0.3712  0.2253
 6659SOL    HW231437   0.374   2.518   4.860  0.9930  1.8013  1.4806
 6660SOL     OW31438   4.697   0.058   4.676 -0.0059  0.2925 -0.5334
 6660SOL    HW131439   4.708   0.014   4.761  1.8218 -0.1860 -1.0301
 6660SOL    HW231440   0.018   0.142   4.686  2.4594 -1.2443  1.4055
 6661SOL     OW31441   1.081   1.531   2.851  0.1932 -0.3941  0.1054
 6661SOL    HW131442   1.044   1.576   2.774  0.0447 -1.5425 -0.4885
 6661SOL    HW231443   1.165   1.577   2.853  1.0457 -1.8991 -1.3560
 6662SOL     OW31444   3.954   2.466  10.589  0.2343 -0.1540 -0.5085
 6662SOL    HW131445   3.966   2.561  10.584  2.0617 -0.2197  2.7050
 6662SOL    HW231446   3.866   2.464  10.552  0.3832 -0.9244 -0.8083
 6663SOL     OW31447   1.114   1.857   3.160 -0.5001  0.1608 -0.6035
 6663SOL    HW131448   1.124   1.920   3.231  1.3260  1.9443 -2.4730
 6663SOL    HW231449   1.019   1.857   3.152 -0.8926 -1.4153  3.6537
 6664SOL     OW31450   1.102   3.423   6.869  0.2850  0.2447  0.4317
 6664SOL    HW131451   1.096   3.340   6.823 -2.1035 -1.0328  3.0891
 6664SOL    HW231452   1.186   3.414   6.914  1.4774  1.6130 -1.4659
 6665SOL     OW31453   3.413   3.410   7.539 -0.4036 -0.1909  0.4236
 6665SOL    HW131454   3.392   3.367   7.456 -0.5506 -0.0814  0.4065
 6665SOL    HW231455   3.336   3.466   7.539  0.7732  1.4434  0.2453
 6666SOL     OW31456   1.263   0.875   9.872 -0.1772 -0.9919  0.6343
 6666SOL    HW131457   1.357   0.854   9.877 -0.2289 -1.6421 -1.0481
 6666SOL    HW231458   1.265   0.961   9.915 -3.0430  0.1501 -1.5073
 6667SOL     OW31459   1.414   4.480   3.389 -0.7462 -0.5134  0.2969
 6667SOL    HW131460   1.388   4.569   3.413  2.4824  0.4891  0.0919
 6667SOL    HW231461   1.424   4.459   3.482 -2.5473  1.8372  1.0422
 6668SOL     OW31462   4.703   4.675  11.827  0.3214 -0.7303 -0.4835
 6668SOL    HW131463   4.619   4.632  11.841  0.9384 -1.9222 -0.4544
 6668SOL    HW231464   4.666   0.027  11.783  0.6127 -0.8613 -0.9604
 6669SOL     OW31465   1.504   1.317   4.327  0.1720  0.2598  0.5585
 6669SOL    HW131466   1.544   1.247   4.379  0.3148  0.3185  0.5252
 6669SOL    HW231467   1.548   1.385   4.378 -0.9620  0.4320  1.3028
 6670SOL     OW31468   3.796   3.092  14.357  0.2767  0.0476  0.1949
 6670SOL    HW131469   3.704   3.102  14.381 -0.0037  0.0803 -0.9181
 6670SOL    HW231470   3.797   3.108  14.263 -3.4092 -0.7711  0.0288
 6671SOL     OW31471   3.955   1.595   3.775  0.6420 -0.2926 -0.0576
 6671SOL    HW131472   3.860   1.598   3.773  0.6435 -0.3658 -0.2199
 6671SOL    HW231473   3.973   1.615   3.683  1.7655  1.9744  0.6424
 6672SOL     OW31474   1.333   3.599   9.425  0.0838  0.3314 -0.1429
 6672SOL    HW131475   1.327   3.659   9.351  2.4070 -0.1774 -0.7266
 6672SOL    HW231476   1.264   3.627   9.485 -2.0800 -0.3912 -2.2896
 6673SOL     OW31477   1.425   4.213   3.754  0.0235 -0.0841 -0.0972
 6673SOL    HW131478   1.425   4.293   3.701  0.1558 -1.0217 -1.5123
 6673SOL    HW231479   1.361   4.167   3.699  1.1069  0.4482 -1.7995
 6674SOL     OW31480   3.547   0.035   5.486 -0.2487 -0.1068  0.2255
 6674SOL    HW131481   3.580   4.696   5.422  1.3126  0.1014  0.8186
 6674SOL    HW231482   3.457   0.048   5.457 -0.4713 -0.8726  0.5951
 6675SOL     OW31483   4.104   3.530   9.129  0.0973  0.1854 -0.2009
 6675SOL    HW131484   4.039   3.472   9.089  1.4616 -0.3586 -1.6071
 6675SOL    HW231485   4.150   3.468   9.184 -0.0200  0.0360 -0.2706
 6676SOL     OW31486   4.220   0.008   5.004 -0.0335  0.1814  0.0427
 6676SOL    HW131487   4.300   0.014   4.952 -0.9327  3.5784 -0.9840
 6676SOL    HW231488   4.259   0.053   5.079 -0.9821 -1.6906  1.6841
 6677SOL     OW31489   4.305   0.880  17.610  0.3235  0.1539  0.7002
 6677SOL    HW131490   4.234   0.907  17.668  1.4578  3.5629  0.5147
 6677SOL    HW231491   4.262   0.896  17.526  1.2929 -2.2855 -0.2837
 6678SOL     OW31492   2.184   0.115  16.397 -0.0803 -0.1245 -0.5058
 6678SOL    HW131493   2.253   0.174  16.430 -1.7516  1.0573  0.8701
 6678SOL    HW231494   2.173   0.059  16.474 -2.8663  0.0611 -0.7879
 6679SOL     OW31495   4.023   4.551  17.249  0.1446  0.1000 -0.0434
 6679SOL    HW131496   4.043   4.466  17.288 -1.7003 -1.1536 -1.8266
 6679SOL    HW231497   3.937   4.568  17.288  0.1825  0.1959 -0.0021
 6680SOL     OW31498   1.467   1.768   4.281  0.1114 -0.2414  0.0568
 6680SOL    HW131499   1.495   1.806   4.198 -2.4888 -1.1862 -1.2721
 6680SOL    HW231500   1.404   1.701   4.254  0.6129 -1.3282  1.6071
 6681SOL     OW31501   4.311   1.027  16.727 -0.6601  0.1940 -0.0438
 6681SOL    HW131502   4.277   1.021  16.638 -0.6773 -0.2959 -0.0081
 6681SOL    HW231503   4.234   0.985  16.766 -1.8349  1.9519 -0.4946
 6682SOL     OW31504   1.387   2.179   7.033 -0.4425  0.3385  0.4867
 6682SOL    HW131505   1.413   2.199   7.123 -0.9813  0.5444  0.5992
 6682SOL    HW231506   1.450   2.115   6.999 -1.5100 -0.0732 -0.7078
 6683SOL     OW31507   4.565   1.674   9.988  0.2802 -0.2101 -0.7135
 6683SOL    HW131508   4.486   1.626   9.961 -1.0127  2.0594 -0.9811
 6683SOL    HW231509   4.632   1.620   9.946 -0.6035 -1.5778 -0.3792
 6684SOL     OW31510   2.224   0.629   0.579  0.1533  0.5303 -0.1639
 6684SOL    HW131511   2.318   0.644   0.581  0.6558 -2.2518 -2.4149
 6684SOL    HW231512   2.213   0.590   0.492  1.3887  1.4376 -0.7210
 6685SOL     OW31513   3.785   1.862   8.674 -0.3119 -0.5579 -0.1743
 6685SOL    HW131514   3.752   1.944   8.637  1.7367  0.7352  0.8689
 6685SOL    HW231515   3.873   1.858   8.637  0.1104  1.6615  0.5767
 6686SOL     OW31516   2.861   0.926  16.013 -0.5019 -0.7739  0.1477
 6686SOL    HW131517   2.945   0.890  16.041 -1.1597 -1.2299  1.5370
 6686SOL    HW231518   2.839   0.853  15.956  1.7804 -0.2967 -1.3565
 6687SOL     OW31519   0.535   2.438   0.919  0.3646 -0.2490  0.1477
 6687SOL    HW131520   0.559   2.519   0.876  0.8070  0.4110  1.6459
 6687SOL    HW231521   0.537   2.383   0.840 -0.1950 -0.9270  0.5954
 6688SOL     OW31522   4.147   3.904   5.266  0.0545  0.2836 -0.3807
 6688SOL    HW131523   4.098   3.822   5.257 -0.1246  0.3230  0.2499
 6688SOL    HW231524   4.153   3.913   5.361 -1.9353  0.9772 -0.3278
 6689SOL     OW31525   3.030   0.834   8.380  0.0560  0.0568 -0.6300
 6689SOL    HW131526   3.059   0.753   8.423 -0.4161  0.4968  0.5091
 6689SOL    HW231527   3.031   0.895   8.453  0.8386  0.7521 -1.2199
 6690SOL     OW31528   4.687   0.895   7.538  0.2345  0.4078  0.5669
 6690SOL    HW131529   4.666   0.837   7.465 -1.9026 -0.5395  1.9336
 6690SOL    HW231530   4.597   0.903   7.570  0.4662  0.4377  1.2251
 6691SOL     OW31531   1.042   1.722  14.391 -0.3810 -0.1327 -0.4265
 6691SOL    HW131532   1.126   1.677  14.378 -0.0475  1.2184 -3.0818
 6691SOL    HW231533   0.981   1.648  14.388 -0.2331 -0.2012 -2.0029
 6692SOL     OW31534   1.570   3.295   8.371  0.1953 -0.2998  0.0900
 6692SOL    HW131535   1.637   3.341   8.319 -1.5300  1.1689 -0.8578
 6692SOL    HW231536   1.513   3.259   8.303 -0.2127 -1.8058  1.2498
 6693SOL     OW31537   1.253   2.403   4.399  0.9982  0.3082  0.8021
 6693SOL    HW131538   1.305   2.335   4.442 -0.4284 -1.1939  0.1672
 6693SOL    HW231539   1.281   2.396   4.308  1.1072 -0.5483  0.8965
 6694SOL     OW31540   2.578   2.702   7.238  0.2756  0.1129  0.1324
 6694SOL    HW131541   2.672   2.709   7.255  0.3166  0.0684 -0.0686
 6694SOL    HW231542   2.542   2.695   7.326  0.8108 -2.5758  0.1492
 6695SOL     OW31543   0.689   2.766   9.046  0.3960  1.0873  0.0944
 6695SOL    HW131544   0.630   2.778   9.120 -0.0961 -0.2134 -0.0856
 6695SOL    HW231545   0.765   2.812   9.081  1.1712  0.0722 -0.2639
 6696SOL     OW31546   3.033   2.607  11.440 -0.2362 -0.0582 -0.1176
 6696SOL    HW131547   3.014   2.642  11.527  0.6676 -0.1688  0.1199
 6696SOL    HW231548   3.005   2.517  11.449  0.7279 -0.5235 -1.7353
 6697SOL     OW31549   0.506   4.028   7.713  0.2579  0.2137  0.0523
 6697SOL    HW131550   0.593   3.996   7.738  0.6010  1.0965 -0.0444
 6697SOL    HW231551   0.473   3.941   7.689 -0.7530  0.5714  0.1670
 6698SOL     OW31552   0.586   2.925   4.765 -0.6242  0.6712 -0.1186
 6698SOL    HW131553   0.538   2.875   4.831  0.1166  0.4254  0.2300
 6698SOL    HW231554   0.658   2.862   4.766 -1.1561  0.0489 -0.8971
 6699SOL     OW31555   0.143   4.702   6.040 -0.6496  0.0429  0.0429
 6699SOL    HW131556   0.094   0.060   6.041 -0.7798 -0.0452  1.0758
 6699SOL    HW231557   0.156   4.683   6.133 -0.3847  0.6920  0.1348
 6700SOL     OW31558   0.377   2.892   1.802 -0.1356  0.1609  0.1098
 6700SOL    HW131559   0.398   2.827   1.735  1.3573  0.5376  0.2003
 6700SOL    HW231560   0.282   2.887   1.801  0.1392 -3.6006 -2.7596
 6701SOL     OW31561   3.635   2.554   2.895 -0.1038 -0.0000 -0.6298
 6701SOL    HW131562   3.600   2.630   2.850  0.3485  0.8999  0.5250
 6701SOL    HW231563   3.704   2.605   2.937 -2.2654  1.4749  1.1933
 6702SOL     OW31564   1.132   3.406  16.814  0.7550 -0.1556 -0.0155
 6702SOL    HW131565   1.062   3.347  16.786  3.4654 -4.0440  1.4460
 6702SOL    HW231566   1.187   3.393  16.737 -1.3205  1.5054 -1.7750
 6703SOL     OW31567   4.432   4.629   4.652 -0.6518  0.2416 -0.7776
 6703SOL    HW131568   4.518   4.665   4.629 -0.5998  1.2799  1.0428
 6703SOL    HW231569   4.453   4.554   4.709 -2.5796 -0.7785 -1.4135
 6704SOL     OW31570   1.961   3.422   6.205  0.6783 -0.0721  0.4854
 6704SOL    HW131571   1.924   3.392   6.288 -1.1842 -1.4043 -0.8058
 6704SOL    HW231572   1.934   3.346   6.152  1.9340  0.2216 -0.5905
 6705SOL     OW31573   3.113   2.058   5.331 -0.7748 -0.2236 -0.8572
 6705SOL    HW131574   3.167   2.117   5.383 -0.0130 -2.1240  0.4980
 6705SOL    HW231575   3.172   1.983   5.331 -1.5645 -0.8430  1.9437
 6706SOL     OW31576   2.264   2.776   9.023 -0.5170  0.1213  0.2775
 6706SOL    HW131577   2.173   2.806   9.025  0.0395  1.7532  0.6803
 6706SOL    HW231578   2.267   2.767   9.118  1.2250  1.5346  0.3511
 6707SOL     OW31579   0.536   4.682   7.412 -0.5114  1.0347  0.1477
 6707SOL    HW131580   0.598   4.615   7.384 -0.9735  0.7017 -0.0720
 6707SOL    HW231581   0.520   4.653   7.501 -0.2498  1.3987  0.3165
 6708SOL     OW31582   1.961   3.181  11.934 -0.5601 -0.2753  0.0509
 6708SOL    HW131583   1.903   3.145  11.867 -0.7629 -1.0597  0.6543
 6708SOL    HW231584   1.924   3.267  11.955 -1.4775 -0.1427 -2.0862
 6709SOL     OW31585   0.298   0.830   5.385  0.0898 -0.1424  0.3188
 6709SOL    HW131586   0.350   0.755   5.356  0.6700  1.0239 -1.6776
 6709SOL    HW231587   0.334   0.838   5.473  0.1555 -1.0524  0.3701
 6710SOL     OW31588   4.050   3.227   1.677  0.2552  0.8175 -0.0865
 6710SOL    HW131589   4.045   3.303   1.735  0.2873  1.8579 -1.4717
 6710SOL    HW231590   4.069   3.163   1.746 -0.8321  1.4154  0.7691
 6711SOL     OW31591   2.535   2.823  16.731 -0.0614 -0.1313 -0.2698
 6711SOL    HW131592   2.540   2.890  16.662 -1.1032 -0.5248 -0.7336
 6711SOL    HW231593   2.440   2.832  16.734  0.0332  0.4015  0.9933
 6712SOL     OW31594   1.133   0.400   9.596  0.5908 -0.1749  0.5842
 6712SOL    HW131595   1.161   0.415   9.686  1.3118 -1.4773  0.5802
 6712SOL    HW231596   1.177   0.317   9.577  0.6568 -0.1909  0.8096
 6713SOL     OW31597   0.588   2.152   6.190 -0.6453  0.0219  0.2141
 6713SOL    HW131598   0.554   2.157   6.279  0.6442 -1.5578  0.8072
 6713SOL    HW231599   0.682   2.165   6.201 -0.3693 -2.2838  0.5603
 6714SOL     OW31600   0.523   3.751   1.305  0.5277  0.8033 -0.3376
 6714SOL    HW131601   0.534   3.840   1.271 -0.5085  0.6595 -1.0464
 6714SOL    HW231602   0.589   3.696   1.262  1.6323  0.8791  1.2796
 6715SOL     OW31603   0.515   0.567   3.304  0.3139  0.4682 -0.0039
 6715SOL    HW131604   0.582   0.629   3.274 -0.6093  2.0794  1.2956
 6715SOL    HW231605   0.564   0.487   3.287  1.1585  0.3587  3.0565
 6716SOL     OW31606   0.793   2.094   4.753 -0.0233  0.5319  0.1239
 6716SOL    HW131607   0.852   2.084   4.828 -0.3294 -0.0106  0.2940
 6716SOL    HW231608   0.857   2.121   4.688  0.8569  1.0092  1.1930
 6717SOL     OW31609   2.698   2.822  16.400  0.8786  0.4066 -0.4930
 6717SOL    HW131610   2.771   2.802  16.459 -0.1652 -1.5889  0.1226
 6717SOL    HW231611   2.671   2.732  16.383 -2.4550  1.2575  0.2577
 6718SOL     OW31612   2.183   0.858   2.952 -0.3393 -0.0479  0.0684
 6718SOL    HW131613   2.257   0.808   2.987 -0.0505  1.1560  1.1995
 6718SOL    HW231614   2.156   0.801   2.881  0.7010 -0.8968  0.3513
 6719SOL     OW31615   3.946   3.575   2.393  0.0234  0.0540  0.2211
 6719SOL    HW131616   3.851   3.572   2.387 -0.0450  0.5728  1.1184
 6719SOL    HW231617   3.974   3.542   2.307  1.1308  2.6953 -0.4281
 6720SOL     OW31618   2.059   0.104   7.632 -0.5143  0.6158 -0.2094
 6720SOL    HW131619   2.121   0.151   7.576 -0.1704  0.4916  0.0639
 6720SOL    HW231620   2.119   0.057   7.690 -0.2689  2.7781  1.3033
 6721SOL     OW31621   4.708   0.133  16.505 -0.6317 -0.0269 -0.3181
 6721SOL    HW131622   4.722   0.226  16.488 -0.4666 -0.1167 -0.6575
 6721SOL    HW231623   4.627   0.124  16.455 -1.9406 -1.3334  2.0458
 6722SOL     OW31624   4.229   2.071   3.160  0.1722 -0.4162  0.1001
 6722SOL    HW131625   4.232   2.167   3.152 -0.0216 -0.2836  1.6423
 6722SOL    HW231626   4.161   2.056   3.225 -0.9195 -0.5923 -1.0909
 6723SOL     OW31627   1.856   1.667   6.854  0.0759  0.4051 -0.1709
 6723SOL    HW131628   1.804   1.613   6.913 -1.5739  0.8600 -1.2022
 6723SOL    HW231629   1.922   1.705   6.913 -0.4543  1.5167 -0.2898
 6724SOL     OW31630   2.701   4.633   2.576 -0.0989 -0.6694 -0.5031
 6724SOL    HW131631   2.679   4.667   2.663  2.1528  1.2816 -0.7004
 6724SOL    HW231632   2.793   4.660   2.568 -0.0806 -0.0569  1.5836
 6725SOL     OW31633   2.234   1.167  14.180  0.2695 -0.3787  0.0266
 6725SOL    HW131634   2.325   1.167  14.152 -0.4527 -1.7480 -2.3952
 6725SOL    HW231635   2.218   1.261  14.169 -0.7473 -0.7290 -1.5969
 6726SOL     OW31636   3.014   3.272   2.746 -0.4376  0.0762  0.0435
 6726SOL    HW131637   3.096   3.322   2.751 -0.7216  0.5111  0.3889
 6726SOL    HW231638   2.993   3.293   2.654 -0.2476  0.1338  0.0128
 6727SOL     OW31639   3.433   2.447   8.804  0.4087  0.0305  0.3428
 6727SOL    HW131640   3.455   2.499   8.726 -0.0995 -0.0471  0.1409
 6727SOL    HW231641   3.386   2.501   8.868 -0.2045  1.3352 -1.2002
 6728SOL     OW31642   4.100   4.334  14.499 -0.0340 -0.4477  0.2991
 6728SOL    HW131643   4.054   4.308  14.579 -1.4806 -0.7470 -0.6353
 6728SOL    HW231644   4.110   4.429  14.511 -1.0623 -0.1606 -1.1417
 6729SOL     OW31645   2.428   1.407   6.860 -0.3035 -0.3993  0.2619
 6729SOL    HW131646   2.371   1.344   6.815  0.1544 -0.2877 -0.4780
 6729SOL    HW231647   2.450   1.363   6.942  1.9472  0.6031  0.2034
 6730SOL     OW31648   0.617   0.205   9.065  1.5052  0.2127  0.2675
 6730SOL    HW131649   0.620   0.145   9.140  2.7447  1.7826  1.4928
 6730SOL    HW231650   0.706   0.238   9.073  2.0731 -1.2478 -0.0480
 6731SOL     OW31651   2.611   3.658   6.566  0.4831  0.0310  0.0248
 6731SOL    HW131652   2.602   3.563   6.562  0.2731  0.0299  0.4630
 6731SOL    HW231653   2.523   3.689   6.546  0.3976  0.0652  0.4507
 6732SOL     OW31654   2.101   0.860   6.136  0.5124  0.4609  0.1932
 6732SOL    HW131655   2.087   0.765   6.129 -1.4708  0.8274 -0.5670
 6732SOL    HW231656   2.028   0.894   6.187 -0.7029 -1.2933 -0.3509
 6733SOL     OW31657   2.019   1.321  12.067  0.0806  0.1816  0.8412
 6733SOL    HW131658   1.929   1.287  12.065  0.1009  0.3100 -2.2102
 6733SOL    HW231659   2.030   1.346  12.159  1.4839 -0.9371  0.9687
 6734SOL     OW31660   1.236   0.810   4.094  0.0461  0.7447  0.2728
 6734SOL    HW131661   1.319   0.856   4.098  0.3383  0.2992 -0.6663
 6734SOL    HW231662   1.274   0.730   4.059 -1.8162  0.4580 -1.1383
 6735SOL     OW31663   1.461   0.413   1.729  0.2890 -0.1320  0.0448
 6735SOL    HW131664   1.458   0.493   1.676 -1.1056  0.7290  1.4434
 6735SOL    HW231665   1.419   0.360   1.660 -0.1334  1.4744 -0.9272
 6736SOL     OW31666   1.348   2.021   9.306  0.1078 -0.0378 -0.2294
 6736SOL    HW131667   1.304   2.005   9.389 -0.4514  0.8345 -0.3637
 6736SOL    HW231668   1.268   2.050   9.262  0.8639  0.8574 -1.0231
 6737SOL     OW31669   1.800   3.796   2.556  0.5234  0.2719 -0.2819
 6737SOL    HW131670   1.735   3.861   2.582  0.0428 -0.0333 -0.6988
 6737SOL    HW231671   1.735   3.731   2.529  0.9512 -0.7078  1.0646
 6738SOL     OW31672   4.380   1.198   5.670  0.4980 -0.5567 -0.1928
 6738SOL    HW131673   4.475   1.191   5.661  0.8777  2.3085  1.4894
 6738SOL    HW231674   4.369   1.292   5.688  3.7230 -0.5681  1.8526
 6739SOL     OW31675   3.284   0.522   8.321  0.4823 -0.3897  0.1231
 6739SOL    HW131676   3.188   0.523   8.315  0.4313 -0.4625  0.8852
 6739SOL    HW231677   3.281   0.477   8.405 -2.6416 -0.8002 -0.1976
 6740SOL     OW31678   3.473   4.036  13.035 -0.3038  0.1600 -0.1126
 6740SOL    HW131679   3.380   4.054  13.051 -0.5858  0.0468 -1.6248
 6740SOL    HW231680   3.517   4.121  13.044 -0.5094  0.4199 -1.5370
 6741SOL     OW31681   1.960   4.076  12.976 -0.4046 -0.2763  0.5116
 6741SOL    HW131682   2.051   4.089  12.948 -0.2727 -0.8022  0.6929
 6741SOL    HW231683   1.921   4.135  12.912  0.8896 -2.1174 -1.9816
 6742SOL     OW31684   1.559   2.146  10.220 -0.5160 -0.0527 -0.2073
 6742SOL    HW131685   1.513   2.222  10.254  0.6851  0.6152 -0.0770
 6742SOL    HW231686   1.555   2.088  10.296  2.3195  1.8009  1.3471
 6743SOL     OW31687   1.991   4.213   5.422 -0.4680 -0.1562 -0.1767
 6743SOL    HW131688   2.057   4.260   5.473  0.0684 -1.2472  0.1457
 6743SOL    HW231689   2.041   4.133   5.407 -0.5218  0.1353 -1.9317
 6744SOL     OW31690   1.507   4.232   0.353  0.7208 -0.5585 -0.1267
 6744SOL    HW131691   1.461   4.311   0.324  0.3088 -0.4875  0.7302
 6744SOL    HW231692   1.457   4.203   0.428  2.7413 -0.3421  1.3196
 6745SOL     OW31693   2.587   1.218  11.178  0.6240 -0.1572  0.2208
 6745SOL    HW131694   2.505   1.200  11.132 -0.7193  1.5048  1.9444
 6745SOL    HW231695   2.630   1.262  11.106 -0.5375 -2.5662 -1.9623
 6746SOL     OW31696   3.681   0.746   8.003  0.0585  0.1149 -0.4489
 6746SOL    HW131697   3.627   0.797   7.942 -1.9403 -0.1871  1.0950
 6746SOL    HW231698   3.621   0.681   8.039 -1.9004  2.0832 -0.1525
 6747SOL     OW31699   1.801   1.720  15.902 -0.3702 -0.3761  0.6306
 6747SOL    HW131700   1.780   1.707  15.994 -0.4091 -0.9768  0.5405
 6747SOL    HW231701   1.779   1.812  15.891  0.5268 -0.5824 -3.0477
 6748SOL     OW31702   0.004   4.027   1.535  0.5205 -0.9911  0.3089
 6748SOL    HW131703   4.683   4.059   1.457  1.4187  0.2755  0.3277
 6748SOL    HW231704   4.711   4.103   1.591 -1.6109 -1.6778  0.6070
 6749SOL     OW31705   0.510   1.851  14.286 -0.2423 -0.8715 -0.1245
 6749SOL    HW131706   0.455   1.924  14.313  2.3462  0.5477  1.4063
 6749SOL    HW231707   0.447   1.802  14.233 -1.3474  1.5720 -1.0595
 6750SOL     OW31708   0.034   2.423   7.574 -0.3712  0.6948  0.0875
 6750SOL    HW131709   0.088   2.407   7.497 -1.6907  0.7759 -0.8664
 6750SOL    HW231710   0.044   2.341   7.621  0.2289  0.2706 -0.7883
 6751SOL     OW31711   2.214   3.326   7.664 -0.1018 -0.1433  0.6406
 6751SOL    HW131712   2.166   3.274   7.728 -0.2504 -0.0304  0.6221
 6751SOL    HW231713   2.287   3.270   7.636  0.5969  0.9679  0.2188
 6752SOL     OW31714   2.065   0.999  12.963 -0.0761 -0.2921  0.7001
 6752SOL    HW131715   2.044   0.909  12.938  2.9045 -0.2241 -2.0170
 6752SOL    HW231716   2.013   1.006  13.044 -0.6704 -0.7325  0.3603
 6753SOL     OW31717   2.082   3.328   3.771 -0.0311  0.0945 -0.1314
 6753SOL    HW131718   1.991   3.348   3.792  0.1968 -1.0401  1.9497
 6753SOL    HW231719   2.135   3.381   3.830 -0.4360 -1.8796  2.0084
 6754SOL     OW31720   3.508   3.377   2.079 -0.7095 -0.1222 -0.2482
 6754SOL    HW131721   3.447   3.411   2.013  0.2861  0.8179 -0.6858
 6754SOL    HW231722   3.531   3.292   2.042 -0.4426 -0.1381 -0.0406
 6755SOL     OW31723   0.138   0.457   1.522 -0.4125  0.5638 -0.2173
 6755SOL    HW131724   0.228   0.433   1.501 -0.9814 -0.6534 -1.2840
 6755SOL    HW231725   0.111   0.376   1.565  0.4265 -0.2737 -1.2584
 6756SOL     OW31726   0.878   1.678   2.934 -0.3646 -0.2303  0.0849
 6756SOL    HW131727   0.965   1.639   2.931 -0.2974 -0.2148  2.0107
 6756SOL    HW231728   0.875   1.726   2.851  2.4033  0.4485  0.3854
 6757SOL     OW31729   0.744   3.381  16.799  0.5712 -0.5719  0.0089
 6757SOL    HW131730   0.789   3.356  16.718 -0.4359 -0.6066 -0.5331
 6757SOL    HW231731   0.742   3.308  16.862 -0.5153  0.3046  0.9880
 6758SOL     OW31732   2.321   3.584   4.158  0.0639 -0.3423  0.3354
 6758SOL    HW131733   2.317   3.606   4.251 -1.5926 -2.1025  0.6561
 6758SOL    HW231734   2.409   3.545   4.158  0.1614 -0.1038 -1.0760
 6759SOL     OW31735   2.380   1.435  12.912  0.2682 -0.5178 -0.5183
 6759SOL    HW131736   2.285   1.446  12.915  0.4496  1.3630 -1.7817
 6759SOL    HW231737   2.399   1.446  13.005  2.0520 -1.7226 -0.7489
 6760SOL     OW31738   0.296   2.763   6.378 -0.1296 -0.5183  0.2157
 6760SOL    HW131739   0.266   2.841   6.425  2.0788  1.0608 -0.9950
 6760SOL    HW231740   0.226   2.758   6.313  0.2528  1.2952 -0.3432
 6761SOL     OW31741   3.676   1.093   4.949 -0.0836  0.2379  0.5702
 6761SOL    HW131742   3.725   1.090   4.867  0.3287 -0.6096  0.8514
 6761SOL    HW231743   3.601   1.151   4.934 -0.1731 -0.6992 -2.5959
 6762SOL     OW31744   2.882   3.280   4.274 -0.6536 -0.5019  0.4900
 6762SOL    HW131745   2.936   3.325   4.209 -0.1162  0.3969  1.5598
 6762SOL    HW231746   2.877   3.348   4.342 -0.5440 -0.0131  0.0056
 6763SOL     OW31747   1.394   1.252   8.932  0.0066  0.2272  0.0148
 6763SOL    HW131748   1.456   1.230   8.862  0.6647  1.3151  0.2432
 6763SOL    HW231749   1.431   1.338   8.954  0.5609 -0.2485  0.9173
 6764SOL     OW31750   3.309   1.832   8.547  0.7364  0.8297 -0.1416
 6764SOL    HW131751   3.342   1.898   8.487 -1.1046  1.3240 -0.5844
 6764SOL    HW231752   3.300   1.875   8.632  0.6717 -2.0301  1.3147
 6765SOL     OW31753   0.004   2.685   2.060 -0.0525  0.1373  0.6006
 6765SOL    HW131754   4.647   2.634   2.063  1.3466 -2.0876  0.4379
 6765SOL    HW231755   4.683   2.765   2.029  0.1122 -1.1880 -3.1201
 6766SOL     OW31756   4.563   3.662   8.877 -0.2868 -1.0536 -0.3184
 6766SOL    HW131757   4.605   3.591   8.924 -0.0478 -0.2967  0.5945
 6766SOL    HW231758   4.597   3.740   8.920 -0.9418 -1.0273  0.1414
 6767SOL     OW31759   1.956   3.274   1.910 -0.2694  0.0664  0.2915
 6767SOL    HW131760   1.912   3.211   1.967 -0.7142  0.2379  0.1414
 6767SOL    HW231761   1.888   3.296   1.846  0.0806 -1.8059 -0.7069
 6768SOL     OW31762   3.596   4.284   8.763  0.0506 -0.0266  0.7259
 6768SOL    HW131763   3.602   4.379   8.757  0.0484 -0.0036  1.0826
 6768SOL    HW231764   3.576   4.275   8.670 -0.2139  1.5622  0.6410
 6769SOL     OW31765   2.074   3.948  13.603  0.6991 -0.5647  0.1733
 6769SOL    HW131766   2.132   3.963  13.528  0.5349 -1.6041 -0.1520
 6769SOL    HW231767   2.124   3.885  13.655  1.7680 -1.0382 -1.4355
 6770SOL     OW31768   3.438   2.570   6.977 -0.0279  0.1866 -0.1632
 6770SOL    HW131769   3.465   2.488   6.935 -0.8968 -1.4776  2.4810
 6770SOL    HW231770   3.509   2.634   6.976  0.1060  0.0074 -2.6174
 6771SOL     OW31771   4.430   4.595   5.214 -0.2846 -0.1016 -0.2914
 6771SOL    HW131772   4.342   4.558   5.223 -0.8565  1.7064  1.5416
 6771SOL    HW231773   4.406   4.679   5.175  2.1665  0.5384 -0.4120
 6772SOL     OW31774   3.603   1.433   0.370 -0.6001 -0.2125 -0.1551
 6772SOL    HW131775   3.667   1.437   0.440 -0.5427 -1.9674 -0.1299
 6772SOL    HW231776   3.520   1.454   0.412 -1.4821  0.9657 -2.4501
 6773SOL     OW31777   0.816   2.461  12.869 -0.2354  0.6134  0.0572
 6773SOL    HW131778   0.744   2.522  12.884 -0.5800  0.4645 -0.9867
 6773SOL    HW231779   0.868   2.481  12.946 -1.2262 -2.0072  1.3937
 6774SOL     OW31780   1.561   0.397   9.403 -0.2901  0.0179  0.2214
 6774SOL    HW131781   1.503   0.353   9.342  0.5542  0.7589 -1.1356
 6774SOL    HW231782   1.546   0.485   9.367  0.6165 -0.1249 -0.5129
 6775SOL     OW31783   2.937   1.478   9.223  0.1404 -0.5910 -0.5847
 6775SOL    HW131784   3.002   1.537   9.261  0.2222 -1.5059  0.6723
 6775SOL    HW231785   2.932   1.518   9.136 -1.3957  0.4581 -0.0134
 6776SOL     OW31786   3.116   2.870   6.482 -0.6308 -0.0677  0.0526
 6776SOL    HW131787   3.178   2.890   6.412 -0.4208 -0.0819  0.2316
 6776SOL    HW231788   3.152   2.784   6.503 -1.3412 -0.1453  0.9367
 6777SOL     OW31789   3.389   2.693  12.527  0.7317  0.2124  0.1438
 6777SOL    HW131790   3.428   2.776  12.554 -0.3312  0.4930  0.8025
 6777SOL    HW231791   3.458   2.635  12.561 -1.5385 -0.3799  3.7761
 6778SOL     OW31792   0.764   2.562   5.622  0.5439 -1.1102  1.0449
 6778SOL    HW131793   0.765   2.591   5.713  0.6126  2.6864 -0.1956
 6778SOL    HW231794   0.674   2.573   5.593  1.5213  0.9198 -1.2098
 6779SOL     OW31795   4.670   2.090   3.131  0.2971 -0.2969  0.1926
 6779SOL    HW131796   4.694   2.076   3.040  0.9892  0.0718  0.3233
 6779SOL    HW231797   0.008   2.157   3.159  0.0818  0.4012 -0.9945
 6780SOL     OW31798   1.976   1.510   2.627  0.0226  0.3369 -0.1133
 6780SOL    HW131799   2.000   1.420   2.604 -0.0826  1.0428 -3.0377
 6780SOL    HW231800   2.040   1.569   2.587 -1.8304  0.0759 -3.4940
 6781SOL     OW31801   2.182   1.975   5.488  0.2968 -0.4996 -0.1576
 6781SOL    HW131802   2.111   2.036   5.471  1.5128  1.0385  0.3684
 6781SOL    HW231803   2.139   1.898   5.525  0.8066 -0.6257  0.1703
 6782SOL     OW31804   4.400   2.534   5.658  0.4259 -0.4284 -0.0062
 6782SOL    HW131805   4.378   2.474   5.729  1.6312  0.2906  0.9770
 6782SOL    HW231806   4.341   2.509   5.587  0.2444  0.1425 -0.0571
 6783SOL     OW31807   1.015   1.085  11.710 -0.1798 -0.3047 -0.3772
 6783SOL    HW131808   1.108   1.070  11.696 -0.1355 -0.0656 -0.3346
 6783SOL    HW231809   0.989   1.004  11.753  1.6365  0.5246  2.2653
 6784SOL     OW31810   4.295   1.546   9.959  0.0557 -0.3371  0.6866
 6784SOL    HW131811   4.206   1.513   9.973 -0.9213  1.6910 -0.7831
 6784SOL    HW231812   4.290   1.640   9.976 -0.0177 -0.2397  0.1365
 6785SOL     OW31813   3.420   2.851  16.492 -0.0264 -0.3775  0.4237
 6785SOL    HW131814   3.468   2.849  16.409 -1.6492  0.3061 -0.5471
 6785SOL    HW231815   3.489   2.886  16.548  0.2161 -1.5643  0.8601
 6786SOL     OW31816   1.751   2.555   6.001  0.0110  0.5725  0.2200
 6786SOL    HW131817   1.748   2.645   6.032  1.1281  0.4374  0.6831
 6786SOL    HW231818   1.699   2.509   6.066 -1.0938  1.5089 -0.0016
 6787SOL     OW31819   4.159   4.480   5.211 -0.0374  0.1699  0.0629
 6787SOL    HW131820   4.202   4.396   5.224 -1.2147 -0.2985  0.9729
 6787SOL    HW231821   4.073   4.454   5.246 -0.4790  0.6432 -0.6602
 6788SOL     OW31822   2.903   1.224   5.717 -0.0602  0.0369 -0.6297
 6788SOL    HW131823   2.984   1.274   5.718  0.6779 -1.1929  0.9447
 6788SOL    HW231824   2.927   1.150   5.774 -0.7289  1.7458  1.8674
 6789SOL     OW31825   1.423   0.667   4.574 -0.3304 -0.6261  0.3934
 6789SOL    HW131826   1.449   0.580   4.605 -1.7797 -1.1370  0.2056
 6789SOL    HW231827   1.329   0.664   4.554 -0.7467 -0.3297  2.3486
 6790SOL     OW31828   1.776   1.827   4.944  0.3487 -0.3493  0.0513
 6790SOL    HW131829   1.769   1.781   5.028  0.9445  0.5332  0.5898
 6790SOL    HW231830   1.741   1.756   4.890 -0.0225 -0.0326 -0.1157
 6791SOL     OW31831   2.906   0.135  14.012 -0.2305 -0.1134  0.1160
 6791SOL    HW131832   2.939   0.083  13.939 -0.9491  1.2160 -1.1389
 6791SOL    HW231833   2.908   0.220  13.969 -0.8749  0.1241  0.5494
 6792SOL     OW31834   4.276   1.601  15.724  0.3719 -0.3269  0.0200
 6792SOL    HW131835   4.347   1.664  15.723 -1.5560  1.8121 -1.1838
 6792SOL    HW231836   4.210   1.646  15.672  2.7574  3.4111  0.2354
 6793SOL     OW31837   3.039   2.512   2.899 -0.4389  0.5080  0.4405
 6793SOL    HW131838   2.984   2.590   2.893 -0.9318  0.3881  3.2496
 6793SOL    HW231839   3.043   2.488   2.807 -0.0493  1.3651  0.2339
 6794SOL     OW31840   1.765   4.351   6.492  0.1560  0.0310 -0.2454
 6794SOL    HW131841   1.744   4.357   6.398 -0.1983  3.7002  0.0584
 6794SOL    HW231842   1.678   4.320   6.517 -0.0129 -0.8491 -1.8927
 6795SOL     OW31843   2.438   4.712   0.404 -0.0021  0.0647  0.7137
 6795SOL    HW131844   2.365   4.674   0.355  0.6380  0.5973 -0.6526
 6795SOL    HW231845   2.502   4.641   0.406 -0.2525 -0.1881  0.0130
 6796SOL     OW31846   3.888   1.429  11.038 -0.2996  0.3430 -0.1390
 6796SOL    HW131847   3.895   1.524  11.045  1.5947  0.1598  0.3337
 6796SOL    HW231848   3.911   1.412  10.947  1.0851  1.6063 -0.0201
 6797SOL     OW31849   2.303   3.814   1.661  0.1918 -0.1944  0.3621
 6797SOL    HW131850   2.287   3.768   1.743 -1.3203  0.0367  0.1944
 6797SOL    HW231851   2.268   3.754   1.595 -1.8386 -0.1030  1.3876
 6798SOL     OW31852   0.514   4.619  15.210 -0.2585  0.1948  0.0305
 6798SOL    HW131853   0.592   4.675  15.208  0.8228 -1.2839  0.8428
 6798SOL    HW231854   0.551   4.547  15.260 -1.1210 -1.5445 -1.8442
 6799SOL     OW31855   1.979   1.023  10.117  0.3857 -0.0133  0.3080
 6799SOL    HW131856   1.975   0.948  10.176  0.0670 -0.2330  0.0028
 6799SOL    HW231857   2.009   0.966  10.046 -2.7388  1.0364 -1.8567
 6800SOL     OW31858   2.870   2.990   8.412 -0.0991 -0.4450 -0.3302
 6800SOL    HW131859   2.924   2.952   8.343 -0.7008 -3.7272  1.0336
 6800SOL    HW231860   2.856   3.081   8.385  1.7355 -0.5993 -1.7512
 6801SOL     OW31861   0.209   3.248   5.767  0.4765 -0.7844  0.5206
 6801SOL    HW131862   0.285   3.196   5.794 -0.0999 -1.0592  1.5667
 6801SOL    HW231863   0.223   3.317   5.832  0.7203 -1.6984  1.4228
 6802SOL     OW31864   2.784   0.237   1.555 -0.2315 -0.5412  0.0734
 6802SOL    HW131865   2.695   0.270   1.557 -0.2602 -0.4522 -2.3128
 6802SOL    HW231866   2.837   0.303   1.600 -0.0855  1.4129 -2.9420
 6803SOL     OW31867   2.246   3.608   4.820 -0.2470  0.5403 -0.0009
 6803SOL    HW131868   2.191   3.683   4.844 -2.0788 -0.9376  0.3866
 6803SOL    HW231869   2.177   3.565   4.770 -0.5227 -1.0243  1.6892
 6804SOL     OW31870   1.169   2.743  13.097 -0.6273  0.1286 -0.2983
 6804SOL    HW131871   1.117   2.823  13.088 -0.6110  0.3993  2.0724
 6804SOL    HW231872   1.185   2.727  13.004 -0.2610 -1.0260 -0.0384
 6805SOL     OW31873   4.078   4.394   5.773  0.2370 -0.2347  0.3937
 6805SOL    HW131874   4.106   4.476   5.733 -2.6786 -1.3304 -3.8184
 6805SOL    HW231875   4.045   4.427   5.857 -0.7319  0.3761 -0.2350
 6806SOL     OW31876   0.446   2.665  15.350 -0.0688 -0.2764  0.4904
 6806SOL    HW131877   0.410   2.628  15.431 -1.9647 -1.4166 -0.8886
 6806SOL    HW231878   0.373   2.646  15.291 -0.5960 -0.2177  1.1269
 6807SOL     OW31879   3.742   2.745   8.397 -0.4393 -0.0108 -0.2498
 6807SOL    HW131880   3.682   2.815   8.424  0.0191  0.2664  0.0492
 6807SOL    HW231881   3.788   2.732   8.480 -1.9239  0.0579  0.5987
 6808SOL     OW31882   3.978   1.777   4.082  0.0706  0.1894 -0.1568
 6808SOL    HW131883   4.046   1.788   4.015 -0.7421 -0.0832 -1.0353
 6808SOL    HW231884   4.031   1.804   4.157 -0.5862 -0.4545  0.5364
 6809SOL     OW31885   2.546   1.807   8.515 -0.1852  0.3858  0.4143
 6809SOL    HW131886   2.632   1.843   8.493  0.3469 -0.7641  0.6751
 6809SOL    HW231887   2.557   1.752   8.592  3.3443 -0.1173 -0.4389
 6810SOL     OW31888   4.102   0.654   6.233 -0.0046  0.1884 -0.3827
 6810SOL    HW131889   4.100   0.682   6.142  0.4116  0.8524 -0.1811
 6810SOL    HW231890   4.144   0.728   6.276 -3.3098  1.9385 -0.1850
 6811SOL     OW31891   1.815   1.969   7.016  0.0483 -0.5105  0.2302
 6811SOL    HW131892   1.784   1.931   6.934  0.6616  0.0257 -0.2447
 6811SOL    HW231893   1.881   1.904   7.040  2.7159  1.8041 -0.8498
 6812SOL     OW31894   4.096   2.017   7.676  0.2066 -0.0304 -0.2920
 6812SOL    HW131895   4.133   2.022   7.764 -1.9860  2.0457  0.5252
 6812SOL    HW231896   4.069   2.105   7.652  1.0555  0.6477  1.2849
 6813SOL     OW31897   0.523   1.317  17.381 -0.1129  0.0041  0.3319
 6813SOL    HW131898   0.451   1.283  17.329 -0.8764 -0.6505  1.8268
 6813SOL    HW231899   0.509   1.286  17.471  1.1277  0.0651  0.5419
 6814SOL     OW31900   2.497   4.210   5.089 -0.4025  0.2294 -0.2617
 6814SOL    HW131901   2.459   4.174   5.169 -0.7933 -1.2674 -1.1293
 6814SOL    HW231902   2.504   4.301   5.120  0.4258  0.2421 -0.4970
 6815SOL     OW31903   2.055   1.905   1.378  0.1322  0.3254 -0.2500
 6815SOL    HW131904   2.143   1.869   1.369 -0.6340 -1.3548 -0.9012
 6815SOL    HW231905   1.997   1.829   1.384  0.1468  0.5197  2.0702
 6816SOL     OW31906   2.317   1.892   9.717 -0.4208 -0.0471  0.1062
 6816SOL    HW131907   2.360   1.977   9.712 -0.3708  0.0270  1.9886
 6816SOL    HW231908   2.372   1.841   9.656  0.1239  0.4654  0.1730
 6817SOL     OW31909   0.418   2.576  12.717 -0.4132  0.6251 -0.4313
 6817SOL    HW131910   0.335   2.607  12.754 -0.5548 -0.6229  0.3023
 6817SOL    HW231911   0.396   2.482  12.713  2.5951 -0.2088  3.1465
 6818SOL     OW31912   2.247   3.478   6.296 -0.4862  0.0483 -0.3419
 6818SOL    HW131913   2.227   3.498   6.205  0.0467  0.6553 -0.3179
 6818SOL    HW231914   2.165   3.478   6.347  0.1670 -1.2548  0.7242
 6819SOL     OW31915   1.722   1.544   7.073 -0.6352 -0.4920 -0.1190
 6819SOL    HW131916   1.697   1.504   7.156 -0.0527  0.3288  0.4473
 6819SOL    HW231917   1.646   1.599   7.054  0.3508  2.0860  3.4713
 6820SOL     OW31918   0.085   2.933   3.690 -0.2935 -0.3023 -0.7745
 6820SOL    HW131919   0.019   2.990   3.728  1.6637 -0.1506  2.4166
 6820SOL    HW231920   0.036   2.854   3.666 -2.2863  0.3403  1.1784
 6821SOL     OW31921   1.034   2.731  12.581  0.4101  0.6204  0.3449
 6821SOL    HW131922   0.948   2.736  12.539  0.3475 -3.5849 -0.0476
 6821SOL    HW231923   1.085   2.704  12.505 -1.0099  3.0581 -1.4753
 6822SOL     OW31924   3.542   4.066   5.304  1.1835  0.6813 -1.0542
 6822SOL    HW131925   3.491   3.987   5.319  0.9497  0.7160 -1.6418
 6822SOL    HW231926   3.593   4.057   5.384 -2.6121 -1.9243  1.0419
 6823SOL     OW31927   2.041   1.389  14.225  0.0789 -0.3659 -0.0407
 6823SOL    HW131928   2.012   1.336  14.299 -0.6908 -0.7765 -0.6384
 6823SOL    HW231929   2.099   1.458  14.257  0.1989  0.2639 -1.6010
 6824SOL     OW31930   1.473   0.236   1.941  0.1447 -0.1490 -0.0908
 6824SOL    HW131931   1.471   0.304   1.875  1.1814 -0.2449 -0.2238
 6824SOL    HW231932   1.414   0.180   1.891  0.3302  1.3257 -1.9359
 6825SOL     OW31933   1.246   1.559   4.964  0.6142 -0.1506 -0.0221
 6825SOL    HW131934   1.270   1.646   4.934  2.9523 -1.3298 -1.6101
 6825SOL    HW231935   1.211   1.589   5.048  1.1076  0.0365  0.1166
 6826SOL     OW31936   1.153   2.309   6.994  0.0974 -0.1725 -0.2591
 6826SOL    HW131937   1.230   2.253   6.987 -0.7656 -1.2988 -0.7936
 6826SOL    HW231938   1.145   2.299   7.089  1.4762  1.8615  0.0507
 6827SOL     OW31939   0.087   1.131   7.394 -0.3374  0.4787 -0.0326
 6827SOL    HW131940   0.053   1.114   7.306  0.1091 -2.0763  0.2818
 6827SOL    HW231941   0.040   1.062   7.440  1.1464 -2.1539 -2.4823
 6828SOL     OW31942   2.998   2.971  16.824 -0.5216 -0.1854  0.7396
 6828SOL    HW131943   2.980   3.060  16.793 -0.4589 -0.8026 -1.0426
 6828SOL    HW231944   2.914   2.930  16.802 -2.3145  4.5630 -1.4632
 6829SOL     OW31945   4.351   2.974   7.388 -0.3222 -0.7343  0.0260
 6829SOL    HW131946   4.310   2.909   7.332 -1.5597 -1.7258  2.0927
 6829SOL    HW231947   4.313   2.943   7.470  3.2650 -1.7317  1.3258
 6830SOL     OW31948   2.663   2.103   5.604 -0.3449 -1.0809 -0.2281
 6830SOL    HW131949   2.612   2.184   5.598  0.4890 -0.4710  0.9190
 6830SOL    HW231950   2.602   2.036   5.575 -0.4282 -1.0042 -0.2319
 6831SOL     OW31951   3.476   0.240  12.029 -0.6505 -0.1339  0.1318
 6831SOL    HW131952   3.480   0.248  11.934  1.0318 -0.0569  0.1998
 6831SOL    HW231953   3.430   0.157  12.038  1.0617 -1.1286 -0.2269
 6832SOL     OW31954   3.230   3.384   3.026  0.5712 -0.2087  0.1692
 6832SOL    HW131955   3.282   3.463   3.012  0.9321 -0.2221  1.4349
 6832SOL    HW231956   3.283   3.314   2.988  2.9995  0.8500  1.5994
 6833SOL     OW31957   4.403   1.547  13.402 -0.1135  0.0164 -0.2548
 6833SOL    HW131958   4.373   1.458  13.385  0.5600 -0.3827  0.6488
 6833SOL    HW231959   4.336   1.583  13.344  0.5304  0.7130 -0.5719
 6834SOL     OW31960   0.708   4.244  10.506 -0.1046 -0.1117 -0.4498
 6834SOL    HW131961   0.671   4.277  10.588 -0.9049  4.1866 -2.5300
 6834SOL    HW231962   0.631   4.273  10.457  0.8178  1.4566 -0.9720
 6835SOL     OW31963   1.359   1.378   6.631  0.1745 -0.2903 -0.0723
 6835SOL    HW131964   1.450   1.354   6.613 -0.0256 -1.5402  0.5941
 6835SOL    HW231965   1.370   1.457   6.684  1.2218 -0.1231 -0.5498
 6836SOL     OW31966   4.420   0.637   3.624  0.7992 -0.2601 -0.6969
 6836SOL    HW131967   4.345   0.637   3.683 -1.3476 -3.2656 -3.4540
 6836SOL    HW231968   4.396   0.573   3.557 -0.3730  0.2685 -0.7750
 6837SOL     OW31969   1.975   2.350  10.122  0.1921  0.0870 -0.4115
 6837SOL    HW131970   1.929   2.313  10.197 -0.1484  0.1607 -0.5818
 6837SOL    HW231971   2.059   2.375  10.162 -0.9365  1.5442  1.0612
 6838SOL     OW31972   2.592   2.777   4.117  0.0939 -0.1519  1.5858
 6838SOL    HW131973   2.634   2.862   4.100 -2.2831  0.9089  1.0250
 6838SOL    HW231974   2.499   2.798   4.126 -0.0411  0.6685 -1.6924
 6839SOL     OW31975   3.267   4.344   3.186 -0.1630  0.0490  0.4057
 6839SOL    HW131976   3.215   4.412   3.230  0.9551  1.2436 -0.1284
 6839SOL    HW231977   3.338   4.337   3.249 -0.0623 -0.4780  0.2373
 6840SOL     OW31978   3.559   2.310   8.153  0.0243 -0.0805 -0.1084
 6840SOL    HW131979   3.560   2.311   8.057 -1.9361 -0.3113 -0.1365
 6840SOL    HW231980   3.554   2.216   8.174 -1.9399  0.4122  1.5809
 6841SOL     OW31981   1.642   0.383  15.127 -0.3481 -0.5215  0.4285
 6841SOL    HW131982   1.569   0.346  15.178  1.1598 -2.2144  1.3557
 6841SOL    HW231983   1.682   0.440  15.192 -3.3562  0.1861  1.6723
 6842SOL     OW31984   3.387   0.027   2.113  0.4669 -0.2387 -0.2557
 6842SOL    HW131985   3.321   4.685   2.129  0.6615 -0.7631 -1.5954
 6842SOL    HW231986   3.412   0.010   2.022 -1.0047  1.1642 -0.9216
 6843SOL     OW31987   0.363   1.067   5.253 -0.5380 -0.0588 -0.1953
 6843SOL    HW131988   0.331   0.994   5.305  0.1339 -0.5815 -0.5179
 6843SOL    HW231989   0.422   1.025   5.191 -0.7180 -1.4454  0.5869
 6844SOL     OW31990   0.710   0.206  16.115 -0.0351  0.1132 -0.1076
 6844SOL    HW131991   0.737   0.271  16.050 -1.1469 -0.4190 -1.0888
 6844SOL    HW231992   0.738   0.127  16.069  0.4677 -0.0033  0.3960
 6845SOL     OW31993   1.975   0.542   4.154 -0.1179  0.2502 -0.2164
 6845SOL    HW131994   1.938   0.582   4.233  2.0195 -1.5461  1.6824
 6845SOL    HW231995   1.967   0.617   4.095 -2.4980 -0.0423 -0.2977
 6846SOL     OW31996   0.479   0.925   4.996 -0.4266 -0.1932 -0.1331
 6846SOL    HW131997   0.463   0.830   4.996  0.0747 -0.2663  2.4674
 6846SOL    HW231998   0.450   0.947   4.907 -0.3074 -0.4076 -0.2246
 6847SOL     OW31999   3.423   0.218   1.246 -0.1482 -0.1330  0.2887
 6847SOL    HW132000   3.402   0.297   1.197 -0.6631 -0.7910 -0.5605
 6847SOL    HW232001   3.425   0.248   1.337  0.9630 -0.0042  0.2197
 6848SOL     OW32002   3.555   1.552   9.222  0.0211 -0.4008 -0.6616
 6848SOL    HW132003   3.610   1.624   9.191 -1.6034  1.4636  0.7946
 6848SOL    HW232004   3.485   1.544   9.157 -1.8879  1.9179  1.1271
 6849SOL     OW32005   2.109   3.241  17.344  0.8921 -0.3103  0.1750
 6849SOL    HW132006   2.197   3.231  17.308  0.1151  0.7674 -2.0685
 6849SOL    HW232007   2.099   3.158  17.389  1.3438 -1.8655 -2.5958
 6850SOL     OW32008   0.144   2.254  15.262  0.4462  0.1627 -0.3046
 6850SOL    HW132009   0.146   2.211  15.177 -2.1917 -1.1659  0.2932
 6850SOL    HW232010   0.119   2.343  15.236  2.7022  0.5616 -1.1289
 6851SOL     OW32011   1.113   0.216   0.141  0.1817 -0.1750  0.2354
 6851SOL    HW132012   1.147   0.259   0.063  0.2122 -1.5309 -0.5122
 6851SOL    HW232013   1.087   0.132   0.102  1.9381 -0.6150 -0.0002
 6852SOL     OW32014   3.424   4.183   7.254  0.0163  0.3313  0.1455
 6852SOL    HW132015   3.442   4.261   7.307 -1.6248 -1.3311  3.1901
 6852SOL    HW232016   3.507   4.137   7.263 -0.8394 -1.0052  1.2053
 6853SOL     OW32017   3.763   2.265  11.663 -0.0279  0.4806 -0.2372
 6853SOL    HW132018   3.774   2.309  11.747  0.8065 -1.5524  0.6893
 6853SOL    HW232019   3.778   2.337  11.601  1.8565  0.5233  0.2882
 6854SOL     OW32020   0.637   3.567  16.957 -0.3270 -0.6343 -0.5101
 6854SOL    HW132021   0.662   3.493  16.902 -1.0814  0.3967 -2.2513
 6854SOL    HW232022   0.708   3.581  17.019  0.6149  0.5601 -1.8618
 6855SOL     OW32023   3.855   1.612  15.560  0.2009  0.5012 -0.5522
 6855SOL    HW132024   3.929   1.671  15.545  0.0083  1.0227  0.6077
 6855SOL    HW232025   3.824   1.607  15.469 -2.2611 -0.7552  0.3506
 6856SOL     OW32026   3.940   1.987   5.029 -0.1967 -0.8833 -0.4703
 6856SOL    HW132027   4.002   1.970   5.100  0.0138 -0.4772 -0.5533
 6856SOL    HW232028   3.895   2.068   5.053  0.9467 -0.6021  0.7014
 6857SOL     OW32029   1.415   0.826   5.413  0.1179 -0.0255 -0.1770
 6857SOL    HW132030   1.435   0.758   5.478  1.6857  0.1579 -0.4824
 6857SOL    HW232031   1.408   0.775   5.332 -0.6272  3.0113 -1.9960
 6858SOL     OW32032   1.082   3.095   5.295 -0.1469 -0.3736 -0.3812
 6858SOL    HW132033   1.076   3.103   5.199 -2.4487  0.0731 -0.2048
 6858SOL    HW232034   1.006   3.143   5.327  0.7386  0.6338  0.2512
 6859SOL     OW32035   3.655   3.522  10.374  0.6169  0.2002 -0.1451
 6859SOL    HW132036   3.580   3.555  10.425  1.1118 -0.5503  1.0713
 6859SOL    HW232037   3.709   3.600  10.386 -1.5105  1.7278 -0.4956
 6860SOL     OW32038   3.337   4.404   0.483  0.0459  0.3142 -0.5630
 6860SOL    HW132039   3.292   4.320   0.470  2.6987 -1.3083  0.8402
 6860SOL    HW232040   3.427   4.381   0.462  0.6207  1.1852  0.8961
 6861SOL     OW32041   2.667   2.504   7.075 -0.1157 -0.9635 -0.1625
 6861SOL    HW132042   2.611   2.578   7.099  0.6052  0.0299 -1.4914
 6861SOL    HW232043   2.746   2.553   7.052 -1.4665  1.5743  0.6139
 6862SOL     OW32044   0.442   4.585   2.079 -0.0845 -0.4489 -0.0540
 6862SOL    HW132045   0.512   4.609   2.140 -0.7214  0.2779  0.3840
 6862SOL    HW232046   0.488   4.519   2.026 -1.0781 -0.8453 -0.4367
 6863SOL     OW32047   2.633   0.107   5.800  0.2494  0.6066 -0.7375
 6863SOL    HW132048   2.554   0.055   5.785  0.9468 -0.6232 -0.1753
 6863SOL    HW232049   2.679   0.066   5.874  0.6191  0.4685 -1.0408
 6864SOL     OW32050   2.660   3.643   8.284 -0.1126 -0.6997 -0.2577
 6864SOL    HW132051   2.581   3.681   8.245  0.2070  1.0556  0.8093
 6864SOL    HW232052   2.687   3.604   8.201  2.0496  1.6057 -0.6484
 6865SOL     OW32053   2.536   4.186   4.131 -0.4399  0.2674 -0.2611
 6865SOL    HW132054   2.483   4.108   4.113 -0.8200  0.6803 -0.9184
 6865SOL    HW232055   2.566   4.173   4.221  0.6906 -1.2854 -0.8549
 6866SOL     OW32056   2.233   4.395   1.437  0.0457  0.2058  0.3005
 6866SOL    HW132057   2.236   4.490   1.428 -1.9439  0.2501  0.2144
 6866SOL    HW232058   2.262   4.377   1.347 -1.5189  3.4729 -0.8767
 6867SOL     OW32059   3.097   3.751  15.122  0.1954 -0.2851 -0.7398
 6867SOL    HW132060   3.117   3.844  15.112  0.4028 -0.2270  0.1989
 6867SOL    HW232061   3.154   3.745  15.199 -0.2774 -2.3487 -0.5318
 6868SOL     OW32062   0.156   1.732   9.770 -0.8468  0.0346  0.6336
 6868SOL    HW132063   0.228   1.681   9.733  1.8876  2.5471  2.4618
 6868SOL    HW232064   0.147   1.800   9.703 -1.1528  0.6663  1.3121
 6869SOL     OW32065   2.490   2.616   5.561 -0.1092  0.5482 -0.0368
 6869SOL    HW132066   2.405   2.652   5.588 -1.2868 -1.4175 -1.1234
 6869SOL    HW232067   2.552   2.687   5.568  2.4101 -1.8107  1.4546
 6870SOL     OW32068   1.502   1.503  15.627 -0.0191 -0.2306  0.5344
 6870SOL    HW132069   1.477   1.488  15.718  1.5898  0.6814  1.1093
 6870SOL    HW232070   1.430   1.455  15.584 -0.1013  1.3249 -1.0427
 6871SOL     OW32071   3.921   1.075   7.174  0.0016 -0.2426  0.3437
 6871SOL    HW132072   3.904   1.162   7.137 -2.1537 -0.3769  1.0128
 6871SOL    HW232073   3.858   1.010   7.142  1.8396 -0.2853 -3.1515
 6872SOL     OW32074   1.645   3.571   2.224  0.2514  1.0041  0.4776
 6872SOL    HW132075   1.695   3.604   2.150  3.0009 -1.1926  1.3330
 6872SOL    HW232076   1.604   3.648   2.265 -1.4936  0.3009  0.0388
 6873SOL     OW32077   1.943   1.669  13.460  1.2119 -1.0506  0.3795
 6873SOL    HW132078   1.952   1.678  13.555  0.7078 -0.5417  0.3782
 6873SOL    HW232079   1.964   1.761  13.443  3.9925 -1.3227  2.3299
 6874SOL     OW32080   1.615   1.155   9.719  0.3668 -0.2388 -0.2075
 6874SOL    HW132081   1.705   1.122   9.722  0.1319 -1.0413 -2.1727
 6874SOL    HW232082   1.597   1.186   9.808  0.5752  2.7918 -1.2253
 6875SOL     OW32083   1.672   0.038  14.627  0.0805  0.3906 -0.4423
 6875SOL    HW132084   1.697   4.696  14.563 -0.9052 -0.7635  0.3735
 6875SOL    HW232085   1.594   0.081  14.593 -1.3721 -0.8928  1.2211
 6876SOL     OW32086   0.997   3.372   4.622 -0.2107  0.3294  0.4208
 6876SOL    HW132087   0.906   3.394   4.601 -0.0598 -0.0627 -0.6746
 6876SOL    HW232088   0.981   3.309   4.691  0.2306  1.7469  1.8079
 6877SOL     OW32089   3.324   0.101  16.531 -0.3641  0.5622 -0.5365
 6877SOL    HW132090   3.346   0.081  16.440  1.7455  0.4645 -0.0008
 6877SOL    HW232091   3.361   0.187  16.548  0.4615  0.2055 -0.5326
 6878SOL     OW32092   1.962   1.034   5.542 -0.0269 -0.0286 -0.3759
 6878SOL    HW132093   1.873   1.000   5.555  0.5671 -1.9065 -1.2345
 6878SOL    HW232094   1.956   1.084   5.623  1.9326 -1.4411  0.6303
 6879SOL     OW32095   2.957   0.780  15.798  0.3373  0.5809  0.0248
 6879SOL    HW132096   2.939   0.691  15.828  2.9696  0.9413  2.5937
 6879SOL    HW232097   3.044   0.767  15.760  0.3574  1.6366 -0.2770
 6880SOL     OW32098   2.419   3.706   8.170 -0.6329  0.8727  0.4579
 6880SOL    HW132099   2.382   3.654   8.099 -1.4099  0.0997  1.4305
 6880SOL    HW232100   2.344   3.703   8.228 -1.4954 -2.3001 -0.7989
 6881SOL     OW32101   1.137   1.906  16.430  0.0932 -0.4600 -0.0572
 6881SOL    HW132102   1.104   1.835  16.374 -0.1127 -3.0066  3.3354
 6881SOL    HW232103   1.225   1.901  16.392 -0.2612 -1.6360 -0.7387
 6882SOL     OW32104   3.262   3.991   8.300  0.3504 -0.1306 -0.0180
 6882SOL    HW132105   3.180   4.037   8.285 -0.0943 -0.3783  1.6587
 6882SOL    HW232106   3.323   4.051   8.256 -0.3822 -0.3673 -1.3718
 6883SOL     OW32107   2.848   4.646   0.418 -0.1238  0.5143  0.1205
 6883SOL    HW132108   2.779   4.580   0.420 -0.2514  0.5906 -1.5519
 6883SOL    HW232109   2.891   4.617   0.498 -2.2170 -0.3652  0.9039
 6884SOL     OW32110   1.438   0.705  10.443 -0.3575  0.0943  0.0599
 6884SOL    HW132111   1.513   0.753  10.409 -0.2829 -0.0396  0.0340
 6884SOL    HW232112   1.386   0.689  10.365  2.6505  0.8000 -2.0868
 6885SOL     OW32113   4.467   3.425  11.735  0.3230 -0.1818 -0.1043
 6885SOL    HW132114   4.561   3.424  11.755  0.5215 -0.6446 -1.0640
 6885SOL    HW232115   4.476   3.457  11.646  0.6793  1.3233  0.4739
 6886SOL     OW32116   0.029   4.111  17.494 -0.1422 -0.4683  0.1103
 6886SOL    HW132117   4.681   4.089  17.552  0.2034 -1.0530  0.3114
 6886SOL    HW232118   0.101   4.145  17.547 -1.2609  0.9612  0.7025
 6887SOL     OW32119   2.364   3.377   5.646 -0.2000 -0.5685  0.3901
 6887SOL    HW132120   2.439   3.318   5.639  1.1753  1.4955 -2.4862
 6887SOL    HW232121   2.406   3.461   5.667 -0.7941 -0.3364  0.6290
 6888SOL     OW32122   3.224   0.061   9.474  0.8154  0.9165  0.4434
 6888SOL    HW132123   3.149   0.046   9.417 -0.6093  2.6890  1.8355
 6888SOL    HW232124   3.260   4.696   9.474  2.8194  1.7164 -0.5293
 6889SOL     OW32125   3.596   4.452  13.606  0.1257 -0.1272  0.4498
 6889SOL    HW132126   3.501   4.449  13.618  0.0190  1.8531  0.0164
 6889SOL    HW232127   3.610   4.467  13.513  0.6793 -0.8767  0.4114
 6890SOL     OW32128   2.909   0.059   4.066  0.4922  0.7731  0.3864
 6890SOL    HW132129   2.898   4.689   4.079 -1.2546  0.8881 -0.3549
 6890SOL    HW232130   2.903   0.088   4.157 -0.2355  1.6945  0.0497
 6891SOL     OW32131   2.866   4.596   5.652 -0.2571  0.7486  0.4189
 6891SOL    HW132132   2.872   4.501   5.652  2.9308  0.9469  0.7441
 6891SOL    HW232133   2.786   4.610   5.703 -1.2521 -0.0189 -0.9301
 6892SOL     OW32134   0.605   2.082   8.651 -0.2178 -0.1995 -0.5404
 6892SOL    HW132135   0.589   1.987   8.647 -2.2419  0.1828 -1.7191
 6892SOL    HW232136   0.689   2.092   8.607 -0.1761  1.3268 -0.0937
 6893SOL     OW32137   3.359   4.384   4.774 -0.6959  0.0531  0.4764
 6893SOL    HW132138   3.296   4.320   4.740  1.3320 -0.3624 -2.5292
 6893SOL    HW232139   3.404   4.324   4.834 -2.5630 -1.8103  0.0541
 6894SOL     OW32140   3.677   1.536   8.353 -0.1643  0.1645  0.9591
 6894SOL    HW132141   3.624   1.614   8.370 -0.4360  0.5637 -1.7403
 6894SOL    HW232142   3.765   1.567   8.376  0.2777  0.1950 -0.8272
 6895SOL     OW32143   2.710   1.753   4.960  0.0217 -0.3626  0.0012
 6895SOL    HW132144   2.743   1.832   5.002 -0.5612  0.3140 -0.8217
 6895SOL    HW232145   2.784   1.722   4.909  1.2409  2.0709  0.3283
 6896SOL     OW32146   0.723   0.748   7.003 -0.3598 -0.2578 -0.4877
 6896SOL    HW132147   0.796   0.801   6.970 -1.6235  1.5059 -0.4512
 6896SOL    HW232148   0.747   0.753   7.095 -2.4971  2.4365 -0.0793
 6897SOL     OW32149   1.676   2.919   5.677 -0.2329  0.3352  0.2267
 6897SOL    HW132150   1.675   3.009   5.709 -1.3446  1.4333 -2.9740
 6897SOL    HW232151   1.626   2.872   5.745 -0.6177  0.7140  0.2036
 6898SOL     OW32152   3.479   3.451   7.831 -0.2067 -0.1156 -0.6183
 6898SOL    HW132153   3.434   3.531   7.858  1.0469  0.1110  0.8464
 6898SOL    HW232154   3.459   3.443   7.738  1.7331  1.5919 -1.1788
 6899SOL     OW32155   0.053   2.652   9.357 -0.5559  0.1291 -0.5603
 6899SOL    HW132156   0.117   2.589   9.389 -2.4938 -2.6662 -2.1892
 6899SOL    HW232157   4.722   2.598   9.300  0.8554 -0.8115 -1.0420
 6900SOL     OW32158   0.339   3.709   3.152  0.0937  0.2060 -0.0667
 6900SOL    HW132159   0.300   3.729   3.236  0.0748  0.2796 -0.0931
 6900SOL    HW232160   0.401   3.782   3.152 -0.8044  0.9696 -1.7586
 6901SOL     OW32161   2.581   2.462   1.361  0.1572 -0.0938 -0.1748
 6901SOL    HW132162   2.511   2.435   1.420  1.1764 -1.4128  0.4331
 6901SOL    HW232163   2.526   2.508   1.298 -2.4419  0.2151  2.3350
 6902SOL     OW32164   0.959   2.266   1.914 -0.0621  0.0824 -0.2000
 6902SOL    HW132165   0.957   2.171   1.930 -1.3871  0.3216  1.1348
 6902SOL    HW232166   0.869   2.292   1.893 -0.3091 -0.6626 -0.0572
 6903SOL     OW32167   3.494   0.140   8.570  0.5761 -0.4921  0.1446
 6903SOL    HW132168   3.577   0.158   8.525  0.4934 -1.6586 -0.4594
 6903SOL    HW232169   3.451   0.062   8.536 -0.9234 -0.3313  1.6462
 6904SOL     OW32170   2.714   4.582   2.950 -0.4127  0.2559 -0.1486
 6904SOL    HW132171   2.797   4.582   2.904 -0.2864 -0.1734  0.0820
 6904SOL    HW232172   2.704   4.670   2.987  0.4196 -0.5775  2.0360
 6905SOL     OW32173   3.036   4.212   3.052  1.0516 -0.5773 -0.3829
 6905SOL    HW132174   3.066   4.248   2.969  3.1954  0.3076  0.7574
 6905SOL    HW232175   3.105   4.250   3.107 -0.8331 -0.2825  1.7953
 6906SOL     OW32176   3.998   4.081   3.897  0.1022  0.1578 -0.0570
 6906SOL    HW132177   4.067   4.033   3.942 -0.8547  0.8745  2.1940
 6906SOL    HW232178   4.048   4.149   3.853  1.3519 -0.2298  0.7776
 6907SOL     OW32179   3.020   4.342   0.524 -0.4567 -0.3543  0.8633
 6907SOL    HW132180   3.090   4.281   0.499  0.3441  0.8778  0.0836
 6907SOL    HW232181   3.048   4.348   0.615  1.7796  1.7066  0.0456
 6908SOL     OW32182   3.454   3.865   3.010 -0.4086 -0.2208  0.5134
 6908SOL    HW132183   3.419   3.842   2.924 -0.5296  0.2327  0.4420
 6908SOL    HW232184   3.455   3.961   3.010  0.8379 -0.2244  0.2907
 6909SOL     OW32185   0.948   4.156  14.400  1.1064  0.0873  0.2211
 6909SOL    HW132186   1.030   4.203  14.415  1.2236  0.6361 -2.0706
 6909SOL    HW232187   0.879   4.219  14.422  0.8022  0.2123 -1.0375
 6910SOL     OW32188   1.329   3.345   6.105  0.3683  0.0540  0.0302
 6910SOL    HW132189   1.247   3.303   6.079  0.6662  1.1979 -2.7696
 6910SOL    HW232190   1.370   3.272   6.152 -2.4275 -0.3961  1.7693
 6911SOL     OW32191   1.153   4.581   5.917  0.1502 -0.5761  0.2618
 6911SOL    HW132192   1.213   4.522   5.962 -0.0482 -0.8424  0.1722
 6911SOL    HW232193   1.117   4.633   5.989 -0.1764  0.3374 -0.5613
 6912SOL     OW32194   4.289   2.952  12.945 -0.8020  0.0673  0.1060
 6912SOL    HW132195   4.382   2.932  12.954 -0.5849  0.7390 -0.6667
 6912SOL    HW232196   4.248   2.931  13.029 -1.2423  0.6861  0.0493
 6913SOL     OW32197   3.847   2.917   2.888 -0.0458 -0.2937  0.7527
 6913SOL    HW132198   3.753   2.910   2.871 -0.2859 -1.5305  2.6194
 6913SOL    HW232199   3.867   2.829   2.919  2.3306 -0.6052 -1.6509
 6914SOL     OW32200   4.474   4.136  10.366  0.1753 -0.2920 -0.3039
 6914SOL    HW132201   4.443   4.101  10.282 -0.8432  0.1504 -0.1071
 6914SOL    HW232202   4.399   4.182  10.404  0.2685 -0.0324 -0.4295
 6915SOL     OW32203   1.663   2.725   8.340  0.1983  0.0048 -0.0844
 6915SOL    HW132204   1.604   2.704   8.413  0.2146  1.6821  0.4076
 6915SOL    HW232205   1.734   2.776   8.378  1.4087 -3.0898  1.7756
 6916SOL     OW32206   0.774   0.711   2.186 -0.1164 -0.1971 -0.2432
 6916SOL    HW132207   0.786   0.618   2.202 -1.0336 -0.2567  0.0527
 6916SOL    HW232208   0.843   0.718   2.119 -0.7227 -1.8894 -1.0463
 6917SOL     OW32209   4.649   0.245   8.901 -0.4763  0.3894  0.4146
 6917SOL    HW132210   0.016   0.264   8.879 -0.2550 -1.1736 -0.0749
 6917SOL    HW232211   4.628   0.157   8.870 -1.8462  0.2057  1.8214
 6918SOL     OW32212   3.976   2.373   8.981 -0.4247  0.2519  0.4051
 6918SOL    HW132213   3.892   2.392   8.940  0.4198 -0.9430 -1.8506
 6918SOL    HW232214   3.962   2.413   9.067 -0.6704 -1.6660  1.2647
 6919SOL     OW32215   1.008   2.582   5.032  0.2836  0.2537  0.3866
 6919SOL    HW132216   1.089   2.539   5.004  0.3532 -0.7229  2.1419
 6919SOL    HW232217   1.039   2.651   5.090 -1.1658 -0.0365  1.5044
 6920SOL     OW32218   2.971   1.020  10.011  0.0813 -0.3972  1.2155
 6920SOL    HW132219   2.998   1.057   9.927  1.5620 -0.4990  1.6464
 6920SOL    HW232220   2.894   0.967   9.991  0.3578 -0.2745 -0.1958
 6921SOL     OW32221   1.536   3.549   1.901  0.3301 -0.0298  0.3325
 6921SOL    HW132222   1.460   3.499   1.873 -1.4421  2.1349  1.2476
 6921SOL    HW232223   1.589   3.474   1.926  2.2236  0.9737 -0.6529
 6922SOL     OW32224   2.238   2.618   2.493  0.0074  0.1578  0.0843
 6922SOL    HW132225   2.196   2.534   2.512 -1.1775  0.5036 -1.0155
 6922SOL    HW232226   2.248   2.651   2.582 -3.0086  2.7218 -0.5268
 6923SOL     OW32227   3.186   2.105   3.389  0.1116 -0.1545 -0.3310
 6923SOL    HW132228   3.280   2.095   3.405 -0.2483 -1.1444  1.1677
 6923SOL    HW232229   3.166   2.059   3.308  0.6048  1.7356 -1.5257
 6924SOL     OW32230   0.156   0.243   2.170  0.1759 -0.4159 -0.6263
 6924SOL    HW132231   0.068   0.204   2.175 -0.3797  0.6363 -2.4692
 6924SOL    HW232232   0.136   0.336   2.181 -0.8882 -0.4119 -2.6883
 6925SOL     OW32233   3.940   0.037  12.045  0.5475 -0.7487 -0.4078
 6925SOL    HW132234   3.932   0.045  12.140  2.4122 -1.4307 -0.2114
 6925SOL    HW232235   3.846   0.021  12.029  0.3107 -0.6356  0.8922
 6926SOL     OW32236   0.258   2.887   3.300  0.0410  0.3099  0.1536
 6926SOL    HW132237   0.318   2.896   3.227  0.1941 -2.1951 -0.0227
 6926SOL    HW232238   0.187   2.949   3.281  1.9887  2.6440  0.5272
 6927SOL     OW32239   3.612   4.351   2.110  0.4013 -0.0157 -0.2441
 6927SOL    HW132240   3.617   4.352   2.014 -1.4287 -1.4860 -0.3572
 6927SOL    HW232241   3.555   4.274   2.117  0.7284 -0.2119  0.2988
 6928SOL     OW32242   2.505   4.595  10.270 -0.1323  0.3926  0.2478
 6928SOL    HW132243   2.580   4.560  10.318 -0.0641  2.7032  1.8248
 6928SOL    HW232244   2.525   4.687  10.253 -0.9119  0.2384 -1.5312
 6929SOL     OW32245   4.565   1.355   8.765 -0.5668 -0.5581 -0.3203
 6929SOL    HW132246   4.632   1.309   8.816 -1.0221  0.4641  1.2004
 6929SOL    HW232247   4.512   1.400   8.831  0.7864  0.8928 -0.2229
 6930SOL     OW32248   0.368   1.023   2.763 -0.1948 -0.2753 -0.3504
 6930SOL    HW132249   0.429   0.973   2.708  1.1932  2.0174 -0.9037
 6930SOL    HW232250   0.398   1.004   2.852  2.3273  1.6472 -0.7881
 6931SOL     OW32251   2.550   3.488   1.727  0.3053 -0.0726  0.4084
 6931SOL    HW132252   2.476   3.506   1.785 -1.5643  3.3373 -2.9594
 6931SOL    HW232253   2.537   3.566   1.673 -2.6073 -0.6805  0.1891
 6932SOL     OW32254   3.982   1.262   2.716  0.1412 -0.3576  0.0542
 6932SOL    HW132255   3.962   1.186   2.660 -0.9668 -0.6027  0.7676
 6932SOL    HW232256   4.077   1.253   2.722  0.1847 -0.3038 -0.5136
 6933SOL     OW32257   0.372   1.888   9.249 -0.0830 -0.1414 -0.2689
 6933SOL    HW132258   0.386   1.881   9.344  3.3989  0.0011 -0.7811
 6933SOL    HW232259   0.454   1.918   9.209 -0.2748 -0.1464 -0.6613
 6934SOL     OW32260   0.975   3.224  16.701 -0.0579  0.3011 -0.2960
 6934SOL    HW132261   0.907   3.203  16.637 -0.4733 -0.0618  0.2605
 6934SOL    HW232262   0.981   3.142  16.750 -0.6703 -0.4079 -1.4015
 6935SOL     OW32263   2.902   2.694   5.237 -0.6038  0.2132  0.1296
 6935SOL    HW132264   2.828   2.641   5.265  1.6462 -2.9455  0.0983
 6935SOL    HW232265   2.967   2.624   5.231  0.3217  1.1780 -1.1124
 6936SOL     OW32266   2.725   3.546   4.672 -0.2601 -0.1046 -0.0300
 6936SOL    HW132267   2.717   3.485   4.746  1.4134  0.2730  0.4587
 6936SOL    HW232268   2.636   3.581   4.668  0.6537  1.9802 -1.6682
 6937SOL     OW32269   4.165   0.479   9.085  0.2748  0.4067 -0.2125
 6937SOL    HW132270   4.140   0.401   9.035 -1.6019  1.8456 -1.4838
 6937SOL    HW232271   4.140   0.552   9.029  0.5163  0.1300 -0.6822
 6938SOL     OW32272   2.745   1.365   7.293  0.5296 -0.1092 -0.5989
 6938SOL    HW132273   2.744   1.276   7.257  0.3974  0.0786 -1.0618
 6938SOL    HW232274   2.753   1.420   7.215  1.4512  0.3485 -0.1756
 6939SOL     OW32275   1.007   4.145   9.015 -0.0920 -0.1354 -0.2539
 6939SOL    HW132276   1.050   4.173   8.935 -0.1126  0.7394  0.0397
 6939SOL    HW232277   0.946   4.079   8.981  1.2031 -1.0241 -0.8056
 6940SOL     OW32278   2.887   3.922   9.135  0.3344 -0.2666 -0.0422
 6940SOL    HW132279   2.885   3.826   9.138 -0.9874 -0.2284  0.4877
 6940SOL    HW232280   2.795   3.940   9.116  0.2793  2.5383  2.7662
 6941SOL     OW32281   0.010   2.167   4.559  0.2134  0.2793  0.2560
 6941SOL    HW132282   0.039   2.254   4.587  1.6418 -0.3193  0.6278
 6941SOL    HW232283   4.681   2.189   4.483 -1.4161  0.2764  1.3971
 6942SOL     OW32284   3.657   2.325   5.831  0.0327  0.1779  0.1142
 6942SOL    HW132285   3.611   2.409   5.842  0.2368  0.3564 -0.4164
 6942SOL    HW232286   3.748   2.351   5.848  0.5328 -0.5222 -1.5423
 6943SOL     OW32287   3.627   3.178   8.320 -0.2508  0.0161  0.2489
 6943SOL    HW132288   3.650   3.224   8.400  2.9731 -0.3712 -0.4306
 6943SOL    HW232289   3.680   3.228   8.257  0.7873 -0.4914  0.7183
 6944SOL     OW32290   0.618   3.727  12.398  0.1008  0.2924  0.2008
 6944SOL    HW132291   0.648   3.687  12.479  0.7617  0.0566 -0.1585
 6944SOL    HW232292   0.678   3.685  12.337 -1.9257 -0.2128 -1.4296
 6945SOL     OW32293   2.974   0.139   6.805  0.6846 -0.0085 -0.0908
 6945SOL    HW132294   3.056   0.187   6.795  0.4508  0.6173  0.9426
 6945SOL    HW232295   3.009   0.058   6.770 -1.5231  0.5207 -3.5241
 6946SOL     OW32296   3.833   1.893  13.309  0.1048 -0.5369  0.6381
 6946SOL    HW132297   3.789   1.950  13.372 -0.2597  1.2448 -1.2395
 6946SOL    HW232298   3.813   1.926  13.221  0.9843 -0.1661  0.5765
 6947SOL     OW32299   1.906   1.502   3.419  0.5311 -0.4855 -0.4859
 6947SOL    HW132300   1.882   1.419   3.380 -0.9628 -0.0186 -0.5524
 6947SOL    HW232301   1.971   1.478   3.486 -1.2035 -2.7676  0.3534
 6948SOL     OW32302   1.853   1.639   4.199  0.1582 -0.5660  0.1374
 6948SOL    HW132303   1.932   1.655   4.147  0.9947 -2.3414  0.8838
 6948SOL    HW232304   1.794   1.606   4.132  1.6464  1.4783 -2.1501
 6949SOL     OW32305   0.778   1.668   8.043 -0.3145  0.1636  0.1873
 6949SOL    HW132306   0.723   1.671   7.964 -0.6241  0.4061  0.4124
 6949SOL    HW232307   0.711   1.678   8.111 -0.9435 -1.8629 -0.1302
 6950SOL     OW32308   4.120   2.907   4.870  0.1433 -0.4383 -0.2474
 6950SOL    HW132309   4.028   2.933   4.875  0.1007 -0.8296  1.1363
 6950SOL    HW232310   4.120   2.811   4.862  0.8206 -0.4129 -0.6052
 6951SOL     OW32311   2.156   2.748   5.002  0.0298 -0.3886 -0.6618
 6951SOL    HW132312   2.098   2.679   5.032  2.0257 -1.1058  1.4886
 6951SOL    HW232313   2.111   2.761   4.918 -1.4594  0.5036  0.2803
 6952SOL     OW32314   1.750   3.238  17.339  0.1328  0.2100 -0.2512
 6952SOL    HW132315   1.835   3.211  17.371 -0.0167  0.3454  0.2519
 6952SOL    HW232316   1.736   3.191  17.257  2.9762 -0.4390 -0.3420
 6953SOL     OW32317   2.011   4.640   1.089  0.6967 -0.4929  0.2642
 6953SOL    HW132318   1.991   0.009   1.077  1.9928 -0.4235 -1.3597
 6953SOL    HW232319   2.103   4.635   1.116  0.2922 -1.4610  1.4744
 6954SOL     OW32320   1.769   0.054  17.530  0.0250 -0.2533 -0.3269
 6954SOL    HW132321   1.778   4.685  17.552  0.7481 -0.1780 -0.3114
 6954SOL    HW232322   1.779   0.084  17.621  1.0083 -1.5884  0.0081
 6955SOL     OW32323   3.096   0.162   0.828 -0.5033  0.1193  0.5983
 6955SOL    HW132324   3.165   0.148   0.763 -0.8151  0.1153  0.2691
 6955SOL    HW232325   3.034   0.202   0.767 -0.9345  1.4713  1.9004
 6956SOL     OW32326   1.400   3.087   2.455  0.2352 -0.0838  0.1173
 6956SOL    HW132327   1.319   3.093   2.505 -0.7767  1.0704 -1.6562
 6956SOL    HW232328   1.453   3.068   2.532  1.5719 -0.7297 -0.9712
 6957SOL     OW32329   1.366   3.309   7.543  0.0906 -0.7443 -0.0179
 6957SOL    HW132330   1.284   3.333   7.584 -0.4718 -1.4417 -0.7210
 6957SOL    HW232331   1.413   3.279   7.621 -0.8432 -1.6127  0.2111
 6958SOL     OW32332   3.104   3.138  10.145  0.2222  0.1387 -0.6296
 6958SOL    HW132333   3.120   3.155  10.052  0.7606  1.4640 -0.2849
 6958SOL    HW232334   3.163   3.204  10.179 -0.8391  0.5956  0.3112
 6959SOL     OW32335   0.800   1.475   2.651 -0.1313 -0.1223 -0.0599
 6959SOL    HW132336   0.865   1.416   2.613  0.7119  0.5707  0.3247
 6959SOL    HW232337   0.726   1.427   2.614 -1.9878  0.7246  2.5277
 6960SOL     OW32338   3.833   1.607   3.457  0.9966 -0.8013  0.7391
 6960SOL    HW132339   3.883   1.582   3.379 -0.5617 -1.7646  0.0612
 6960SOL    HW232340   3.829   1.522   3.500 -2.5795  0.7435  3.5273
 6961SOL     OW32341   3.543   1.334   7.016  0.4468  0.7426  0.0048
 6961SOL    HW132342   3.482   1.387   7.067  0.4926 -1.1582  2.0074
 6961SOL    HW232343   3.565   1.394   6.944 -3.1369  2.4115  0.2662
 6962SOL     OW32344   2.184   4.082   4.927  0.0626  0.0417  0.3107
 6962SOL    HW132345   2.193   4.177   4.939  0.6405 -0.0987  1.0059
 6962SOL    HW232346   2.218   4.044   5.008 -2.3493 -2.9075 -0.0800
 6963SOL     OW32347   3.888   4.302   7.040 -0.1840 -0.0078  0.1638
 6963SOL    HW132348   3.938   4.256   7.108  1.3755 -0.2603 -1.1538
 6963SOL    HW232349   3.867   4.233   6.976  2.0528  0.4038 -1.0222
 6964SOL     OW32350   3.866   1.977   4.741  0.2540 -1.0619 -0.1267
 6964SOL    HW132351   3.771   1.977   4.730  0.7890 -0.8334 -4.7535
 6964SOL    HW232352   3.863   1.979   4.837  2.3936 -2.4954 -0.0374
 6965SOL     OW32353   2.233   4.596   8.387 -0.4087 -0.1764 -0.2193
 6965SOL    HW132354   2.205   4.681   8.352  1.4404  0.1578 -0.8962
 6965SOL    HW232355   2.189   4.601   8.472  1.1236 -1.4436  0.6507
 6966SOL     OW32356   0.397   1.090   1.763  0.2593  0.4006 -0.1090
 6966SOL    HW132357   0.418   1.027   1.694 -1.1954 -1.8865  1.4996
 6966SOL    HW232358   0.461   1.070   1.831  0.3985  0.5277 -0.2057
 6967SOL     OW32359   1.039   0.404   5.767  0.5491 -0.0510 -0.4339
 6967SOL    HW132360   0.997   0.330   5.722  0.7044 -0.0699 -0.5480
 6967SOL    HW232361   1.104   0.351   5.813  1.8219  1.0823 -0.9335
 6968SOL     OW32362   1.774   0.569   2.659 -0.1914  0.1519 -0.2926
 6968SOL    HW132363   1.751   0.476   2.650  2.3122 -0.6421  1.4780
 6968SOL    HW232364   1.728   0.596   2.738 -1.5902 -3.8141  0.2613
 6969SOL     OW32365   2.092   2.253  10.882 -0.3604 -0.2692 -0.6970
 6969SOL    HW132366   2.143   2.210  10.950 -0.3865  0.1830 -0.3940
 6969SOL    HW232367   2.158   2.317  10.857 -0.5889  0.2971  0.1817
 6970SOL     OW32368   4.088   3.931   1.832 -0.1219 -0.7376  0.2225
 6970SOL    HW132369   4.146   3.968   1.766  1.1971  0.4218  2.0703
 6970SOL    HW232370   4.159   3.883   1.874  1.7376  0.6751 -1.3309
 6971SOL     OW32371   0.883   2.000   2.754  0.3313 -0.0100 -0.0826
 6971SOL    HW132372   0.847   2.070   2.700 -0.7801  0.0924  0.7945
 6971SOL    HW232373   0.848   1.924   2.708  0.9174 -0.2671 -0.1069
 6972SOL     OW32374   2.737   1.256   9.961  0.0339  0.0159  0.6953
 6972SOL    HW132375   2.806   1.310   9.922  0.6433 -1.3910 -0.1605
 6972SOL    HW232376   2.742   1.184   9.898 -0.7811  0.6565 -0.0983
 6973SOL     OW32377   0.108   2.140   1.611 -0.3542 -0.5910  0.3451
 6973SOL    HW132378   0.089   2.149   1.518 -0.8236  2.4529  0.7277
 6973SOL    HW232379   0.058   2.061   1.635  0.7647 -1.1462  0.8647
 6974SOL     OW32380   1.723   3.608  12.882 -0.1042 -0.2460  0.2379
 6974SOL    HW132381   1.783   3.537  12.903  1.6969  1.0453 -0.5380
 6974SOL    HW232382   1.794   3.671  12.874  0.1938 -0.6933 -0.7708
 6975SOL     OW32383   1.155   3.415   5.615 -0.2045 -0.3063 -0.5349
 6975SOL    HW132384   1.070   3.457   5.624 -0.9583 -1.8145 -0.6879
 6975SOL    HW232385   1.131   3.328   5.646  1.6910 -1.3629 -2.0139
 6976SOL     OW32386   3.517   4.495  11.307 -0.6921  0.7844  0.1196
 6976SOL    HW132387   3.476   4.409  11.315 -0.3453  0.4393 -1.7587
 6976SOL    HW232388   3.520   4.499  11.211  0.3594  0.2667  0.1337
 6977SOL     OW32389   1.144   2.729  15.487  0.1161  0.1876 -0.3916
 6977SOL    HW132390   1.190   2.645  15.477 -0.2763  0.1726 -2.0091
 6977SOL    HW232391   1.087   2.719  15.410  1.4081  1.3595 -1.4926
 6978SOL     OW32392   3.620   4.158   2.783  0.4617  0.4754  0.3394
 6978SOL    HW132393   3.700   4.166   2.836 -1.4511  0.5402  3.2640
 6978SOL    HW232394   3.562   4.146   2.859 -0.4471 -0.8936 -0.5789
 6979SOL     OW32395   2.413   4.694   7.038  0.1573  0.2487  0.6894
 6979SOL    HW132396   2.340   0.028   7.014 -0.0935 -0.8733 -1.2673
 6979SOL    HW232397   2.468   4.704   6.961 -0.2218 -0.7147  0.2957
 6980SOL     OW32398   4.681   0.640   1.837  0.8005  0.2781  0.2085
 6980SOL    HW132399   4.593   0.664   1.868 -0.5390 -3.1303 -1.0207
 6980SOL    HW232400   4.692   0.557   1.883  0.4686  0.7674  1.1752
 6981SOL     OW32401   1.071   2.783   3.790  0.3123 -0.2397 -0.2465
 6981SOL    HW132402   1.103   2.744   3.871 -0.9748 -0.2305  0.2557
 6981SOL    HW232403   1.009   2.716   3.760 -0.1242  0.3559 -0.6825
 6982SOL     OW32404   0.989   1.691  13.425 -0.7077 -0.4695 -0.1976
 6982SOL    HW132405   1.084   1.700  13.422 -0.8835  0.9287 -2.1850
 6982SOL    HW232406   0.981   1.612  13.372  2.1685 -0.6971 -0.2911
 6983SOL     OW32407   4.047   1.033   8.336 -0.3277 -0.3262  0.3549
 6983SOL    HW132408   4.020   1.107   8.391 -0.9961 -1.6386  1.8191
 6983SOL    HW232409   4.091   1.065   8.258 -0.0312 -1.1515  0.1791
 6984SOL     OW32410   1.879   2.565   4.260 -0.5302 -0.0433  0.4631
 6984SOL    HW132411   1.838   2.482   4.287 -0.7728 -0.8506 -2.3190
 6984SOL    HW232412   1.968   2.535   4.243 -0.1765  0.3106  1.6983
 6985SOL     OW32413   3.260   3.139   4.998 -0.0313 -0.2823 -0.1912
 6985SOL    HW132414   3.169   3.108   5.000 -1.0885  2.5955 -2.3647
 6985SOL    HW232415   3.270   3.172   5.087  0.4481 -4.8022  1.4152
 6986SOL     OW32416   1.868   3.392   6.912  0.0992 -0.4769 -0.4418
 6986SOL    HW132417   1.912   3.401   6.996  2.2303  2.6134 -1.8983
 6986SOL    HW232418   1.905   3.314   6.871 -0.5371 -0.5859 -0.8171
 6987SOL     OW32419   1.195   2.651  11.244 -0.1432 -0.4714 -0.0722
 6987SOL    HW132420   1.245   2.650  11.162 -3.0624 -0.6103 -1.8540
 6987SOL    HW232421   1.250   2.722  11.277 -0.6321  1.3174 -3.0798
 6988SOL     OW32422   4.059   1.116  10.922  0.8388  0.1229  0.1785
 6988SOL    HW132423   4.037   1.082  11.009 -1.5017  0.2356 -0.3712
 6988SOL    HW232424   4.094   1.200  10.951  1.7614 -1.0733  2.5244
 6989SOL     OW32425   0.664   3.764  11.638  0.0046  0.0592 -0.6106
 6989SOL    HW132426   0.642   3.840  11.584 -0.8112  0.1629 -0.1257
 6989SOL    HW232427   0.695   3.806  11.719 -0.7290  0.7404 -0.6858
 6990SOL     OW32428   4.264   2.980   9.461 -0.4666  0.4445 -0.2733
 6990SOL    HW132429   4.337   3.020   9.414 -1.7731  0.6715 -2.1044
 6990SOL    HW232430   4.203   3.053   9.448 -0.3349  0.1549 -2.5250
 6991SOL     OW32431   4.001   4.033   5.493 -0.0832  0.4380  0.0561
 6991SOL    HW132432   4.089   4.030   5.532 -0.1450  0.6372  0.2063
 6991SOL    HW232433   4.007   4.113   5.440  0.3273 -0.6137 -1.4998
 6992SOL     OW32434   2.217   1.229   2.297  0.1428  0.3137  0.0250
 6992SOL    HW132435   2.306   1.257   2.278 -0.1017  1.6229  0.8564
 6992SOL    HW232436   2.209   1.136   2.275 -0.2499  0.9257 -2.4876
 6993SOL     OW32437   1.504   1.971   2.681  0.0157  0.0902 -0.1837
 6993SOL    HW132438   1.514   2.046   2.741 -1.5074  0.1103  0.0545
 6993SOL    HW232439   1.518   1.891   2.732  2.1926 -0.2253 -1.2740
 6994SOL     OW32440   3.736   0.138   5.839  0.2331 -0.0365  0.5447
 6994SOL    HW132441   3.750   0.212   5.898 -0.3482 -0.0097  0.6536
 6994SOL    HW232442   3.711   0.177   5.756  0.1036  2.4837  1.7589
 6995SOL     OW32443   0.175   2.397   0.379  0.0428 -0.1726  0.2562
 6995SOL    HW132444   0.122   2.474   0.358  0.9671  0.7684  1.3531
 6995SOL    HW232445   0.109   2.336   0.345  0.4078 -0.1485 -0.5054
 6996SOL     OW32446   2.931   2.759   1.926  0.0161  0.8128  0.5475
 6996SOL    HW132447   2.886   2.692   1.977 -0.5058  1.2301  0.6466
 6996SOL    HW232448   2.859   2.807   1.885 -0.8408  0.2510  1.4084
 6997SOL     OW32449   3.193   3.439  11.629  0.5586 -0.5941  0.2024
 6997SOL    HW132450   3.288   3.453  11.633  0.4391 -0.1588  1.5263
 6997SOL    HW232451   3.167   3.501  11.561 -1.0779 -3.3415 -1.6669
 6998SOL     OW32452   1.698   1.041   2.724 -0.4642  0.2096 -0.5251
 6998SOL    HW132453   1.669   1.076   2.807 -0.3970 -2.1908  0.5037
 6998SOL    HW232454   1.622   1.068   2.672 -1.8735 -1.1428  0.8801
 6999SOL     OW32455   4.455   4.654   8.542  0.8182 -0.5149  0.1581
 6999SOL    HW132456   4.458   0.017   8.503  0.1245 -0.4677  0.2091
 6999SOL    HW232457   4.365   4.645   8.571  0.8572 -3.2969 -0.5918
 7000SOL     OW32458   3.621   0.484   8.494  0.1312  0.0162  0.5402
 7000SOL    HW132459   3.526   0.474   8.495 -0.0659  1.7859 -1.4200
 7000SOL    HW232460   3.629   0.569   8.536 -1.0262  0.8151 -0.8586
 7001SOL     OW32461   1.155   3.406   0.036 -0.8928  0.0003  0.5685
 7001SOL    HW132462   1.129   3.445   0.120  0.0011 -0.6456  1.1422
 7001SOL    HW232463   1.249   3.406   0.053 -0.6335 -1.9707 -0.9045
 7002SOL     OW32464   4.481   4.316  15.217  0.7119 -0.7098 -0.1182
 7002SOL    HW132465   4.556   4.374  15.231 -0.2586  0.2768  0.9356
 7002SOL    HW232466   4.427   4.379  15.170 -1.6577 -0.9048  2.3445
 7003SOL     OW32467   1.632   3.338   0.062  0.3733 -0.0300 -0.1929
 7003SOL    HW132468   1.590   3.327  17.674  2.2360 -3.0419 -0.7143
 7003SOL    HW232469   1.702   3.394   0.030 -0.0273  1.2330  1.1571
 7004SOL     OW32470   0.565   3.884   7.122 -0.6400 -0.2257  0.0087
 7004SOL    HW132471   0.536   3.926   7.203 -0.7863  0.8532 -0.6054
 7004SOL    HW232472   0.609   3.951   7.069 -0.3937 -1.3966 -1.2838
 7005SOL     OW32473   4.074   4.396  10.639 -0.4645 -0.3152  0.0082
 7005SOL    HW132474   3.980   4.376  10.632 -0.3123 -1.2932  0.7097
 7005SOL    HW232475   4.067   4.480  10.685  0.6513 -0.1933 -0.0431
 7006SOL     OW32476   3.540   3.509  15.388  0.2481 -0.2398 -0.5384
 7006SOL    HW132477   3.629   3.526  15.419  0.5047 -0.7147 -1.0252
 7006SOL    HW232478   3.532   3.414  15.382  0.0995 -0.3308  1.0829
 7007SOL     OW32479   1.982   4.516   4.359  0.1809 -0.2306  0.1755
 7007SOL    HW132480   2.062   4.544   4.403 -0.8987  1.3676  1.1189
 7007SOL    HW232481   1.974   4.545   4.268 -0.3185  1.6316  0.7955
 7008SOL     OW32482   0.036   1.783   9.325  0.3536 -0.1950 -0.5552
 7008SOL    HW132483   0.106   1.729   9.290  1.1478  0.3758  0.1531
 7008SOL    HW232484   0.070   1.815   9.409 -2.5799 -0.6219  0.8381
 7009SOL     OW32485   1.952   4.614   5.909 -0.8029  0.5671  0.0111
 7009SOL    HW132486   1.961   4.617   5.814 -0.1728 -0.1977  0.0470
 7009SOL    HW232487   1.909   4.530   5.919  2.5865 -0.9292  2.1495
 7010SOL     OW32488   0.818   1.835   3.137 -0.6691 -0.4408 -0.8623
 7010SOL    HW132489   0.740   1.872   3.096 -0.7865  1.5032  1.1018
 7010SOL    HW232490   0.843   1.775   3.066 -1.2669 -0.5881 -0.9481
 7011SOL     OW32491   2.160   2.487   7.804  0.2052  0.1355 -0.0536
 7011SOL    HW132492   2.218   2.417   7.774 -0.0430 -0.4564  0.8491
 7011SOL    HW232493   2.145   2.466   7.896  0.1338  0.2900 -0.0291
 7012SOL     OW32494   1.380   3.092   6.211  0.9570  0.7644 -0.0584
 7012SOL    HW132495   1.467   3.062   6.182  0.0277 -0.0815 -1.9655
 7012SOL    HW232496   1.317   3.042   6.160 -0.5033 -0.0048  2.5111
 7013SOL     OW32497   2.227   0.624  10.232  0.8755 -0.2867  0.2711
 7013SOL    HW132498   2.136   0.604  10.251  0.3905  1.2269 -0.4259
 7013SOL    HW232499   2.269   0.541  10.209  0.9927 -0.0270 -0.4584
 7014SOL     OW32500   1.538   0.555   5.264 -0.3913  0.3642 -0.1978
 7014SOL    HW132501   1.494   0.613   5.202  0.4414  2.6348  1.3451
 7014SOL    HW232502   1.589   0.500   5.204  1.2525  0.1684  1.3738
 7015SOL     OW32503   1.159   0.140   0.600 -0.4233  0.5311  0.5318
 7015SOL    HW132504   1.229   0.161   0.662 -1.2425 -0.6039  1.8333
 7015SOL    HW232505   1.204   0.170   0.521 -1.8331  1.7474  0.1847
 7016SOL     OW32506   0.968   3.296   3.531  0.0773  0.1387  0.7177
 7016SOL    HW132507   0.927   3.341   3.605 -0.1241 -0.6335  1.0732
 7016SOL    HW232508   0.917   3.217   3.516  0.7368 -0.4048  1.3323
 7017SOL     OW32509   4.130   1.031  11.169  0.2069 -0.4025 -0.0490
 7017SOL    HW132510   4.094   1.033  11.257  1.2438  0.3737  0.3558
 7017SOL    HW232511   4.111   0.940  11.145 -2.3362  0.5194 -1.5421
 7018SOL     OW32512   3.668   3.155   5.162  0.4613  0.4494  0.1334
 7018SOL    HW132513   3.669   3.186   5.072 -0.7661  2.1142  0.6821
 7018SOL    HW232514   3.748   3.104   5.170  0.3846  0.3869  0.5014
 7019SOL     OW32515   0.741   2.020   8.346 -0.3044  0.7130 -0.2160
 7019SOL    HW132516   0.815   1.973   8.308 -1.2103 -1.5705  0.8272
 7019SOL    HW232517   0.723   1.973   8.427 -0.4757  0.5521 -0.3460
 7020SOL     OW32518   4.699   4.015   4.987 -0.1231 -0.7145  0.1502
 7020SOL    HW132519   4.706   3.944   4.924 -1.8460  1.6936 -2.7209
 7020SOL    HW232520   0.069   4.022   5.001 -0.1382 -1.5191  0.6250
 7021SOL     OW32521   1.005   2.928  12.947 -0.1008  0.1953 -0.0411
 7021SOL    HW132522   1.073   2.899  12.886 -0.9608 -1.0102 -0.4446
 7021SOL    HW232523   0.998   3.013  12.904  0.2008  0.8772  1.2815
 7022SOL     OW32524   2.959   2.421   7.860  0.7359  0.2846  0.0136
 7022SOL    HW132525   2.948   2.500   7.808  0.5599  1.5008  1.8901
 7022SOL    HW232526   2.912   2.444   7.940  2.5129  1.1663  0.8099
 7023SOL     OW32527   4.096   2.389  17.269  0.1007 -0.1362 -1.3956
 7023SOL    HW132528   4.116   2.332  17.344 -0.7993 -0.2255 -1.2265
 7023SOL    HW232529   4.174   2.368  17.217  1.0651 -3.4232  1.3379
 7024SOL     OW32530   0.649   0.415  14.325  0.3519 -0.3480 -0.5812
 7024SOL    HW132531   0.604   0.484  14.372 -0.4255 -0.9909 -0.3719
 7024SOL    HW232532   0.718   0.413  14.391  0.7824 -0.6589 -1.0300
 7025SOL     OW32533   2.940   3.403   6.377 -0.0099 -0.3259 -0.1338
 7025SOL    HW132534   2.862   3.454   6.353  0.5379  0.8483  0.6182
 7025SOL    HW232535   2.915   3.323   6.330  2.0014 -0.6200 -0.7095
 7026SOL     OW32536   4.666   1.809  13.084 -0.1695  0.6983 -0.7566
 7026SOL    HW132537   4.641   1.832  12.994 -0.7496  2.0160 -0.2535
 7026SOL    HW232538   0.009   1.743  13.065  0.9334  1.8356 -0.8481
 7027SOL     OW32539   4.688   1.552   9.732 -0.0990  0.0893  0.5857
 7027SOL    HW132540   0.048   1.599   9.724 -0.0340 -0.1269 -0.0090
 7027SOL    HW232541   4.716   1.468   9.768  2.5437  0.4801 -0.5053
 7028SOL     OW32542   3.821   2.632   3.235 -0.1958 -0.6064 -0.0239
 7028SOL    HW132543   3.846   2.614   3.326  0.3218 -0.6161 -0.1714
 7028SOL    HW232544   3.900   2.674   3.201  1.2163 -1.2482  2.4510
 7029SOL     OW32545   3.469   2.117   3.399  0.2607  0.3103 -0.6138
 7029SOL    HW132546   3.515   2.181   3.345 -0.3195  2.1121  1.0313
 7029SOL    HW232547   3.505   2.124   3.487 -1.0514  0.3345 -0.0888
 7030SOL     OW32548   0.907   2.046   1.631  0.5786  0.5079 -0.1757
 7030SOL    HW132549   0.817   2.060   1.602  0.8332  0.6791 -0.8802
 7030SOL    HW232550   0.939   2.136   1.628 -1.7417  1.2894 -2.1080
 7031SOL     OW32551   3.567   0.919   7.800 -0.1897  0.1169 -0.2468
 7031SOL    HW132552   3.547   0.964   7.718 -2.3366  0.6259  0.5516
 7031SOL    HW232553   3.524   0.971   7.868  1.3706  0.6511  0.3237
 7032SOL     OW32554   1.546   1.296   2.374 -0.1260 -0.3993  0.0103
 7032SOL    HW132555   1.525   1.264   2.286 -2.2514  0.4892  0.1879
 7032SOL    HW232556   1.605   1.371   2.364  0.1072 -0.8961 -2.4069
 7033SOL     OW32557   2.555   0.241  17.575  0.0183 -0.5623 -0.5130
 7033SOL    HW132558   2.511   0.198  17.649 -0.0962 -1.1356 -0.9108
 7033SOL    HW232559   2.620   0.178  17.545  0.2877 -0.7776  0.5359
 7034SOL     OW32560   0.619   2.266   3.099  0.2532  0.3677 -0.3623
 7034SOL    HW132561   0.660   2.345   3.134 -2.9325  0.8513  2.2131
 7034SOL    HW232562   0.538   2.253   3.148  1.1434 -1.3099  0.6488
 7035SOL     OW32563   3.046   0.285   3.608  0.1582 -0.3688  0.2374
 7035SOL    HW132564   3.089   0.238   3.536  0.4940 -0.2488  0.3610
 7035SOL    HW232565   3.003   0.213   3.654  0.3006 -2.3049 -2.6767
 7036SOL     OW32566   0.125   3.603   6.673 -0.8769  0.1109 -0.4275
 7036SOL    HW132567   0.076   3.521   6.668 -1.7985  0.5852  0.9323
 7036SOL    HW232568   0.171   3.591   6.590  2.7804 -1.3440  1.7816
 7037SOL     OW32569   4.002   2.162   8.439  0.4661 -0.2615  0.3470
 7037SOL    HW132570   3.942   2.210   8.381  0.3269  0.2152  0.8830
 7037SOL    HW232571   4.021   2.218   8.515  1.7908  0.6235 -0.6419
 7038SOL     OW32572   2.924   0.949   5.836  0.1463 -0.2891 -0.7523
 7038SOL    HW132573   2.842   0.902   5.852  1.0811 -2.8913 -3.7410
 7038SOL    HW232574   2.939   0.997   5.918 -0.8583 -0.8299 -0.2496
 7039SOL     OW32575   1.944   0.824   0.845  0.3588  0.1371  0.3535
 7039SOL    HW132576   2.005   0.826   0.919 -1.0679  0.4071  1.5074
 7039SOL    HW232577   1.953   0.735   0.810  3.2832  0.8035 -0.6562
 7040SOL     OW32578   4.662   3.284   2.015  0.6257  0.4897 -0.7128
 7040SOL    HW132579   4.575   3.275   2.055  1.1449 -1.9307 -0.1180
 7040SOL    HW232580   4.674   3.379   2.020  0.4854  0.5076 -0.7033
 7041SOL     OW32581   3.475   2.047   5.489  0.0320  0.5625 -0.6492
 7041SOL    HW132582   3.567   2.040   5.461  0.2298 -1.4274  0.4639
 7041SOL    HW232583   3.474   2.132   5.533  0.4301  0.7530 -1.0071
 7042SOL     OW32584   2.631   2.098   3.371  0.3319  0.0930 -0.1125
 7042SOL    HW132585   2.542   2.108   3.335  1.0146 -0.8643 -2.0780
 7042SOL    HW232586   2.648   2.177   3.421  1.7201 -0.7355  0.7063
 7043SOL     OW32587   4.555   3.007  12.507 -0.3642  0.2335 -0.0254
 7043SOL    HW132588   4.486   3.053  12.554 -1.0372 -4.0346  3.1038
 7043SOL    HW232589   4.619   2.985  12.575 -0.0677  0.6683 -0.1664
 7044SOL     OW32590   1.020   0.570   8.930  0.2426 -0.2409  0.3022
 7044SOL    HW132591   0.968   0.497   8.898 -1.4987  0.5238  1.3594
 7044SOL    HW232592   1.092   0.567   8.867  0.4983 -0.1340  0.5840
 7045SOL     OW32593   4.623   1.425   4.976  0.5995 -0.7542  0.0799
 7045SOL    HW132594   4.530   1.443   4.960  0.2305 -1.6679  1.1607
 7045SOL    HW232595   4.627   1.445   5.070 -2.0425  0.1813 -0.0127
 7046SOL     OW32596   2.176   0.768   2.040  0.1272  0.6685  0.4014
 7046SOL    HW132597   2.193   0.715   2.118  2.7130 -0.0870 -0.6866
 7046SOL    HW232598   2.144   0.706   1.975  1.8493  0.8952 -0.6740
 7047SOL     OW32599   2.029   0.415   6.988 -1.1039 -0.3452  0.1465
 7047SOL    HW132600   1.960   0.349   6.983 -0.9322 -0.5629  0.6552
 7047SOL    HW232601   1.993   0.476   7.052  0.0108  0.9044 -0.4241
 7048SOL     OW32602   1.043   4.396   2.504  1.0299 -0.4932  0.2867
 7048SOL    HW132603   1.031   4.400   2.599 -1.5462 -0.1562 -0.0475
 7048SOL    HW232604   1.116   4.457   2.496 -0.5097  1.4417  0.7507
 7049SOL     OW32605   4.381   4.387  17.346 -0.0167  0.5328  0.3588
 7049SOL    HW132606   4.380   4.400  17.251  1.7394  1.2440  0.4504
 7049SOL    HW232607   4.290   4.359  17.361  0.2661 -0.6473 -0.1185
 7050SOL     OW32608   1.711   1.908   2.481 -0.8626 -0.2232  0.5435
 7050SOL    HW132609   1.683   1.822   2.510  1.3860 -1.0751  0.2056
 7050SOL    HW232610   1.676   1.963   2.551 -0.7229  0.1640  0.3082
 7051SOL     OW32611   2.406   0.409   3.803  0.3113  0.0398  0.0567
 7051SOL    HW132612   2.313   0.416   3.823 -0.1439 -1.7067 -1.4453
 7051SOL    HW232613   2.433   0.324   3.839 -0.2930 -0.3008 -0.2902
 7052SOL     OW32614   2.615   0.637  16.333  0.6045 -0.3009 -0.2337
 7052SOL    HW132615   2.597   0.660  16.242 -0.0724 -2.1947 -0.5822
 7052SOL    HW232616   2.524   0.636  16.362  0.8699  0.2083  0.6085
 7053SOL     OW32617   4.553   1.717   1.439 -0.5779  0.0610  0.0664
 7053SOL    HW132618   4.594   1.717   1.353 -0.0123  2.8763  0.3393
 7053SOL    HW232619   4.534   1.625   1.422 -0.6080  0.1519 -0.4088
 7054SOL     OW32620   1.923   4.215   5.774 -0.2515 -0.0382  0.6328
 7054SOL    HW132621   1.949   4.288   5.718  2.5653 -1.7302 -0.2626
 7054SOL    HW232622   1.891   4.150   5.712  1.7637 -1.3291  0.9751
 7055SOL     OW32623   1.642   2.148  15.793  0.1684 -0.1951  0.2052
 7055SOL    HW132624   1.727   2.169  15.831 -0.3159 -0.6827  1.5526
 7055SOL    HW232625   1.598   2.232  15.801  1.2435  0.3738  0.1317
 7056SOL     OW32626   1.046   2.009   6.543 -0.2742 -0.0203 -0.3020
 7056SOL    HW132627   0.951   2.025   6.544 -0.4601 -1.1025 -0.9191
 7056SOL    HW232628   1.088   2.094   6.531  2.1381 -0.9129  1.8116
 7057SOL     OW32629   2.007   3.160   2.356 -0.2623 -0.1223  0.3144
 7057SOL    HW132630   1.974   3.215   2.286  0.9681 -0.3267 -0.4281
 7057SOL    HW232631   1.924   3.118   2.376 -2.5528  3.9628 -0.7734
 7058SOL     OW32632   4.327   3.918   5.044 -0.1007 -0.3907  0.0458
 7058SOL    HW132633   4.265   3.902   5.115  0.5121 -0.4716  0.5539
 7058SOL    HW232634   4.290   3.856   4.981 -1.0784 -1.6497  1.8470
 7059SOL     OW32635   2.875   3.277   9.198 -0.5409 -0.7408  0.9253
 7059SOL    HW132636   2.797   3.316   9.159  0.1312  0.1134  0.4482
 7059SOL    HW232637   2.849   3.185   9.201  0.4826 -1.0855 -1.3163
 7060SOL     OW32638   4.267   3.691  11.549  0.4882  0.1646  0.5095
 7060SOL    HW132639   4.225   3.737  11.622  1.4997 -0.2963  1.3977
 7060SOL    HW232640   4.223   3.606  11.550 -2.4247  1.6890  0.7875
 7061SOL     OW32641   1.414   0.166  10.547  0.1589 -0.0333 -0.3775
 7061SOL    HW132642   1.432   0.157  10.454  0.6771  0.4106 -0.3222
 7061SOL    HW232643   1.490   0.117  10.581 -0.2398 -1.2044 -1.1795
 7062SOL     OW32644   0.313   1.841  13.968  0.1513  0.1129 -0.2536
 7062SOL    HW132645   0.364   1.910  13.925 -3.4350  1.4925 -2.3446
 7062SOL    HW232646   0.230   1.868  13.929  0.5064 -0.5156 -1.4401
 7063SOL     OW32647   0.683   1.671  14.461  0.1768 -0.7784  0.3507
 7063SOL    HW132648   0.625   1.719  14.402  0.5889  0.3207  0.8458
 7063SOL    HW232649   0.696   1.732  14.533  3.1415  0.6408 -1.3807
 7064SOL     OW32650   3.347   2.242  12.105  0.1162  0.0263  0.2633
 7064SOL    HW132651   3.383   2.155  12.088  0.2392  0.1179  0.0619
 7064SOL    HW232652   3.286   2.249  12.031  0.5788  2.9633  0.1313
 7065SOL     OW32653   0.528   0.051  16.510  0.3518 -0.0748  0.2281
 7065SOL    HW132654   0.464   0.116  16.480  1.2929  0.9265  0.3649
 7065SOL    HW232655   0.502   0.017  16.596  0.1890 -0.7595 -0.0909
 7066SOL     OW32656   2.964   0.511   3.501 -0.3618 -0.4668  0.2872
 7066SOL    HW132657   2.979   0.440   3.563 -1.0540 -0.1510  0.8081
 7066SOL    HW232658   2.894   0.552   3.552 -1.5730 -1.4196 -0.5699
 7067SOL     OW32659   3.533   0.091   6.977 -0.4281  0.0049  0.0475
 7067SOL    HW132660   3.602   0.127   6.921  0.5039  0.3781  1.4406
 7067SOL    HW232661   3.589   0.048   7.041 -1.2816  0.3492  1.0177
 7068SOL     OW32662   3.122   3.699   6.843 -0.3560  0.3683 -0.0842
 7068SOL    HW132663   3.058   3.660   6.903 -0.2183  1.3269  0.6829
 7068SOL    HW232664   3.134   3.791   6.869 -0.5737 -0.3568  2.5248
 7069SOL     OW32665   2.670   2.357   9.774  0.0909  0.4275 -0.5067
 7069SOL    HW132666   2.751   2.396   9.806  0.7918 -2.9901  1.8622
 7069SOL    HW232667   2.692   2.364   9.681 -0.5615  0.6805 -0.6410
 7070SOL     OW32668   1.212   4.212   3.233  0.3523  0.3510 -0.3351
 7070SOL    HW132669   1.151   4.211   3.307  0.7742  1.1828  0.0283
 7070SOL    HW232670   1.173   4.143   3.179  1.0368 -0.9294  0.8187
 7071SOL     OW32671   0.361   0.183  10.620 -0.4885  0.2516 -0.0911
 7071SOL    HW132672   0.348   0.167  10.526 -0.7360  0.8922 -0.1685
 7071SOL    HW232673   0.434   0.125  10.639  0.9533  1.5603 -1.6095
 7072SOL     OW32674   3.295   0.146   6.870 -0.4192  0.5680  0.5066
 7072SOL    HW132675   3.290   0.065   6.818  2.2755  0.5963  0.1999
 7072SOL    HW232676   3.384   0.134   6.902 -0.4889  2.6427  1.4590
 7073SOL     OW32677   0.864   0.457   9.584 -0.0794 -0.4478  0.1044
 7073SOL    HW132678   0.956   0.430   9.583 -0.0465 -0.3139 -0.2663
 7073SOL    HW232679   0.873   0.552   9.592  2.3180 -0.6318 -0.3033
 7074SOL     OW32680   3.076   1.406   5.560  0.2804  0.1165 -0.5400
 7074SOL    HW132681   3.125   1.334   5.520  0.2307 -0.3909  0.3235
 7074SOL    HW232682   3.053   1.460   5.484 -1.9752  0.7753  0.6269
 7075SOL     OW32683   3.018   0.989   8.654 -0.8135  0.0874  0.5278
 7075SOL    HW132684   2.949   1.055   8.659  0.0620  1.0843 -0.6327
 7075SOL    HW232685   2.972   0.919   8.700 -1.8555  0.0558 -0.5560
 7076SOL     OW32686   1.646   0.044   7.140 -0.1129 -0.2734 -0.2312
 7076SOL    HW132687   1.612   0.073   7.225 -0.0862 -0.6319 -0.0961
 7076SOL    HW232688   1.570   0.074   7.091 -0.8086 -1.1199  0.3258
 7077SOL     OW32689   1.495   2.237   3.593 -0.6064  0.3090 -0.4578
 7077SOL    HW132690   1.518   2.210   3.504 -0.0437  1.6164 -0.7097
 7077SOL    HW232691   1.518   2.162   3.648 -0.6605  1.4760  1.1713
 7078SOL     OW32692   3.340   4.232   6.701  0.2884 -0.3926  0.3490
 7078SOL    HW132693   3.405   4.258   6.635  0.8753  0.7544  1.3639
 7078SOL    HW232694   3.399   4.220   6.776  1.3675 -0.7867 -0.5597
 7079SOL     OW32695   3.484   1.646   4.661  0.8108  0.1763  0.0919
 7079SOL    HW132696   3.491   1.735   4.626 -1.8946  0.5262  0.4708
 7079SOL    HW232697   3.553   1.652   4.728  2.3689  3.5195 -1.8335
 7080SOL     OW32698   2.875   3.495   3.185 -0.6684  0.2020  0.6181
 7080SOL    HW132699   2.935   3.424   3.163  0.9358  2.2885 -1.6922
 7080SOL    HW232700   2.859   3.483   3.279  0.0525  1.9856  0.9658
 7081SOL     OW32701   1.658   0.822   1.050  0.5146  0.2793 -0.3142
 7081SOL    HW132702   1.571   0.781   1.042  0.9222 -0.1902 -2.2826
 7081SOL    HW232703   1.648   0.860   1.137 -1.4277  0.4945 -0.6230
 7082SOL     OW32704   0.581   0.341   5.282  0.0041 -0.5068 -0.2477
 7082SOL    HW132705   0.590   0.360   5.189  0.3109  0.1539 -0.0774
 7082SOL    HW232706   0.516   0.271   5.286 -1.4558  0.8154 -0.8355
 7083SOL     OW32707   0.564   1.903   5.642  0.1288  0.1312  0.0015
 7083SOL    HW132708   0.613   1.930   5.564 -1.2680  1.8583 -0.2790
 7083SOL    HW232709   0.515   1.828   5.609 -1.2126  1.1516 -0.3283
 7084SOL     OW32710   2.535   0.663   4.516  0.6203 -0.4493  0.3788
 7084SOL    HW132711   2.528   0.718   4.594  1.2787 -0.4661  0.4540
 7084SOL    HW232712   2.622   0.623   4.517  0.4565 -0.8335 -1.2772
 7085SOL     OW32713   3.197   0.502  15.952 -0.1554  0.3512  0.0260
 7085SOL    HW132714   3.146   0.462  15.882  1.5406 -0.3929 -0.7919
 7085SOL    HW232715   3.229   0.583  15.913 -1.2857  1.2265  0.9325
 7086SOL     OW32716   0.019   3.641   3.799 -0.2070 -0.3557  0.6598
 7086SOL    HW132717   0.066   3.631   3.882  0.6681 -0.5287  0.1450
 7086SOL    HW232718   0.005   3.550   3.773  1.3175 -0.9937  2.0704
 7087SOL     OW32719   3.454   0.401   5.542 -0.3880 -0.3956  0.2118
 7087SOL    HW132720   3.405   0.373   5.619 -2.5712  1.7542 -0.4116
 7087SOL    HW232721   3.495   0.483   5.568 -1.8477 -0.0012  1.2677
 7088SOL     OW32722   2.704   2.014   2.835  0.3064 -0.0573 -0.1394
 7088SOL    HW132723   2.763   1.985   2.766 -0.3178 -0.9197 -0.3234
 7088SOL    HW232724   2.629   1.966   2.800 -1.7760  0.9474  2.9141
 7089SOL     OW32725   3.625   2.850   3.192  0.2649 -0.5405  0.1757
 7089SOL    HW132726   3.693   2.790   3.221  0.5912  0.3243  1.1902
 7089SOL    HW232727   3.658   2.928   3.237  0.6275  0.8942 -2.5424
 7090SOL     OW32728   1.369   2.928  12.707 -0.1816 -0.0379 -0.0071
 7090SOL    HW132729   1.439   2.931  12.771  0.7770  0.1591 -1.0666
 7090SOL    HW232730   1.373   3.013  12.663 -2.0402  0.3809  0.6384
 7091SOL     OW32731   4.352   1.475  15.414 -0.4760  0.5856 -0.4528
 7091SOL    HW132732   4.293   1.433  15.351  1.3839  0.2969 -2.0175
 7091SOL    HW232733   4.336   1.427  15.495 -0.3600  1.0117 -0.1771
 7092SOL     OW32734   3.232   0.345   6.719 -0.2348  0.4327  0.1286
 7092SOL    HW132735   3.261   0.279   6.781  0.2459  1.1182  0.6252
 7092SOL    HW232736   3.247   0.307   6.632  0.3712 -0.4591  0.6287
 7093SOL     OW32737   3.501   1.526   8.937 -0.0806  0.3056  0.1965
 7093SOL    HW132738   3.407   1.540   8.951 -0.5534 -1.1304 -1.5455
 7093SOL    HW232739   3.517   1.523   8.843 -0.6265  0.5223  0.0969
 7094SOL     OW32740   3.997   2.539  15.451 -0.9953  0.3534  0.3538
 7094SOL    HW132741   4.069   2.519  15.392 -2.0411 -0.6041 -0.5763
 7094SOL    HW232742   3.980   2.448  15.473  0.7230 -0.1738 -0.5038
 7095SOL     OW32743   1.651   0.065  16.677 -0.3242 -0.0843 -0.4514
 7095SOL    HW132744   1.586   0.078  16.746  1.7329  0.9421  1.3300
 7095SOL    HW232745   1.620   4.711  16.631 -1.0292 -0.5609  0.8222
 7096SOL     OW32746   2.357   0.875  10.533  0.2269 -0.3763  0.0873
 7096SOL    HW132747   2.279   0.832  10.568 -0.1945 -0.3916 -0.8676
 7096SOL    HW232748   2.351   0.866  10.438  1.4163 -2.5890  0.2277
 7097SOL     OW32749   3.783   0.934   5.282 -0.4556  0.5600  0.2341
 7097SOL    HW132750   3.830   0.851   5.281 -0.7193  0.4198 -1.3783
 7097SOL    HW232751   3.714   0.905   5.222  1.5904 -2.0065 -0.9043
 7098SOL     OW32752   1.325   1.883   3.966 -0.0819  0.5323  0.1090
 7098SOL    HW132753   1.417   1.907   3.974 -0.5199  2.7028 -1.3259
 7098SOL    HW232754   1.280   1.965   3.985  0.3423  1.0796 -1.1871
 7099SOL     OW32755   3.436   4.637   4.850 -0.9491 -0.6249  0.1729
 7099SOL    HW132756   3.410   4.547   4.831 -3.4350  0.4560 -1.6180
 7099SOL    HW232757   3.380   4.658   4.925  0.3091 -0.1253  0.9671
 7100SOL     OW32758   4.523   0.563   2.224 -0.1972  0.3652  0.2455
 7100SOL    HW132759   4.519   0.647   2.178 -1.3385  0.5495  0.6918
 7100SOL    HW232760   4.611   0.532   2.201  0.6818  1.5114  2.0073
 7101SOL     OW32761   4.650   1.110   8.991 -0.3053  0.2491 -0.1326
 7101SOL    HW132762   4.717   1.153   8.940 -0.1712  0.8123  0.5129
 7101SOL    HW232763   4.687   1.022   8.998  0.8665  0.5675 -2.4974
 7102SOL     OW32764   3.673   0.375  10.684 -0.0789 -0.0961  0.6576
 7102SOL    HW132765   3.749   0.425  10.654 -1.1908 -0.3281 -2.5332
 7102SOL    HW232766   3.682   0.391  10.778 -0.2026 -2.3595  1.0677
 7103SOL     OW32767   2.989   2.699  11.712  0.3153  0.1366  0.0455
 7103SOL    HW132768   3.017   2.715  11.803  1.5061  2.7984 -0.7874
 7103SOL    HW232769   2.903   2.740  11.722  0.1882 -0.1252  0.0309
 7104SOL     OW32770   2.363   1.294  12.063  0.2742  0.3701 -0.1696
 7104SOL    HW132771   2.446   1.250  12.044  0.2235  0.1760  0.0573
 7104SOL    HW232772   2.300   1.222  12.057  0.1496  0.3073  2.0392
 7105SOL     OW32773   4.591   2.692  14.669 -0.3605  0.3815 -0.8898
 7105SOL    HW132774   4.652   2.684  14.742 -2.0289 -1.8752  0.2550
 7105SOL    HW232775   4.627   2.632  14.603 -2.0163 -1.2614 -0.3127
 7106SOL     OW32776   0.089   4.502   7.599 -0.0353 -0.7900  0.4202
 7106SOL    HW132777   0.045   4.469   7.521  2.0757  1.8196 -1.9090
 7106SOL    HW232778   0.013   4.531   7.649  0.7753  0.5752  0.8695
 7107SOL     OW32779   1.287   0.363   7.463  0.6349  0.0326 -0.5155
 7107SOL    HW132780   1.291   0.425   7.536  1.0835 -1.2562  0.5416
 7107SOL    HW232781   1.293   0.425   7.390  0.3544  0.9915  0.2785
 7108SOL     OW32782   1.356   1.611   8.293 -0.0145  0.4631 -0.5904
 7108SOL    HW132783   1.421   1.552   8.255  1.3578 -0.1279  2.6219
 7108SOL    HW232784   1.394   1.693   8.262 -1.5130  0.7864 -1.5617
 7109SOL     OW32785   0.304   2.210   6.042 -0.0400  0.1317 -0.3230
 7109SOL    HW132786   0.352   2.213   5.960  0.6356  3.3185  0.1799
 7109SOL    HW232787   0.349   2.144   6.094 -1.2745  0.9657  1.8620
 7110SOL     OW32788   4.202   2.981  14.544  0.3223 -0.1473 -0.3948
 7110SOL    HW132789   4.297   2.972  14.537 -0.1025 -3.2917 -2.1397
 7110SOL    HW232790   4.181   2.929  14.621 -0.2791  0.3564 -0.2266
 7111SOL     OW32791   1.881   3.422   0.345  0.1060  0.4071  0.3109
 7111SOL    HW132792   1.867   3.365   0.270  0.9598 -0.1309  0.5604
 7111SOL    HW232793   1.924   3.497   0.303 -1.7013  0.2668 -1.7371
 7112SOL     OW32794   3.028   3.325   6.079  0.4630  0.3334  0.2094
 7112SOL    HW132795   2.934   3.312   6.086  0.0685  4.5138  2.6277
 7112SOL    HW232796   3.071   3.246   6.112  1.2031 -0.2483 -2.1292
 7113SOL     OW32797   2.967   3.393   5.230  0.5166  0.1938 -0.4915
 7113SOL    HW132798   2.962   3.355   5.142  0.0268 -0.7454 -0.0619
 7113SOL    HW232799   2.874   3.385   5.251  0.7112  1.4912  0.8408
 7114SOL     OW32800   1.674   4.538   4.323  0.6682 -0.0167 -0.1278
 7114SOL    HW132801   1.720   4.482   4.261  0.0681 -0.8372  0.1798
 7114SOL    HW232802   1.620   4.469   4.361  1.5785 -0.0171  1.1733
 7115SOL     OW32803   2.923   1.650   9.005 -0.2685  0.1374 -0.0836
 7115SOL    HW132804   2.976   1.628   8.929  1.0871  0.2947  0.8130
 7115SOL    HW232805   2.844   1.689   8.969 -1.5115 -2.2298  0.0886
 7116SOL     OW32806   1.355   3.130   5.191  0.4566  0.4954 -0.6345
 7116SOL    HW132807   1.337   3.188   5.264  2.6926 -0.2697  0.5374
 7116SOL    HW232808   1.276   3.135   5.137  1.2784  1.5744 -1.7381
 7117SOL     OW32809   4.696   1.892   1.593 -0.3973  0.2697  0.3629
 7117SOL    HW132810   4.647   1.830   1.540  1.1764 -1.1101  0.5094
 7117SOL    HW232811   4.636   1.886   1.667 -1.5404  1.3100 -0.4709
 7118SOL     OW32812   4.262   3.787   7.589  0.9011  0.5441  0.4041
 7118SOL    HW132813   4.358   3.784   7.595  0.7093 -0.5502  3.4023
 7118SOL    HW232814   4.249   3.752   7.501 -1.5207 -1.4465  1.5444
 7119SOL     OW32815   4.026   1.223  12.051 -0.1909  0.4882  0.2380
 7119SOL    HW132816   3.982   1.202  12.134 -0.2376  0.7984  0.2934
 7119SOL    HW232817   3.980   1.155  12.002 -0.9633  0.0767  1.5134
 7120SOL     OW32818   3.800   0.860   2.042  0.4325 -0.4700  0.1193
 7120SOL    HW132819   3.854   0.781   2.043  1.5139  0.2468 -2.3439
 7120SOL    HW232820   3.719   0.823   2.077  1.9581 -2.0598  1.9711
 7121SOL     OW32821   1.187   0.297   7.121  0.2367 -0.4064 -0.0380
 7121SOL    HW132822   1.206   0.281   7.028 -0.5494 -1.1724 -0.0660
 7121SOL    HW232823   1.201   0.391   7.113 -0.0128 -0.2744  1.1987
 7122SOL     OW32824   4.409   4.034   4.407 -0.2179 -0.1920 -0.9446
 7122SOL    HW132825   4.425   4.122   4.441 -1.2066  0.7074 -2.8172
 7122SOL    HW232826   4.318   4.022   4.433  0.3615 -2.0879  0.1886
 7123SOL     OW32827   0.032   4.208   1.266  0.7672  0.1841  0.1702
 7123SOL    HW132828   0.092   4.194   1.192 -1.4455  0.8513 -1.7615
 7123SOL    HW232829   0.082   4.193   1.346 -1.3432 -1.4007  1.1699
 7124SOL     OW32830   0.344   2.286  12.766 -0.9007 -0.3030  0.1063
 7124SOL    HW132831   0.408   2.222  12.734  0.9764 -0.3931  3.9321
 7124SOL    HW232832   0.325   2.239  12.848 -1.1952  1.0495  0.8131
 7125SOL     OW32833   3.815   0.089   0.462 -0.2814 -0.5274  0.0250
 7125SOL    HW132834   3.726   0.121   0.473 -0.5552 -1.2798  0.0049
 7125SOL    HW232835   3.859   0.156   0.411  1.4759  0.1077  2.3503
 7126SOL     OW32836   3.887   3.487  11.835 -0.0328 -0.6171 -0.0023
 7126SOL    HW132837   3.952   3.419  11.821  2.3092  1.1481  2.2586
 7126SOL    HW232838   3.809   3.437  11.860  0.0982 -0.2777  1.0744
 7127SOL     OW32839   4.090   4.442   9.560  0.0305 -0.5133  0.1597
 7127SOL    HW132840   4.098   4.522   9.612  0.6987 -1.4833  1.5784
 7127SOL    HW232841   4.147   4.473   9.490  0.4547 -1.6731 -0.0170
 7128SOL     OW32842   2.561   1.222  15.344 -0.1753  0.2147  0.1506
 7128SOL    HW132843   2.550   1.316  15.360 -2.7298  0.4722 -3.0918
 7128SOL    HW232844   2.627   1.206  15.411 -1.2988 -1.6751  0.8026
 7129SOL     OW32845   3.316   3.436   1.880 -0.0508  0.0928 -0.1238
 7129SOL    HW132846   3.280   3.491   1.811  0.8004  0.3265 -0.3852
 7129SOL    HW232847   3.275   3.350   1.871  1.9795 -1.1223  2.1416
 7130SOL     OW32848   3.872   1.508   2.769  0.1567  0.8600  0.2120
 7130SOL    HW132849   3.898   1.417   2.752 -2.6954  0.1812 -0.5132
 7130SOL    HW232850   3.792   1.494   2.820  1.3441 -1.5870  1.4103
 7131SOL     OW32851   3.066   1.871   2.055  0.4839 -0.2153 -0.0834
 7131SOL    HW132852   2.981   1.897   2.092  0.1411 -1.0345 -0.2919
 7131SOL    HW232853   3.068   1.913   1.969 -1.0115 -0.8761 -0.4448
 7132SOL     OW32854   3.998   4.429   3.297  0.3721  0.3799 -0.2278
 7132SOL    HW132855   4.077   4.465   3.257  0.5637 -0.3541 -0.5050
 7132SOL    HW232856   3.930   4.458   3.237 -1.6880  0.3234  2.0499
 7133SOL     OW32857   2.922   4.229  11.620  0.1892 -0.1822 -0.4001
 7133SOL    HW132858   2.836   4.211  11.583  0.6872 -0.0744 -1.6196
 7133SOL    HW232859   2.975   4.224  11.541 -1.5742 -2.5224 -1.4304
 7134SOL     OW32860   3.261   3.356  15.203  0.0140  0.3458 -0.0376
 7134SOL    HW132861   3.249   3.364  15.108  0.0803 -0.5678 -0.1246
 7134SOL    HW232862   3.263   3.451  15.215 -0.9437  0.1522  1.6485
 7135SOL     OW32863   2.310   1.632   4.312 -0.0078 -0.0330  0.4156
 7135SOL    HW132864   2.351   1.634   4.225 -2.3305 -0.1725 -0.7085
 7135SOL    HW232865   2.277   1.542   4.306  0.9517 -0.3630  0.1144
 7136SOL     OW32866   3.665   0.539  12.682 -0.3029  0.4133 -0.1411
 7136SOL    HW132867   3.656   0.553  12.587 -1.0291 -2.8710 -0.5629
 7136SOL    HW232868   3.705   0.454  12.668  1.0691  1.3848 -2.2247
 7137SOL     OW32869   1.499   2.975   0.787 -0.3196  0.0802  0.1116
 7137SOL    HW132870   1.526   2.911   0.720  0.9475  0.7614 -0.0136
 7137SOL    HW232871   1.586   3.004   0.814  0.3718 -1.4654 -0.4494
 7138SOL     OW32872   3.710   1.297  14.107  0.1443 -0.6003 -0.4260
 7138SOL    HW132873   3.652   1.349  14.162 -2.1360 -2.9618 -0.6326
 7138SOL    HW232874   3.709   1.340  14.021  0.9300  1.1597  0.4613
 7139SOL     OW32875   1.876   4.584   3.733  0.1929 -0.2246 -0.1355
 7139SOL    HW132876   1.810   4.542   3.787 -1.2799  2.0214 -0.1829
 7139SOL    HW232877   1.906   4.507   3.685  3.1638  1.4798 -1.0632
 7140SOL     OW32878   0.042   4.278   8.715  0.2442 -0.5204  0.3050
 7140SOL    HW132879   4.721   4.324   8.644  0.7110 -0.5494 -0.0086
 7140SOL    HW232880   0.090   4.209   8.670  1.4373 -0.8470  2.0742
 7141SOL     OW32881   0.021   2.984  11.859  0.3224 -0.0611  0.3179
 7141SOL    HW132882   0.111   2.974  11.892  0.8544 -0.9440 -1.3569
 7141SOL    HW232883   4.693   2.994  11.938  1.3772 -1.9521  1.2397
 7142SOL     OW32884   1.570   4.290   2.413 -0.0324 -0.2650 -0.3593
 7142SOL    HW132885   1.572   4.224   2.483 -2.6583 -1.8497 -1.7953
 7142SOL    HW232886   1.597   4.371   2.456 -2.3272  0.1882  0.2670
 7143SOL     OW32887   4.089   3.922   8.708  0.2016 -0.4056 -0.1283
 7143SOL    HW132888   4.128   3.840   8.738 -3.0471 -1.4202  1.2640
 7143SOL    HW232889   4.087   3.972   8.790  0.2905  0.2724 -0.5385
 7144SOL     OW32890   1.550   3.186   1.105  0.3067  1.1072  0.2666
 7144SOL    HW132891   1.474   3.143   1.067  0.2188 -0.7985  2.6169
 7144SOL    HW232892   1.531   3.179   1.199 -0.1635 -1.7661 -0.0532
 7145SOL     OW32893   1.289   0.572   8.752  0.0101  0.7945 -0.8353
 7145SOL    HW132894   1.308   0.649   8.806  0.5670  0.8063 -1.0516
 7145SOL    HW232895   1.312   0.596   8.663  0.5369 -1.3644 -1.2876
 7146SOL     OW32896   2.030   4.289   1.556  0.1627 -0.4700 -0.2008
 7146SOL    HW132897   2.100   4.346   1.523  0.5817 -0.9844 -0.1909
 7146SOL    HW232898   2.076   4.205   1.564 -0.6814 -1.3058 -4.2441
 7147SOL     OW32899   3.743   2.614  10.424 -0.4389 -0.5117  0.9076
 7147SOL    HW132900   3.674   2.643  10.365  0.7629 -0.2476 -0.3902
 7147SOL    HW232901   3.708   2.636  10.510 -1.7421 -2.1138  0.7703
 7148SOL     OW32902   3.788   3.560   5.748 -0.2242 -0.2794 -0.0670
 7148SOL    HW132903   3.707   3.547   5.697  0.4565  0.1260 -1.2595
 7148SOL    HW232904   3.814   3.470   5.768 -1.9925 -0.7954 -0.0899
 7149SOL     OW32905   3.735   4.717   9.317 -0.4738  0.2996  0.3736
 7149SOL    HW132906   3.705   0.078   9.349 -2.3933 -0.7667  1.4037
 7149SOL    HW232907   3.653   4.674   9.296 -0.3078 -0.5210  1.4239
 7150SOL     OW32908   1.481   0.617   1.243 -0.0756 -0.0030  0.5278
 7150SOL    HW132909   1.548   0.570   1.193 -0.1571 -1.0462  1.3968
 7150SOL    HW232910   1.437   0.671   1.177  1.4768  0.1958 -0.3255
 7151SOL     OW32911   2.203   1.445   1.002  0.1276  0.2192 -0.2505
 7151SOL    HW132912   2.250   1.364   1.017 -2.2706 -1.2405 -0.6840
 7151SOL    HW232913   2.247   1.477   0.923  0.0301  0.0423 -0.3748
 7152SOL     OW32914   1.403   2.369   7.310  0.4299  0.2247 -0.9863
 7152SOL    HW132915   1.328   2.321   7.274  0.7777 -0.4048 -0.8656
 7152SOL    HW232916   1.422   2.427   7.236  0.0340  1.1966 -0.3334
 7153SOL     OW32917   1.869   1.168   3.081  1.1366 -0.0407 -0.3898
 7153SOL    HW132918   1.943   1.107   3.084 -0.4692 -2.0744 -2.1034
 7153SOL    HW232919   1.918   1.250   3.086  1.3775 -0.3086  1.9404
 7154SOL     OW32920   0.550   1.926   1.309  0.2460 -0.6614  0.6731
 7154SOL    HW132921   0.624   1.925   1.248 -0.6767 -1.0299 -0.4401
 7154SOL    HW232922   0.546   1.831   1.320  1.5574 -0.6310  1.4011
 7155SOL     OW32923   1.680   2.771   4.643  0.7329 -0.1502  0.1693
 7155SOL    HW132924   1.752   2.832   4.625  1.5508 -1.5044 -1.2367
 7155SOL    HW232925   1.708   2.719   4.718  0.3688  0.0325  0.4274
 7156SOL     OW32926   3.335   1.138   9.014 -0.6593 -0.7507 -0.2638
 7156SOL    HW132927   3.430   1.129   9.003 -0.8925 -2.2113 -1.1220
 7156SOL    HW232928   3.318   1.150   9.108 -0.8362 -1.8508 -0.1567
 7157SOL     OW32929   2.403   1.288  12.680  0.1650  0.7006 -0.0785
 7157SOL    HW132930   2.378   1.337  12.758  2.2276  1.1675  0.2805
 7157SOL    HW232931   2.320   1.284  12.632 -0.1284  0.8966  0.4072
 7158SOL     OW32932   3.341   0.605   3.036  0.4260 -0.0508 -0.3150
 7158SOL    HW132933   3.247   0.588   3.041  0.3903  1.3701  3.6685
 7158SOL    HW232934   3.379   0.519   3.054 -2.1293 -1.0964  0.1010
 7159SOL     OW32935   1.680   0.183   8.449 -0.4260  0.2108 -0.3221
 7159SOL    HW132936   1.684   0.088   8.434 -0.7573 -0.0131  1.0323
 7159SOL    HW232937   1.588   0.207   8.438 -0.0927  1.5860 -0.0638
 7160SOL     OW32938   4.218   2.547   8.928 -0.3359  0.3161  0.4561
 7160SOL    HW132939   4.126   2.526   8.941 -0.1152 -0.5965  0.5560
 7160SOL    HW232940   4.226   2.601   9.007 -2.4927  1.7809 -0.3508
 7161SOL     OW32941   0.243   3.742   8.661 -0.0854 -0.1155 -0.3954
 7161SOL    HW132942   0.321   3.758   8.608  0.7319 -0.9812  0.5391
 7161SOL    HW232943   0.266   3.664   8.711  1.6036  0.3959 -0.3837
 7162SOL     OW32944   3.084   1.504   7.691 -0.1724  0.0384 -0.0237
 7162SOL    HW132945   3.054   1.476   7.605  0.2434  0.5248 -0.3259
 7162SOL    HW232946   3.068   1.598   7.690 -1.3489 -0.1632 -0.1569
 7163SOL     OW32947   0.392   0.235  13.546  0.0197 -1.1006  0.5313
 7163SOL    HW132948   0.466   0.175  13.558  0.8573 -0.3854 -1.0018
 7163SOL    HW232949   0.363   0.250  13.636 -2.3079  3.6413 -1.0113
 7164SOL     OW32950   1.098   0.285   3.597  0.3398 -0.1044  0.3205
 7164SOL    HW132951   1.037   0.359   3.597  0.2090 -0.2075 -1.8457
 7164SOL    HW232952   1.091   0.257   3.505 -0.8278 -1.2721  0.7621
 7165SOL     OW32953   2.479   3.952  11.737  0.4262 -0.0583  0.0509
 7165SOL    HW132954   2.502   3.860  11.752 -1.8361 -0.8298 -1.1535
 7165SOL    HW232955   2.408   3.947  11.673 -0.7399  1.2755  1.2307
 7166SOL     OW32956   0.277   1.937   7.263  0.5489  0.6905 -0.7361
 7166SOL    HW132957   0.350   1.967   7.209  1.3439 -1.6425 -0.9573
 7166SOL    HW232958   0.210   1.919   7.198 -0.2318 -1.5694  0.7060
 7167SOL     OW32959   2.714   0.452   5.258 -0.6495 -0.2193 -0.6938
 7167SOL    HW132960   2.674   0.497   5.184 -2.4621  0.5322  0.7426
 7167SOL    HW232961   2.638   0.398   5.279  0.2258 -0.5051  1.7732
 7168SOL     OW32962   4.529   3.552   5.454 -1.1303 -0.4204 -0.2538
 7168SOL    HW132963   4.530   3.473   5.399  0.6608  0.1004 -0.9842
 7168SOL    HW232964   4.527   3.522   5.545  1.8599  0.7310  0.2115
 7169SOL     OW32965   3.096   2.544  12.056  0.1884 -0.0093  0.5445
 7169SOL    HW132966   3.103   2.567  12.148 -0.1416  3.1903 -0.2115
 7169SOL    HW232967   3.040   2.614  12.022  1.7262  0.1635 -1.7040
 7170SOL     OW32968   1.627   1.090  13.531 -0.1651  0.3546 -0.4167
 7170SOL    HW132969   1.583   1.116  13.450 -0.0873  1.9155  0.0426
 7170SOL    HW232970   1.699   1.041  13.492  0.1312  0.6649 -0.2606
 7171SOL     OW32971   1.670   4.108   2.226 -0.0903  1.0172 -0.2981
 7171SOL    HW132972   1.760   4.138   2.235  1.6402 -4.2239  0.1231
 7171SOL    HW232973   1.631   4.168   2.289  0.6717 -0.0408  1.1672
 7172SOL     OW32974   2.574   2.734   9.069  0.1485 -0.4041  0.0385
 7172SOL    HW132975   2.481   2.747   9.050  0.8309  2.4194 -1.4683
 7172SOL    HW232976   2.611   2.802   9.012 -1.7184 -0.3522 -1.1159
 7173SOL     OW32977   4.022   4.043   2.832 -0.1080  0.3037  0.0257
 7173SOL    HW132978   4.081   4.118   2.831 -1.1405  1.1194  0.4231
 7173SOL    HW232979   3.992   4.043   2.741  0.4557 -0.7010 -0.1612
 7174SOL     OW32980   3.736   1.559   5.441 -0.2617 -0.2271  0.0744
 7174SOL    HW132981   3.790   1.488   5.407  0.7731  1.2678 -1.4231
 7174SOL    HW232982   3.740   1.538   5.534 -0.7731  1.7910  0.5561
 7175SOL     OW32983   4.090   0.028   9.983  0.1451 -0.4034 -0.2992
 7175SOL    HW132984   4.169   0.014  10.035 -1.3140  0.0893  2.0779
 7175SOL    HW232985   4.025   4.711  10.041  0.9373 -2.1104 -0.6080
 7176SOL     OW32986   4.591   1.131   2.335  0.7679  0.5126 -0.0619
 7176SOL    HW132987   4.538   1.206   2.360  0.5491 -0.4572  2.3661
 7176SOL    HW232988   4.682   1.162   2.337  0.6462  0.9353 -1.1483
 7177SOL     OW32989   2.335   1.015  17.453 -0.6495  0.8204  0.0859
 7177SOL    HW132990   2.428   1.036  17.454 -0.3868 -0.2807 -1.5678
 7177SOL    HW232991   2.323   0.975  17.367  2.0932 -0.4867  0.3327
 7178SOL     OW32992   0.474   2.664   1.273 -0.5605  0.1585 -0.1583
 7178SOL    HW132993   0.486   2.577   1.236  0.2292  0.2342 -0.0781
 7178SOL    HW232994   0.559   2.707   1.264  0.1191 -0.7739  1.8689
 7179SOL     OW32995   2.636   0.986   3.403 -0.1916  0.3723  0.5796
 7179SOL    HW132996   2.694   0.965   3.329  1.7103 -1.5015  2.5927
 7179SOL    HW232997   2.678   0.934   3.471  0.7475  0.4302  0.0489
 7180SOL     OW32998   1.157   2.895   6.704  0.2313  0.1418  0.4870
 7180SOL    HW132999   1.164   2.847   6.621  2.2703 -0.9769  1.3302
 7180SOL    HW233000   1.061   2.888   6.709  0.3465 -1.7988 -0.1523
 7181SOL     OW33001   0.131   1.416   5.835  0.1847  0.0982 -0.2072
 7181SOL    HW133002   0.117   1.509   5.816  1.0170  0.6354  1.7878
 7181SOL    HW233003   0.219   1.420   5.873  0.8933 -1.1869 -1.7092
 7182SOL     OW33004   3.029   0.315   2.911  0.2912 -0.1119  0.8792
 7182SOL    HW133005   3.002   0.281   2.826  1.0922 -0.3339  0.7136
 7182SOL    HW233006   3.093   0.255   2.950  0.6034  0.1669  0.8007
 7183SOL     OW33007   3.410   2.117   6.416  0.6698  0.4040 -0.2649
 7183SOL    HW133008   3.434   2.156   6.499 -1.5151  1.1898 -0.0076
 7183SOL    HW233009   3.476   2.049   6.399  1.9309  1.0703  2.0705
 7184SOL     OW33010   3.100   2.904  15.864  0.2813 -0.2244  0.1487
 7184SOL    HW133011   3.119   2.848  15.789 -2.0263 -2.3915  1.1850
 7184SOL    HW233012   3.017   2.944  15.842 -0.8049 -3.5097 -1.7263
 7185SOL     OW33013   4.011   2.445   6.700 -0.5535  0.2334 -0.6042
 7185SOL    HW133014   4.078   2.379   6.682 -0.8191 -0.0747 -0.4858
 7185SOL    HW233015   4.068   2.517   6.727  0.0102 -1.3743  2.5052
 7186SOL     OW33016   0.966   0.816   9.350 -0.1621  0.6736  0.6169
 7186SOL    HW133017   0.969   0.818   9.255  0.0802  1.4669  0.6402
 7186SOL    HW233018   1.020   0.741   9.377  0.4959  1.2968  1.0358
 7187SOL     OW33019   2.670   3.697   3.903 -0.2924  0.2487 -0.1213
 7187SOL    HW133020   2.634   3.780   3.873 -0.5184  0.0691 -0.3543
 7187SOL    HW233021   2.619   3.635   3.850 -0.4379 -0.5470  0.9575
 7188SOL     OW33022   2.480   4.007   1.537 -0.6865  0.1669  0.2175
 7188SOL    HW133023   2.423   3.941   1.576 -2.7092  1.9311  0.2072
 7188SOL    HW233024   2.499   4.059   1.616 -1.0720 -1.8630  1.6419
 7189SOL     OW33025   4.627   3.739  12.575  0.5097 -0.1470  0.3503
 7189SOL    HW133026   4.581   3.771  12.653  1.2290  0.4016  0.5478
 7189SOL    HW233027   4.556   3.746  12.512  1.4407 -4.0166 -1.0990
 7190SOL     OW33028   0.206   1.088   6.472  0.5335  0.6236 -0.1195
 7190SOL    HW133029   0.128   1.116   6.519  1.7251  5.5836 -1.0980
 7190SOL    HW233030   0.229   1.008   6.518  1.0189  1.2377  0.7080
 7191SOL     OW33031   1.346   1.365   1.163 -0.3296 -0.4815  0.1921
 7191SOL    HW133032   1.347   1.442   1.220 -0.4925 -0.6739  0.4544
 7191SOL    HW233033   1.434   1.372   1.126 -0.6805  0.5878 -0.4437
 7192SOL     OW33034   3.101   1.905  16.552  0.0661 -0.1462  0.0372
 7192SOL    HW133035   3.166   1.973  16.569  0.3564  0.1577 -2.3124
 7192SOL    HW233036   3.040   1.907  16.626  0.0451  0.4154 -0.0001
 7193SOL     OW33037   3.287   2.485   8.434  0.4259  0.1542  0.2798
 7193SOL    HW133038   3.377   2.463   8.459  0.0152  0.5238  2.0613
 7193SOL    HW233039   3.295   2.580   8.434  0.4650  0.1531 -0.4020
 7194SOL     OW33040   1.623   4.679   2.332  0.1671 -0.2160 -0.6601
 7194SOL    HW133041   1.540   4.632   2.338  0.0313  0.3525  1.7303
 7194SOL    HW233042   1.584   0.033   2.291  0.5498 -0.4183 -1.4062
 7195SOL     OW33043   3.618   3.590   4.581  0.1319 -0.0622 -0.3231
 7195SOL    HW133044   3.565   3.547   4.514 -0.2763  2.9471 -1.9325
 7195SOL    HW233045   3.707   3.564   4.558  0.3073  1.4808 -1.4114
 7196SOL     OW33046   1.868   4.657   0.415 -0.3798 -0.1460 -0.1649
 7196SOL    HW133047   1.907   4.570   0.408  2.1111  1.0822 -1.6358
 7196SOL    HW233048   1.782   4.655   0.372  0.3854  1.2857 -1.7258
 7197SOL     OW33049   4.575   2.162   7.464 -0.2387 -0.0621  0.0319
 7197SOL    HW133050   4.648   2.184   7.522 -0.4096  0.3896  0.0754
 7197SOL    HW233051   4.570   2.068   7.484  1.2849  0.4223  2.6141
 7198SOL     OW33052   0.184   4.218  10.230 -0.2203  0.3848  0.0649
 7198SOL    HW133053   0.171   4.310  10.204  2.2952  0.8852  0.5870
 7198SOL    HW233054   0.147   4.171  10.155 -0.9158  0.4392  0.3770
 7199SOL     OW33055   2.809   1.874   6.080  0.1534  0.0816 -0.5895
 7199SOL    HW133056   2.740   1.885   6.016  0.8734  1.2020 -1.1791
 7199SOL    HW233057   2.889   1.876   6.027 -1.3461  1.4824 -2.7554
 7200SOL     OW33058   1.058   4.708  13.940 -0.0972 -0.3155  0.0521
 7200SOL    HW133059   0.972   0.024  13.928 -0.2509 -0.0089  2.1271
 7200SOL    HW233060   1.094   0.028  14.017 -1.1139 -0.1937  0.4559
 7201SOL     OW33061   0.751   1.829   5.124 -0.2519 -0.8465 -0.2307
 7201SOL    HW133062   0.764   1.743   5.164  0.0110 -0.3558  0.7666
 7201SOL    HW233063   0.751   1.813   5.030 -2.2635 -1.5978 -0.0952
 7202SOL     OW33064   1.441   2.653   9.932  0.3161  0.3620 -0.0526
 7202SOL    HW133065   1.346   2.639   9.935  0.3859 -0.2151 -0.5270
 7202SOL    HW233066   1.462   2.616  10.018 -0.7494 -0.9682 -0.3687
 7203SOL     OW33067   1.886   1.154   0.411 -0.2965 -0.6116  0.5219
 7203SOL    HW133068   1.806   1.107   0.434 -1.3168  0.7335 -0.2964
 7203SOL    HW233069   1.928   1.078   0.369  0.1149  0.2656 -0.6428
 7204SOL     OW33070   3.435   2.859   4.327  0.3207  0.5787  0.1401
 7204SOL    HW133071   3.518   2.842   4.284 -0.1667  2.8115 -1.7439
 7204SOL    HW233072   3.431   2.951   4.301  0.8441  0.5834  0.0833
 7205SOL     OW33073   0.079   4.512   8.013 -0.6059  0.2716  0.4652
 7205SOL    HW133074   0.053   4.491   7.923  0.7025  0.0680  0.1232
 7205SOL    HW233075   0.172   4.537   8.009 -1.3029  2.3950 -2.5257
 7206SOL     OW33076   1.537   4.083   3.106  0.1915  0.4915  0.2724
 7206SOL    HW133077   1.632   4.080   3.100  0.1026 -0.5343 -0.5143
 7206SOL    HW233078   1.518   4.172   3.135  0.3560 -0.0396  2.0266
 7207SOL     OW33079   4.400   2.562   6.562 -0.5469 -0.8077  0.0657
 7207SOL    HW133080   4.456   2.591   6.635 -0.6975  0.3638 -0.2750
 7207SOL    HW233081   4.342   2.505   6.612  1.0609 -1.6271  1.0066
 7208SOL     OW33082   4.338   0.415  13.194 -0.7361  0.1401  0.0645
 7208SOL    HW133083   4.429   0.442  13.199 -0.4002 -0.2651 -3.3799
 7208SOL    HW233084   4.337   0.363  13.113  0.5026  0.6048 -0.2485
 7209SOL     OW33085   2.779   2.347  13.450  0.0475  0.0181 -0.1669
 7209SOL    HW133086   2.688   2.321  13.464  0.3812  0.1746  2.2353
 7209SOL    HW233087   2.768   2.409  13.377  1.3401 -0.5199 -0.8207
 7210SOL     OW33088   3.409   0.920   5.487 -0.9807 -0.0769  0.4354
 7210SOL    HW133089   3.420   0.833   5.448  0.2065  1.2491 -2.1835
 7210SOL    HW233090   3.442   0.910   5.576  0.0360  0.8504  0.1629
 7211SOL     OW33091   1.154   0.699  16.771  0.8040  0.0040  0.1220
 7211SOL    HW133092   1.219   0.665  16.709  2.4024  4.5116 -0.7018
 7211SOL    HW233093   1.214   0.711  16.844  0.7472 -0.5295  0.2560
 7212SOL     OW33094   0.006   2.293   2.680  0.4200 -0.2315 -0.4310
 7212SOL    HW133095   4.657   2.307   2.619  0.6545 -0.3700 -0.7408
 7212SOL    HW233096   4.685   2.274   2.762  1.0067 -2.9785 -0.7378
 7213SOL     OW33097   0.563   3.452  13.892  0.2303 -0.2573  0.0420
 7213SOL    HW133098   0.566   3.537  13.848 -0.5247 -1.2279 -1.9009
 7213SOL    HW233099   0.500   3.475  13.960 -0.4562 -2.3160  0.1302
 7214SOL     OW33100   1.886   1.391  16.061  0.5988  0.4937 -0.1250
 7214SOL    HW133101   1.919   1.456  16.123 -1.5325  0.0373  1.4754
 7214SOL    HW233102   1.932   1.403  15.978 -2.6815  3.1402 -1.5851
 7215SOL     OW33103   1.363   2.311   5.906  0.2708  0.2457 -0.0307
 7215SOL    HW133104   1.403   2.230   5.938  0.4730  0.5761  0.5388
 7215SOL    HW233105   1.272   2.299   5.932  0.0501  0.5342 -0.6758
 7216SOL     OW33106   4.382   0.940   2.473  0.3233 -0.1640 -0.0643
 7216SOL    HW133107   4.320   0.958   2.403  0.0119  1.5973  0.6549
 7216SOL    HW233108   4.463   0.920   2.426 -0.2324 -3.2298  0.2856
 7217SOL     OW33109   2.174   4.085  13.886 -0.8056  0.1901 -0.4831
 7217SOL    HW133110   2.260   4.125  13.874 -1.3277  1.1528 -1.0173
 7217SOL    HW233111   2.122   4.115  13.811 -1.4517  0.9927  0.2915
 7218SOL     OW33112   3.872   3.672   2.812  0.2512 -0.4818  0.6633
 7218SOL    HW133113   3.937   3.721   2.762  0.0239 -0.5129  0.3338
 7218SOL    HW233114   3.795   3.677   2.755 -1.2930 -2.1501  2.6304
 7219SOL     OW33115   2.833   0.666   2.897  0.1916  0.0637 -0.3604
 7219SOL    HW133116   2.793   0.709   2.973 -1.6513 -0.1207 -1.2151
 7219SOL    HW233117   2.776   0.590   2.887  0.8803 -0.5020  0.0305
 7220SOL     OW33118   4.260   4.507   4.456 -0.0523  0.9807  0.9207
 7220SOL    HW133119   4.321   4.557   4.510  0.4965 -0.2643  1.4489
 7220SOL    HW233120   4.241   4.428   4.507  0.1692  0.6650  0.5209
 7221SOL     OW33121   1.372   0.139   5.365 -0.2140  0.1422 -0.0538
 7221SOL    HW133122   1.358   0.153   5.272 -2.1325 -0.3702  0.1686
 7221SOL    HW233123   1.349   0.046   5.376 -1.0950  0.1016 -2.4111
 7222SOL     OW33124   1.030   4.344   1.366 -0.0788 -0.5362  0.3947
 7222SOL    HW133125   1.076   4.387   1.294  0.3053  0.5757  1.2986
 7222SOL    HW233126   0.958   4.407   1.370  2.3775  2.2001  1.9640
 7223SOL     OW33127   3.213   1.113   5.520 -0.4881 -0.0037  0.2161
 7223SOL    HW133128   3.243   1.103   5.610  0.5310  1.4776  0.0462
 7223SOL    HW233129   3.268   1.044   5.483 -1.7445 -0.7139 -0.3234
 7224SOL     OW33130   4.568   0.872   9.259 -0.0652 -0.5719 -0.1719
 7224SOL    HW133131   4.648   0.901   9.215 -0.1458  1.9185  1.2893
 7224SOL    HW233132   4.523   0.956   9.273  0.3686 -0.0996 -1.6416
 7225SOL     OW33133   3.019   1.399   6.635 -0.5069  0.1356  0.4625
 7225SOL    HW133134   2.976   1.438   6.559 -0.8094  1.8904  1.5318
 7225SOL    HW233135   3.070   1.476   6.657  0.3190 -0.2046 -0.2657
 7226SOL     OW33136   2.274   0.013  10.622 -0.1459  0.3989 -0.3810
 7226SOL    HW133137   2.277   4.709  10.530  3.3617 -0.1889 -0.1037
 7226SOL    HW233138   2.199   0.071  10.630  0.2956  0.6619  1.7940
 7227SOL     OW33139   2.942   2.730  16.500  0.1701 -0.4909  0.2936
 7227SOL    HW133140   2.980   2.735  16.413 -0.3407 -2.4072 -0.0460
 7227SOL    HW233141   3.029   2.715  16.536  0.6205  0.4153 -0.4365
 7228SOL     OW33142   3.525   4.199   4.886 -0.0981 -0.1961  0.5642
 7228SOL    HW133143   3.599   4.255   4.909 -0.5032  0.2030  0.9227
 7228SOL    HW233144   3.551   4.109   4.905  0.0363 -0.0068  1.3038
 7229SOL     OW33145   3.069   0.957   4.842 -0.0824  0.1773 -0.5594
 7229SOL    HW133146   3.151   0.916   4.869 -0.1320 -0.1948 -0.9697
 7229SOL    HW233147   3.045   0.992   4.928 -0.4378  0.9756 -0.9853
 7230SOL     OW33148   1.580   0.053   4.230  0.0511  0.0807  0.2330
 7230SOL    HW133149   1.620   4.693   4.252 -1.3756 -0.0861  2.1978
 7230SOL    HW233150   1.612   0.064   4.140 -0.2181 -0.4021  0.0754
 7231SOL     OW33151   1.621   3.813  11.210 -0.5827 -0.0598  0.1394
 7231SOL    HW133152   1.604   3.878  11.279  0.7891  1.6295 -1.1187
 7231SOL    HW233153   1.657   3.872  11.144 -3.6640 -0.6049 -2.0692
 7232SOL     OW33154   3.747   2.705  15.838  0.9396  0.3331 -0.3193
 7232SOL    HW133155   3.671   2.648  15.850 -1.1020  3.1460  0.1118
 7232SOL    HW233156   3.702   2.790  15.838 -1.0284 -0.7201  3.3765
 7233SOL     OW33157   2.648   0.100  11.813  0.0517  0.0734 -0.1924
 7233SOL    HW133158   2.648   0.166  11.882  1.0909  0.1034 -0.2324
 7233SOL    HW233159   2.624   0.150  11.735 -1.5375 -1.5041 -0.7352
 7234SOL     OW33160   3.449   2.641   1.057  0.0244 -0.8242  0.4650
 7234SOL    HW133161   3.482   2.576   0.996  0.2813  1.4619 -1.8153
 7234SOL    HW233162   3.529   2.665   1.104 -1.2030  0.7023  1.7807
 7235SOL     OW33163   0.405   2.846  13.749 -0.2865 -0.2593 -0.4193
 7235SOL    HW133164   0.325   2.818  13.704  1.6170 -3.1795 -1.9746
 7235SOL    HW233165   0.409   2.777  13.816  1.1934  0.7800  0.5671
 7236SOL     OW33166   4.100   2.122   5.800  0.6408 -0.3946  0.1081
 7236SOL    HW133167   4.128   2.050   5.856  2.5154  0.5631  0.3860
 7236SOL    HW233168   4.013   2.087   5.778  0.5529  0.9658 -1.6848
 7237SOL     OW33169   3.119   0.045   4.957 -0.5294 -0.0614 -0.7995
 7237SOL    HW133170   3.102   0.123   5.009  2.0433  2.1428 -3.2684
 7237SOL    HW233171   3.182   4.722   5.013  0.1841  0.6682 -0.9882
 7238SOL     OW33172   2.914   0.728   4.770  0.7748  0.4647 -0.4143
 7238SOL    HW133173   2.906   0.790   4.841  0.0642 -1.7574  1.4433
 7238SOL    HW233174   3.007   0.706   4.772  0.3532 -1.4884 -1.5958
 7239SOL     OW33175   0.402   1.812   8.517 -0.6355  0.0837 -0.0914
 7239SOL    HW133176   0.348   1.735   8.534 -2.0879  1.4697  1.5591
 7239SOL    HW233177   0.396   1.833   8.424 -2.5501  1.8533  0.4297
 7240SOL     OW33178   3.879   1.244   8.407  0.1025 -0.1674 -0.3472
 7240SOL    HW133179   3.788   1.257   8.379  0.1913 -0.8459 -0.9550
 7240SOL    HW233180   3.873   1.261   8.501 -1.6831  1.3728 -0.7445
 7241SOL     OW33181   3.732   4.247   2.468 -0.1111  0.2959 -0.1769
 7241SOL    HW133182   3.670   4.176   2.450 -0.1427  0.2527  0.1170
 7241SOL    HW233183   3.751   4.277   2.379  1.6296  2.7301  1.0317
 7242SOL     OW33184   0.049   1.705  17.655 -0.3601  0.1971 -0.2301
 7242SOL    HW133185   4.696   1.650  17.641 -0.4854  0.1470  0.6349
 7242SOL    HW233186   0.101   1.685  17.577  1.7191  3.7597  0.2336
 7243SOL     OW33187   3.245   3.906   3.984 -0.3643 -0.4946 -0.2678
 7243SOL    HW133188   3.259   3.866   3.898 -2.0493  0.4529 -0.9778
 7243SOL    HW233189   3.324   3.960   3.987 -0.4970 -0.3729  0.9742
 7244SOL     OW33190   1.725   2.602   5.732 -0.1362 -0.3228 -0.2259
 7244SOL    HW133191   1.629   2.609   5.730  0.1614  4.1998  1.3356
 7244SOL    HW233192   1.736   2.600   5.827 -1.6519  1.8173  0.0219
 7245SOL     OW33193   1.159   3.014  17.074  0.3273  0.6327 -0.0455
 7245SOL    HW133194   1.181   3.108  17.076  1.9409  0.2861 -1.1316
 7245SOL    HW233195   1.148   3.003  17.168  0.2158 -0.2474 -0.1636
 7246SOL     OW33196   1.971   0.321   8.213  0.1293 -0.0809 -0.4785
 7246SOL    HW133197   1.907   0.391   8.201  1.6496  1.6112  1.1834
 7246SOL    HW233198   2.041   0.371   8.256 -1.7624  0.5004  1.9400
 7247SOL     OW33199   4.369   0.725   4.998  0.4185  0.5829  0.6981
 7247SOL    HW133200   4.367   0.629   4.992  1.9038  0.6124 -0.4509
 7247SOL    HW233201   4.282   0.741   4.961  1.6995 -1.7343 -3.3658
 7248SOL     OW33202   0.280   1.620   4.409  0.2995 -0.4512  0.0736
 7248SOL    HW133203   0.334   1.587   4.481  0.6020 -0.7004 -0.2708
 7248SOL    HW233204   0.227   1.542   4.394 -0.3039  0.2362 -1.4391
 7249SOL     OW33205   2.797   1.444   4.159 -0.1799  0.8331 -0.1015
 7249SOL    HW133206   2.886   1.458   4.191  0.8337  2.5791 -3.7343
 7249SOL    HW233207   2.780   1.529   4.118 -0.2423  1.2079  0.6797
 7250SOL     OW33208   2.937   3.096   1.001 -0.3878 -0.6042 -0.3027
 7250SOL    HW133209   3.012   3.037   0.993  1.0522  1.1008  0.5595
 7250SOL    HW233210   2.965   3.152   0.928 -0.0091 -0.1765  0.1741
 7251SOL     OW33211   3.601   3.062   6.956 -0.3043  0.3389  0.7907
 7251SOL    HW133212   3.573   3.017   6.877  2.2249  1.0674 -0.5183
 7251SOL    HW233213   3.600   2.996   7.025 -0.0443 -0.5860 -0.1063
 7252SOL     OW33214   2.446   1.747   4.517  0.2864  0.0861 -0.1578
 7252SOL    HW133215   2.387   1.713   4.450  0.6744 -0.4963 -0.2032
 7252SOL    HW233216   2.491   1.666   4.542 -0.5774  0.0199  1.1750
 7253SOL     OW33217   3.765   0.282   4.679  0.0189 -0.2420  0.3760
 7253SOL    HW133218   3.739   0.199   4.719  1.6495 -1.1535 -0.4556
 7253SOL    HW233219   3.697   0.336   4.719  0.7000 -0.5230  1.9062
 7254SOL     OW33220   1.349   3.596  11.758 -0.1969 -0.0100 -0.0724
 7254SOL    HW133221   1.327   3.596  11.665 -0.0345 -0.9300 -0.1152
 7254SOL    HW233222   1.273   3.544  11.784 -0.2685  0.5926  0.9009
 7255SOL     OW33223   3.461   2.955   5.190  0.4611  0.1835 -0.3664
 7255SOL    HW133224   3.417   2.967   5.105  0.8716  0.5783 -0.5241
 7255SOL    HW233225   3.533   3.019   5.190  2.2138 -1.7887  1.0338
 7256SOL     OW33226   2.166   4.342  12.029  0.2598  0.0435 -0.3080
 7256SOL    HW133227   2.071   4.337  12.021  0.0325  1.4601  1.3475
 7256SOL    HW233228   2.197   4.345  11.939  2.7400 -2.9561  0.4580
 7257SOL     OW33229   4.352   3.142   5.228 -0.3441 -0.6613  0.0014
 7257SOL    HW133230   4.325   3.094   5.150 -1.2072 -0.9618  0.4900
 7257SOL    HW233231   4.268   3.166   5.268 -0.5758  1.9328 -2.0486
 7258SOL     OW33232   4.381   3.031   3.394  0.1022  0.0425  0.6492
 7258SOL    HW133233   4.378   2.968   3.466 -1.4785 -0.5906  0.0222
 7258SOL    HW233234   4.466   3.012   3.354 -0.7014 -3.4062  0.6269
 7259SOL     OW33235   1.924   3.177   0.958 -0.0369  0.6150 -0.3526
 7259SOL    HW133236   1.926   3.237   1.032 -3.8882  0.4197 -0.0760
 7259SOL    HW233237   1.995   3.203   0.899 -0.0477 -2.0801 -1.5892
 7260SOL     OW33238   1.390   2.875  13.171 -0.3344 -0.0644 -0.1360
 7260SOL    HW133239   1.309   2.824  13.160  0.2234 -0.8009 -0.8479
 7260SOL    HW233240   1.386   2.925  13.252 -2.5787  0.3141 -0.4857
 7261SOL     OW33241   4.474   2.200   8.112 -0.2615 -0.2337 -0.2028
 7261SOL    HW133242   4.417   2.162   8.178  1.6011  0.0174  1.5495
 7261SOL    HW233243   4.467   2.293   8.134  1.0196 -0.2649  0.3410
 7262SOL     OW33244   2.184   4.047   3.314 -0.0243  0.1844  0.5339
 7262SOL    HW133245   2.232   4.043   3.232  2.3190  1.6399  1.8583
 7262SOL    HW233246   2.105   4.004   3.281  0.7804 -2.7328  2.3747
 7263SOL     OW33247   4.331   1.244  16.270  0.1058 -0.4603  0.0204
 7263SOL    HW133248   4.396   1.178  16.247  2.4548  1.5317  0.9597
 7263SOL    HW233249   4.337   1.294  16.189 -0.5483  1.4819  1.1675
 7264SOL     OW33250   3.852   4.008   3.279  0.1536 -0.2363 -0.1352
 7264SOL    HW133251   3.847   4.061   3.199 -1.8399 -1.9076 -1.1356
 7264SOL    HW233252   3.769   3.963   3.264  0.1160  0.2125 -1.2561
 7265SOL     OW33253   1.689   0.547   8.549 -0.3475  0.1907 -0.2286
 7265SOL    HW133254   1.778   0.519   8.572  0.1401  1.2203 -0.8778
 7265SOL    HW233255   1.657   0.584   8.632  0.4116 -1.0950  0.6455
 7266SOL     OW33256   1.009   1.534   9.361  0.3557 -0.3176 -0.2093
 7266SOL    HW133257   0.974   1.448   9.335 -0.6945 -0.8477  2.9428
 7266SOL    HW233258   0.947   1.552   9.431  1.2569  1.4732  0.1227
 7267SOL     OW33259   2.258   1.469  16.234  0.6030 -0.6765  0.9078
 7267SOL    HW133260   2.230   1.415  16.160  0.1004  0.9608 -0.1059
 7267SOL    HW233261   2.339   1.507  16.199  0.1411  0.2272  0.8349
 7268SOL     OW33262   0.553   2.102   2.180  0.5672  0.2344 -0.2864
 7268SOL    HW133263   0.559   2.119   2.086 -0.7667 -0.1669 -0.4504
 7268SOL    HW233264   0.459   2.085   2.189  0.2469  1.8887 -0.6261
 7269SOL     OW33265   3.765   0.194  17.000 -0.2956 -0.7709  0.4149
 7269SOL    HW133266   3.845   0.162  17.041 -0.6689  0.2547  1.9185
 7269SOL    HW233267   3.799   0.247  16.928 -0.4358 -0.0148  0.9075
 7270SOL     OW33268   0.194   3.818   5.900  0.2252  0.1596 -0.1958
 7270SOL    HW133269   0.207   3.912   5.909 -0.2150  0.3340 -1.4622
 7270SOL    HW233270   0.125   3.804   5.964  0.8000  0.9139  0.5868
 7271SOL     OW33271   0.764   2.903  11.203 -0.1246 -0.1380  0.2941
 7271SOL    HW133272   0.822   2.975  11.178  1.2361 -0.4780  2.4518
 7271SOL    HW233273   0.832   2.840  11.229 -0.0401 -1.7946 -3.8333
 7272SOL     OW33274   0.670   0.852   9.525 -0.0585 -0.4928 -0.0901
 7272SOL    HW133275   0.641   0.773   9.479  3.2905 -0.7378 -1.7588
 7272SOL    HW233276   0.583   0.890   9.540 -0.3061 -0.4421 -1.6416
 7273SOL     OW33277   3.819   0.668  17.176  0.0402  0.2932  0.2766
 7273SOL    HW133278   3.799   0.644  17.266  2.3287 -0.9562  0.4702
 7273SOL    HW233279   3.911   0.693  17.167 -0.0835 -0.6016 -3.3502
 7274SOL     OW33280   2.407   4.507   2.011  0.2584 -0.7975 -0.5234
 7274SOL    HW133281   2.331   4.453   1.988 -1.4160  1.1285  0.3792
 7274SOL    HW233282   2.471   4.478   1.947  2.4411 -0.6873  1.6050
 7275SOL     OW33283   3.849   4.233   4.934 -0.0626  0.0543  0.8529
 7275SOL    HW133284   3.787   4.300   4.904  1.2885  0.4455 -1.0213
 7275SOL    HW233285   3.815   4.219   5.023 -3.0838 -1.1380 -0.4918
 7276SOL     OW33286   0.366   2.800   5.414 -0.0509  0.0648  0.0290
 7276SOL    HW133287   0.414   2.880   5.435 -1.2338  0.6903  0.3227
 7276SOL    HW233288   0.407   2.780   5.330 -1.6018 -0.8237 -0.5131
 7277SOL     OW33289   0.277   0.285   6.104  0.0942  0.5370  0.2722
 7277SOL    HW133290   0.304   0.248   6.189  0.6615 -1.2991 -0.6993
 7277SOL    HW233291   0.205   0.340   6.134 -0.4395  0.5699 -1.0742
 7278SOL     OW33292   0.024   4.617   3.804 -0.5349  0.1163  0.0131
 7278SOL    HW133293   0.111   4.602   3.840  0.1012 -0.8793 -1.9119
 7278SOL    HW233294   0.030   4.700   3.757  1.8966  0.0017  0.1150
 7279SOL     OW33295   0.505   1.599  13.987 -0.8427 -0.2086  0.4794
 7279SOL    HW133296   0.596   1.588  14.013 -0.6794  1.4860  0.5892
 7279SOL    HW233297   0.508   1.659  13.913  1.5533  0.6151  1.2852
 7280SOL     OW33298   4.204   0.913   8.716 -0.0188 -0.3600 -0.2177
 7280SOL    HW133299   4.135   0.903   8.650 -0.9835  0.3048  0.6920
 7280SOL    HW233300   4.274   0.860   8.677 -0.7232 -0.5995 -1.1735
 7281SOL     OW33301   4.111   1.834  13.297 -0.0469  0.4496  0.1586
 7281SOL    HW133302   4.025   1.876  13.298 -0.1197  0.2790  1.6882
 7281SOL    HW233303   4.170   1.906  13.318  0.6523  0.2256 -1.0514
 7282SOL     OW33304   4.240   0.979   5.259  0.2543  0.3349 -1.1365
 7282SOL    HW133305   4.218   0.904   5.204  1.3288 -0.9695  0.2123
 7282SOL    HW233306   4.162   1.035   5.259 -1.3760 -1.9317 -1.3076
 7283SOL     OW33307   0.621   0.649   9.308 -0.3055  0.2432  0.3300
 7283SOL    HW133308   0.583   0.705   9.240 -1.1581  0.6343  1.1466
 7283SOL    HW233309   0.685   0.610   9.248  0.1788 -0.0146  1.0235
 7284SOL     OW33310   0.065   0.688   2.128 -0.6011  0.0837 -0.1791
 7284SOL    HW133311   0.127   0.655   2.064 -1.8592  2.1624 -2.4979
 7284SOL    HW233312   4.711   0.700   2.073 -0.3388 -0.5246 -0.6802
 7285SOL     OW33313   2.904   3.884   7.957  0.2358 -0.3315 -0.0391
 7285SOL    HW133314   2.956   3.950   7.912 -0.8785 -0.3405 -1.3521
 7285SOL    HW233315   2.872   3.944   8.024  1.3266  1.0762 -0.7930
 7286SOL     OW33316   0.171   3.094   0.351 -0.5682 -0.5948  0.3297
 7286SOL    HW133317   0.083   3.092   0.388 -0.1653  3.0651  1.5227
 7286SOL    HW233318   0.230   3.122   0.421  1.3248 -2.6274 -0.4621
 7287SOL     OW33319   2.993   0.064   3.783 -0.4244  0.3309 -0.2453
 7287SOL    HW133320   3.075   0.018   3.764  1.5707  3.4910  0.7817
 7287SOL    HW233321   2.979   0.056   3.878  2.0555  0.3138  0.1075
 7288SOL     OW33322   4.403   3.731   2.758  0.5908  0.6369  0.0878
 7288SOL    HW133323   4.328   3.759   2.810  0.7454 -0.9300  1.1627
 7288SOL    HW233324   4.460   3.680   2.816  0.3001  0.9913  0.6829
 7289SOL     OW33325   1.524   4.090   6.042  0.8850  0.1442 -0.1428
 7289SOL    HW133326   1.484   4.004   6.055  0.5914  0.6952  2.6521
 7289SOL    HW233327   1.597   4.066   6.099  0.4894  0.8807  0.6733
 7290SOL     OW33328   0.186   2.250  10.579  0.0960 -0.5088  0.1833
 7290SOL    HW133329   0.274   2.237  10.615 -0.2215 -1.1957  0.7188
 7290SOL    HW233330   0.207   2.301  10.502 -1.7425 -3.5637 -2.3481
 7291SOL     OW33331   2.239   4.575   2.571  0.5523  0.0855  1.0322
 7291SOL    HW133332   2.173   4.586   2.504  0.8187  1.3808  0.9907
 7291SOL    HW233333   2.225   4.484   2.598  4.0513 -1.6550 -3.0523
 7292SOL     OW33334   2.908   4.468   3.376 -0.5453 -0.5767 -0.2071
 7292SOL    HW133335   2.894   4.558   3.347  1.8730 -0.4216 -0.8874
 7292SOL    HW233336   2.990   4.446   3.332 -0.3322 -0.4303  0.1263
 7293SOL     OW33337   0.863   4.066   4.572  0.6682 -0.8617  0.1574
 7293SOL    HW133338   0.817   4.082   4.490  2.3804  2.9802 -0.0550
 7293SOL    HW233339   0.915   3.987   4.557  0.8533 -0.6542 -0.2926
 7294SOL     OW33340   4.525   1.254   6.023  0.1386  0.7970 -0.4874
 7294SOL    HW133341   4.602   1.229   6.074 -2.1618 -3.6464  0.8241
 7294SOL    HW233342   4.508   1.173   5.976 -0.1797  1.7680 -2.0508
 7295SOL     OW33343   4.178   1.257   7.619 -0.7933 -0.0374  0.5333
 7295SOL    HW133344   4.083   1.263   7.606 -1.0080  0.5098  2.3385
 7295SOL    HW233345   4.203   1.349   7.624 -1.4630  0.2846 -2.2806
 7296SOL     OW33346   1.919   0.713   7.906 -0.2645 -0.0260  0.0629
 7296SOL    HW133347   1.868   0.638   7.876 -2.1461  0.8057  1.1732
 7296SOL    HW233348   1.992   0.721   7.845 -0.3936 -1.0134 -0.2202
 7297SOL     OW33349   2.454   2.113   9.704  0.0632  0.3916 -0.2294
 7297SOL    HW133350   2.499   2.196   9.686  0.5302  0.4163  1.0436
 7297SOL    HW233351   2.519   2.069   9.758  2.0683  2.5500 -0.8869
 7298SOL     OW33352   2.044   0.399   4.407 -0.2270  0.0096 -0.0033
 7298SOL    HW133353   2.056   0.307   4.384 -0.1651  0.2709 -1.0099
 7298SOL    HW233354   2.118   0.437   4.359 -0.9706  1.6409  0.1388
 7299SOL     OW33355   3.009   2.827   8.246  0.3993  0.2003 -0.2725
 7299SOL    HW133356   3.024   2.736   8.275 -1.9212  0.2496  1.0113
 7299SOL    HW233357   3.102   2.850   8.245  0.7369 -1.2328 -2.6522
 7300SOL     OW33358   1.919   3.124   5.116 -0.3662 -0.6009 -0.2071
 7300SOL    HW133359   1.826   3.125   5.138 -0.0466  0.3119  1.1536
 7300SOL    HW233360   1.913   3.056   5.050 -0.9641 -0.1648 -0.6034
 7301SOL     OW33361   0.384   4.387   2.768 -0.1577  0.5888  0.3516
 7301SOL    HW133362   0.403   4.365   2.677 -0.9005 -2.3165  0.8754
 7301SOL    HW233363   0.347   4.475   2.771  0.8948  1.0213  0.4655
 7302SOL     OW33364   3.886   1.372   5.308 -0.4322  0.4834  0.4636
 7302SOL    HW133365   3.865   1.349   5.218 -0.5675 -2.0219  1.1121
 7302SOL    HW233366   3.891   1.286   5.351  2.7741 -0.1100 -1.1446
 7303SOL     OW33367   3.874   0.909   1.747  0.5528  0.1092  0.0896
 7303SOL    HW133368   3.838   0.913   1.836  1.9192 -0.2615  0.6547
 7303SOL    HW233369   3.933   0.981   1.771  1.6340 -0.4569 -0.8490
 7304SOL     OW33370   1.377   2.874   5.189 -0.0180  1.0658 -0.2483
 7304SOL    HW133371   1.298   2.853   5.240 -0.5485 -0.7594 -1.8207
 7304SOL    HW233372   1.381   2.969   5.183  2.3675  1.0702  1.5025
 7305SOL     OW33373   1.218   3.474   8.085 -0.4951  0.2879  0.3178
 7305SOL    HW133374   1.239   3.412   8.015  0.1247  0.7075  0.1395
 7305SOL    HW233375   1.294   3.531   8.078 -1.1761  1.0550 -0.8280
 7306SOL     OW33376   3.991   0.941   2.636 -0.3836 -0.4059  0.1098
 7306SOL    HW133377   3.951   0.943   2.723  1.0674  0.6255  0.7538
 7306SOL    HW233378   3.961   0.859   2.596 -0.0965  0.3463 -1.6673
 7307SOL     OW33379   3.759   3.685   5.417 -0.1893 -0.3653 -0.2956
 7307SOL    HW133380   3.759   3.781   5.422  1.4098 -0.2478 -2.3657
 7307SOL    HW233381   3.680   3.677   5.363  0.6660 -1.0421 -1.4541
 7308SOL     OW33382   1.075   0.370  16.317  0.2242  0.1392  0.4461
 7308SOL    HW133383   1.154   0.318  16.326  0.5059  0.3587 -0.7455
 7308SOL    HW233384   1.090   0.400  16.228  2.6063  0.1668  0.8465
 7309SOL     OW33385   2.225   2.151   8.310  0.2671  1.3503  0.3563
 7309SOL    HW133386   2.191   2.063   8.322  1.2502  0.7572 -1.3219
 7309SOL    HW233387   2.213   2.177   8.402 -2.1421  3.1199 -0.4461
 7310SOL     OW33388   2.053   2.702   1.893  0.0151 -0.0622 -0.0750
 7310SOL    HW133389   2.079   2.673   1.980 -1.1682 -0.8637  0.0202
 7310SOL    HW233390   2.123   2.763   1.870 -1.0126  0.8684 -0.7128
 7311SOL     OW33391   1.632   3.795  17.544 -0.0589 -0.1467 -0.7057
 7311SOL    HW133392   1.680   3.721  17.508 -0.1472 -0.3887 -0.3184
 7311SOL    HW233393   1.654   3.864  17.481  2.7057  1.7748  2.3584
 7312SOL     OW33394   3.349   1.421   2.845 -0.1512 -0.0492  0.1652
 7312SOL    HW133395   3.354   1.466   2.930  2.0550 -1.4154  0.7612
 7312SOL    HW233396   3.294   1.344   2.862 -0.4993  0.0735 -0.4103
 7313SOL     OW33397   2.216   1.562   3.270 -0.2667 -0.9299 -0.3077
 7313SOL    HW133398   2.247   1.646   3.305 -0.5532 -0.4470 -1.1989
 7313SOL    HW233399   2.263   1.496   3.321 -0.8008 -1.6703 -0.7752
 7314SOL     OW33400   0.974   1.079   6.124  0.1249 -0.2405  0.4078
 7314SOL    HW133401   0.899   1.070   6.183  0.1313 -0.6639  0.3526
 7314SOL    HW233402   1.032   1.140   6.170 -1.2330  0.0974  1.6630
 7315SOL     OW33403   3.864   2.645  15.132 -0.0052 -0.3726 -0.1025
 7315SOL    HW133404   3.929   2.689  15.077  0.6020 -1.0098  0.1043
 7315SOL    HW233405   3.908   2.561  15.138  1.1521  0.4553  2.8030
 7316SOL     OW33406   0.186   1.451   1.000 -0.0652 -0.0109  0.1672
 7316SOL    HW133407   0.217   1.363   0.980 -0.3294 -0.2657  0.8476
 7316SOL    HW233408   0.151   1.441   1.089  1.1534  1.2715  0.7832
 7317SOL     OW33409   3.018   3.150  12.133 -0.2932 -0.1784 -0.2824
 7317SOL    HW133410   2.999   3.215  12.201  0.7756  0.6655 -0.8039
 7317SOL    HW233411   3.083   3.092  12.173  2.2948  2.2437 -1.0315
 7318SOL     OW33412   1.127   1.309   7.495 -0.6663 -0.2013  0.4175
 7318SOL    HW133413   1.050   1.331   7.547  0.0375  0.9583  0.9506
 7318SOL    HW233414   1.169   1.394   7.482 -3.7381  1.1504 -0.5227
 7319SOL     OW33415   0.908   3.076  12.264 -0.1255  0.3010 -0.1839
 7319SOL    HW133416   0.972   3.136  12.303 -0.5643  0.9969 -0.5364
 7319SOL    HW233417   0.856   3.067  12.343  0.8649  0.9221  0.5432
 7320SOL     OW33418   1.974   3.054   4.185 -0.5433  0.4712 -0.0895
 7320SOL    HW133419   1.958   2.982   4.246  2.6333 -0.4911 -0.3832
 7320SOL    HW233420   1.945   3.132   4.232  2.5052  1.6334 -0.1592
 7321SOL     OW33421   2.448   3.583   0.134  1.3471 -0.1553  0.1205
 7321SOL    HW133422   2.538   3.608   0.156  1.0376  0.7562  0.3462
 7321SOL    HW233423   2.471   3.511   0.075  0.3639 -0.5312  0.2119
 7322SOL     OW33424   1.777   1.290   7.652 -0.2411  0.6234 -0.3514
 7322SOL    HW133425   1.763   1.383   7.664  1.5806  0.8753 -0.1805
 7322SOL    HW233426   1.689   1.256   7.668 -1.0115  2.0243 -1.6929
 7323SOL     OW33427   0.965   4.494   2.089 -0.1974 -0.5803 -0.3054
 7323SOL    HW133428   0.915   4.510   2.169 -1.1964  0.1475 -1.0801
 7323SOL    HW233429   1.047   4.537   2.112 -0.8206  1.1956 -1.4074
 7324SOL     OW33430   4.162   0.884  13.371 -0.1764 -0.1138 -0.0231
 7324SOL    HW133431   4.183   0.794  13.347  2.7640  0.7025 -0.5645
 7324SOL    HW233432   4.241   0.936  13.357 -0.0020 -0.1867  0.6779
 7325SOL     OW33433   1.003   1.466   9.789  0.2227  0.0518  0.0156
 7325SOL    HW133434   1.069   1.429   9.847  1.7625  2.0294 -0.4782
 7325SOL    HW233435   1.022   1.411   9.713  0.2381 -1.5774  1.2254
 7326SOL     OW33436   4.522   0.366  14.842 -0.0169 -0.5571  0.1445
 7326SOL    HW133437   4.475   0.322  14.912  0.0698  1.0162  1.1994
 7326SOL    HW233438   4.598   0.309  14.830 -1.2980 -2.3618  0.6041
 7327SOL     OW33439   0.950   2.463   4.404 -0.2681  0.3165  0.4470
 7327SOL    HW133440   0.997   2.396   4.355  0.6280  2.5862 -1.8345
 7327SOL    HW233441   1.027   2.497   4.450  1.4209 -2.1514 -0.6029
 7328SOL     OW33442   3.755   1.044   4.284  0.5332  0.2819  0.0830
 7328SOL    HW133443   3.844   1.079   4.275  1.1283 -0.8156  1.7702
 7328SOL    HW233444   3.716   1.118   4.329 -0.4221  1.0138 -1.9332
 7329SOL     OW33445   0.920   0.335   8.805  0.3195 -0.7585  0.1932
 7329SOL    HW133446   0.898   0.303   8.893 -1.7067  0.9241  0.3182
 7329SOL    HW233447   0.835   0.318   8.764  0.0919 -1.7886  1.0697
 7330SOL     OW33448   0.854   2.765   7.770  0.2580  0.2520  0.1687
 7330SOL    HW133449   0.773   2.807   7.799 -1.2444 -1.2623 -1.8097
 7330SOL    HW233450   0.874   2.710   7.846  1.4676  1.0656  0.4413
 7331SOL     OW33451   2.811   3.169   6.345 -0.0407 -0.0717 -0.0138
 7331SOL    HW133452   2.833   3.078   6.365 -1.4873 -0.9719 -2.4290
 7331SOL    HW233453   2.804   3.198   6.436 -1.4248  0.7560 -0.3908
 7332SOL     OW33454   2.840   4.555   6.893  0.4415  0.3384 -0.3195
 7332SOL    HW133455   2.849   4.478   6.950  0.5434  0.4950 -0.1232
 7332SOL    HW233456   2.920   4.557   6.840  0.3966 -0.3088 -0.4233
 7333SOL     OW33457   4.256   4.131   5.458 -0.3488 -0.0511 -0.3594
 7333SOL    HW133458   4.269   4.192   5.385  2.2612  2.4398  2.1533
 7333SOL    HW233459   4.342   4.089   5.466 -0.5113 -0.7690 -2.6338
 7334SOL     OW33460   4.268   0.211  13.683  0.6413  0.2325  0.2611
 7334SOL    HW133461   4.279   0.237  13.592  0.0695 -3.3878 -0.8791
 7334SOL    HW233462   4.190   0.261  13.708 -0.5219 -1.8380  0.8331
 7335SOL     OW33463   3.552   2.492   8.502 -0.6861  0.8549 -0.6510
 7335SOL    HW133464   3.580   2.583   8.515  0.3083  0.7925 -2.3706
 7335SOL    HW233465   3.637   2.449   8.510 -0.3470  1.7148  0.3147
 7336SOL     OW33466   0.455   2.374   1.186 -0.5686 -0.4803 -0.3563
 7336SOL    HW133467   0.368   2.335   1.182 -0.5047 -0.8584  1.8055
 7336SOL    HW233468   0.470   2.378   1.091  0.7353 -1.5835 -0.1981
 7337SOL     OW33469   1.260   0.098   7.325  0.1570  0.6491 -0.1672
 7337SOL    HW133470   1.254   0.119   7.232 -1.8326  0.0011 -0.1653
 7337SOL    HW233471   1.250   0.186   7.362 -0.6556 -0.7026  2.8393
 7338SOL     OW33472   0.283   1.213  16.776 -0.1800 -0.9196 -0.1416
 7338SOL    HW133473   0.321   1.212  16.864  0.8804 -1.9610 -0.6160
 7338SOL    HW233474   0.215   1.146  16.779  0.4611 -1.5469  0.2989
 7339SOL     OW33475   1.267   2.684   8.898 -0.0219 -0.5875  0.1177
 7339SOL    HW133476   1.314   2.716   8.975  0.8491 -1.2962 -0.1227
 7339SOL    HW233477   1.184   2.658   8.938  0.5577  1.7232  2.8357
 7340SOL     OW33478   0.781   3.984   1.513 -0.5826  0.0517 -0.5393
 7340SOL    HW133479   0.772   3.897   1.552  2.4270  0.2394  0.5468
 7340SOL    HW233480   0.861   3.969   1.463 -0.5437  0.8248 -0.6983
 7341SOL     OW33481   3.299   4.214   5.429 -0.2897 -0.0771  0.4992
 7341SOL    HW133482   3.380   4.181   5.468 -0.0722  0.3393  0.3950
 7341SOL    HW233483   3.292   4.123   5.401  0.9472  0.2093 -0.7202
 7342SOL     OW33484   3.679   0.133  12.399  0.1395 -0.3059  0.0007
 7342SOL    HW133485   3.586   0.147  12.413 -0.0106 -0.6866 -0.6077
 7342SOL    HW233486   3.689   0.037  12.398  0.9936 -0.2155  0.0062
 7343SOL     OW33487   4.401   2.715   4.137  0.4654 -0.0567  0.1509
 7343SOL    HW133488   4.362   2.686   4.054  1.6213 -2.1250  0.3357
 7343SOL    HW233489   4.443   2.799   4.121  3.1586 -0.9397  2.6106
 7344SOL     OW33490   2.704   1.344   8.249 -0.1890 -0.4883  0.0154
 7344SOL    HW133491   2.717   1.437   8.270 -2.7509 -0.2188  0.3444
 7344SOL    HW233492   2.781   1.311   8.295  0.3050  2.0346  0.9895
 7345SOL     OW33493   1.110   1.135   3.763  0.2302 -0.1280  0.4883
 7345SOL    HW133494   1.041   1.107   3.822 -0.0563  2.4302  1.3767
 7345SOL    HW233495   1.191   1.127   3.812  1.1401 -0.7367 -1.1060
 7346SOL     OW33496   3.511   4.129   3.058 -0.2521  0.5430  0.1815
 7346SOL    HW133497   3.446   4.146   3.126  0.5321  4.3239 -0.0366
 7346SOL    HW233498   3.584   4.169   3.103 -0.5243  1.0953  0.1338
 7347SOL     OW33499   1.245   2.911   5.954  0.6324 -0.5415 -0.0370
 7347SOL    HW133500   1.221   2.993   5.912 -0.9117 -1.5620 -1.1665
 7347SOL    HW233501   1.166   2.893   6.006  0.5415 -2.9381 -1.0139
 7348SOL     OW33502   2.324   0.306   3.166 -0.3489  0.1105  0.7455
 7348SOL    HW133503   2.321   0.258   3.083 -1.1440 -1.1327  1.5044
 7348SOL    HW233504   2.264   0.257   3.221  0.4192 -2.2867 -0.5829
 7349SOL     OW33505   0.646   2.419   1.950 -0.2879  0.2343 -0.4855
 7349SOL    HW133506   0.677   2.496   1.902 -0.9704  0.4276 -0.6194
 7349SOL    HW233507   0.561   2.455   1.975  0.7573 -0.0261  3.2979
 7350SOL     OW33508   0.801   3.923   4.834  0.4195  0.4352  0.0467
 7350SOL    HW133509   0.792   3.983   4.760 -1.0159  1.5150  1.0932
 7350SOL    HW233510   0.797   3.991   4.901 -2.5674 -0.0363  0.3386
 7351SOL     OW33511   1.136   3.917   7.012  0.1397  0.5087 -0.1991
 7351SOL    HW133512   1.103   3.828   7.003  1.2117  0.3356 -2.4861
 7351SOL    HW233513   1.200   3.917   6.941 -0.3047 -0.3455 -0.5881
 7352SOL     OW33514   1.778   0.005   9.506 -0.0303 -0.9799 -0.0435
 7352SOL    HW133515   1.847   0.045   9.452 -1.7733  1.1205 -0.7040
 7352SOL    HW233516   1.734   0.081   9.543  2.0249 -0.4790  1.4015
 7353SOL     OW33517   3.238   4.614  15.744  0.2255 -0.5205  0.2414
 7353SOL    HW133518   3.264   4.617  15.836  0.6185 -1.9592  0.1764
 7353SOL    HW233519   3.292   4.545  15.706  0.8593 -0.3861  0.9016
 7354SOL     OW33520   4.183   2.814   8.467  0.1973  0.1236  0.3857
 7354SOL    HW133521   4.121   2.773   8.408 -0.7727  0.3616  1.2290
 7354SOL    HW233522   4.141   2.785   8.549 -0.1648  1.0555  0.5409
 7355SOL     OW33523   1.423   2.649  12.636 -0.8989  0.2053 -0.7778
 7355SOL    HW133524   1.442   2.632  12.544 -0.2535  1.1402 -0.8171
 7355SOL    HW233525   1.399   2.741  12.628  1.9586  0.9559 -0.6391
 7356SOL     OW33526   3.447   1.542   5.556  0.1390 -0.1063 -0.0396
 7356SOL    HW133527   3.431   1.518   5.464  0.0819  2.0739 -0.6036
 7356SOL    HW233528   3.424   1.635   5.557  1.8627  0.3028  1.3494
 7357SOL     OW33529   2.659   2.863   6.191 -0.0470  0.3313  0.3960
 7357SOL    HW133530   2.590   2.876   6.126  0.0129 -3.8462 -0.4710
 7357SOL    HW233531   2.726   2.828   6.133 -0.8793 -0.3322 -0.1723
 7358SOL     OW33532   2.304   3.197  12.414 -0.0499  0.1265  0.3999
 7358SOL    HW133533   2.257   3.142  12.477  0.4171 -2.6456 -1.6214
 7358SOL    HW233534   2.374   3.232  12.469  0.7797 -2.2384  0.8814
 7359SOL     OW33535   3.872   0.172   9.149  0.1353 -0.3400 -0.3252
 7359SOL    HW133536   3.825   0.129   9.220  0.7962 -0.0316  0.2964
 7359SOL    HW233537   3.876   0.264   9.176  1.9574  0.2354 -2.5378
 7360SOL     OW33538   1.777   2.591   2.169 -0.1815 -0.4494  0.0069
 7360SOL    HW133539   1.803   2.502   2.191 -1.5840 -1.1157 -1.0811
 7360SOL    HW233540   1.695   2.578   2.121 -0.1409 -1.0840  0.1104
 7361SOL     OW33541   3.865   2.781   8.629 -0.0920  0.4982  0.0256
 7361SOL    HW133542   3.944   2.766   8.681  0.9433  2.1784 -1.0821
 7361SOL    HW233543   3.856   2.876   8.637  0.5997  0.4525  1.2893
 7362SOL     OW33544   0.389   4.671   0.551  0.7078 -0.1451 -0.1222
 7362SOL    HW133545   0.308   4.672   0.499 -0.0461  1.2547  1.0685
 7362SOL    HW233546   0.383   4.590   0.602 -0.4711 -0.5594 -0.9128
 7363SOL     OW33547   0.927   1.353   6.536  0.1213 -0.1556 -0.0478
 7363SOL    HW133548   0.998   1.410   6.507  0.3131  0.1443  1.0256
 7363SOL    HW233549   0.883   1.329   6.454  0.5068 -0.4941 -0.1584
 7364SOL     OW33550   1.969   3.507  11.363  0.6206 -0.1268 -0.1498
 7364SOL    HW133551   1.899   3.558  11.322  0.9701  1.0021  0.6456
 7364SOL    HW233552   1.928   3.421  11.355  1.3718 -0.5708  0.7248
 7365SOL     OW33553   3.613   0.003  15.195 -0.2798 -0.1482  0.0375
 7365SOL    HW133554   3.656   0.006  15.281  1.5048  0.1506 -0.8567
 7365SOL    HW233555   3.613   0.093  15.161 -1.6906 -0.1636  0.0042
 7366SOL     OW33556   1.593   1.938  15.641 -0.1025 -0.0145 -0.1247
 7366SOL    HW133557   1.530   1.893  15.698 -0.9836  2.0949  0.5704
 7366SOL    HW233558   1.624   2.011  15.694 -0.0284  0.0654 -0.2801
 7367SOL     OW33559   1.078   3.852   5.334  0.1726 -0.5921 -0.3835
 7367SOL    HW133560   1.061   3.936   5.290 -0.4944 -1.0853 -1.0795
 7367SOL    HW233561   1.065   3.789   5.263  1.3508 -1.8539  0.5460
 7368SOL     OW33562   1.653   4.528   2.597 -0.3534  0.0829  0.6451
 7368SOL    HW133563   1.732   4.483   2.569  1.0709  1.1126  2.9825
 7368SOL    HW233564   1.685   4.564   2.680 -0.0308  2.1178 -0.3651
 7369SOL     OW33565   1.879   0.238  15.776  0.5026 -0.9148  0.1240
 7369SOL    HW133566   1.910   0.210  15.862  0.2275 -0.3036  0.4215
 7369SOL    HW233567   1.927   0.321  15.772  0.7562 -1.1034 -0.8837
 7370SOL     OW33568   4.439   4.588   9.214 -0.4677 -0.4405 -0.0258
 7370SOL    HW133569   4.466   4.596   9.123 -1.1273  0.5585 -0.1301
 7370SOL    HW233570   4.522   4.612   9.256 -0.4281 -1.3393  0.4262
 7371SOL     OW33571   0.968   1.679   4.347  0.0559 -0.1953  0.1437
 7371SOL    HW133572   0.988   1.766   4.312 -1.0891 -0.0602 -0.1850
 7371SOL    HW233573   1.042   1.662   4.406 -1.4832 -2.9898  1.2730
 7372SOL     OW33574   2.549   1.970   4.847 -0.2828 -0.2741  0.1185
 7372SOL    HW133575   2.531   1.931   4.761  1.8637  0.0242 -0.4615
 7372SOL    HW233576   2.546   1.902   4.914  1.0106  0.0199  0.4696
 7373SOL     OW33577   2.076   3.750   7.409 -0.0776 -0.2405 -0.7616
 7373SOL    HW133578   2.059   3.811   7.481  0.0678 -0.1881 -0.7698
 7373SOL    HW233579   2.162   3.780   7.377 -0.2527  1.0196 -0.0820
 7374SOL     OW33580   4.225   3.254   1.438 -0.0868 -0.1666 -0.1102
 7374SOL    HW133581   4.190   3.239   1.525 -1.9902  0.0837 -0.8199
 7374SOL    HW233582   4.206   3.348   1.427 -1.9851 -0.4679  0.5542
 7375SOL     OW33583   3.202   3.675   2.570  0.7870 -0.1379  0.1326
 7375SOL    HW133584   3.193   3.600   2.629 -0.8289 -0.8215 -0.9725
 7375SOL    HW233585   3.191   3.632   2.485  1.2998  0.1057 -0.0544
 7376SOL     OW33586   0.074   1.319   2.838 -0.3716  0.0069 -0.3795
 7376SOL    HW133587   0.080   1.292   2.930 -3.8114 -0.5125 -0.2986
 7376SOL    HW233588   0.164   1.344   2.815 -0.9419  2.3504 -0.0632
 7377SOL     OW33589   2.631   4.133   4.853  0.6949  0.2135 -0.3230
 7377SOL    HW133590   2.589   4.138   4.939  1.1266  0.7361 -0.1440
 7377SOL    HW233591   2.581   4.056   4.826 -0.5351  1.6115 -2.0249
 7378SOL     OW33592   4.212   2.024   5.567 -0.1951  0.1985 -0.1554
 7378SOL    HW133593   4.141   1.967   5.536  0.0550 -0.7151  0.9049
 7378SOL    HW233594   4.167   2.097   5.610  1.6379  1.8153 -1.0316
 7379SOL     OW33595   3.051   1.472  13.452 -0.3309 -0.0339  0.7235
 7379SOL    HW133596   3.013   1.385  13.445 -1.4080  0.5090 -0.0943
 7379SOL    HW233597   3.143   1.453  13.436 -0.0625 -0.2461  2.5811
 7380SOL     OW33598   4.252   3.232  17.372  0.2443 -0.1690 -0.7726
 7380SOL    HW133599   4.274   3.317  17.410 -1.1428  0.3011 -1.0226
 7380SOL    HW233600   4.157   3.234  17.364  0.2066  1.2468  0.0719
 7381SOL     OW33601   1.966   0.805   8.992  0.0873 -0.1436 -0.0056
 7381SOL    HW133602   1.950   0.762   8.908 -0.2606 -0.2632  0.1248
 7381SOL    HW233603   1.886   0.857   8.999  0.6487  1.0829 -2.5015
 7382SOL     OW33604   3.597   3.066   5.924  0.5482  0.0446  0.3237
 7382SOL    HW133605   3.591   3.110   6.009  0.2810 -3.1254  1.9542
 7382SOL    HW233606   3.692   3.069   5.915  0.9059 -1.7966  3.4241
 7383SOL     OW33607   2.671   3.659   8.568  0.2037 -0.4367  0.1481
 7383SOL    HW133608   2.620   3.602   8.627 -0.5808 -0.7062 -0.7950
 7383SOL    HW233609   2.645   3.632   8.480  2.5311 -0.4446 -0.5162
 7384SOL     OW33610   0.510   3.033   2.599 -0.3206 -0.8506 -0.1183
 7384SOL    HW133611   0.534   3.072   2.515  1.3550  0.3556  0.9333
 7384SOL    HW233612   0.516   2.938   2.582  1.7836 -1.0283  1.5201
 7385SOL     OW33613   2.563   0.520   6.462  0.1417 -0.0348 -0.0753
 7385SOL    HW133614   2.638   0.573   6.435  0.0171 -0.0084 -0.3677
 7385SOL    HW233615   2.503   0.592   6.443  0.2169  0.4701  1.5888
 7386SOL     OW33616   1.758   2.947   1.107  0.3523 -0.0712 -0.0578
 7386SOL    HW133617   1.708   3.029   1.106 -1.0350 -0.9104  1.3308
 7386SOL    HW233618   1.844   2.986   1.124  1.6374 -2.3997 -1.2442
 7387SOL     OW33619   1.899   2.141  11.437 -0.1665 -0.0587  0.0876
 7387SOL    HW133620   1.887   2.235  11.438 -4.3557 -0.6067 -2.6508
 7387SOL    HW233621   1.981   2.139  11.387 -1.2730 -1.2596 -1.6493
 7388SOL     OW33622   4.551   2.435   3.141 -0.2933  0.0817 -0.5684
 7388SOL    HW133623   4.641   2.463   3.124  0.2703 -0.7922  0.9364
 7388SOL    HW233624   4.546   2.460   3.233  1.6008  1.1084 -0.7639
 7389SOL     OW33625   1.091   1.831   5.139  0.1376  0.3622  0.4536
 7389SOL    HW133626   1.059   1.877   5.217 -2.9169 -0.4765 -0.2989
 7389SOL    HW233627   1.173   1.876   5.120  0.2402 -1.0641 -2.5269
 7390SOL     OW33628   3.937   0.899  17.337  0.4260  0.2823  0.1647
 7390SOL    HW133629   3.983   0.851  17.268  0.6307  2.6583 -1.3380
 7390SOL    HW233630   3.850   0.862  17.326  0.6841  0.5084 -2.5878
 7391SOL     OW33631   2.075   3.851   6.311  0.6313  0.2559 -0.7852
 7391SOL    HW133632   2.107   3.788   6.376  0.5621  2.2963  1.2127
 7391SOL    HW233633   2.058   3.929   6.363  0.2575 -0.1203 -0.3463
 7392SOL     OW33634   0.755   4.048   0.912  0.1758 -0.4357  0.5066
 7392SOL    HW133635   0.814   3.997   0.856 -0.5809 -3.1575  2.2240
 7392SOL    HW233636   0.720   4.113   0.851  3.6578  0.5909 -0.4140
 7393SOL     OW33637   3.427   4.381  15.564  0.1444  0.9145 -0.5356
 7393SOL    HW133638   3.502   4.432  15.597 -0.6243  2.1516 -0.6791
 7393SOL    HW233639   3.461   4.338  15.486  0.0887 -1.7885  0.9300
 7394SOL     OW33640   3.532   0.606   8.225 -0.3629 -0.2414  0.3228
 7394SOL    HW133641   3.440   0.630   8.222 -0.2724  0.0465 -0.1607
 7394SOL    HW233642   3.561   0.665   8.294 -0.8935  0.3260  0.0597
 7395SOL     OW33643   0.469   2.059   5.358  0.4754 -0.0593 -0.1804
 7395SOL    HW133644   0.558   2.028   5.377 -0.3106 -2.4936 -0.4662
 7395SOL    HW233645   0.445   2.120   5.428  1.2521 -0.7610  0.7010
 7396SOL     OW33646   1.386   3.905  10.186 -0.2217  0.5508 -0.4328
 7396SOL    HW133647   1.463   3.864  10.226  0.2962 -0.4447 -2.4291
 7396SOL    HW233648   1.395   3.883  10.093  1.0268 -0.2414 -0.1272
 7397SOL     OW33649   1.793   0.982   3.320  0.0718  0.2899 -0.0810
 7397SOL    HW133650   1.730   0.982   3.248  1.6816  1.9175 -1.5007
 7397SOL    HW233651   1.878   0.994   3.277  0.0246  0.0869 -0.2305
 7398SOL     OW33652   1.451   2.588   5.801  0.3281 -0.2294 -0.2869
 7398SOL    HW133653   1.450   2.494   5.818 -0.4382  0.0644  1.3910
 7398SOL    HW233654   1.406   2.600   5.718 -0.3779  0.6434  0.2144
 7399SOL     OW33655   1.312   1.941   7.684  0.3479  0.7906 -0.6669
 7399SOL    HW133656   1.299   1.895   7.766 -0.7408 -1.6468 -2.2122
 7399SOL    HW233657   1.358   2.021   7.708  2.2679 -0.1537 -1.2764
 7400SOL     OW33658   4.299   3.806   0.579 -0.0322  0.3464 -0.1550
 7400SOL    HW133659   4.217   3.781   0.623 -0.2531 -0.5746 -1.0991
 7400SOL    HW233660   4.313   3.890   0.624 -0.2059  0.6560 -0.6683
 7401SOL     OW33661   2.600   4.350   7.420  0.7665 -0.2981 -0.0207
 7401SOL    HW133662   2.509   4.324   7.433  0.2732  0.7924 -1.2474
 7401SOL    HW233663   2.638   4.265   7.398  1.6780 -0.6800  2.9806
 7402SOL     OW33664   4.107   1.846   6.647 -0.1761 -0.4014  0.8497
 7402SOL    HW133665   4.013   1.836   6.659 -0.3645 -0.0663 -0.3576
 7402SOL    HW233666   4.135   1.823   6.736 -2.0238 -2.2097  0.9804
 7403SOL     OW33667   0.206   1.534  14.406  0.0806 -0.3332 -0.3510
 7403SOL    HW133668   0.273   1.553  14.472 -0.2868  1.1353 -0.3954
 7403SOL    HW233669   0.249   1.569  14.328 -1.2273  0.8254 -0.5425
 7404SOL     OW33670   0.156   1.571   6.137 -0.1752 -0.0281 -0.4458
 7404SOL    HW133671   0.095   1.535   6.073 -1.2867 -0.0638  0.6189
 7404SOL    HW233672   0.237   1.543   6.095 -0.6438 -0.4249 -1.0798
 7405SOL     OW33673   4.198   0.697  10.313 -0.3719 -0.5300  0.3593
 7405SOL    HW133674   4.206   0.758  10.386  2.1626 -2.1993  1.4798
 7405SOL    HW233675   4.253   0.743  10.250  0.7311 -3.0065 -0.4989
 7406SOL     OW33676   1.412   1.436   9.410  0.2982  0.1323 -0.2357
 7406SOL    HW133677   1.362   1.398   9.338 -0.0884 -0.7348  0.4916
 7406SOL    HW233678   1.365   1.518   9.428 -0.6330 -0.3617 -0.3972
 7407SOL     OW33679   2.224   1.811   6.067  0.7182  0.2095 -0.1535
 7407SOL    HW133680   2.249   1.902   6.082 -1.7321  0.7811  0.4629
 7407SOL    HW233681   2.138   1.814   6.108  0.7536  0.5090 -0.1024
 7408SOL     OW33682   2.650   0.948  14.673  0.0428 -0.0064 -0.0894
 7408SOL    HW133683   2.743   0.925  14.666 -0.4972 -1.3183 -2.8707
 7408SOL    HW233684   2.627   0.948  14.580 -0.5985  0.2904  0.0724
 7409SOL     OW33685   1.535   3.000   2.689 -0.0096 -0.0230  0.1153
 7409SOL    HW133686   1.628   3.020   2.701  0.3958 -1.5030 -0.5810
 7409SOL    HW233687   1.513   3.049   2.769  0.4670  0.3618  0.0134
 7410SOL     OW33688   4.558   3.050   8.388 -0.2626  0.7098 -0.0646
 7410SOL    HW133689   4.579   3.138   8.355 -0.7239  0.9588  0.3059
 7410SOL    HW233690   4.468   3.039   8.359  0.2768  0.1246 -1.4995
 7411SOL     OW33691   2.646   1.229   4.186 -0.5661 -0.1255 -0.1068
 7411SOL    HW133692   2.724   1.177   4.205 -0.1722  1.2739  2.0630
 7411SOL    HW233693   2.677   1.319   4.177 -2.8423  0.7551  0.8019
 7412SOL     OW33694   3.647   0.019   4.712  0.2278  0.6634 -0.1038
 7412SOL    HW133695   3.619   4.707   4.628 -2.5739 -0.7012  1.4025
 7412SOL    HW233696   3.578   4.715   4.772 -0.3678  1.3377 -0.4714
 7413SOL     OW33697   0.152   2.617   4.585  0.1827  0.8238  0.0631
 7413SOL    HW133698   0.234   2.612   4.634  0.6586  1.7149 -0.6403
 7413SOL    HW233699   0.089   2.596   4.655 -2.3097  0.7980 -2.1673
 7414SOL     OW33700   3.484   1.374   7.647  0.3359  0.1770  0.4950
 7414SOL    HW133701   3.559   1.433   7.655 -0.6799  1.4222  0.9235
 7414SOL    HW233702   3.506   1.327   7.727 -0.1537 -0.9039 -0.0162
 7415SOL     OW33703   2.013   3.830   7.004 -0.2449 -0.6495  0.2652
 7415SOL    HW133704   2.108   3.839   7.015 -0.1038 -1.9850  0.1852
 7415SOL    HW233705   2.009   3.746   7.049 -2.5018 -0.2845  0.7385
 7416SOL     OW33706   2.942   0.468  12.417 -0.2824 -0.5003 -0.1916
 7416SOL    HW133707   2.966   0.490  12.327 -0.2401 -1.2965 -0.3776
 7416SOL    HW233708   3.017   0.489  12.474 -1.6415 -1.2647  1.8860
 7417SOL     OW33709   3.418   0.295   6.167 -0.3158 -0.1581  0.7822
 7417SOL    HW133710   3.493   0.237   6.176  0.4644  0.9423  1.2605
 7417SOL    HW233711   3.464   0.379   6.169  1.5721 -1.1607 -0.4886
 7418SOL     OW33712   0.133   1.525   4.032 -0.5032  0.1127 -0.1896
 7418SOL    HW133713   0.206   1.473   4.065 -1.8682 -0.5857  1.7325
 7418SOL    HW233714   0.081   1.523   4.112  0.6987  4.6016  0.7221
 7419SOL     OW33715   1.665   4.033   8.176  0.5391 -0.4557  0.2944
 7419SOL    HW133716   1.726   4.086   8.126  0.4832  1.2470  2.0146
 7419SOL    HW233717   1.583   4.077   8.156  1.4980  0.6923 -1.0609
 7420SOL     OW33718   0.830   1.470  17.533 -0.1756  0.4262  0.3906
 7420SOL    HW133719   0.744   1.494  17.568  0.8164  0.0972  3.0338
 7420SOL    HW233720   0.886   1.512  17.598 -0.3384  1.3641 -0.0743
 7421SOL     OW33721   2.805   4.134   6.470  0.0334  0.4384 -0.5317
 7421SOL    HW133722   2.789   4.119   6.377 -1.1038 -0.6137 -0.1660
 7421SOL    HW233723   2.733   4.186   6.505 -1.2505  0.2027 -2.8877
 7422SOL     OW33724   1.125   3.001   1.963  0.3575 -0.4583  0.0961
 7422SOL    HW133725   1.106   3.034   2.051  0.1007  0.1661 -0.1907
 7422SOL    HW233726   1.094   3.071   1.906  1.2728 -1.4733 -1.6375
 7423SOL     OW33727   1.223   1.616   0.265  0.2417 -0.3992  0.1047
 7423SOL    HW133728   1.250   1.535   0.220 -2.2157 -2.1003  1.7133
 7423SOL    HW233729   1.186   1.584   0.347  0.8146  0.2142  0.6034
 7424SOL     OW33730   1.260   1.073   5.208  0.8663 -0.2440 -0.4044
 7424SOL    HW133731   1.355   1.080   5.215  0.9746  0.0886 -2.0159
 7424SOL    HW233732   1.236   0.982   5.221 -0.0785 -0.2460 -2.2337
 7425SOL     OW33733   2.977   3.978   1.492  0.2813 -0.6070  0.1248
 7425SOL    HW133734   2.942   4.059   1.453  0.5003 -0.2852  0.6037
 7425SOL    HW233735   2.998   3.934   1.409 -0.9701 -0.2292 -0.3963
 7426SOL     OW33736   2.461   1.161   5.772  0.3779  0.1018 -0.2861
 7426SOL    HW133737   2.438   1.176   5.864 -0.0307 -1.4692 -0.1232
 7426SOL    HW233738   2.544   1.208   5.763  1.8297 -2.7257 -1.6130
 7427SOL     OW33739   2.462   3.890   4.870  0.0938  0.1263  0.0818
 7427SOL    HW133740   2.547   3.859   4.904  0.5608  3.1578  1.6502
 7427SOL    HW233741   2.403   3.899   4.945  0.7820  1.1604  0.5030
 7428SOL     OW33742   0.275   3.753   2.545 -0.0719 -0.0684  0.4411
 7428SOL    HW133743   0.364   3.719   2.547  0.3206  1.0557  2.2704
 7428SOL    HW233744   0.284   3.845   2.517  0.3403  0.2608  1.6669
 7429SOL     OW33745   3.134   2.299   8.557 -0.1092  0.1210 -0.3223
 7429SOL    HW133746   3.125   2.345   8.640 -0.4498  0.6597 -0.6560
 7429SOL    HW233747   3.184   2.361   8.504 -0.2296  0.0627 -0.5069
 7430SOL     OW33748   2.189   1.411   2.967  0.2787 -0.3402 -0.4254
 7430SOL    HW133749   2.184   1.486   2.908  0.0971  0.4422  0.5946
 7430SOL    HW233750   2.101   1.410   3.004  0.4369 -1.0238 -0.0650
 7431SOL     OW33751   1.985   2.907   6.650 -0.3347 -0.3368 -0.0037
 7431SOL    HW133752   1.912   2.865   6.696 -1.7098  0.6418 -1.2701
 7431SOL    HW233753   1.946   2.939   6.569  1.5455  2.7887  0.3213
 7432SOL     OW33754   3.313   3.214  16.106 -0.4603  0.2549 -0.4397
 7432SOL    HW133755   3.310   3.125  16.072 -0.4818  0.8154 -1.9199
 7432SOL    HW233756   3.226   3.249  16.085 -1.6068 -1.7627  1.0139
 7433SOL     OW33757   4.123   3.814   8.109 -0.0533 -0.3590  0.1474
 7433SOL    HW133758   4.075   3.789   8.188 -1.1514 -0.7268 -0.6295
 7433SOL    HW233759   4.090   3.904   8.102 -1.1072 -0.7988 -0.4729
 7434SOL     OW33760   2.354   3.717   6.487  0.0000  0.7865 -0.3093
 7434SOL    HW133761   2.308   3.637   6.463 -0.1798  2.0425 -4.1228
 7434SOL    HW233762   2.297   3.755   6.554 -2.6904 -0.1128 -2.1082
 7435SOL     OW33763   3.341   1.825   0.329  0.1824  0.1064  0.3079
 7435SOL    HW133764   3.330   1.857   0.239 -2.2249  0.8627  0.8728
 7435SOL    HW233765   3.301   1.901   0.370  0.6894  1.1883 -1.2097
 7436SOL     OW33766   0.839   2.185   2.554 -0.0476  0.0838 -0.3649
 7436SOL    HW133767   0.879   2.231   2.480  0.0841 -0.1423 -0.4327
 7436SOL    HW233768   0.766   2.146   2.507  0.6783 -0.4338 -1.0559
 7437SOL     OW33769   0.068   2.931   3.984  0.0806  0.0904  0.0615
 7437SOL    HW133770   0.145   2.938   3.928 -0.3275 -1.1116 -0.6299
 7437SOL    HW233771   0.006   2.986   3.936 -0.7375 -0.3607  0.6088
 7438SOL     OW33772   4.506   1.041   4.391  0.4500  0.0801 -0.4842
 7438SOL    HW133773   4.432   1.009   4.339 -0.2763  0.8344  0.0787
 7438SOL    HW233774   4.538   0.968   4.444 -1.1233 -0.8446 -0.7963
 7439SOL     OW33775   4.249   4.555  17.097  0.0819 -0.0891  0.2957
 7439SOL    HW133776   4.173   4.561  17.155  0.9065  0.0330  1.3570
 7439SOL    HW233777   4.278   4.644  17.116  0.3235 -0.0498 -0.2571
 7440SOL     OW33778   3.303   0.747   3.387  0.0896 -0.1391  0.1514
 7440SOL    HW133779   3.211   0.773   3.379 -0.4220 -2.2664 -1.0568
 7440SOL    HW233780   3.353   0.826   3.369 -1.3689  0.7686  0.0992
 7441SOL     OW33781   0.320   2.420  11.424  0.0625  0.6568 -0.0166
 7441SOL    HW133782   0.408   2.405  11.389  0.6648 -1.0088  2.1772
 7441SOL    HW233783   0.339   2.399  11.516 -0.7799 -2.0640 -0.4637
 7442SOL     OW33784   1.582   1.820   7.577  0.2333 -0.4483 -0.0110
 7442SOL    HW133785   1.541   1.854   7.656  2.7772 -0.4357  1.2913
 7442SOL    HW233786   1.602   1.903   7.532  1.5462 -1.2497 -0.9016
 7443SOL     OW33787   3.488   4.422   7.408 -0.0052  0.2222 -0.4713
 7443SOL    HW133788   3.442   4.462   7.481 -0.6110  0.5751 -1.0436
 7443SOL    HW233789   3.560   4.482   7.387 -1.0050  1.2364 -1.0427
 7444SOL     OW33790   2.782   4.381   5.416  0.2229 -0.2215 -0.2237
 7444SOL    HW133791   2.876   4.363   5.415  0.3181  0.2885 -1.0407
 7444SOL    HW233792   2.769   4.456   5.357  1.9509 -0.2613 -0.6515
 7445SOL     OW33793   3.164   2.758  16.835 -0.0568  0.8274  0.1948
 7445SOL    HW133794   3.095   2.823  16.819 -1.9739 -1.2882 -0.1841
 7445SOL    HW233795   3.185   2.731  16.745  1.0618 -1.4792  1.1363
 7446SOL     OW33796   4.591   0.804   6.599  0.0278 -0.1836  0.2174
 7446SOL    HW133797   4.591   0.709   6.612  1.2612 -0.1399  0.5278
 7446SOL    HW233798   4.543   0.811   6.517  1.8754 -0.5367 -0.9115
 7447SOL     OW33799   0.693   0.182  14.164 -0.9016  0.3854 -0.3312
 7447SOL    HW133800   0.658   0.122  14.229  1.4174 -1.3246 -0.6705
 7447SOL    HW233801   0.673   0.269  14.199 -1.2109 -0.1644  0.8506
 7448SOL     OW33802   1.042   1.586   7.775 -0.0554  0.0951  0.1364
 7448SOL    HW133803   1.084   1.595   7.689 -0.4855 -0.5697 -0.1369
 7448SOL    HW233804   1.023   1.679   7.790  3.7956  0.2985  3.8157
 7449SOL     OW33805   3.928   3.385   9.020  0.1267  0.0461 -0.6656
 7449SOL    HW133806   3.961   3.335   8.944  1.1181 -0.7400  0.2694
 7449SOL    HW233807   3.875   3.451   8.976 -2.4470 -1.7474 -0.1984
 7450SOL     OW33808   1.559   3.591   5.289 -0.0996  0.5283 -0.2887
 7450SOL    HW133809   1.466   3.599   5.267  0.0648  0.0421 -1.1439
 7450SOL    HW233810   1.582   3.671   5.336  0.8354  0.0534  0.0619
 7451SOL     OW33811   0.601   3.857   2.872 -0.0097  0.2826  0.0910
 7451SOL    HW133812   0.520   3.889   2.912 -0.1569  0.5823 -0.4505
 7451SOL    HW233813   0.619   3.920   2.803 -2.7857  1.8957  0.8559
 7452SOL     OW33814   3.142   0.221   2.533  0.1356 -0.3404  0.6795
 7452SOL    HW133815   3.187   0.245   2.452  0.0161  0.3039  0.8014
 7452SOL    HW233816   3.211   0.223   2.600  1.5727  0.6269 -0.8487
 7453SOL     OW33817   2.752   1.034   6.556 -0.0335  0.1881 -0.3272
 7453SOL    HW133818   2.735   1.026   6.650 -2.1217 -0.7226 -0.7883
 7453SOL    HW233819   2.699   1.113   6.545 -1.3718 -0.4334  1.5920
 7454SOL     OW33820   2.599   2.320   7.298  0.8949  0.1831  0.5169
 7454SOL    HW133821   2.558   2.379   7.361 -1.6628 -1.8073  0.6993
 7454SOL    HW233822   2.613   2.380   7.225  0.4765 -1.6454 -1.0535
 7455SOL     OW33823   2.885   0.455   1.671  0.2155 -0.1260  0.4627
 7455SOL    HW133824   2.920   0.528   1.620 -0.6071  0.4996  0.7944
 7455SOL    HW233825   2.810   0.486   1.721  1.9900  2.6237  1.4119
 7456SOL     OW33826   0.870   1.882   2.496 -0.2641 -0.1633  0.4194
 7456SOL    HW133827   0.865   1.879   2.400  0.1060 -2.2053  0.4678
 7456SOL    HW233828   0.780   1.878   2.527 -0.3156  1.2574  0.4338
 7457SOL     OW33829   1.730   1.259   7.972 -0.1555  0.1258 -0.8474
 7457SOL    HW133830   1.771   1.173   7.958 -3.0481 -1.3094 -0.4655
 7457SOL    HW233831   1.766   1.315   7.903  2.2811  0.5313  0.7546
 7458SOL     OW33832   4.602   0.291   1.044 -0.0973  0.5712 -0.2364
 7458SOL    HW133833   4.639   0.331   0.965 -1.5592  2.1398 -0.1422
 7458SOL    HW233834   4.679   0.273   1.097 -0.4013 -1.5798 -0.5178
 7459SOL     OW33835   3.282   2.227   5.975 -0.1931  0.4966  0.1179
 7459SOL    HW133836   3.191   2.209   5.998 -0.3895 -0.4638 -1.3914
 7459SOL    HW233837   3.276   2.257   5.885 -0.9951 -0.2878 -0.0976
 7460SOL     OW33838   0.834   1.399   0.681  0.4315  0.3657  0.1416
 7460SOL    HW133839   0.845   1.494   0.672  2.6411 -0.0675 -1.7321
 7460SOL    HW233840   0.849   1.377   0.589 -1.4326 -1.6047  0.3066
 7461SOL     OW33841   3.595   2.954  11.956  0.0817 -0.0244 -0.5651
 7461SOL    HW133842   3.688   2.933  11.970 -0.0584  0.0679  0.5512
 7461SOL    HW233843   3.566   2.875  12.002 -1.1366  0.4689 -0.5056
 7462SOL     OW33844   3.541   4.002   8.849 -0.1530  0.1857  0.5620
 7462SOL    HW133845   3.601   3.954   8.792 -1.5807  0.9539 -1.6123
 7462SOL    HW233846   3.545   4.089   8.809  1.4014 -1.9286 -3.8541
 7463SOL     OW33847   0.674   3.553   3.907 -0.2911 -0.6848 -0.3479
 7463SOL    HW133848   0.754   3.604   3.911 -2.0101  2.0640 -1.1035
 7463SOL    HW233849   0.597   3.610   3.913  1.4063  1.6568 -0.9116
 7464SOL     OW33850   1.424   3.445   0.446 -0.3442  0.6207 -0.2296
 7464SOL    HW133851   1.444   3.365   0.494  4.4959  2.2696  0.4754
 7464SOL    HW233852   1.337   3.459   0.483  0.7140 -0.6878  2.7665
 7465SOL     OW33853   2.683   0.293   6.356  0.0929 -0.3053 -0.1100
 7465SOL    HW133854   2.622   0.221   6.375  0.8869 -0.9311  0.0955
 7465SOL    HW233855   2.625   0.367   6.373  0.4559 -0.1031  0.2350
 7466SOL     OW33856   1.673   2.217   8.186  0.3209 -0.3239  0.2538
 7466SOL    HW133857   1.615   2.292   8.193  2.8501  1.7126 -0.8833
 7466SOL    HW233858   1.617   2.140   8.202 -0.4665  0.0234 -0.8682
 7467SOL     OW33859   3.980   2.408   2.991  0.2033 -0.3353 -0.2032
 7467SOL    HW133860   3.898   2.361   2.999  0.3778 -0.4862  0.6523
 7467SOL    HW233861   3.989   2.447   3.078 -0.5516 -0.6045 -0.0115
 7468SOL     OW33862   1.308   1.320   4.600  0.4509 -0.3930 -0.2448
 7468SOL    HW133863   1.329   1.300   4.509  0.6900  0.3852 -0.3586
 7468SOL    HW233864   1.393   1.348   4.635 -0.2982  2.1283 -0.4736
 7469SOL     OW33865   1.587   0.894   6.825  0.4554 -0.2453  0.3994
 7469SOL    HW133866   1.603   0.859   6.913 -0.4011 -0.9865  0.2595
 7469SOL    HW233867   1.556   0.813   6.784  0.0670  0.6624 -1.0933
 7470SOL     OW33868   4.175   1.795  10.592  0.0540 -0.0918  0.3724
 7470SOL    HW133869   4.255   1.746  10.573  2.4416  3.5494  1.0179
 7470SOL    HW233870   4.217   1.862  10.646  0.2362  0.2997 -0.2528
 7471SOL     OW33871   3.809   2.296   0.028  0.2964  0.0113  0.0798
 7471SOL    HW133872   3.820   2.363   0.094  2.2807 -0.1975 -0.0240
 7471SOL    HW233873   3.898   2.261   0.019  0.2090  0.0466 -1.0049
 7472SOL     OW33874   3.216   2.141   4.857 -0.1853 -0.1771  0.3725
 7472SOL    HW133875   3.258   2.208   4.803 -0.2886  0.3639  0.9636
 7472SOL    HW233876   3.126   2.138   4.825  0.8371 -0.7468 -2.4047
 7473SOL     OW33877   2.726   1.741   6.984  0.2348  0.3261  0.6543
 7473SOL    HW133878   2.647   1.740   6.930  1.9637  2.1883 -1.9281
 7473SOL    HW233879   2.722   1.836   6.997 -1.5538  0.4357 -0.6501
 7474SOL     OW33880   1.650   3.316   9.329  0.0878 -0.7731  0.2502
 7474SOL    HW133881   1.630   3.339   9.420  0.0876  0.4625 -0.0574
 7474SOL    HW233882   1.688   3.228   9.338  1.6011 -0.0523  1.0081
 7475SOL     OW33883   0.418   3.527   7.645  0.1527  0.2425 -0.2199
 7475SOL    HW133884   0.465   3.552   7.565 -1.4939  1.8057 -0.7085
 7475SOL    HW233885   0.370   3.450   7.615  0.8684  0.4435 -1.8970
 7476SOL     OW33886   3.209   4.237  12.652 -0.1786  0.2707  0.1010
 7476SOL    HW133887   3.129   4.187  12.637  0.4742 -0.6716 -0.2027
 7476SOL    HW233888   3.215   4.223  12.747  1.2078  0.8071  0.0944
 7477SOL     OW33889   0.581   3.897  11.354  0.4076  0.1347  0.4154
 7477SOL    HW133890   0.565   3.986  11.324 -1.0757 -0.4251 -0.4329
 7477SOL    HW233891   0.591   3.854  11.269 -0.7491  0.1596  0.2698
 7478SOL     OW33892   1.478   1.497   8.992 -0.4057  0.4181  0.4699
 7478SOL    HW133893   1.539   1.538   9.052  0.7445 -0.4797 -0.0781
 7478SOL    HW233894   1.426   1.575   8.973 -0.0897  0.2419 -1.1991
 7479SOL     OW33895   0.137   1.960   7.495 -0.7356  0.1495 -0.1231
 7479SOL    HW133896   0.175   1.880   7.532 -0.5822  0.0270 -0.5464
 7479SOL    HW233897   0.175   1.950   7.408  0.1142  0.4833  0.2084
 7480SOL     OW33898   4.182   0.235   8.468  0.2779  0.2798 -0.1452
 7480SOL    HW133899   4.105   0.205   8.419 -0.0876 -0.4510  0.8954
 7480SOL    HW233900   4.149   0.318   8.502  0.8935  0.9051 -1.0620
 7481SOL     OW33901   1.592   3.441   8.718 -0.1575 -0.3957  0.5913
 7481SOL    HW133902   1.682   3.473   8.718 -0.1783 -0.3341 -1.6148
 7481SOL    HW233903   1.601   3.349   8.741  1.5931 -0.4897 -0.5456
 7482SOL     OW33904   2.518   2.063   3.775  0.7477 -0.3395  0.5121
 7482SOL    HW133905   2.575   2.081   3.850  4.1534 -0.3352 -2.0792
 7482SOL    HW233906   2.501   2.142   3.724  2.8984  1.3941  2.4661
 7483SOL     OW33907   4.572   0.313   5.093 -0.1028  0.1389  0.1981
 7483SOL    HW133908   4.514   0.388   5.080  0.8689  1.0602  1.1459
 7483SOL    HW233909   4.613   0.309   5.006 -0.2960 -1.3335  0.1811
 7484SOL     OW33910   2.079   3.769   4.075 -0.1195  0.0002  0.0472
 7484SOL    HW133911   2.156   3.724   4.112 -0.0970  0.0049  0.0053
 7484SOL    HW233912   2.023   3.695   4.051  2.1787 -1.0138 -2.0725
 7485SOL     OW33913   4.560   4.433   6.303  0.2258  0.5732  0.1236
 7485SOL    HW133914   4.570   4.522   6.269  1.5884  0.2667 -0.2588
 7485SOL    HW233915   4.484   4.405   6.252  0.8060  0.0977 -0.4783
 7486SOL     OW33916   3.935   4.367  12.591 -0.4956 -0.7636 -0.5972
 7486SOL    HW133917   3.900   4.304  12.653 -0.4344  0.5186  0.7382
 7486SOL    HW233918   3.933   4.310  12.514  0.7299 -1.5188 -0.0667
 7487SOL     OW33919   0.039   0.263  15.855  0.4518  0.4794  0.7697
 7487SOL    HW133920   0.051   0.358  15.843 -1.7307  1.1163  3.5804
 7487SOL    HW233921   0.049   0.229  15.766 -0.7315  2.0609  0.0229
 7488SOL     OW33922   3.210   4.282  17.431  0.0070 -0.1935 -0.3254
 7488SOL    HW133923   3.211   4.258  17.523  0.4897 -0.2651 -0.3485
 7488SOL    HW233924   3.222   4.377  17.432 -1.3295 -0.0247 -1.0561
 7489SOL     OW33925   0.910   3.563  17.591  0.2890  0.0227 -0.2459
 7489SOL    HW133926   0.941   3.590  17.678  0.4672 -2.6880  0.5241
 7489SOL    HW233927   0.992   3.527  17.558  0.6048  2.5331 -2.1927
 7490SOL     OW33928   1.291   0.483   8.103  0.1671  0.3031 -0.3940
 7490SOL    HW133929   1.269   0.466   8.012 -0.1126 -0.5265 -0.1791
 7490SOL    HW233930   1.284   0.577   8.115  2.5725  0.6469 -1.6482
 7491SOL     OW33931   3.536   4.125  13.912  0.0843  0.0605 -0.4560
 7491SOL    HW133932   3.535   4.128  14.008 -0.7993  2.1071 -0.5320
 7491SOL    HW233933   3.616   4.173  13.889  0.5116 -2.3174 -3.9260
 7492SOL     OW33934   1.113   3.883   8.678  0.2433 -0.2368 -0.2680
 7492SOL    HW133935   1.053   3.859   8.749  1.2178 -1.2434  0.2277
 7492SOL    HW233936   1.059   3.894   8.599 -1.4964  1.3916  1.1463
 7493SOL     OW33937   2.456   2.575   1.152  0.1043  0.6467  0.4942
 7493SOL    HW133938   2.462   2.655   1.099  1.0789 -0.4880 -1.0959
 7493SOL    HW233939   2.529   2.525   1.117 -0.5433  0.1357 -0.1252
 7494SOL     OW33940   1.245   0.098   1.808 -0.2763  0.3847 -0.5475
 7494SOL    HW133941   1.288   0.023   1.850  0.1330  0.5229 -0.7230
 7494SOL    HW233942   1.304   0.122   1.737 -1.6372  2.6740 -0.9264
 7495SOL     OW33943   0.086   2.626   2.689  0.6176  0.1457  0.2960
 7495SOL    HW133944   0.131   2.571   2.623 -0.3004 -0.1352 -0.0911
 7495SOL    HW233945   0.162   2.651   2.742  0.1668  0.9915  0.5375
 7496SOL     OW33946   0.848   3.255   8.781 -0.5011 -0.3697 -0.4518
 7496SOL    HW133947   0.929   3.304   8.790 -1.1849  0.6901 -0.0666
 7496SOL    HW233948   0.810   3.303   8.855 -1.6862  0.5023 -1.6126
 7497SOL     OW33949   3.758   4.505   8.295 -0.2043 -0.1235  0.0213
 7497SOL    HW133950   3.695   4.499   8.222  1.1342 -1.1639 -1.0469
 7497SOL    HW233951   3.827   4.441   8.275  0.7898  0.8889  0.2695
 7498SOL     OW33952   0.549   1.268   2.615  0.2899  0.1760 -0.1413
 7498SOL    HW133953   0.560   1.175   2.594 -1.1131  0.1748 -0.8881
 7498SOL    HW233954   0.492   1.288   2.541  0.8148  1.2185 -0.2698
 7499SOL     OW33955   0.807   4.529   2.324  0.1020  0.0665 -0.6131
 7499SOL    HW133956   0.852   4.513   2.406  0.4906 -0.0960 -0.8558
 7499SOL    HW233957   0.732   4.469   2.319 -0.9901  1.3375  0.6103
 7500SOL     OW33958   3.756   2.771   3.529  0.1139 -0.0572 -0.1201
 7500SOL    HW133959   3.807   2.789   3.608 -0.9513  3.5763 -0.2535
 7500SOL    HW233960   3.783   2.836   3.465  0.0789 -0.0746 -0.1529
 7501SOL     OW33961   3.890   4.531   3.527 -0.4297 -0.4832 -0.2885
 7501SOL    HW133962   3.946   4.481   3.467  2.1278  1.9786  0.0576
 7501SOL    HW233963   3.878   4.457   3.587  1.3460  0.0282  0.7107
 7502SOL     OW33964   2.538   0.261   5.400 -1.1884  1.0193  0.0701
 7502SOL    HW133965   2.453   0.286   5.437 -1.3100  1.1490 -0.2858
 7502SOL    HW233966   2.592   0.267   5.478  0.1011  1.2396 -0.8519
 7503SOL     OW33967   4.247   0.614  12.475  0.2085 -0.0024  0.1365
 7503SOL    HW133968   4.340   0.594  12.466 -0.1454 -1.9279  0.6876
 7503SOL    HW233969   4.227   0.573  12.559 -0.0573 -1.0955 -0.4495
 7504SOL     OW33970   3.637   1.420   2.911 -0.0271  0.4987  0.4187
 7504SOL    HW133971   3.543   1.436   2.908  0.4500  4.0675  4.0385
 7504SOL    HW233972   3.635   1.325   2.903  0.7461  0.4518  0.8242
 7505SOL     OW33973   4.505   4.616  16.481  0.1162 -0.0747  0.1495
 7505SOL    HW133974   4.593   4.626  16.444 -0.9991  0.9531 -2.2017
 7505SOL    HW233975   4.487   4.523  16.493 -1.2957  0.1825  0.0029
 7506SOL     OW33976   0.613   4.276   5.528 -0.2195 -0.1406 -0.6148
 7506SOL    HW133977   0.667   4.355   5.536  2.0207 -1.6707 -0.9060
 7506SOL    HW233978   0.680   4.224   5.485 -0.1442 -0.7483  0.2344
 7507SOL     OW33979   2.560   3.705   1.596 -0.5748 -0.1613  0.9050
 7507SOL    HW133980   2.562   3.695   1.500 -0.9344  0.4058  0.8338
 7507SOL    HW233981   2.487   3.767   1.600 -1.2364 -0.9774  1.5231
 7508SOL     OW33982   1.033   1.091  10.067  0.0720 -0.2118 -0.6588
 7508SOL    HW133983   0.978   1.130   9.999  0.8244  2.3228  0.1940
 7508SOL    HW233984   1.121   1.121  10.045  0.6532 -0.1177  1.8498
 7509SOL     OW33985   3.397   4.255   1.786  0.0063 -0.3694 -0.4296
 7509SOL    HW133986   3.339   4.332   1.784  0.1999 -0.1931  0.6659
 7509SOL    HW233987   3.482   4.295   1.806  0.1991 -1.2388  0.4668
 7510SOL     OW33988   1.467   1.010   2.893 -0.2718 -0.1106  0.0757
 7510SOL    HW133989   1.388   1.059   2.868  0.8371  2.5445  1.7151
 7510SOL    HW233990   1.525   1.085   2.911 -1.2634  0.3766  1.2513
 7511SOL     OW33991   3.505   3.555   8.208 -0.4388 -0.2297 -0.0867
 7511SOL    HW133992   3.434   3.499   8.243  2.2104 -2.4435  1.7741
 7511SOL    HW233993   3.467   3.578   8.124  1.5867  2.9544 -0.1185
 7512SOL     OW33994   4.214   3.113  11.449  0.4957 -0.3694 -0.0987
 7512SOL    HW133995   4.256   3.037  11.410 -0.6764 -0.9222 -0.2992
 7512SOL    HW233996   4.174   3.078  11.529 -1.3939  0.4067 -0.6817
 7513SOL     OW33997   4.680   0.901   5.503 -0.0871 -0.6406  0.3324
 7513SOL    HW133998   4.656   0.873   5.414  1.8141 -0.0639 -0.3737
 7513SOL    HW233999   4.668   0.992   5.476 -0.3555 -0.9052 -0.4624
 7514SOL     OW34000   0.257   0.231   4.275 -0.1017  0.2737 -0.3846
 7514SOL    HW134001   0.172   0.239   4.317 -0.3763 -1.4861 -0.6207
 7514SOL    HW234002   0.220   0.207   4.190  0.2262 -0.7537 -0.2359
 7515SOL     OW34003   3.357   4.380  12.034  0.2744  0.3175 -0.2835
 7515SOL    HW134004   3.409   4.429  12.098 -1.3632  0.9638  0.5652
 7515SOL    HW234005   3.306   4.451  11.994 -1.8991 -1.6799 -1.0563
 7516SOL     OW34006   3.051   0.781   6.516  0.2284  0.1548 -0.1991
 7516SOL    HW134007   3.094   0.733   6.445 -2.9587 -0.1386 -1.8986
 7516SOL    HW234008   2.992   0.719   6.558  1.1210  0.2128  1.1486
 7517SOL     OW34009   4.305   2.841   9.725 -0.2285  0.2256  0.3876
 7517SOL    HW134010   4.312   2.859   9.631 -2.5484  2.7181  0.7230
 7517SOL    HW234011   4.389   2.880   9.747 -1.7377  1.5918  3.6949
 7518SOL     OW34012   3.193   2.494   8.004  0.0203  0.3984 -0.7637
 7518SOL    HW134013   3.157   2.484   8.092  0.3480 -0.0264 -0.6779
 7518SOL    HW234014   3.120   2.467   7.949 -1.8252 -1.0977  2.4004
 7519SOL     OW34015   3.111   3.487   7.757  0.5506  0.2513  0.1817
 7519SOL    HW134016   3.095   3.509   7.848 -1.2972  1.3159 -0.3988
 7519SOL    HW234017   3.145   3.568   7.721  1.0220  0.4974  1.1995
 7520SOL     OW34018   4.250   3.536   9.403 -0.0836  0.4968  0.0426
 7520SOL    HW134019   4.317   3.469   9.410 -0.6165 -0.1885 -1.5391
 7520SOL    HW234020   4.196   3.519   9.481  2.0752  0.5424  1.5331
 7521SOL     OW34021   1.714   3.150   2.173  0.0062  0.7551 -0.9598
 7521SOL    HW134022   1.762   3.226   2.204 -0.2390  0.2954  0.5211
 7521SOL    HW234023   1.641   3.151   2.235  0.4613  2.4921 -0.4590
 7522SOL     OW34024   1.243   1.653   9.441  0.1971  0.2471  0.6201
 7522SOL    HW134025   1.210   1.738   9.469  0.8598  1.7662 -3.0569
 7522SOL    HW234026   1.161   1.609   9.419  1.0270 -1.2988  0.6301
 7523SOL     OW34027   0.463   4.072   0.103  0.0628  0.0665 -0.9833
 7523SOL    HW134028   0.496   4.153   0.142  2.1122 -0.9099 -0.6547
 7523SOL    HW234029   0.399   4.097   0.037 -0.2367  1.3903 -0.1784
 7524SOL     OW34030   2.101   4.014   5.906 -0.4531  0.6016  0.0791
 7524SOL    HW134031   2.024   4.046   5.859  0.9306  0.9446 -1.9531
 7524SOL    HW234032   2.167   4.084   5.903 -0.8332  1.0231  1.8164
 7525SOL     OW34033   2.055   0.236   5.392 -0.3649 -0.0960 -0.3973
 7525SOL    HW134034   2.037   0.170   5.324 -0.0767 -1.3005  0.6972
 7525SOL    HW234035   2.008   0.317   5.374 -1.4967 -0.8067 -0.6118
 7526SOL     OW34036   1.807   0.073   0.109  0.1476  0.1939 -0.2857
 7526SOL    HW134037   1.750   0.099   0.181  0.2707  0.4844 -0.2950
 7526SOL    HW234038   1.877   0.034   0.160  0.3317  1.6536  0.5693
 7527SOL     OW34039   2.109   3.499   1.994  0.0279  0.2490  0.3171
 7527SOL    HW134040   2.053   3.575   2.010 -0.9304 -0.3433 -0.2016
 7527SOL    HW234041   2.038   3.434   1.986  1.1138 -0.8026 -0.8999
 7528SOL     OW34042   4.258   3.082   5.756 -0.4997 -0.1664  0.1054
 7528SOL    HW134043   4.191   3.064   5.690 -0.1587  1.1229 -0.5887
 7528SOL    HW234044   4.280   2.990   5.770  2.5319  0.4568 -0.4172
 7529SOL     OW34045   1.353   1.801   4.917 -0.4963  0.0413 -0.3371
 7529SOL    HW134046   1.330   1.891   4.943  0.5728 -0.3808  2.0680
 7529SOL    HW234047   1.411   1.765   4.984  0.7646  0.4146 -1.2500
 7530SOL     OW34048   0.901   0.232  13.358 -0.5477  0.0897  0.2494
 7530SOL    HW134049   0.851   0.155  13.329  2.0208 -2.3284  2.2040
 7530SOL    HW234050   0.850   0.263  13.433  0.2217 -2.5554  1.8858
 7531SOL     OW34051   2.088   3.296   9.903  0.1016 -0.0872 -0.5008
 7531SOL    HW134052   2.129   3.228   9.957  1.1778  0.9886  0.0317
 7531SOL    HW234053   2.156   3.362   9.918  1.7123 -1.3231 -2.3811
 7532SOL     OW34054   3.349   4.643   8.460 -0.2462 -0.4622  0.4037
 7532SOL    HW134055   3.343   4.671   8.368  2.2211 -1.3876 -0.0530
 7532SOL    HW234056   3.304   4.558   8.462  0.4897 -0.8093  2.1556
 7533SOL     OW34057   3.399   3.826   5.954  0.2457  0.3107  0.0806
 7533SOL    HW134058   3.495   3.820   5.959  0.3254  0.7917 -0.8983
 7533SOL    HW234059   3.385   3.764   5.883  1.1716 -1.6716  1.6110
 7534SOL     OW34060   4.120   1.062   1.343  0.6144  0.3792 -0.0473
 7534SOL    HW134061   4.075   0.978   1.329  0.0381  0.9116 -1.4568
 7534SOL    HW234062   4.091   1.083   1.431 -0.2739 -0.2658 -0.1790
 7535SOL     OW34063   0.166   1.503   0.085  0.0752 -0.2214 -0.2479
 7535SOL    HW134064   0.119   1.472   0.163 -0.6027 -1.5989 -1.2136
 7535SOL    HW234065   0.125   1.588   0.068 -0.5391 -0.4539  0.0503
 7536SOL     OW34066   3.352   2.603   1.295 -0.1752 -0.0663 -0.4293
 7536SOL    HW134067   3.436   2.641   1.318 -0.8558 -0.3830  2.5972
 7536SOL    HW234068   3.362   2.601   1.200 -1.1145  0.0902 -0.5379
 7537SOL     OW34069   0.279   2.957   7.689  0.1358 -0.0178 -0.1785
 7537SOL    HW134070   0.264   3.012   7.765  0.7478  1.3383 -1.0344
 7537SOL    HW234071   0.259   2.866   7.711  0.3845  0.4300  1.8493
 7538SOL     OW34072   3.078   3.720  11.000  0.8406 -0.3918 -0.4741
 7538SOL    HW134073   3.158   3.765  11.027 -0.6253  0.2191  2.8953
 7538SOL    HW234074   3.077   3.646  11.060  0.8045  0.1481  0.1896
 7539SOL     OW34075   1.281   0.098   5.093 -0.0487 -0.1061 -0.3122
 7539SOL    HW134076   1.367   0.067   5.063  0.4283  0.8336  0.1032
 7539SOL    HW234077   1.225   0.041   5.040  0.9051  1.6381 -3.1408
 7540SOL     OW34078   2.247   3.235  11.899  0.2032 -0.2595  0.4297
 7540SOL    HW134079   2.161   3.201  11.925  0.4023 -0.1749  1.1857
 7540SOL    HW234080   2.291   3.259  11.980  0.7993  2.5324 -0.7252
 7541SOL     OW34081   0.553   1.630  11.910 -0.3400 -0.3006  0.2522
 7541SOL    HW134082   0.513   1.698  11.965 -0.1699 -0.1562  0.1976
 7541SOL    HW234083   0.627   1.681  11.878 -1.1024 -0.6288 -2.0609
 7542SOL     OW34084   3.591   1.207   8.267  0.1899 -0.3047 -0.2725
 7542SOL    HW134085   3.576   1.113   8.277 -0.3823  0.0652  2.3388
 7542SOL    HW234086   3.522   1.236   8.327 -0.6129 -0.9677 -0.8782
 7543SOL     OW34087   1.466   4.124   7.593 -0.6228  0.3229  0.0779
 7543SOL    HW134088   1.390   4.097   7.541 -0.2733  1.1760 -0.8729
 7543SOL    HW234089   1.445   4.101   7.684  0.2022 -0.1919  0.1423
 7544SOL     OW34090   0.121   3.490   6.120  0.0827  0.0926  0.4629
 7544SOL    HW134091   0.074   3.440   6.188  0.3660 -1.0160 -0.1564
 7544SOL    HW234092   0.132   3.573   6.165 -1.4418  0.9738 -0.7918
 7545SOL     OW34093   3.660   4.595   2.199 -0.4124  0.1423  0.2604
 7545SOL    HW134094   3.628   4.507   2.178  1.5030 -0.5658  0.2877
 7545SOL    HW234095   3.604   4.628   2.268  1.3232 -0.8040  2.1281
 7546SOL     OW34096   0.162   0.368   7.381 -0.4685  0.3681 -0.1440
 7546SOL    HW134097   0.208   0.438   7.427  1.2223 -1.7623  1.4270
 7546SOL    HW234098   0.204   0.291   7.421 -0.9219  1.8925  3.2638
 7547SOL     OW34099   3.826   0.090  11.725 -0.2182  0.0509 -0.3210
 7547SOL    HW134100   3.749   0.061  11.775  0.9799 -0.5585  1.1600
 7547SOL    HW234101   3.777   0.154  11.673  0.5168  2.5162  2.0021
 7548SOL     OW34102   1.087   2.963   0.337 -0.3714  0.3838  0.0668
 7548SOL    HW134103   1.056   2.895   0.397 -1.6591 -0.0178 -1.0444
 7548SOL    HW234104   1.140   2.903   0.284  0.8098  1.4267  0.0781
 7549SOL     OW34105   0.570   4.588   4.964 -0.0551  0.0786  0.4259
 7549SOL    HW134106   0.478   4.563   4.965 -0.0263 -0.1296 -2.5215
 7549SOL    HW234107   0.617   4.534   5.028 -0.6498  0.9254  1.5636
 7550SOL     OW34108   3.786   2.663   3.811  0.1550  0.0803 -0.0749
 7550SOL    HW134109   3.843   2.645   3.886  0.2022 -0.6749 -0.2988
 7550SOL    HW234110   3.779   2.758   3.822  3.2683  0.2096  0.7764
 7551SOL     OW34111   2.545   2.732   1.467 -0.8131 -0.1023 -0.2238
 7551SOL    HW134112   2.470   2.711   1.522 -0.3871 -3.2487 -0.8625
 7551SOL    HW234113   2.566   2.643   1.439 -1.8217 -0.4783  0.2306
 7552SOL     OW34114   0.849   0.037   4.608  0.6582  0.2610  0.2907
 7552SOL    HW134115   0.934   4.717   4.607 -0.2002 -1.4063  0.2332
 7552SOL    HW234116   0.870   0.110   4.549  0.9902  0.7740  1.0403
 7553SOL     OW34117   1.268   2.225   4.822  0.4176  0.0727  0.4899
 7553SOL    HW134118   1.232   2.314   4.823  1.5797  0.5380 -0.1511
 7553SOL    HW234119   1.225   2.183   4.748  0.1350  0.1318  0.6196
 7554SOL     OW34120   0.736   3.260   4.363  0.2834 -0.3619  0.3153
 7554SOL    HW134121   0.779   3.179   4.335  2.8126  2.1140 -2.9900
 7554SOL    HW234122   0.675   3.221   4.426 -0.6978 -2.7009 -2.0324
 7555SOL     OW34123   0.933   1.169   4.859 -0.0348 -0.3853  0.3964
 7555SOL    HW134124   0.940   1.127   4.945  1.1301 -1.9192 -0.4663
 7555SOL    HW234125   1.023   1.172   4.827 -0.8431  1.3857 -1.6867
 7556SOL     OW34126   0.451   2.661   3.023 -0.1036 -0.3549  0.1682
 7556SOL    HW134127   0.426   2.751   3.005  1.5384 -0.0948 -0.8005
 7556SOL    HW234128   0.480   2.666   3.114  1.0221  1.0132 -0.2648
 7557SOL     OW34129   4.574   0.717   2.658 -0.3428  0.5533  0.0029
 7557SOL    HW134130   4.606   0.743   2.571 -0.4814 -0.1148 -0.2526
 7557SOL    HW234131   4.536   0.632   2.636 -0.5064  0.7628 -0.5337
 7558SOL     OW34132   2.822   2.694   1.380 -0.0424 -0.5675  0.5275
 7558SOL    HW134133   2.774   2.769   1.345 -2.2451 -1.5808  1.3694
 7558SOL    HW234134   2.909   2.708   1.343 -0.1927 -1.4158 -0.1627
 7559SOL     OW34135   1.217   0.213   6.856 -0.4664  0.1084 -0.3420
 7559SOL    HW134136   1.281   0.209   6.785  0.1724  2.4838  0.0976
 7559SOL    HW234137   1.147   0.250   6.802 -0.1649  0.6483 -0.3681
 7560SOL     OW34138   3.065   3.461   9.429 -0.1265  0.3501  0.2186
 7560SOL    HW134139   3.025   3.426   9.350  2.7665 -2.2822 -0.0746
 7560SOL    HW234140   3.105   3.376   9.450 -1.0468 -0.2113 -0.3421
 7561SOL     OW34141   3.928   2.264  15.460  0.1417 -0.3586  0.2607
 7561SOL    HW134142   3.863   2.283  15.394  0.8801  1.2880  0.0118
 7561SOL    HW234143   3.950   2.174  15.436  0.9900 -0.1442  0.2147
 7562SOL     OW34144   4.576   0.804  13.861  0.1309  0.2569 -0.1007
 7562SOL    HW134145   4.512   0.805  13.790  1.9639  0.7066 -1.7429
 7562SOL    HW234146   4.525   0.820  13.941  0.9253  1.8340  0.0908
 7563SOL     OW34147   2.619   0.329   3.080  1.0097  0.3024  0.4153
 7563SOL    HW134148   2.649   0.392   3.145 -0.2457  0.9689  0.3452
 7563SOL    HW234149   2.533   0.302   3.113  0.9562  0.4864  0.4260
 7564SOL     OW34150   4.475   3.333   6.056  0.3675  0.2010 -0.1968
 7564SOL    HW134151   4.563   3.359   6.086  0.5176 -0.7777  0.2051
 7564SOL    HW234152   4.495   3.298   5.969  0.4278  0.5118 -0.3108
 7565SOL     OW34153   2.506   0.525  11.593 -0.4923 -0.2724 -0.2289
 7565SOL    HW134154   2.420   0.568  11.597  0.2380  1.0857  0.8223
 7565SOL    HW234155   2.496   0.430  11.602 -1.7935 -0.1714 -0.5262
 7566SOL     OW34156   0.377   4.393   3.361  0.7836  0.5383 -0.2534
 7566SOL    HW134157   0.369   4.431   3.449 -0.4722  2.1362 -1.0669
 7566SOL    HW234158   0.377   4.469   3.304  0.3310 -0.3919 -1.4903
 7567SOL     OW34159   2.554   2.908   6.433 -0.4465 -0.3538 -0.7407
 7567SOL    HW134160   2.607   2.896   6.354  0.2529 -2.7295  0.0953
 7567SOL    HW234161   2.567   2.827   6.483 -1.8504  0.1084  0.3812
 7568SOL     OW34162   4.506   1.630   9.231 -0.0694 -0.0102  0.6479
 7568SOL    HW134163   4.562   1.689   9.281  0.4866  1.0875 -1.2638
 7568SOL    HW234164   4.502   1.663   9.142  1.0600  1.1756  1.0440
 7569SOL     OW34165   3.227   2.290   6.745  0.4447  0.1843 -0.0856
 7569SOL    HW134166   3.133   2.287   6.726  0.4707 -4.1462  0.4427
 7569SOL    HW234167   3.249   2.197   6.748  1.1316  0.3177 -0.9660
 7570SOL     OW34168   1.416   3.385   2.316  0.0548  0.6469  0.8555
 7570SOL    HW134169   1.474   3.333   2.371 -0.3816 -0.5790  0.1360
 7570SOL    HW234170   1.481   3.448   2.282  1.6276 -0.8693  1.0467
 7571SOL     OW34171   1.240   3.984   4.849  0.6079  0.2278  0.2374
 7571SOL    HW134172   1.247   4.048   4.920  3.5864  1.3248 -1.0490
 7571SOL    HW234173   1.260   3.898   4.887  0.8716 -0.1665 -0.7943
 7572SOL     OW34174   3.123   1.143   8.282  0.3533  0.6211  0.3271
 7572SOL    HW134175   3.042   1.145   8.334 -0.1130  3.5515 -0.4650
 7572SOL    HW234176   3.112   1.061   8.234 -0.4106  0.7039  0.3529
 7573SOL     OW34177   3.656   2.262   9.202  0.2718 -0.8419 -0.8925
 7573SOL    HW134178   3.655   2.182   9.254  0.3081  0.3414  0.9290
 7573SOL    HW234179   3.736   2.295   9.244 -0.8995 -0.9693  1.4350
 7574SOL     OW34180   4.099   1.499   8.887 -0.3814  0.0205  0.2856
 7574SOL    HW134181   4.164   1.559   8.921  0.0774 -0.5213  0.3674
 7574SOL    HW234182   4.027   1.504   8.950 -0.4946 -0.1097  0.1675
 7575SOL     OW34183   0.289   3.724   3.461  0.2002  0.0905 -0.4247
 7575SOL    HW134184   0.311   3.687   3.546 -1.1023 -2.3021 -1.1511
 7575SOL    HW234185   0.241   3.802   3.488 -1.7682 -0.0440 -3.6198
 7576SOL     OW34186   2.297   2.932   5.162 -0.3236  1.0929 -0.3142
 7576SOL    HW134187   2.255   2.874   5.098  1.4476  2.0916 -2.3859
 7576SOL    HW234188   2.369   2.879   5.195 -1.1171  1.4470  1.9700
 7577SOL     OW34189   1.516   1.026  13.983 -0.4190  0.1852 -0.1817
 7577SOL    HW134190   1.601   1.062  14.010 -0.9508  1.8514 -0.7465
 7577SOL    HW234191   1.533   0.968  13.908 -0.7540  0.0090 -0.1203
 7578SOL     OW34192   1.159   0.766  15.172 -0.1601  0.6237 -0.2095
 7578SOL    HW134193   1.158   0.854  15.135 -1.0837  0.7381  0.0785
 7578SOL    HW234194   1.198   0.724  15.096 -0.4967  1.8372 -1.0637
 7579SOL     OW34195   1.766   1.999   7.807  0.1786  0.1333 -0.2040
 7579SOL    HW134196   1.802   2.001   7.718 -0.3358  1.2785 -0.3848
 7579SOL    HW234197   1.817   2.072   7.843  1.1501 -0.2698 -0.7505
 7580SOL     OW34198   2.899   0.077   1.797 -0.5360  0.3954  0.3279
 7580SOL    HW134199   2.851   0.099   1.717  0.9824 -0.9930 -0.9513
 7580SOL    HW234200   2.851   0.004   1.836 -3.3515  1.9952 -0.1360
 7581SOL     OW34201   3.342   3.334   5.763 -0.2731  0.1795 -0.1045
 7581SOL    HW134202   3.255   3.295   5.758  0.5636 -1.5260 -1.0983
 7581SOL    HW234203   3.349   3.326   5.859 -0.4809  0.0540 -0.0990
 7582SOL     OW34204   3.618   0.652   3.933 -0.5393  0.3744 -0.3109
 7582SOL    HW134205   3.699   0.602   3.929 -0.5676  0.1231  2.2557
 7582SOL    HW234206   3.607   0.653   4.029 -0.6761 -0.9045 -0.3128
 7583SOL     OW34207   2.278   1.078   7.698 -0.5082  0.4430  0.2582
 7583SOL    HW134208   2.238   1.165   7.688 -0.9550  0.5924  3.2072
 7583SOL    HW234209   2.371   1.096   7.683 -0.8283  1.4897 -0.4786
 7584SOL     OW34210   3.504   3.387   5.223 -0.9481  0.0285  0.0945
 7584SOL    HW134211   3.566   3.381   5.296 -1.1305  1.7202  0.3876
 7584SOL    HW234212   3.528   3.320   5.160 -2.3390  0.3455 -0.7739
 7585SOL     OW34213   1.846   3.778   7.697 -1.0166 -0.2052 -0.5953
 7585SOL    HW134214   1.777   3.792   7.632 -0.8780 -2.1349 -1.1527
 7585SOL    HW234215   1.914   3.843   7.682 -1.6544  0.3929 -0.9068
 7586SOL     OW34216   2.567   2.445   5.134 -0.0270 -0.3848  0.4152
 7586SOL    HW134217   2.558   2.358   5.096  0.6810  1.3964 -3.7865
 7586SOL    HW234218   2.661   2.461   5.132  0.0544 -0.7415  1.1277
 7587SOL     OW34219   2.112   2.474   3.171  0.0882  0.5199  0.0295
 7587SOL    HW134220   2.111   2.569   3.176  1.2713  0.5028  0.5903
 7587SOL    HW234221   2.148   2.470   3.260 -0.5250 -0.6658  0.2222
 7588SOL     OW34222   4.218   0.429   3.915 -0.1206  0.4435 -0.2621
 7588SOL    HW134223   4.134   0.435   3.959  0.0886 -1.7920  0.4275
 7588SOL    HW234224   4.266   0.461   3.991  0.0890 -0.7964  0.1282
 7589SOL     OW34225   2.694   2.683  14.510 -0.2798  0.3599  0.2936
 7589SOL    HW134226   2.666   2.743  14.580 -0.9347  0.1452  0.2161
 7589SOL    HW234227   2.711   2.744  14.438  0.5110  1.2912  1.2798
 7590SOL     OW34228   3.527   1.461   5.850 -0.0361 -0.2965 -0.4050
 7590SOL    HW134229   3.466   1.392   5.824 -1.0280  0.7498 -0.8287
 7590SOL    HW234230   3.473   1.535   5.821  4.1262  2.4986 -0.9800
 7591SOL     OW34231   2.444   3.998  15.133 -0.0756 -0.1228  0.0006
 7591SOL    HW134232   2.518   4.020  15.191  0.6473  1.2013 -1.4102
 7591SOL    HW234233   2.447   4.077  15.079  0.4593  0.9893  1.6608
 7592SOL     OW34234   2.963   1.632   5.362 -0.3544 -0.3080 -0.1721
 7592SOL    HW134235   3.002   1.663   5.280  0.3833  0.7355  0.5763
 7592SOL    HW234236   3.014   1.676   5.430 -0.9578 -1.8160  1.2461
 7593SOL     OW34237   2.073   1.826   3.087 -0.0356 -0.0664 -0.1958
 7593SOL    HW134238   2.105   1.756   3.143 -0.9667  0.5532  1.1107
 7593SOL    HW234239   2.034   1.768   3.021  0.8239 -0.0138 -0.7449
 7594SOL     OW34240   2.922   2.813  13.616  0.0591  0.0467 -0.5649
 7594SOL    HW134241   2.926   2.888  13.557  0.0702 -0.8417 -1.7112
 7594SOL    HW234242   3.006   2.822  13.662  1.0630 -0.9616 -2.1780
 7595SOL     OW34243   0.571   3.273   8.395  0.0284 -0.3691  0.3719
 7595SOL    HW134244   0.556   3.255   8.487  1.6415  1.6103  1.0166
 7595SOL    HW234245   0.534   3.205   8.338 -0.7076  0.5045 -0.1992
 7596SOL     OW34246   1.792   0.490   1.786  0.4760 -0.5388  0.5392
 7596SOL    HW134247   1.725   0.558   1.773  1.5237  0.1508 -1.1644
 7596SOL    HW234248   1.754   0.418   1.734 -0.1908  0.8966 -0.9817
 7597SOL     OW34249   0.039   2.534  11.853  0.1993  0.5163 -0.7284
 7597SOL    HW134250   4.705   2.461  11.876  1.7150 -0.8424 -1.2259
 7597SOL    HW234251   0.043   2.521  11.758 -0.5901 -2.1778 -0.3816
 7598SOL     OW34252   3.572   2.902   7.658  0.7131 -0.0509  0.1876
 7598SOL    HW134253   3.565   2.996   7.642 -3.9771 -0.2718  0.8913
 7598SOL    HW234254   3.488   2.886   7.701  1.9906  1.5538  3.3177
 7599SOL     OW34255   4.508   0.024   2.544 -0.5201 -0.7131 -0.2151
 7599SOL    HW134256   4.431   0.049   2.493  0.6048 -0.0879 -1.5945
 7599SOL    HW234257   4.482   4.661   2.576  3.0141 -1.0768  1.6855
 7600SOL     OW34258   0.704   2.158   9.239 -0.4668  0.5499  0.3040
 7600SOL    HW134259   0.764   2.172   9.313 -0.6855 -1.2246  0.8016
 7600SOL    HW234260   0.758   2.095   9.190  1.0366  1.6100  0.5968
 7601SOL     OW34261   2.078   1.722   4.747 -0.0239  0.1682  0.1840
 7601SOL    HW134262   2.038   1.804   4.778  0.2654  0.6048 -0.5960
 7601SOL    HW234263   2.163   1.722   4.790  0.3420  0.9560 -0.5150
 7602SOL     OW34264   2.175   2.302  16.166  0.1015 -0.1574  0.2847
 7602SOL    HW134265   2.094   2.312  16.115  0.1319  2.8745  0.8017
 7602SOL    HW234266   2.163   2.369  16.233 -3.1229  0.2535 -0.7102
 7603SOL     OW34267   4.023   3.579   5.439  0.0451 -0.1542  0.3330
 7603SOL    HW134268   4.028   3.485   5.458  3.7356 -0.2970 -1.2563
 7603SOL    HW234269   3.932   3.605   5.450  0.3929  0.5322  1.5542
 7604SOL     OW34270   4.113   1.261   9.448 -0.4449 -0.2420 -0.7729
 7604SOL    HW134271   4.196   1.229   9.483 -0.7465  1.3034  1.3414
 7604SOL    HW234272   4.143   1.334   9.393 -1.1153  1.1742  0.7211
 7605SOL     OW34273   2.187   3.176   9.625  0.1474 -0.3515 -0.0292
 7605SOL    HW134274   2.230   3.103   9.670  0.6294 -0.5692 -0.8340
 7605SOL    HW234275   2.259   3.237   9.639  0.4945 -0.3078 -1.9726
 7606SOL     OW34276   1.208   0.370   7.842  0.1785 -0.5882  0.2043
 7606SOL    HW134277   1.135   0.409   7.794  0.6314  0.1355  0.0939
 7606SOL    HW234278   1.192   0.276   7.832 -1.0804 -0.2053 -1.2719
 7607SOL     OW34279   0.232   0.725  16.795 -0.3183  0.0469  0.1956
 7607SOL    HW134280   0.207   0.808  16.836 -1.0919 -0.2486  0.3274
 7607SOL    HW234281   0.323   0.718  16.824 -0.8907 -0.8171  1.8296
 7608SOL     OW34282   4.487   0.425   8.983  0.0504  0.0449  0.5631
 7608SOL    HW134283   4.539   0.352   8.950  0.4464  0.5962 -0.0150
 7608SOL    HW234284   4.436   0.466   8.913  1.4100 -0.3033 -0.6034
 7609SOL     OW34285   0.676   2.651   1.796  0.0134  0.2764 -0.2043
 7609SOL    HW134286   0.767   2.676   1.810  0.6569 -0.8705 -2.3441
 7609SOL    HW234287   0.662   2.660   1.702  1.1058 -1.2229 -0.5046
 7610SOL     OW34288   2.760   1.264   5.346 -0.3192 -0.0694  0.0507
 7610SOL    HW134289   2.728   1.298   5.263  0.0952 -0.4857 -0.2755
 7610SOL    HW234290   2.827   1.198   5.330  0.5414  0.9018 -0.4028
 7611SOL     OW34291   4.137   4.596   1.971  0.8750 -0.5324  0.4313
 7611SOL    HW134292   4.107   4.572   1.883 -0.1801  1.1839  0.3195
 7611SOL    HW234293   4.072   4.545   2.021 -0.7185  0.7119 -0.3707
 7612SOL     OW34294   0.076   0.066   7.846 -0.1419  0.2868 -0.0693
 7612SOL    HW134295   0.047   0.112   7.768  0.3636  2.0488  0.7959
 7612SOL    HW234296   0.137   0.013   7.794  1.0662 -0.6475  2.2846
 7613SOL     OW34297   4.310   0.546   5.873 -0.3355  0.3155  0.5916
 7613SOL    HW134298   4.277   0.549   5.783  1.0102 -2.3561  0.0192
 7613SOL    HW234299   4.241   0.485   5.901  0.9383 -1.5314 -0.2955
 7614SOL     OW34300   2.999   3.848   5.888 -0.4116  0.6428  0.0630
 7614SOL    HW134301   2.910   3.816   5.873  1.0703 -3.6314  0.3367
 7614SOL    HW234302   3.047   3.774   5.924 -0.1099  1.0127  0.4199
 7615SOL     OW34303   0.470   1.037   8.898  0.0495 -0.5763 -0.1692
 7615SOL    HW134304   0.493   0.955   8.854 -1.3922 -1.2424  0.3265
 7615SOL    HW234305   0.383   1.059   8.863  0.4248 -1.2579 -1.5653
 7616SOL     OW34306   4.246   1.144   8.175  0.5022 -0.2055 -0.5499
 7616SOL    HW134307   4.318   1.206   8.187 -0.6068  1.0084 -0.2735
 7616SOL    HW234308   4.175   1.203   8.199  0.7877  1.0086 -2.7708
 7617SOL     OW34309   2.567   0.157   3.326  0.0331  0.2048  0.1512
 7617SOL    HW134310   2.630   0.103   3.373  0.3612  0.9459  0.5523
 7617SOL    HW234311   2.535   0.097   3.258  1.0657 -0.2912  0.1064
 7618SOL     OW34312   0.381   2.321   8.120  0.2868 -0.1189 -0.0411
 7618SOL    HW134313   0.294   2.360   8.129 -0.0499 -1.7150  3.7202
 7618SOL    HW234314   0.382   2.252   8.187 -0.2031 -0.1115 -0.0258
 7619SOL     OW34315   1.621   3.282   1.942 -0.4657  0.3410 -0.1211
 7619SOL    HW134316   1.663   3.238   2.016 -1.4701 -0.8906 -0.2840
 7619SOL    HW234317   1.537   3.237   1.954 -0.4728  0.5706  0.6701
 7620SOL     OW34318   2.611   3.466   5.471 -0.1560 -0.5900 -0.0407
 7620SOL    HW134319   2.622   3.378   5.507 -1.1346 -0.0716  1.4935
 7620SOL    HW234320   2.570   3.442   5.387 -1.2413 -0.7547  0.5312
 7621SOL     OW34321   0.722   1.152   0.966 -0.6322  0.5117 -0.4195
 7621SOL    HW134322   0.667   1.087   1.009 -0.0492  0.7750  0.7199
 7621SOL    HW234323   0.656   1.206   0.923  0.1483  1.9711  0.1935
 7622SOL     OW34324   4.488   0.435   8.387 -0.1933 -0.0898  0.2288
 7622SOL    HW134325   4.489   0.344   8.358  0.2735 -0.0498  0.1240
 7622SOL    HW234326   4.453   0.420   8.475  2.0915  0.3618  1.2118
 7623SOL     OW34327   0.133   1.973   2.631  0.0104  0.5672 -0.1505
 7623SOL    HW134328   0.182   1.971   2.713 -3.0354  1.2355  1.6936
 7623SOL    HW234329   0.048   1.998   2.668 -0.8955 -0.2212 -1.7084
 7624SOL     OW34330   1.818   0.782   3.031  0.0053  0.4878  0.2537
 7624SOL    HW134331   1.771   0.752   3.108 -1.2140  1.2570 -0.1994
 7624SOL    HW234332   1.754   0.780   2.960 -0.7812 -1.4941  0.9904
 7625SOL     OW34333   0.809   0.479   8.511  0.4000  0.5074  0.1693
 7625SOL    HW134334   0.797   0.518   8.425 -1.1125  0.1153  0.2116
 7625SOL    HW234335   0.873   0.409   8.497 -0.5704 -0.3579  0.1042
 7626SOL     OW34336   3.692   1.226  10.512 -0.4920 -0.1369  0.2145
 7626SOL    HW134337   3.687   1.315  10.548 -0.4535 -0.4908  1.1093
 7626SOL    HW234338   3.779   1.198  10.541  0.2326  1.2901 -0.6315
 7627SOL     OW34339   1.993   4.201   8.341 -0.0562  0.7463 -0.4235
 7627SOL    HW134340   1.960   4.132   8.398  1.1830  0.0910 -0.4901
 7627SOL    HW234341   2.089   4.190   8.341 -0.5969 -3.9612 -2.7362
 7628SOL     OW34342   1.017   2.600   1.555 -0.5311 -0.0482  0.3132
 7628SOL    HW134343   1.005   2.551   1.473 -0.2473  0.4124 -0.0047
 7628SOL    HW234344   1.052   2.685   1.529  1.7093 -0.5119  1.8265
 7629SOL     OW34345   3.251   2.063   8.661 -0.3546  0.0051  0.0078
 7629SOL    HW134346   3.210   2.149   8.666  0.6202  0.4793 -0.0636
 7629SOL    HW234347   3.339   2.085   8.694  0.8232  0.5481 -3.4327
 7630SOL     OW34348   1.726   0.147   4.637 -0.1073 -0.0326  0.3504
 7630SOL    HW134349   1.677   0.206   4.580  1.7350  1.2913  0.1483
 7630SOL    HW234350   1.730   0.069   4.581  0.4028 -0.8770  1.5437
 7631SOL     OW34351   0.157   4.110   5.968  0.1415  0.6128 -0.4546
 7631SOL    HW134352   0.252   4.107   5.957  0.0682  0.7578 -1.1109
 7631SOL    HW234353   0.121   4.161   5.895 -0.6371 -0.6166 -0.9351
 7632SOL     OW34354   4.449   2.940   8.038  0.1805  0.5674 -0.3394
 7632SOL    HW134355   4.403   3.024   8.038  0.2226  0.6037  1.5004
 7632SOL    HW234356   4.534   2.972   8.009  1.4249 -1.1602  1.3574
 7633SOL     OW34357   4.236   1.047   6.491 -0.0288  0.0298  0.5212
 7633SOL    HW134358   4.228   1.100   6.571 -1.8658  1.1612 -0.4102
 7633SOL    HW234359   4.298   1.094   6.435 -1.1705 -0.5742 -1.2440
 7634SOL     OW34360   4.482   2.924   5.388 -0.2979  0.5244 -0.0518
 7634SOL    HW134361   4.573   2.955   5.389 -0.2116  0.3181 -1.3661
 7634SOL    HW234362   4.460   2.998   5.332  1.4817  1.2269  0.1811
 7635SOL     OW34363   1.203   1.175   4.807  0.2350  0.7691  0.5668
 7635SOL    HW134364   1.245   1.222   4.735  1.9071 -3.0698 -0.9342
 7635SOL    HW234365   1.278   1.158   4.864  0.2799  0.8736  0.5387
 7636SOL     OW34366   3.625   1.124   0.229 -0.0039 -0.2183 -0.3629
 7636SOL    HW134367   3.669   1.195   0.277  1.3732 -1.2077 -0.1453
 7636SOL    HW234368   3.702   1.076   0.198  0.3685  0.3520 -0.3171
 7637SOL     OW34369   4.446   3.445   4.981 -0.1208 -0.2220  0.4033
 7637SOL    HW134370   4.425   3.367   4.929 -0.6539  0.1510  0.0580
 7637SOL    HW234371   4.541   3.435   4.990  0.0472  0.2170 -0.9164
 7638SOL     OW34372   4.141   0.067   6.058 -0.3620  0.4751 -0.1006
 7638SOL    HW134373   4.087   0.005   6.108  0.7691 -1.3720 -1.1601
 7638SOL    HW234374   4.144   0.134   6.126 -0.7875  0.2237  0.1647
 7639SOL     OW34375   4.637   1.579   7.188  0.0170 -0.4089 -0.0152
 7639SOL    HW134376   4.581   1.619   7.254 -1.0306  2.4298 -2.6826
 7639SOL    HW234377   4.653   1.496   7.234  1.5358  0.6808  1.4670
 7640SOL     OW34378   3.905   1.136  12.569 -0.5813 -0.0853 -0.0542
 7640SOL    HW134379   3.928   1.139  12.662 -0.1816  0.3160 -0.1640
 7640SOL    HW234380   3.928   1.044  12.555 -0.7238 -0.3039  1.1533
 7641SOL     OW34381   2.127   2.588   4.565  0.4338 -0.4881  0.0655
 7641SOL    HW134382   2.170   2.527   4.505  0.1593  1.7790 -2.4244
 7641SOL    HW234383   2.060   2.526   4.593 -1.1714  1.0722 -0.3778
 7642SOL     OW34384   2.880   1.969   5.504 -0.3903 -0.3764 -0.2905
 7642SOL    HW134385   2.842   2.050   5.538  0.3751  0.1211 -0.6213
 7642SOL    HW234386   2.934   2.007   5.435 -2.1213  1.9939 -0.3559
 7643SOL     OW34387   4.107   1.383   7.167  0.1627  0.0248 -0.4241
 7643SOL    HW134388   4.132   1.405   7.077  0.9997 -1.6548 -0.6083
 7643SOL    HW234389   4.031   1.326   7.173 -0.7956  1.6590  2.7083
 7644SOL     OW34390   0.094   3.411   2.918 -0.1384  0.0778  0.9186
 7644SOL    HW134391   0.142   3.493   2.907 -1.8027  1.2159  2.0887
 7644SOL    HW234392   0.160   3.363   2.968 -0.6337  0.1016  1.6085
 7645SOL     OW34393   0.385   0.703   4.394  0.2184 -0.2555 -0.1026
 7645SOL    HW134394   0.445   0.662   4.331  0.4322  1.9250 -1.3390
 7645SOL    HW234395   0.359   0.783   4.349 -1.5136 -0.4583  0.5556
 7646SOL     OW34396   1.097   3.963  14.201  0.0051  0.5812  0.4026
 7646SOL    HW134397   1.104   4.011  14.118  3.3147  0.0325  0.3450
 7646SOL    HW234398   1.131   3.877  14.174 -2.1093 -0.4679  1.0706
 7647SOL     OW34399   3.576   2.019   4.002  0.4559  0.8049  0.3071
 7647SOL    HW134400   3.609   2.093   3.953  0.5625 -0.2783 -1.2404
 7647SOL    HW234401   3.565   1.969   3.922 -1.7528 -0.8691  1.6362
 7648SOL     OW34402   4.310   3.231  11.169  0.3053  0.5718 -0.4439
 7648SOL    HW134403   4.297   3.227  11.264  0.4743 -0.8458 -0.4809
 7648SOL    HW234404   4.357   3.150  11.152 -1.6815 -0.2656 -1.8865
 7649SOL     OW34405   2.624   2.199  12.035  0.1785  0.3593  0.4634
 7649SOL    HW134406   2.670   2.158  11.961 -1.9670  0.0991 -0.7283
 7649SOL    HW234407   2.549   2.142  12.050 -0.0141  0.1006 -1.3732
 7650SOL     OW34408   3.346   3.011   2.898  0.1789  0.0283  0.1535
 7650SOL    HW134409   3.287   3.021   2.824  0.2287 -3.1540 -0.3354
 7650SOL    HW234410   3.393   3.094   2.892  1.4299 -0.7241 -0.3972
 7651SOL     OW34411   1.638   3.594  12.195  0.3139 -0.2208 -0.7096
 7651SOL    HW134412   1.698   3.585  12.268  1.1529  0.2788 -1.3333
 7651SOL    HW234413   1.604   3.683  12.207  1.7609  0.0294  1.3567
 7652SOL     OW34414   3.334   0.225   2.290 -0.2866  0.0569  0.2676
 7652SOL    HW134415   3.340   0.154   2.226  1.0893  2.1152 -1.9028
 7652SOL    HW234416   3.312   0.294   2.227 -1.8597 -1.0037 -0.3358
 7653SOL     OW34417   0.155   3.060   9.275  0.0201  0.2176  0.2806
 7653SOL    HW134418   0.130   3.038   9.365 -1.4020 -1.2983 -0.4866
 7653SOL    HW234419   0.171   2.974   9.237  1.2803  1.4395 -1.9691
 7654SOL     OW34420   2.097   3.883   4.472  0.1671 -0.5523  0.1286
 7654SOL    HW134421   2.137   3.890   4.558 -0.5787 -0.4669  0.4720
 7654SOL    HW234422   2.131   3.960   4.426  0.6284 -0.0930  1.2645
 7655SOL     OW34423   2.169   0.352  11.495 -0.1609 -0.5329 -0.4026
 7655SOL    HW134424   2.263   0.347  11.478 -0.0905 -0.2905 -0.0889
 7655SOL    HW234425   2.171   0.444  11.524 -1.1120 -0.1540 -1.5316
 7656SOL     OW34426   3.840   4.223   7.891 -0.0610 -0.0788  0.1291
 7656SOL    HW134427   3.789   4.305   7.888 -0.4800 -0.3567 -0.3219
 7656SOL    HW234428   3.913   4.222   7.830  0.1341  1.5825  0.3383
 7657SOL     OW34429   3.792   4.040   9.303  0.5205 -0.5140 -0.2294
 7657SOL    HW134430   3.710   4.069   9.263 -2.2524 -2.1935  4.2545
 7657SOL    HW234431   3.837   3.998   9.230  0.3062  1.5863 -1.5437
 7658SOL     OW34432   0.809   4.602   1.835  0.6463  0.3265 -0.3165
 7658SOL    HW134433   0.865   4.654   1.777 -1.5075  0.2276 -2.4871
 7658SOL    HW234434   0.862   4.587   1.913 -0.2936 -0.3312  0.1812
 7659SOL     OW34435   4.163   1.737  14.782  0.0950 -0.0549  0.3025
 7659SOL    HW134436   4.215   1.810  14.749 -0.7711  0.0395 -0.8666
 7659SOL    HW234437   4.108   1.729  14.704  0.9362  3.4977 -0.6501
 7660SOL     OW34438   4.265   4.412   8.714  0.2735  0.8624 -0.3935
 7660SOL    HW134439   4.309   4.425   8.798  1.1597  0.9162 -0.8678
 7660SOL    HW234440   4.242   4.502   8.690  0.1371  0.7431 -0.7019
 7661SOL     OW34441   4.080   2.167   3.391 -0.5203 -0.2712  0.0882
 7661SOL    HW134442   3.988   2.164   3.416 -0.6494 -0.3969 -0.3955
 7661SOL    HW234443   4.123   2.117   3.461 -1.2548  1.2955  1.6471
 7662SOL     OW34444   1.357   0.351   1.035  0.3442  0.0586 -0.1848
 7662SOL    HW134445   1.365   0.322   1.126 -0.5160 -1.2435 -0.5255
 7662SOL    HW234446   1.440   0.390   1.008  0.9870  0.1043  1.8321
 7663SOL     OW34447   2.510   1.227   7.058 -0.0420 -0.0206 -0.3895
 7663SOL    HW134448   2.590   1.203   7.105 -1.0643 -0.3267  1.1907
 7663SOL    HW234449   2.459   1.147   7.067  0.7342 -0.5740 -0.9481
 7664SOL     OW34450   2.628   0.691   0.733  0.0332  0.4905 -0.3912
 7664SOL    HW134451   2.587   0.772   0.765 -1.2816 -0.3634  0.0750
 7664SOL    HW234452   2.617   0.692   0.638 -1.5000  0.9587 -0.2016
 7665SOL     OW34453   3.812   2.310   6.291 -0.5039  0.2644  0.1875
 7665SOL    HW134454   3.750   2.355   6.349 -0.6448 -1.2337  1.1993
 7665SOL    HW234455   3.891   2.357   6.315  1.1617 -1.6315 -1.5828
 7666SOL     OW34456   3.064   3.667   7.984  0.0609 -0.5571  0.4746
 7666SOL    HW134457   3.034   3.620   8.062  1.6915 -1.0166  0.8303
 7666SOL    HW234458   3.003   3.741   7.987  3.6268  2.4011  1.4021
 7667SOL     OW34459   3.505   0.256   0.137  0.1633 -0.0826 -0.3522
 7667SOL    HW134460   3.586   0.306   0.124 -0.0917  0.8165  1.6874
 7667SOL    HW234461   3.496   0.203   0.058 -1.6930 -0.9386  0.4488
 7668SOL     OW34462   1.659   3.210   5.728 -0.1916 -0.4470 -0.0662
 7668SOL    HW134463   1.655   3.234   5.636 -0.3158 -2.1772 -0.5030
 7668SOL    HW234464   1.595   3.269   5.770 -0.8968 -1.3640  0.1504
 7669SOL     OW34465   0.781   0.355   3.299  0.2333 -1.6781  0.4775
 7669SOL    HW134466   0.870   0.320   3.304  0.6483 -1.3250 -5.0593
 7669SOL    HW234467   0.770   0.393   3.386  1.6836 -0.6182  0.1815
 7670SOL     OW34468   4.359   1.113   9.820 -0.2524  0.1088 -0.5472
 7670SOL    HW134469   4.279   1.061   9.815  1.0989 -2.0537  0.2646
 7670SOL    HW234470   4.427   1.046   9.817 -1.1297 -0.7762 -0.7576
 7671SOL     OW34471   1.977   1.877   7.328 -0.2049  0.0867 -0.4044
 7671SOL    HW134472   2.015   1.869   7.416  1.4442  4.0595 -0.7380
 7671SOL    HW234473   1.948   1.969   7.330 -4.0000 -1.1183 -0.8844
 7672SOL     OW34474   3.257   3.548  10.769 -0.5789  0.4174 -0.4895
 7672SOL    HW134475   3.285   3.628  10.814 -1.7475  0.0803  0.8354
 7672SOL    HW234476   3.287   3.560  10.679 -1.7484 -0.6897 -1.0254
 7673SOL     OW34477   2.492   4.645   7.793 -0.1583  0.3642 -0.1622
 7673SOL    HW134478   2.503   4.601   7.877 -2.0355 -0.5203 -0.3833
 7673SOL    HW234479   2.558   4.592   7.747  1.0050  1.1255  0.6259
 7674SOL     OW34480   3.310   0.022   8.196  0.1523  0.2978 -0.0105
 7674SOL    HW134481   3.364   0.098   8.175  2.0340 -0.5769  1.6549
 7674SOL    HW234482   3.282   0.002   8.107 -2.0512  0.5220  0.6486
 7675SOL     OW34483   0.585   1.085  14.048 -0.0666  0.5751 -0.5951
 7675SOL    HW134484   0.655   1.051  13.991 -0.1422 -0.6783  0.0456
 7675SOL    HW234485   0.603   1.176  14.026 -0.1581  0.4750 -1.0709
 7676SOL     OW34486   2.097   4.053  11.796  0.2404 -0.1211 -0.4970
 7676SOL    HW134487   2.169   4.115  11.807  0.5080 -0.1606 -1.9368
 7676SOL    HW234488   2.109   4.016  11.884 -1.3124 -1.3696 -0.8161
 7677SOL     OW34489   3.449   3.617  10.529 -0.0039  0.2046  0.4785
 7677SOL    HW134490   3.396   3.612  10.449 -0.8073 -0.0597  1.0298
 7677SOL    HW234491   3.432   3.707  10.557 -0.3673  0.1411  0.4647
 7678SOL     OW34492   4.516   3.510   4.317 -0.8151  0.3201  0.2190
 7678SOL    HW134493   4.578   3.581   4.333 -0.5099  0.3680 -1.1693
 7678SOL    HW234494   4.555   3.473   4.238  0.4254  0.0452  0.9631
 7679SOL     OW34495   4.489   1.762   8.748 -0.4709 -0.0708 -0.5394
 7679SOL    HW134496   4.574   1.726   8.772 -2.6389 -3.4774  2.0434
 7679SOL    HW234497   4.499   1.828   8.680 -2.2553  1.4961  0.7096
 7680SOL     OW34498   1.731   1.342   5.595  0.0067 -0.0931  0.4114
 7680SOL    HW134499   1.783   1.302   5.664  1.0804 -0.8495 -0.8363
 7680SOL    HW234500   1.762   1.309   5.510  1.5082 -0.8888  1.2781
 7681SOL     OW34501   1.369   2.235   1.833 -0.0929 -0.0603 -0.7469
 7681SOL    HW134502   1.290   2.288   1.820 -1.2133 -1.4889  0.3286
 7681SOL    HW234503   1.382   2.195   1.748 -1.3580 -1.1865 -0.4114
 7682SOL     OW34504   0.290   1.678   1.102 -0.6443  0.0897  0.0179
 7682SOL    HW134505   0.293   1.583   1.097  1.6010  0.2120 -0.9789
 7682SOL    HW234506   0.367   1.694   1.157 -1.0315 -1.9709  1.1545
 7683SOL     OW34507   2.690   0.582   1.811 -0.1545  0.4397  0.4383
 7683SOL    HW134508   2.613   0.528   1.829 -0.7680  1.5926  1.2345
 7683SOL    HW234509   2.666   0.660   1.861 -1.0942  0.6574 -0.3604
 7684SOL     OW34510   0.050   4.626   4.450  0.3344 -0.2968 -0.4576
 7684SOL    HW134511   0.009   4.692   4.504  1.3714  0.1599 -0.2226
 7684SOL    HW234512   0.103   4.685   4.396  1.2743 -0.1394  0.6509
 7685SOL     OW34513   1.046   1.923  16.921  0.4892 -0.0066  0.0527
 7685SOL    HW134514   1.108   1.993  16.941  0.1483  0.0973  0.7572
 7685SOL    HW234515   1.049   1.928  16.826  0.4567 -1.6567 -0.0396
 7686SOL     OW34516   1.630   1.641   2.515  0.3438  0.7627 -0.2873
 7686SOL    HW134517   1.551   1.636   2.461 -1.2146  2.9361  1.8211
 7686SOL    HW234518   1.695   1.592   2.464 -3.1308 -2.8452 -1.1716
 7687SOL     OW34519   0.565   0.205   7.699 -0.2288  0.1902 -0.4522
 7687SOL    HW134520   0.610   0.284   7.731 -0.5673  0.4147 -0.5318
 7687SOL    HW234521   0.534   0.173   7.783  1.6096  1.9699  0.9162
 7688SOL     OW34522   2.009   3.805   1.823 -0.0082 -0.7773 -0.6244
 7688SOL    HW134523   2.003   3.775   1.732  0.1593  0.7643 -1.1375
 7688SOL    HW234524   1.953   3.883   1.822  2.9180  1.3316 -0.5228
 7689SOL     OW34525   3.026   0.637   6.017 -0.2045  0.0646  0.0620
 7689SOL    HW134526   2.964   0.586   6.068  0.1747 -0.7017 -0.2419
 7689SOL    HW234527   3.051   0.711   6.073 -0.5430  0.1114  0.1503
 7690SOL     OW34528   1.827   0.085  16.901  0.1295 -0.0973  0.0547
 7690SOL    HW134529   1.815   0.180  16.898  0.8552  0.0058  0.2962
 7690SOL    HW234530   1.776   0.055  16.826 -3.3638 -1.1194  2.8234
 7691SOL     OW34531   2.250   4.612   7.464  0.0594  0.6150 -0.0448
 7691SOL    HW134532   2.199   4.652   7.534 -0.7691 -1.3636  0.4854
 7691SOL    HW234533   2.326   4.668   7.450 -0.3185  0.7694 -1.5626
 7692SOL     OW34534   1.387   0.575   2.388  0.2124 -0.0385 -0.2654
 7692SOL    HW134535   1.296   0.586   2.414 -0.4786 -1.6100 -1.9675
 7692SOL    HW234536   1.384   0.644   2.321  1.6141 -0.4244 -0.7184
 7693SOL     OW34537   2.886   3.237   4.984 -0.0905  0.3542 -0.1643
 7693SOL    HW134538   2.937   3.157   4.975 -1.2185 -0.8677  4.3093
 7693SOL    HW234539   2.864   3.255   4.893 -0.9631  2.1160  0.3784
 7694SOL     OW34540   3.286   4.286   8.851  0.7509 -0.5117 -0.0808
 7694SOL    HW134541   3.363   4.280   8.795  0.1376 -0.9345 -0.8833
 7694SOL    HW234542   3.255   4.195   8.848  0.0883 -0.2129 -2.3673
 7695SOL     OW34543   1.649   1.223   2.926  0.3153  0.3833  0.1287
 7695SOL    HW134544   1.701   1.283   2.872 -0.4964  0.4356 -0.5977
 7695SOL    HW234545   1.726   1.194   2.975 -1.0123 -1.8256  0.9017
 7696SOL     OW34546   4.192   0.209   4.329 -0.2512 -0.0938 -0.0429
 7696SOL    HW134547   4.232   0.167   4.253  1.3113  1.9587 -0.3232
 7696SOL    HW234548   4.170   0.127   4.374  0.3244 -0.6305 -0.7422
 7697SOL     OW34549   1.730   3.985   9.207 -0.2754  0.2244  0.2493
 7697SOL    HW134550   1.770   3.993   9.293 -0.6763  0.2144  0.4367
 7697SOL    HW234551   1.662   3.921   9.227 -0.5542  0.6463  0.6590
 7698SOL     OW34552   0.081   3.986  16.860  0.4514 -1.0213  0.2680
 7698SOL    HW134553   0.070   3.920  16.928 -2.1337 -0.0655  0.7779
 7698SOL    HW234554   0.160   4.030  16.891 -1.3914 -0.2315  3.9151
 7699SOL     OW34555   1.053   0.993   4.035  0.0060  0.0146  0.5668
 7699SOL    HW134556   1.108   0.914   4.040  1.3606  0.8641 -0.8895
 7699SOL    HW234557   1.125   1.056   4.044 -1.2591  1.3432  1.2581
 7700SOL     OW34558   4.212   4.266  12.018 -0.4725 -0.0637 -0.7407
 7700SOL    HW134559   4.207   4.357  11.990 -0.2674  0.7893  1.9682
 7700SOL    HW234560   4.161   4.273  12.099  0.2782 -0.2515 -0.2462
 7701SOL     OW34561   2.444   1.595   7.152 -0.2612 -0.2375  0.6221
 7701SOL    HW134562   2.478   1.534   7.087  0.2870  2.0945 -1.3117
 7701SOL    HW234563   2.493   1.676   7.134 -1.3351 -0.4205 -3.0952
 7702SOL     OW34564   2.256   0.911   1.390  0.1853  0.5903  0.3144
 7702SOL    HW134565   2.304   0.872   1.463 -1.9455 -0.7778  0.9621
 7702SOL    HW234566   2.177   0.945   1.432 -1.0531 -1.1276 -0.6229
 7703SOL     OW34567   2.552   3.808   3.566 -0.1722 -0.2062  0.2885
 7703SOL    HW134568   2.557   3.792   3.472  1.7779  0.1801  0.3110
 7703SOL    HW234569   2.523   3.725   3.604 -0.8614 -0.2123 -0.2618
 7704SOL     OW34570   0.698   4.428   0.708  0.2849 -0.3132  0.1490
 7704SOL    HW134571   0.784   4.429   0.749  1.9913  0.5736 -3.4282
 7704SOL    HW234572   0.705   4.514   0.665 -0.1166 -0.3858 -0.0628
 7705SOL     OW34573   3.925   3.542   7.485  0.5227  0.7110 -0.0893
 7705SOL    HW134574   3.920   3.605   7.414  0.0370  1.2084  0.3797
 7705SOL    HW234575   4.008   3.497   7.469  0.0145 -0.8493  1.6618
 7706SOL     OW34576   3.130   1.152  16.469 -0.6170 -0.3359 -0.2790
 7706SOL    HW134577   3.047   1.114  16.441 -1.3216  0.8835  0.1736
 7706SOL    HW234578   3.131   1.132  16.562 -1.0565 -1.3125 -0.4870
 7707SOL     OW34579   0.296   1.312   7.391 -0.4042 -0.4943  0.3266
 7707SOL    HW134580   0.289   1.349   7.303  0.2233  0.0559  0.4978
 7707SOL    HW234581   0.212   1.267   7.392 -0.0644 -1.1327 -0.6453
 7708SOL     OW34582   3.435   1.107   2.420  0.2821 -0.2016 -0.0749
 7708SOL    HW134583   3.421   1.169   2.349 -0.3757  0.2740  0.4623
 7708SOL    HW234584   3.515   1.066   2.388 -0.2130 -1.0605 -0.2184
 7709SOL     OW34585   4.093   4.287   1.721  0.8567 -0.4457  0.1372
 7709SOL    HW134586   4.136   4.372   1.714 -2.0315  1.0304  0.3802
 7709SOL    HW234587   4.168   4.227   1.722 -0.1983 -1.7655 -0.4574
 7710SOL     OW34588   3.959   3.592   8.541 -0.3783  0.0102 -0.0724
 7710SOL    HW134589   4.038   3.548   8.511  0.3226 -0.2217  2.1070
 7710SOL    HW234590   3.921   3.534   8.607  0.3308  1.0410  1.2627
 7711SOL     OW34591   4.433   2.688   3.329 -0.5026 -0.6526  0.7094
 7711SOL    HW134592   4.364   2.719   3.271 -0.1253 -2.1743 -0.5479
 7711SOL    HW234593   4.425   2.595   3.351 -1.4183 -1.0207 -1.1865
 7712SOL     OW34594   1.470   1.056   5.676  0.0410  0.2645 -0.1462
 7712SOL    HW134595   1.544   1.003   5.646 -1.1209 -1.1618 -0.5513
 7712SOL    HW234596   1.497   1.084   5.763 -1.8718  1.7704 -0.0340
 7713SOL     OW34597   0.198   0.220   8.323 -0.1029 -0.6223  0.2366
 7713SOL    HW134598   0.204   0.182   8.236 -0.2218  1.3778 -0.6404
 7713SOL    HW234599   0.103   0.204   8.330  0.1417 -0.8063  3.1984
 7714SOL     OW34600   0.968   1.971   3.584  0.0985 -0.0123  0.4324
 7714SOL    HW134601   0.954   1.918   3.662 -2.4037 -0.3271 -0.2309
 7714SOL    HW234602   0.877   1.991   3.565 -0.0016 -0.5428  0.3588
 7715SOL     OW34603   3.378   3.725   1.540  0.9481  0.2234  0.0869
 7715SOL    HW134604   3.423   3.736   1.623 -0.3737  0.7444  0.7331
 7715SOL    HW234605   3.296   3.679   1.560  0.4834  0.8899 -0.2705
 7716SOL     OW34606   1.776   4.211   2.919  0.9178  0.4388  0.5707
 7716SOL    HW134607   1.777   4.206   2.823  1.3980 -2.3201  0.6933
 7716SOL    HW234608   1.824   4.129   2.936 -0.6925 -0.4943  0.6068
 7717SOL     OW34609   3.918   2.349  16.216 -0.8281  0.3065 -0.1719
 7717SOL    HW134610   3.845   2.404  16.190  1.0770  2.4538 -0.9417
 7717SOL    HW234611   4.001   2.393  16.196 -0.5591  0.7602  1.9203
 7718SOL     OW34612   4.031   4.042   1.255  0.0631  0.5060 -0.2657
 7718SOL    HW134613   4.093   4.084   1.196  0.1212  0.9043  0.0753
 7718SOL    HW234614   4.037   3.956   1.213  1.7820 -0.1810  1.3907
 7719SOL     OW34615   3.624   0.584  12.425 -0.4523  0.8255 -0.7587
 7719SOL    HW134616   3.700   0.631  12.390  1.2751 -1.1055  0.4561
 7719SOL    HW234617   3.613   0.514  12.361  1.5363  0.5537 -0.7956
 7720SOL     OW34618   1.237   3.895   9.576 -0.3434 -0.0165 -0.5190
 7720SOL    HW134619   1.210   3.804   9.562  0.0353 -0.6735  2.9903
 7720SOL    HW234620   1.204   3.939   9.498 -2.1839  2.7897  1.8408
 7721SOL     OW34621   1.607   4.688   0.323 -0.2580  0.2610 -0.2572
 7721SOL    HW134622   1.567   4.619   0.377  1.2855  0.2646  0.8801
 7721SOL    HW234623   1.533   0.025   0.325  0.0229  0.6484 -1.8690
 7722SOL     OW34624   1.277   1.662  16.643 -0.2500  0.3828 -0.5918
 7722SOL    HW134625   1.232   1.597  16.696 -0.8309  0.5629 -0.8730
 7722SOL    HW234626   1.252   1.647  16.552 -1.0991  0.0932 -0.3053
 7723SOL     OW34627   0.694   0.370   3.604  0.0265 -0.4376  0.3815
 7723SOL    HW134628   0.688   0.279   3.634  1.6858  0.1957  2.6218
 7723SOL    HW234629   0.605   0.397   3.627  0.0997  0.9854 -1.0121
 7724SOL     OW34630   0.131   1.973  16.400 -0.5703 -0.2083 -0.2395
 7724SOL    HW134631   0.056   1.923  16.369  0.4427 -1.6737 -0.3208
 7724SOL    HW234632   0.178   1.903  16.446  1.2070 -0.4769 -2.4468
 7725SOL     OW34633   1.327   1.090   3.951  0.5607  0.4194 -0.2857
 7725SOL    HW134634   1.359   1.162   4.007  0.0549 -0.3432  0.9767
 7725SOL    HW234635   1.410   1.045   3.936  0.8266  1.3306 -1.5602
 7726SOL     OW34636   2.082   4.292   2.878  0.3298 -0.0982  0.4630
 7726SOL    HW134637   2.025   4.230   2.924 -1.7315  1.3459 -0.1453
 7726SOL    HW234638   2.056   4.377   2.914  0.2760  0.0034  0.1856
 7727SOL     OW34639   1.520   4.043   0.156 -0.0126 -0.1352 -0.1294
 7727SOL    HW134640   1.524   4.126   0.204  2.0487 -0.4278  0.2182
 7727SOL    HW234641   1.516   4.084   0.070  2.6485 -1.1906 -0.7518
 7728SOL     OW34642   0.444   4.644  11.909  0.0716  0.9373 -0.4325
 7728SOL    HW134643   0.372   4.581  11.916  2.0704 -1.4688 -1.4763
 7728SOL    HW234644   0.446   4.662  11.815  0.8480 -1.4369 -0.8771
 7729SOL     OW34645   1.995   3.300   8.676  0.1543  0.8610  0.4228
 7729SOL    HW134646   2.084   3.288   8.642 -0.3513  1.0515 -0.9915
 7729SOL    HW234647   2.010   3.283   8.769  1.3003  1.2123  0.3008
 7730SOL     OW34648   1.704   4.519   7.789 -0.2842  0.1605  0.4468
 7730SOL    HW134649   1.723   4.522   7.695  2.1202 -0.2211  0.9100
 7730SOL    HW234650   1.783   4.544   7.836 -0.3829  2.4814 -0.6274
 7731SOL     OW34651   0.736   1.665   7.453 -0.3364 -0.0260  0.6046
 7731SOL    HW134652   0.664   1.676   7.516 -0.8098 -0.5500  0.1606
 7731SOL    HW234653   0.742   1.570   7.447  0.4438  0.0825 -0.2687
 7732SOL     OW34654   3.016   0.215   9.269 -0.0619  0.5276 -0.7022
 7732SOL    HW134655   2.977   0.142   9.317  0.8928 -0.8295 -2.0013
 7732SOL    HW234656   3.088   0.171   9.225  0.2658 -1.0133  1.3749
 7733SOL     OW34657   1.797   3.111   2.763 -0.0469  0.0542  0.7621
 7733SOL    HW134658   1.854   3.108   2.839  0.3636 -1.3014  0.4130
 7733SOL    HW234659   1.860   3.108   2.690 -1.4596 -0.3117 -0.4350
 7734SOL     OW34660   2.090   1.006   4.450  0.0557 -0.3035  0.0666
 7734SOL    HW134661   2.080   1.063   4.527 -0.5024 -3.9534  2.6833
 7734SOL    HW234662   2.002   0.977   4.427  0.8062 -0.9909 -1.8449
 7735SOL     OW34663   1.827   2.176  17.616  0.5143 -0.1461 -0.0623
 7735SOL    HW134664   1.737   2.169  17.645  1.0635 -1.1652  1.4079
 7735SOL    HW234665   1.854   2.265  17.637  0.0940 -0.6347  2.5424
 7736SOL     OW34666   2.658   1.020  17.299 -0.5354  0.6034 -0.6623
 7736SOL    HW134667   2.682   1.083  17.367  0.7845  1.1157 -1.5977
 7736SOL    HW234668   2.601   1.064  17.236  0.9255  0.0710 -2.3560
 7737SOL     OW34669   2.625   3.260   4.571 -0.2508 -1.0052  0.2919
 7737SOL    HW134670   2.548   3.264   4.628 -1.5326  1.0631 -1.6092
 7737SOL    HW234671   2.620   3.350   4.539  2.0500 -1.2572 -0.7872
 7738SOL     OW34672   1.253   3.241   0.351  0.3337 -0.3270  0.0956
 7738SOL    HW134673   1.309   3.241   0.429 -0.5989  1.9762  0.7572
 7738SOL    HW234674   1.165   3.229   0.387 -0.1847 -2.2319 -1.8149
 7739SOL     OW34675   3.174   0.300   4.272  0.3634 -0.2542 -0.0281
 7739SOL    HW134676   3.240   0.322   4.337  1.3514  1.0822 -1.4993
 7739SOL    HW234677   3.097   0.294   4.330  0.6116 -0.1693  0.3135
 7740SOL     OW34678   4.460   2.733   8.447  0.0792  0.3632  0.5578
 7740SOL    HW134679   4.366   2.747   8.440 -0.0610  0.1026  1.8222
 7740SOL    HW234680   4.467   2.693   8.534  0.2907 -0.7503  0.0229
 7741SOL     OW34681   4.274   0.681   1.965 -0.4636 -0.7538  0.3494
 7741SOL    HW134682   4.277   0.597   1.918 -4.4717 -0.5381 -0.2729
 7741SOL    HW234683   4.240   0.739   1.897  1.5115  2.0052  1.7421
 7742SOL     OW34684   0.455   0.567  14.088  0.1049 -0.0282  0.2317
 7742SOL    HW134685   0.373   0.520  14.106  0.7396 -0.9366  0.7752
 7742SOL    HW234686   0.475   0.529  14.002 -2.3992 -0.2957 -0.2404
 7743SOL     OW34687   1.293   4.621   3.156 -0.7203 -0.4606  0.2081
 7743SOL    HW134688   1.306   4.555   3.224  1.1593  0.3628  0.6540
 7743SOL    HW234689   1.374   4.643   3.110 -2.3747  2.8467 -1.1063
 7744SOL     OW34690   0.296   0.772  11.409 -0.0678 -0.1326  0.0603
 7744SOL    HW134691   0.278   0.826  11.485 -0.8304  0.3331 -0.4467
 7744SOL    HW234692   0.259   0.688  11.438 -1.2858  0.0415 -0.9948
 7745SOL     OW34693   1.152   0.448  14.555 -0.2772 -0.0662  0.3815
 7745SOL    HW134694   1.058   0.461  14.540 -1.0126 -2.9676  2.4654
 7745SOL    HW234695   1.196   0.527  14.524  1.6275 -1.3116 -0.1114
 7746SOL     OW34696   2.658   3.136  14.924 -0.0110  0.3761 -0.6023
 7746SOL    HW134697   2.613   3.077  14.863 -0.2573 -1.1094  1.0345
 7746SOL    HW234698   2.652   3.221  14.880  0.4975 -0.5744 -2.5157
 7747SOL     OW34699   0.052   1.305   9.225  0.3687  0.3129  0.3336
 7747SOL    HW134700   4.711   1.332   9.291  1.0086  0.3704  0.9423
 7747SOL    HW234701   0.096   1.234   9.271 -2.1738 -2.0413 -0.8988
 7748SOL     OW34702   2.760   2.490  14.686  0.3149 -0.5919 -0.5086
 7748SOL    HW134703   2.725   2.548  14.619  0.8909  2.3351  1.7375
 7748SOL    HW234704   2.795   2.547  14.755 -0.7257  0.0274 -0.4947
 7749SOL     OW34705   3.116   2.797  15.619 -0.2505 -0.5383  0.2809
 7749SOL    HW134706   3.036   2.766  15.577 -1.2413  0.6357  1.2682
 7749SOL    HW234707   3.178   2.790  15.547  0.0409  1.2237  0.3457
 7750SOL     OW34708   0.857   1.528   4.930 -0.4898  0.7725  0.2478
 7750SOL    HW134709   0.914   1.522   4.853  0.8887  0.1416  1.3085
 7750SOL    HW234710   0.928   1.561   4.985 -1.6136  0.8462  1.6734
 7751SOL     OW34711   2.915   3.784   7.099 -1.0749 -0.3396 -0.5213
 7751SOL    HW134712   2.913   3.853   7.034  1.3841 -0.7548 -1.0381
 7751SOL    HW234713   2.905   3.846   7.171 -0.3603 -1.0987  0.2422
 7752SOL     OW34714   3.371   1.444   8.687 -0.8706 -0.2024  0.0763
 7752SOL    HW134715   3.286   1.437   8.729 -1.0375  1.1295 -0.0408
 7752SOL    HW234716   3.346   1.524   8.641 -1.2995 -0.9572 -1.0003
 7753SOL     OW34717   1.204   0.902   6.281 -0.5054  0.1780  0.2645
 7753SOL    HW134718   1.259   0.976   6.307  4.4573 -2.1690 -3.6159
 7753SOL    HW234719   1.179   0.926   6.192 -1.6259 -0.5815  0.3694
 7754SOL     OW34720   1.477   3.648  16.695 -0.3863  0.1254  0.2597
 7754SOL    HW134721   1.396   3.681  16.656  0.9715  1.4447 -1.4790
 7754SOL    HW234722   1.538   3.665  16.624  1.3033  0.6203  1.8252
 7755SOL     OW34723   3.307   1.470   7.401  0.4338  0.6291 -0.0035
 7755SOL    HW134724   3.341   1.459   7.489 -2.6360 -0.9009  1.0036
 7755SOL    HW234725   3.313   1.566   7.397 -0.2189  0.6229 -1.4078
 7756SOL     OW34726   2.195   4.446   6.496 -0.3090 -0.2555 -0.2783
 7756SOL    HW134727   2.171   4.476   6.408  1.9999  0.8145 -0.5503
 7756SOL    HW234728   2.111   4.436   6.541 -1.2677 -0.9517 -2.1830
 7757SOL     OW34729   1.683   1.146   7.303  0.2617 -0.2942  0.2934
 7757SOL    HW134730   1.609   1.141   7.243  0.1447  1.8720  0.2554
 7757SOL    HW234731   1.675   1.059   7.343  3.4439 -0.7383 -0.0706
 7758SOL     OW34732   0.228   0.431   6.493 -0.2342 -0.4264 -0.6368
 7758SOL    HW134733   0.201   0.451   6.404  0.5104  2.7887 -0.1376
 7758SOL    HW234734   0.146   0.443   6.542  0.1770  0.2824 -0.1152
 7759SOL     OW34735   2.737   2.748   8.175  0.1863 -0.1451  0.2001
 7759SOL    HW134736   2.775   2.664   8.149  2.2164  0.9987 -0.4968
 7759SOL    HW234737   2.817   2.797   8.194  0.4932 -0.6403  0.1756
 7760SOL     OW34738   1.362   4.317  11.362  0.1876  0.4740 -0.6307
 7760SOL    HW134739   1.312   4.260  11.303 -0.8227 -1.1524  1.8024
 7760SOL    HW234740   1.400   4.375  11.296  4.5736 -0.3632  1.1857
 7761SOL     OW34741   3.933   4.461   8.724 -0.1026 -0.2455 -0.4988
 7761SOL    HW134742   3.849   4.441   8.767 -0.9044 -1.3402 -2.5811
 7761SOL    HW234743   3.935   4.557   8.732  1.3837 -0.3900  0.8172
 7762SOL     OW34744   0.132   1.586  10.009 -0.0999 -0.1597  0.0087
 7762SOL    HW134745   0.144   1.639   9.930 -0.7300 -0.1563 -0.0815
 7762SOL    HW234746   0.219   1.587  10.049 -0.0294  1.5314 -0.1814
 7763SOL     OW34747   3.055   0.569   2.989 -0.2121  0.1123 -0.3276
 7763SOL    HW134748   3.028   0.483   2.959  0.4098  0.0871 -0.8119
 7763SOL    HW234749   2.979   0.613   2.951 -1.3693 -0.3782  1.4456
 7764SOL     OW34750   0.679   2.445   6.588 -0.1490 -0.1087  0.4062
 7764SOL    HW134751   0.597   2.474   6.547 -0.4441  0.4215  1.3628
 7764SOL    HW234752   0.716   2.527   6.619  0.5519 -1.2467  2.6297
 7765SOL     OW34753   4.184   3.651  10.536 -0.1616  0.2094  0.0391
 7765SOL    HW134754   4.252   3.619  10.595  1.4192  0.3782 -1.7020
 7765SOL    HW234755   4.168   3.570  10.487 -0.4346 -0.4588  1.2249
 7766SOL     OW34756   3.815   2.128  17.491 -0.1209 -0.3190 -0.5567
 7766SOL    HW134757   3.896   2.102  17.446 -0.6049 -1.4065 -0.7970
 7766SOL    HW234758   3.825   2.081  17.574  0.2252 -0.3237 -0.5990
 7767SOL     OW34759   4.245   2.362   7.932  0.2875 -0.0786  0.0194
 7767SOL    HW134760   4.332   2.391   7.907  0.0697 -0.3268 -1.0367
 7767SOL    HW234761   4.269   2.308   8.007  1.8819  0.1007 -0.3621
 7768SOL     OW34762   3.854   0.419   8.717 -0.0860 -0.0419 -0.1721
 7768SOL    HW134763   3.775   0.408   8.770  1.1964 -0.6851  1.5987
 7768SOL    HW234764   3.844   0.349   8.653  1.4726 -0.4668  0.0478
 7769SOL     OW34765   2.715   4.561   6.487  0.8999  0.2742 -0.0674
 7769SOL    HW134766   2.691   4.477   6.525  0.5741  0.5372  0.3144
 7769SOL    HW234767   2.804   4.542   6.456  0.9713  0.7325 -0.1492
 7770SOL     OW34768   2.900   1.581  16.130  0.0797 -0.1142 -0.0288
 7770SOL    HW134769   2.923   1.670  16.102  1.1107 -0.7858 -1.3243
 7770SOL    HW234770   2.898   1.525  16.052 -0.7867  0.3017 -0.2943
 7771SOL     OW34771   1.056   1.282   9.581  1.0605  0.4709 -0.5314
 7771SOL    HW134772   1.149   1.301   9.565  0.8372  0.2122 -2.1577
 7771SOL    HW234773   1.060   1.190   9.554 -1.9144  0.2338 -0.1716
 7772SOL     OW34774   3.523   4.268   4.323  0.4232  0.4060  0.0288
 7772SOL    HW134775   3.429   4.283   4.320  0.6297  1.1510 -2.9544
 7772SOL    HW234776   3.553   4.330   4.390  1.8016 -1.4606  1.1224
 7773SOL     OW34777   2.545   4.715   6.300  0.1736  0.4365 -0.2868
 7773SOL    HW134778   2.600   4.646   6.336  0.3542 -0.0960 -1.5801
 7773SOL    HW234779   2.471   4.715   6.360  0.8432  1.1334  0.5332
 7774SOL     OW34780   1.654   4.555   8.101 -0.3056  0.1485  0.3945
 7774SOL    HW134781   1.669   4.602   8.019  0.3769 -0.6580  0.0509
 7774SOL    HW234782   1.677   4.618   8.170  0.4897 -2.2679  2.3507
 7775SOL     OW34783   0.254   3.442   6.993  0.5530 -0.0971 -0.2165
 7775SOL    HW134784   0.165   3.470   7.014  0.6998  1.7259 -1.9638
 7775SOL    HW234785   0.305   3.433   7.073  0.3274  1.0642  0.0583
 7776SOL     OW34786   0.516   0.941   1.495 -0.0191 -0.0937 -0.0542
 7776SOL    HW134787   0.548   1.019   1.449 -0.1205  1.0835  1.8850
 7776SOL    HW234788   0.421   0.953   1.492 -0.2566 -1.6998  1.5386
 7777SOL     OW34789   3.056   3.095   1.521  0.7530  0.7211  0.0941
 7777SOL    HW134790   3.003   3.105   1.442  1.2526 -0.4662 -0.3872
 7777SOL    HW234791   3.125   3.043   1.479  0.5217  0.6580 -0.2043
 7778SOL     OW34792   3.321   0.028  11.279  0.0369  0.5399 -0.3077
 7778SOL    HW134793   3.243   0.069  11.316 -1.3983 -0.7339 -1.9158
 7778SOL    HW234794   3.331   0.047  11.185  3.2048  0.1380 -0.0491
 7779SOL     OW34795   3.731   4.094   4.660  0.4296 -0.1567 -0.1288
 7779SOL    HW134796   3.750   4.100   4.754 -0.5199 -0.7545  0.1111
 7779SOL    HW234797   3.714   4.001   4.647 -0.9916  0.3044 -1.5710
 7780SOL     OW34798   4.471   2.778  15.049 -0.2650 -0.2449  0.5290
 7780SOL    HW134799   4.497   2.694  15.085 -2.0451 -0.1482  2.0661
 7780SOL    HW234800   4.545   2.811  14.997 -1.7152  0.1460 -1.2732
 7781SOL     OW34801   0.595   2.451   8.885 -0.6104  0.0635 -0.7476
 7781SOL    HW134802   0.542   2.511   8.938  0.3433  0.8452 -0.6729
 7781SOL    HW234803   0.546   2.369   8.891  1.4806 -0.9432  2.3791
 7782SOL     OW34804   1.506   2.852   7.137 -0.3486 -0.1046 -0.4068
 7782SOL    HW134805   1.488   2.946   7.137 -2.5675 -0.5399 -1.3878
 7782SOL    HW234806   1.587   2.853   7.188  0.7296  1.0791 -2.1179
 7783SOL     OW34807   4.472   3.344   9.137  0.4200 -0.2855  0.3056
 7783SOL    HW134808   4.549   3.396   9.114  0.2348 -0.2625 -0.2603
 7783SOL    HW234809   4.452   3.371   9.227 -0.7665 -0.0508 -0.0293
 7784SOL     OW34810   1.192   2.479   7.704  0.1589  0.3619  0.0090
 7784SOL    HW134811   1.161   2.563   7.668 -2.1452 -1.1372 -1.4982
 7784SOL    HW234812   1.118   2.422   7.686 -0.4578  0.7256  1.3895
 7785SOL     OW34813   1.335   0.362   3.769  0.6645  0.4067  0.6183
 7785SOL    HW134814   1.249   0.355   3.728 -0.5258  2.1954  2.8060
 7785SOL    HW234815   1.375   0.305   3.703  1.0992  2.0872 -0.5786
 7786SOL     OW34816   2.481   1.992   7.722 -0.3777 -0.2286 -0.3759
 7786SOL    HW134817   2.475   2.027   7.634  1.3595  0.9511 -0.0225
 7786SOL    HW234818   2.453   1.902   7.702 -1.7459  0.2092 -0.4479
 7787SOL     OW34819   3.580   1.911   6.336 -0.3800 -0.4906  0.0455
 7787SOL    HW134820   3.582   1.918   6.241 -0.9575 -0.5540  0.0271
 7787SOL    HW234821   3.613   1.822   6.350 -1.2657 -0.7302  0.5930
 7788SOL     OW34822   3.748   2.524  16.066 -0.2740 -0.1623 -0.2059
 7788SOL    HW134823   3.704   2.500  15.985 -0.8709 -0.2834  0.1555
 7788SOL    HW234824   3.820   2.571  16.024 -0.6782  0.8801  0.2677
 7789SOL     OW34825   1.544   0.301  17.694  0.7187 -0.0925 -0.2872
 7789SOL    HW134826   1.544   0.224   0.054 -0.1563  0.2430  0.1624
 7789SOL    HW234827   1.453   0.303  17.667 -0.0527 -0.4471  2.2467
 7790SOL     OW34828   3.842   0.982   7.747  0.5248  0.0693  0.0448
 7790SOL    HW134829   3.878   0.895   7.765  0.1533 -0.2345 -0.6847
 7790SOL    HW234830   3.750   0.966   7.770  0.2742  0.6939 -0.5358
 7791SOL     OW34831   0.444   1.025   1.126  0.5146 -0.5932 -0.6176
 7791SOL    HW134832   0.408   1.068   1.204 -1.2169 -4.2425  0.6664
 7791SOL    HW234833   0.375   1.052   1.065 -0.6954 -0.8192  0.6422
 7792SOL     OW34834   4.034   2.335   3.853  0.0703 -0.3941 -0.4202
 7792SOL    HW134835   3.978   2.348   3.777 -0.9765 -3.2531 -0.1203
 7792SOL    HW234836   4.119   2.366   3.820 -0.2040  0.6275 -0.1656
 7793SOL     OW34837   4.500   2.307  13.037  0.1957  0.0891 -0.0442
 7793SOL    HW134838   4.473   2.333  13.125 -2.0586 -2.0690 -0.1191
 7793SOL    HW234839   4.511   2.213  13.052  1.5418  0.1362 -0.7219
 7794SOL     OW34840   0.176   3.230  12.345 -0.0339 -0.5337 -0.7668
 7794SOL    HW134841   0.174   3.201  12.436 -0.4938 -1.2295 -0.9999
 7794SOL    HW234842   0.159   3.322  12.365  0.3234 -0.9915  1.6377
 7795SOL     OW34843   4.060   2.896   6.071 -0.2430 -0.5751  0.0516
 7795SOL    HW134844   4.089   2.805   6.056 -0.0243  0.0229 -3.0805
 7795SOL    HW234845   4.083   2.916   6.162  0.2423  3.3673 -0.9392
 7796SOL     OW34846   2.060   0.198   4.846  0.8651  0.2097 -0.3040
 7796SOL    HW134847   2.109   0.202   4.764  2.0982 -0.9404  0.3779
 7796SOL    HW234848   2.120   0.162   4.911  0.7209 -0.5068 -0.5644
 7797SOL     OW34849   4.652   2.659   3.865  0.2666  0.0061  0.1263
 7797SOL    HW134850   4.634   2.595   3.934  0.1456  0.1708  0.2477
 7797SOL    HW234851   4.712   2.716   3.913  0.1542  2.0381 -2.1653
 7798SOL     OW34852   2.851   0.513   0.305  0.5238 -0.6055  0.2492
 7798SOL    HW134853   2.909   0.567   0.359 -1.1609  2.6084 -1.1481
 7798SOL    HW234854   2.835   0.569   0.229  0.7530 -1.5662 -0.5114
 7799SOL     OW34855   0.376   1.226   0.926  0.0741  0.0994  0.0348
 7799SOL    HW134856   0.445   1.273   0.878 -1.4915  0.9960 -1.3228
 7799SOL    HW234857   0.356   1.155   0.865 -2.3914  0.4758  0.3999
 7800SOL     OW34858   1.323   3.254   8.513 -0.7715  0.2496 -0.0849
 7800SOL    HW134859   1.281   3.334   8.482  1.6398  1.4060 -0.3707
 7800SOL    HW234860   1.406   3.243   8.466 -1.2225 -0.5859 -0.6819
 7801SOL     OW34861   1.305   1.979  15.556 -0.2539  0.2281 -0.4874
 7801SOL    HW134862   1.322   1.889  15.585 -0.3995  0.1071 -0.7779
 7801SOL    HW234863   1.386   2.022  15.581 -0.7012  1.1458 -0.6143
 7802SOL     OW34864   2.005   0.906   6.524  0.3048 -0.3502  0.4939
 7802SOL    HW134865   1.924   0.947   6.495  2.1752  1.1638 -2.6042
 7802SOL    HW234866   2.069   0.978   6.527 -1.3025  1.1176 -0.7048
 7803SOL     OW34867   0.072   1.189   8.746  0.3987  0.0581 -0.2359
 7803SOL    HW134868   0.025   1.166   8.666  0.8315 -0.8679 -0.2266
 7803SOL    HW234869   0.132   1.114   8.751 -0.9414 -1.0832 -1.4562
 7804SOL     OW34870   2.880   2.529  13.709 -0.3202  0.1025  0.1239
 7804SOL    HW134871   2.897   2.618  13.680  1.3600  0.2661  1.6596
 7804SOL    HW234872   2.815   2.554  13.774 -0.4568  0.7948 -0.2751
 7805SOL     OW34873   2.823   3.627  12.324 -0.2306 -0.1723  0.0144
 7805SOL    HW134874   2.771   3.573  12.266 -2.2481  1.4876  0.2501
 7805SOL    HW234875   2.833   3.568  12.399  0.1480  0.3923  0.4108
 7806SOL     OW34876   2.067   3.056   7.552  0.5005 -0.3807  0.1536
 7806SOL    HW134877   2.079   3.123   7.620  1.3867  0.8048 -1.1641
 7806SOL    HW234878   1.996   3.007   7.593  0.3964  0.6333  1.1915
 7807SOL     OW34879   0.915   3.988  12.490 -0.5737  0.2546 -0.0172
 7807SOL    HW134880   0.981   3.955  12.429 -1.4197 -0.3454 -0.6031
 7807SOL    HW234881   0.850   4.004  12.422  0.3050  1.3602 -0.5865
 7808SOL     OW34882   4.233   1.335  10.975  0.0528  0.1048  0.1740
 7808SOL    HW134883   4.245   1.391  10.898 -0.4838  1.2332  0.9170
 7808SOL    HW234884   4.226   1.401  11.043  0.5350 -0.8113  1.1016
 7809SOL     OW34885   1.143   3.683  14.208  0.0711 -0.6425 -0.2999
 7809SOL    HW134886   1.162   3.597  14.247 -0.8514  0.2948  2.2005
 7809SOL    HW234887   1.074   3.657  14.148  0.3344  2.2388 -1.8597
 7810SOL     OW34888   0.904   3.942  14.874 -0.8078  0.4465 -0.3796
 7810SOL    HW134889   0.944   3.866  14.914 -1.9324 -0.1454 -0.3644
 7810SOL    HW234890   0.819   3.936  14.917 -0.1405 -0.5957  0.7603
 7811SOL     OW34891   2.897   0.437   5.020  0.1392  0.1999 -0.3426
 7811SOL    HW134892   2.945   0.372   5.071 -0.2329 -1.6293 -2.3496
 7811SOL    HW234893   2.943   0.509   5.063  0.1899  1.2392 -2.1366
 7812SOL     OW34894   2.617   4.562  11.088  0.8242  0.1283  0.2694
 7812SOL    HW134895   2.524   4.582  11.080  0.1905 -2.5523  1.1114
 7812SOL    HW234896   2.613   4.479  11.039  0.3472 -0.5376  1.4498
 7813SOL     OW34897   0.873   1.263  16.285  0.3986 -0.9589  0.5459
 7813SOL    HW134898   0.784   1.251  16.251  0.0858  1.0241  0.6533
 7813SOL    HW234899   0.855   1.233  16.374  1.0150 -0.4567  0.8415
 7814SOL     OW34900   1.038   1.486  16.236 -0.7188 -0.1605 -0.1857
 7814SOL    HW134901   1.123   1.444  16.245  1.4377  4.3329  0.3710
 7814SOL    HW234902   0.969   1.422  16.253 -1.7551  0.8004 -0.7669
 7815SOL     OW34903   2.948   1.666   3.458  0.0078  0.1746 -0.0145
 7815SOL    HW134904   2.950   1.757   3.429 -3.2765  0.3917  0.5212
 7815SOL    HW234905   2.860   1.668   3.495  0.3764  0.4188  0.8591
 7816SOL     OW34906   2.257   4.507   0.594 -0.2908  0.2687  0.1974
 7816SOL    HW134907   2.183   4.531   0.649  0.0313 -0.1483  0.8144
 7816SOL    HW234908   2.293   4.432   0.642 -1.3423  0.2206  0.9057
 7817SOL     OW34909   0.212   1.197   5.488 -0.4772 -0.7701  0.6175
 7817SOL    HW134910   0.117   1.192   5.486 -0.4119 -1.5309 -0.3276
 7817SOL    HW234911   0.244   1.170   5.402 -0.4307 -3.0121  1.3451
 7818SOL     OW34912   0.910   4.045   2.634 -0.2115  0.0486 -0.2887
 7818SOL    HW134913   0.946   3.965   2.672 -4.1903 -1.2405  0.8150
 7818SOL    HW234914   0.905   4.012   2.544 -2.8315 -1.1386  0.2874
 7819SOL     OW34915   2.093   3.775  14.431  0.4678 -0.4953 -0.9480
 7819SOL    HW134916   2.032   3.746  14.500  1.4573 -0.4061 -0.0382
 7819SOL    HW234917   2.114   3.864  14.459  0.1357 -0.2200 -1.5764
 7820SOL     OW34918   0.345   0.115   3.619  0.4711  0.4676  0.0737
 7820SOL    HW134919   0.319   0.138   3.530  1.3077 -1.0410 -0.5560
 7820SOL    HW234920   0.439   0.105   3.602  0.6291  1.1879  0.5047
 7821SOL     OW34921   1.476   2.588  14.202 -0.3958 -0.1293 -0.0539
 7821SOL    HW134922   1.557   2.551  14.167 -0.3000 -0.9951  1.0448
 7821SOL    HW234923   1.418   2.544  14.140  1.0881 -1.2602 -0.6377
 7822SOL     OW34924   0.375   0.548   2.368  0.1443 -0.3244 -0.0503
 7822SOL    HW134925   0.432   0.491   2.317 -1.1564 -0.3473 -1.4752
 7822SOL    HW234926   0.344   0.499   2.444 -1.5957  0.9388  0.0411
 7823SOL     OW34927   0.742   3.942  14.130  0.1782  0.5484 -0.1930
 7823SOL    HW134928   0.647   3.940  14.116  0.3354  1.2827 -1.3546
 7823SOL    HW234929   0.775   4.001  14.063 -1.5100 -1.4481 -2.7943
 7824SOL     OW34930   3.115   2.796   2.541 -0.2165  0.0018  0.1908
 7824SOL    HW134931   3.045   2.862   2.540 -1.0173 -0.8550 -0.6514
 7824SOL    HW234932   3.103   2.740   2.464  0.3254 -2.0605  1.6202
 7825SOL     OW34933   2.146   1.806  16.061 -0.2498  0.3507  0.0602
 7825SOL    HW134934   2.168   1.728  16.112  2.4093  1.9712  1.3599
 7825SOL    HW234935   2.207   1.867  16.102 -0.6821 -0.7819  2.4447
 7826SOL     OW34936   0.320   0.145   8.550  0.1130  0.3076  0.2078
 7826SOL    HW134937   0.259   0.071   8.560  0.0138  0.2594 -0.6808
 7826SOL    HW234938   0.273   0.196   8.484 -0.6114  2.8536  2.6871
 7827SOL     OW34939   1.034   2.181   4.633 -0.2596  0.3491  0.2822
 7827SOL    HW134940   0.950   2.191   4.588 -0.6982  0.1749  1.0662
 7827SOL    HW234941   1.084   2.117   4.582 -0.9797 -0.3908  0.5017
 7828SOL     OW34942   0.446   4.209   8.284 -0.3484  0.2586  0.5530
 7828SOL    HW134943   0.371   4.244   8.236  1.2380 -0.6115 -2.5728
 7828SOL    HW234944   0.431   4.237   8.375  0.2133 -2.8756  1.6118
 7829SOL     OW34945   3.297   3.231   7.961  0.2156  0.7166 -0.0823
 7829SOL    HW134946   3.363   3.268   7.902  1.1993  2.8429  2.3330
 7829SOL    HW234947   3.335   3.246   8.048 -0.7015  1.8195  0.1356
 7830SOL     OW34948   1.146   3.128   5.569 -0.0296 -0.2540 -0.0564
 7830SOL    HW134949   1.085   3.062   5.603 -0.5840  0.0454 -0.4523
 7830SOL    HW234950   1.124   3.127   5.476  1.1041  0.7905 -0.3264
 7831SOL     OW34951   2.434   2.627   8.491 -0.6540  0.4202 -0.0579
 7831SOL    HW134952   2.405   2.642   8.581 -0.3461  0.1923  0.0815
 7831SOL    HW234953   2.505   2.692   8.491 -0.8691  0.6374 -2.4863
 7832SOL     OW34954   0.038   2.244   6.074  0.5928 -0.4681 -0.6908
 7832SOL    HW134955   0.068   2.313   6.132 -1.8047 -0.0046 -0.0005
 7832SOL    HW234956   0.119   2.203   6.043  1.2010 -1.8842  2.7683
 7833SOL     OW34957   2.760   2.919   1.617 -0.3706  0.1582  0.2616
 7833SOL    HW134958   2.855   2.929   1.604 -0.3493  0.1357  0.3987
 7833SOL    HW234959   2.743   2.851   1.552 -0.7987  0.5289 -0.0146
 7834SOL     OW34960   2.849   1.135   8.381 -0.4876 -0.5188 -0.1488
 7834SOL    HW134961   2.815   1.090   8.304  1.8793  1.9529 -2.6739
 7834SOL    HW234962   2.781   1.122   8.447  0.9433 -1.4543  1.1515
 7835SOL     OW34963   1.298   2.938   2.888 -0.1966 -0.0346  0.3507
 7835SOL    HW134964   1.310   2.893   2.805 -2.4650  0.1253 -0.0526
 7835SOL    HW234965   1.210   2.973   2.881 -0.2055  0.1664  1.4844
 7836SOL     OW34966   4.104   0.648  15.384  0.2749  0.3861  0.5447
 7836SOL    HW134967   4.176   0.603  15.428  0.5862  0.4426  0.1043
 7836SOL    HW234968   4.127   0.637  15.291  1.6292  1.9154  0.6904
 7837SOL     OW34969   2.449   3.856   5.820 -0.3110 -0.3901  0.1933
 7837SOL    HW134970   2.466   3.950   5.816  1.1282 -0.6392  0.1382
 7837SOL    HW234971   2.479   3.837   5.909 -1.9690  2.5082  1.3284
 7838SOL     OW34972   0.529   4.547   1.709  0.1356  0.3571 -0.0031
 7838SOL    HW134973   0.588   4.604   1.757  0.2569 -0.3442  0.6753
 7838SOL    HW234974   0.571   4.462   1.722 -1.6502  0.1020  4.0815
 7839SOL     OW34975   2.679   3.065   2.610 -0.4097 -0.1583 -0.4732
 7839SOL    HW134976   2.633   3.102   2.686  0.5441  0.9007 -0.4181
 7839SOL    HW234977   2.713   2.977   2.629  1.5166  0.8037  0.5810
 7840SOL     OW34978   0.569   3.845  16.948  0.1312 -0.0147 -0.0632
 7840SOL    HW134979   0.502   3.872  17.011  1.8529 -0.3612  1.9220
 7840SOL    HW234980   0.580   3.753  16.972 -1.5965 -0.2472 -0.1416
 7841SOL     OW34981   3.394   0.782   6.246 -0.1031 -0.2107  0.1956
 7841SOL    HW134982   3.422   0.842   6.315 -1.1956  1.2474 -0.6250
 7841SOL    HW234983   3.314   0.737   6.275  0.8783 -1.3961  1.0340
 7842SOL     OW34984   3.855   4.438   6.803  0.3534 -0.3344  0.4786
 7842SOL    HW134985   3.920   4.509   6.798  0.4299 -0.5031 -0.8112
 7842SOL    HW234986   3.853   4.454   6.897  1.5492 -1.1124  0.6389
 7843SOL     OW34987   0.024   0.339  16.124  0.1074 -0.2835  0.1053
 7843SOL    HW134988   0.097   0.294  16.167 -0.9203  0.7384  2.8748
 7843SOL    HW234989   0.046   0.331  16.031  1.9911  0.3732  0.5010
 7844SOL     OW34990   4.070   1.195   0.300  0.0760  0.3689  0.0076
 7844SOL    HW134991   4.075   1.100   0.313  0.4306  0.2657 -0.9012
 7844SOL    HW234992   4.098   1.227   0.386  2.9579 -0.0492 -0.7824
 7845SOL     OW34993   4.615   3.514   7.332 -0.6044  0.0958 -0.4014
 7845SOL    HW134994   4.642   3.473   7.250 -1.0396 -0.5084 -0.2359
 7845SOL    HW234995   4.642   3.606   7.328  0.9031 -0.5338 -4.4429
 7846SOL     OW34996   0.505   1.228   9.772 -0.0398 -0.2020 -0.2329
 7846SOL    HW134997   0.464   1.314   9.768  1.9035  0.7957  1.9327
 7846SOL    HW234998   0.428   1.172   9.782 -0.7702  0.9538  0.5286
 7847SOL     OW34999   3.163   1.220   7.046 -0.4196  0.0501  0.5160
 7847SOL    HW135000   3.119   1.290   6.998 -1.7560 -1.1104  0.0269
 7847SOL    HW235001   3.142   1.149   6.984  2.5432  0.3250 -0.7784
 7848SOL     OW35002   0.167   4.140  14.492  0.0213 -0.4950  0.1771
 7848SOL    HW135003   0.251   4.116  14.452  1.0764  1.5726  1.1246
 7848SOL    HW235004   0.189   4.211  14.553 -0.1261 -0.5443  0.2880
 7849SOL     OW35005   3.319   4.287  14.881 -0.0729 -0.3022  0.4363
 7849SOL    HW135006   3.379   4.220  14.849 -0.0485 -0.0993  0.0537
 7849SOL    HW235007   3.314   4.348  14.807  1.2360  2.3177  2.5402
 7850SOL     OW35008   3.813   3.814  13.718  0.2190  0.2188 -0.0776
 7850SOL    HW135009   3.896   3.853  13.744  0.2696 -0.3007  0.5505
 7850SOL    HW235010   3.806   3.839  13.626 -0.0473 -1.8042 -0.6124
 7851SOL     OW35011   2.863   3.511   4.412 -0.2426  0.0373  0.4428
 7851SOL    HW135012   2.873   3.593   4.364 -1.6654 -0.9960 -1.5970
 7851SOL    HW235013   2.829   3.543   4.496  0.2126  2.1482 -0.1882
 7852SOL     OW35014   3.931   0.567  12.083  0.8491 -0.2695 -0.4249
 7852SOL    HW135015   3.994   0.639  12.078 -0.2140  0.6850 -0.0203
 7852SOL    HW235016   3.942   0.528  12.170  0.8753 -0.3293 -0.4548
 7853SOL     OW35017   2.612   3.343   4.164 -0.1928 -0.2532  0.0439
 7853SOL    HW135018   2.706   3.342   4.183 -0.0132 -2.9120 -0.8954
 7853SOL    HW235019   2.599   3.435   4.143  0.9691 -0.1172 -0.0994
 7854SOL     OW35020   2.538   3.981   2.753 -0.2010  0.2321 -0.1825
 7854SOL    HW135021   2.561   3.989   2.660 -1.4948 -1.2798 -0.6330
 7854SOL    HW235022   2.477   4.053   2.768 -0.7089  0.0344 -1.3400
 7855SOL     OW35023   3.963   4.618   6.135 -0.1435 -0.0163  0.1750
 7855SOL    HW135024   3.966   4.533   6.090 -2.6154 -0.1626  0.2889
 7855SOL    HW235025   3.945   4.572   6.217 -1.5952  0.6690  0.2313
 7856SOL     OW35026   3.777   2.526   8.664 -0.8333  0.1443  0.3255
 7856SOL    HW135027   3.809   2.610   8.632  1.3390 -0.0812  1.8556
 7856SOL    HW235028   3.725   2.553   8.740 -0.7930 -0.3143  0.5160
 7857SOL     OW35029   3.187   2.616   4.938  0.1081 -0.3149 -0.3229
 7857SOL    HW135030   3.230   2.701   4.942 -0.4563 -0.0852  0.7186
 7857SOL    HW235031   3.134   2.626   4.859 -0.3954 -1.7688 -0.1642
 7858SOL     OW35032   1.040   0.800   2.799  0.2626  0.2869  0.4400
 7858SOL    HW135033   1.028   0.707   2.817 -0.1013  0.1999 -0.2324
 7858SOL    HW235034   1.135   0.801   2.806  0.2758  0.3714  0.2291
 7859SOL     OW35035   3.179   3.584  13.379  0.4136  0.2771 -0.0625
 7859SOL    HW135036   3.248   3.533  13.336 -0.3041 -1.1529  0.5183
 7859SOL    HW235037   3.159   3.532  13.456 -0.4197 -0.2776 -0.6642
 7860SOL     OW35038   0.139   0.113   1.602 -0.2742 -0.3679  0.5818
 7860SOL    HW135039   0.199   0.147   1.536 -0.8789  0.0777  0.2614
 7860SOL    HW235040   0.186   0.036   1.634  0.9532  0.4527  0.7659
 7861SOL     OW35041   3.373   1.319   2.226  0.5760  0.3126 -0.1564
 7861SOL    HW135042   3.440   1.385   2.212 -1.2235  2.2970  0.6309
 7861SOL    HW235043   3.327   1.314   2.143 -2.5635  4.5269  1.3505
 7862SOL     OW35044   1.752   2.353   4.354  0.0731 -1.0048  0.0179
 7862SOL    HW135045   1.767   2.266   4.317  0.1233 -0.5888 -0.9163
 7862SOL    HW235046   1.754   2.330   4.447 -2.6027  0.5093  0.4426
 7863SOL     OW35047   2.992   3.249   3.080  0.6076 -0.9284 -0.7722
 7863SOL    HW135048   3.074   3.294   3.058  1.1525 -0.6671  1.8091
 7863SOL    HW235049   3.017   3.178   3.139 -5.2059 -0.9011  1.6503
 7864SOL     OW35050   1.542   0.954  12.189  0.3738 -0.4338  0.5137
 7864SOL    HW135051   1.572   1.004  12.264  1.5454 -3.5418  2.0967
 7864SOL    HW235052   1.454   0.993  12.189  0.8128  0.5629 -0.1624
 7865SOL     OW35053   2.192   1.382  10.258 -0.5281  0.7154 -0.5915
 7865SOL    HW135054   2.112   1.342  10.292 -0.9589  0.6496 -1.6562
 7865SOL    HW235055   2.245   1.373  10.337 -2.6597  1.4210  0.9226
 7866SOL     OW35056   0.073   0.344  14.299  0.2008 -0.2939  0.7133
 7866SOL    HW135057   4.714   0.390  14.286  0.9556 -0.2412 -3.8997
 7866SOL    HW235058   0.121   0.397  14.363 -0.1694 -0.3092  1.0061
 7867SOL     OW35059   0.136   1.934   4.898 -0.0998 -0.1410 -0.1121
 7867SOL    HW135060   0.212   1.980   4.933 -0.4877  0.9704 -0.7267
 7867SOL    HW235061   0.134   1.956   4.805 -0.2124 -3.0138 -0.7885
 7868SOL     OW35062   3.780   2.910  14.626 -0.8082 -0.3494  0.4235
 7868SOL    HW135063   3.811   2.948  14.543  0.6102  0.4240  1.3048
 7868SOL    HW235064   3.758   2.824  14.591  1.3005 -0.9479  0.5407
 7869SOL     OW35065   1.417   1.364  14.236 -0.0062  0.3811  0.0816
 7869SOL    HW135066   1.370   1.310  14.173 -0.7502 -0.7024  1.5491
 7869SOL    HW235067   1.458   1.291  14.284 -1.1835  0.0528  0.5762
 7870SOL     OW35068   0.467   2.668  17.191 -0.0539  0.0413 -0.1302
 7870SOL    HW135069   0.494   2.638  17.278  1.8695 -0.0032 -0.7621
 7870SOL    HW235070   0.401   2.731  17.219  0.0054 -1.1440  2.7795
 7871SOL     OW35071   0.251   4.698   7.314  0.0751 -0.5340 -0.1289
 7871SOL    HW135072   0.340   4.707   7.347 -0.2029  1.2746  0.1325
 7871SOL    HW235073   0.232   4.605   7.326  1.7875 -0.5055  2.7907
 7872SOL     OW35074   4.379   0.843  13.653 -0.3918  0.9033  0.7634
 7872SOL    HW135075   4.368   0.751  13.630  1.3931  0.7539  0.5623
 7872SOL    HW235076   4.415   0.869  13.568  0.6100 -4.3145 -0.3612
 7873SOL     OW35077   0.095   0.624  13.176  0.0747  0.2788 -0.2711
 7873SOL    HW135078   0.123   0.713  13.152  1.2498 -0.5533 -1.9823
 7873SOL    HW235079   0.116   0.618  13.269 -0.3039 -1.6658 -0.3287
 7874SOL     OW35080   3.995   0.955   3.182 -0.1492 -0.2456  0.3157
 7874SOL    HW135081   3.937   0.935   3.254  0.9730 -0.0585  1.2723
 7874SOL    HW235082   4.056   1.018   3.222 -1.0757 -1.6439  3.8391
 7875SOL     OW35083   1.108   0.303   4.109 -0.2368  0.0900  0.5177
 7875SOL    HW135084   1.172   0.242   4.071 -0.1186  0.6601 -0.2098
 7875SOL    HW235085   1.160   0.381   4.088 -0.9716 -0.5243 -3.5913
 7876SOL     OW35086   1.219   0.759   7.733  0.6310 -0.2572 -0.1128
 7876SOL    HW135087   1.247   0.815   7.805 -0.5146  0.7456 -0.4573
 7876SOL    HW235088   1.124   0.759   7.742  0.8814  0.9544  2.5474
 7877SOL     OW35089   2.667   3.024   4.072 -0.1810  0.4512  0.3535
 7877SOL    HW135090   2.757   3.056   4.065  0.8003 -2.0106  1.7008
 7877SOL    HW235091   2.636   3.085   4.139 -1.9524  1.6800 -1.5716
 7878SOL     OW35092   2.395   1.530  11.063  0.0874  0.4594 -0.0443
 7878SOL    HW135093   2.452   1.604  11.082 -0.9477  1.4345 -0.7263
 7878SOL    HW235094   2.331   1.561  10.999 -0.2288 -0.3507 -0.1224
 7879SOL     OW35095   1.697   0.933  10.081 -0.2797  0.3434  0.3604
 7879SOL    HW135096   1.788   0.963  10.072 -0.3556  0.1710 -1.0344
 7879SOL    HW235097   1.649   0.991  10.140  0.2257  0.4125  0.7053
 7880SOL     OW35098   0.830   1.139   2.021  0.0058 -0.5283 -0.8969
 7880SOL    HW135099   0.748   1.102   1.989 -1.1008 -0.0416  1.3660
 7880SOL    HW235100   0.855   1.207   1.958 -0.0427 -0.8272 -1.2323
 7881SOL     OW35101   3.826   2.491   2.399 -0.4707 -0.0630 -0.0003
 7881SOL    HW135102   3.758   2.491   2.466 -1.2067 -0.7578 -0.7531
 7881SOL    HW235103   3.789   2.426   2.340 -2.1499 -0.1045  1.0933
 7882SOL     OW35104   2.719   0.034  17.669  0.0509 -0.3324 -0.5340
 7882SOL    HW135105   2.683   0.003  17.587 -2.3517  0.3824  0.2554
 7882SOL    HW235106   2.729   4.677   0.021 -2.1521  1.3553  2.7348
 7883SOL     OW35107   0.875   4.150   0.263  0.1523 -0.6631 -0.3308
 7883SOL    HW135108   0.834   4.132   0.179  0.1075  1.1811 -0.7200
 7883SOL    HW235109   0.879   4.246   0.265 -0.3921 -0.6465  0.1565
 7884SOL     OW35110   4.067   0.378  13.756 -0.6056  0.2916 -0.0230
 7884SOL    HW135111   4.081   0.472  13.770  0.2263  0.1640  0.0308
 7884SOL    HW235112   3.972   0.371  13.758 -0.7089  1.9694  1.3826
 7885SOL     OW35113   0.473   4.047   4.820  0.0253  0.1578  0.1061
 7885SOL    HW135114   0.529   4.123   4.835  0.3834  0.4432 -2.6322
 7885SOL    HW235115   0.480   4.024   4.727 -0.9132 -0.0155  0.0809
 7886SOL     OW35116   0.371   2.953   2.994 -0.0014 -0.7110 -0.2123
 7886SOL    HW135117   0.434   3.025   2.987 -3.2577  1.9792 -1.3242
 7886SOL    HW235118   0.363   2.913   2.908 -1.9498  0.1201 -0.4156
 7887SOL     OW35119   1.443   3.697   4.038  0.2158 -0.6011 -0.6536
 7887SOL    HW135120   1.427   3.645   4.116 -0.7338  3.0190  1.5562
 7887SOL    HW235121   1.368   3.669   3.985  0.7920 -0.0471 -1.7657
 7888SOL     OW35122   4.010   2.071   0.030 -0.2398  0.5282 -0.0757
 7888SOL    HW135123   3.965   2.062   0.114 -0.8032  2.2946 -0.1787
 7888SOL    HW235124   4.071   2.002   0.055 -0.7009 -0.3077 -1.2480
 7889SOL     OW35125   0.700   1.830   8.533  0.1908 -0.1597  0.2381
 7889SOL    HW135126   0.631   1.765   8.518 -1.8049  1.9727  0.2264
 7889SOL    HW235127   0.770   1.769   8.554  0.1457 -0.7783 -1.4511
 7890SOL     OW35128   3.004   1.389  16.291  0.1092 -0.1918 -0.4478
 7890SOL    HW135129   2.976   1.456  16.229 -0.4908 -0.4106 -0.4094
 7890SOL    HW235130   3.052   1.432  16.362  2.9232  0.9956 -3.0697
 7891SOL     OW35131   1.247   3.277   2.647  0.1505  0.8471  0.1538
 7891SOL    HW135132   1.236   3.338   2.575  1.0225  0.4483 -0.3256
 7891SOL    HW235133   1.158   3.245   2.663  0.5527 -0.0800  0.5863
 7892SOL     OW35134   0.175   2.469  13.558  0.8046  0.8543 -0.3342
 7892SOL    HW135135   0.157   2.490  13.649 -2.6058  0.0670 -0.8185
 7892SOL    HW235136   0.217   2.383  13.567  0.4772  0.2667 -4.1956
 7893SOL     OW35137   0.462   0.190   2.608 -0.6120 -0.1123  0.1433
 7893SOL    HW135138   0.414   0.271   2.587  1.2369  1.0445  0.3683
 7893SOL    HW235139   0.547   0.226   2.633 -0.3957  0.3130 -1.2089
 7894SOL     OW35140   1.079   2.927   8.960  0.1855  0.3245  0.4822
 7894SOL    HW135141   1.063   2.969   8.875 -1.4789  1.4011  1.3280
 7894SOL    HW235142   1.175   2.926   8.966  0.0642  0.5785  2.4682
 7895SOL     OW35143   0.570   1.541  16.473  0.1152  0.0495  0.1790
 7895SOL    HW135144   0.502   1.476  16.455  0.1695  0.2065 -0.6096
 7895SOL    HW235145   0.558   1.556  16.566 -3.0484  1.1133 -0.3796
 7896SOL     OW35146   3.176   3.095   0.247  0.1128  0.0806 -0.5296
 7896SOL    HW135147   3.132   3.055   0.171 -0.9901 -1.3285  0.8440
 7896SOL    HW235148   3.116   3.063   0.315  0.5473  0.1914 -0.1013
 7897SOL     OW35149   0.047   1.898   8.746 -0.2907  0.5786 -0.1313
 7897SOL    HW135150   0.121   1.878   8.803  0.5584  2.5156 -0.5448
 7897SOL    HW235151   0.069   1.984   8.709  1.0008 -0.5253 -1.8922
 7898SOL     OW35152   0.924   3.199  12.007  0.2139  0.2557 -1.0111
 7898SOL    HW135153   0.841   3.203  11.960 -0.1153  1.0372 -0.3821
 7898SOL    HW235154   0.903   3.151  12.087  0.9254 -1.1949 -1.7000
 7899SOL     OW35155   3.940   0.719   7.806  0.1652 -0.0436 -0.8377
 7899SOL    HW135156   3.986   0.735   7.888  1.9144 -0.7385 -1.6913
 7899SOL    HW235157   3.909   0.630   7.819 -1.2823  0.3781 -1.3230
 7900SOL     OW35158   3.612   1.339  16.044  0.3559 -0.4554  0.6490
 7900SOL    HW135159   3.568   1.415  16.081  0.3990  0.4717 -1.1872
 7900SOL    HW235160   3.677   1.379  15.985 -0.6485  0.2151 -0.0011
 7901SOL     OW35161   4.447   3.905   6.319  0.1356 -0.1562  0.3451
 7901SOL    HW135162   4.456   3.846   6.394 -1.9967 -0.8559  0.0417
 7901SOL    HW235163   4.498   3.982   6.343 -0.3067 -0.0852  1.0775
 7902SOL     OW35164   1.934   0.930  13.169  0.2643  0.2977  0.1915
 7902SOL    HW135165   1.879   0.932  13.247  0.4587  3.2224  0.2589
 7902SOL    HW235166   1.923   0.843  13.132 -0.3980 -0.0104  1.1065
 7903SOL     OW35167   3.784   0.077   6.880  0.5172 -0.3681  0.0171
 7903SOL    HW135168   3.842   0.143   6.843 -1.6487  1.0686 -0.8320
 7903SOL    HW235169   3.843   0.017   6.926 -0.3697 -1.2628 -0.0142
 7904SOL     OW35170   3.423   4.206   7.725  0.2384  0.0574  0.4277
 7904SOL    HW135171   3.482   4.215   7.651 -0.5086  0.1817 -0.1525
 7904SOL    HW235172   3.428   4.292   7.768 -4.6991  0.0829  0.9643
 7905SOL     OW35173   2.689   3.952   8.422  0.0700  0.4253  0.0515
 7905SOL    HW135174   2.595   3.947   8.439  0.0138 -0.4111 -0.5022
 7905SOL    HW235175   2.720   3.861   8.425 -1.6415 -0.1678 -0.0444
 7906SOL     OW35176   2.098   1.731   9.547  0.6342 -0.3809  0.1283
 7906SOL    HW135177   2.178   1.679   9.551 -1.5806 -3.5307  3.4113
 7906SOL    HW235178   2.042   1.676   9.601  0.9099  0.7595  1.5726
 7907SOL     OW35179   3.260   2.101   1.407  0.5481 -0.0773 -0.4855
 7907SOL    HW135180   3.199   2.155   1.456 -0.0409 -0.3315 -0.9319
 7907SOL    HW235181   3.304   2.044   1.469  0.3800 -1.4413 -1.5999
 7908SOL     OW35182   4.093   3.079   8.191 -0.2037 -0.0096 -0.7386
 7908SOL    HW135183   4.036   3.002   8.192  0.9546 -0.8845 -1.5686
 7908SOL    HW235184   4.028   3.145   8.214 -0.2951 -0.2985 -0.1705
 7909SOL     OW35185   1.662   1.006   8.660 -0.4950  0.3281 -0.0997
 7909SOL    HW135186   1.636   0.989   8.751 -2.0304 -1.6035 -0.9208
 7909SOL    HW235187   1.740   0.950   8.653 -0.8435 -0.1735  0.0201
 7910SOL     OW35188   1.234   1.363   8.574  0.1345  0.1272 -0.0965
 7910SOL    HW135189   1.264   1.411   8.651  2.1866 -0.8284 -0.2850
 7910SOL    HW235190   1.289   1.284   8.570  0.1901  0.1511  0.1996
 7911SOL     OW35191   3.648   3.157  13.675  0.3075  0.2753 -0.9220
 7911SOL    HW135192   3.673   3.186  13.763 -0.4444 -3.0121  0.3566
 7911SOL    HW235193   3.717   3.193  13.618  0.2586  1.1843 -0.4149
 7912SOL     OW35194   2.251   3.620   1.474 -0.1610  0.4392 -0.4451
 7912SOL    HW135195   2.235   3.539   1.524  1.9042  0.1727 -0.2374
 7912SOL    HW235196   2.284   3.576   1.396  0.1535 -1.9612  1.0349
 7913SOL     OW35197   1.270   0.085   8.597  0.5371  0.2018  0.0383
 7913SOL    HW135198   1.196   0.027   8.613  1.4905 -0.5659  1.5768
 7913SOL    HW235199   1.251   0.165   8.647 -1.9121 -0.4448  0.1126
 7914SOL     OW35200   0.858   3.476   7.697  0.3063 -0.4820  0.3728
 7914SOL    HW135201   0.827   3.561   7.668 -1.0935 -2.0552 -2.7938
 7914SOL    HW235202   0.806   3.407   7.656 -1.4800  1.9910 -1.4989
 7915SOL     OW35203   3.490   2.251   7.783  0.1340  0.6919  0.3092
 7915SOL    HW135204   3.514   2.235   7.692  1.2573 -1.3016  0.9505
 7915SOL    HW235205   3.518   2.341   7.800  1.2793  0.4938 -0.5411
 7916SOL     OW35206   2.062   1.428   3.648 -0.0380 -0.2808 -0.1076
 7916SOL    HW135207   2.064   1.332   3.654  1.5521 -0.2837 -0.8916
 7916SOL    HW235208   2.156   1.439   3.653 -0.1781  0.5982  0.4778
 7917SOL     OW35209   4.605   3.467   3.135  0.0738 -0.4875 -0.0535
 7917SOL    HW135210   4.604   3.384   3.183 -0.4689  0.8714  2.3020
 7917SOL    HW235211   4.669   3.439   3.070  1.4842  0.6871  0.8387
 7918SOL     OW35212   3.236   4.291  15.114  0.3608  0.1265 -0.4104
 7918SOL    HW135213   3.191   4.374  15.101  0.2922 -0.0384 -1.2336
 7918SOL    HW235214   3.269   4.280  15.025  2.2582 -0.7016  0.3899
 7919SOL     OW35215   1.590   2.362   6.900 -0.3749 -0.2730 -0.9417
 7919SOL    HW135216   1.513   2.323   6.941  1.4340 -0.5149  2.2535
 7919SOL    HW235217   1.549   2.442   6.868  1.8303 -0.1418 -3.4231
 7920SOL     OW35218   4.001   0.893   6.432  0.2893 -0.2168 -0.0744
 7920SOL    HW135219   4.091   0.907   6.461  0.5142 -1.0812 -0.3764
 7920SOL    HW235220   3.995   0.940   6.349  1.7759  1.5539  0.8087
 7921SOL     OW35221   0.479   1.991  15.788 -0.5344 -0.5394  0.0009
 7921SOL    HW135222   0.387   2.016  15.793 -0.5077 -0.5108  0.3593
 7921SOL    HW235223   0.481   2.012  15.695  0.0981 -0.9302 -0.0755
 7922SOL     OW35224   1.492   4.419   8.427  0.3343  0.0730  0.3313
 7922SOL    HW135225   1.465   4.456   8.511 -0.6636  1.8225 -0.7697
 7922SOL    HW235226   1.474   4.327   8.444  1.0244 -0.3483 -1.2468
 7923SOL     OW35227   4.567   0.311  13.743 -0.3911 -0.1999  0.5036
 7923SOL    HW135228   4.586   0.354  13.660 -0.2802  0.4278  0.8518
 7923SOL    HW235229   4.476   0.290  13.722 -0.7402 -2.2949  4.1385
 7924SOL     OW35230   0.979   2.258   4.224  0.3568  0.3640 -0.7817
 7924SOL    HW135231   1.055   2.200   4.224  0.1525  0.1105  0.5743
 7924SOL    HW235232   0.977   2.276   4.130 -2.0172  0.5596 -0.6901
 7925SOL     OW35233   1.423   2.573   7.121 -0.1655  0.2969 -0.2171
 7925SOL    HW135234   1.387   2.606   7.039 -2.8661 -0.4525  0.6779
 7925SOL    HW235235   1.465   2.655   7.149 -3.5107  0.8345  3.2537
 7926SOL     OW35236   1.426   4.569   8.641 -0.4316 -0.4125 -0.2101
 7926SOL    HW135237   1.365   4.536   8.707  0.8591 -2.0128  0.1663
 7926SOL    HW235238   1.400   4.661   8.637 -0.1843 -0.2897  0.9725
 7927SOL     OW35239   0.210   2.411   1.399 -0.1257 -0.1283  0.5655
 7927SOL    HW135240   0.192   2.377   1.311  1.1845  0.1707  0.1775
 7927SOL    HW235241   0.304   2.406   1.419  0.0547  1.2734  0.1013
 7928SOL     OW35242   0.856   3.351   3.785  0.3392  0.2767  0.1846
 7928SOL    HW135243   0.802   3.424   3.755 -1.6741 -1.6231 -0.8468
 7928SOL    HW235244   0.823   3.321   3.870 -0.0930 -1.6435 -0.6519
 7929SOL     OW35245   0.068   3.927   2.870  0.2716 -0.4436 -0.2746
 7929SOL    HW135246   0.013   3.970   2.804  0.3049 -1.5736 -1.0414
 7929SOL    HW235247   0.146   3.983   2.870  0.1210 -0.2680  2.4543
 7930SOL     OW35248   3.396   4.447  12.651  0.4254  0.0565  0.3846
 7930SOL    HW135249   3.309   4.408  12.651 -0.8546  2.9269 -0.8219
 7930SOL    HW235250   3.400   4.434  12.746  0.3467  0.3076  0.4225
 7931SOL     OW35251   2.708   3.216   3.176 -0.0872 -0.5146 -0.1016
 7931SOL    HW135252   2.734   3.124   3.181  0.5556 -0.2126  2.0691
 7931SOL    HW235253   2.769   3.259   3.117 -1.0349 -1.8384 -2.0665
 7932SOL     OW35254   0.129   1.345   3.776  0.5418  0.0033  0.1424
 7932SOL    HW135255   0.170   1.394   3.704 -1.4651  2.0715  0.4011
 7932SOL    HW235256   0.151   1.404   3.848  2.5632 -0.7174  0.1290
 7933SOL     OW35257   1.319   3.620  15.784 -0.1966 -0.0041 -0.3391
 7933SOL    HW135258   1.273   3.539  15.803 -0.1743 -0.4401 -2.1537
 7933SOL    HW235259   1.388   3.597  15.721  0.0157  1.4332 -0.6393
 7934SOL     OW35260   1.184   3.587  17.464 -0.4295 -0.4963  0.4632
 7934SOL    HW135261   1.251   3.539  17.415 -0.1153 -3.0860  3.4403
 7934SOL    HW235262   1.243   3.630  17.525 -1.1006 -1.3188  1.6780
 7935SOL     OW35263   1.502   3.796  10.919 -0.1175  0.0433  0.2840
 7935SOL    HW135264   1.567   3.767  10.856 -1.8881 -1.1249 -1.0004
 7935SOL    HW235265   1.471   3.714  10.956 -1.9079  0.4440 -0.2973
 7936SOL     OW35266   2.493   2.911   1.262 -0.0423  0.1724  0.3707
 7936SOL    HW135267   2.538   2.869   1.335 -2.9212 -2.5294  0.5775
 7936SOL    HW235268   2.416   2.933   1.314  0.6805 -0.3602  1.6520
 7937SOL     OW35269   0.463   2.389  10.783  0.0011  0.6117 -0.0652
 7937SOL    HW135270   0.531   2.456  10.784  0.8279 -0.2326  1.4641
 7937SOL    HW235271   0.393   2.424  10.837  0.7125 -0.3533  1.4908
 7938SOL     OW35272   0.309   0.115   6.666 -0.4266  0.2880  0.0797
 7938SOL    HW135273   0.300   0.022   6.688 -0.9039  0.3713  0.2417
 7938SOL    HW235274   0.260   0.163   6.732  0.3641 -0.8257  1.4737
 7939SOL     OW35275   0.142   1.483   6.605  0.3597 -0.2124  0.4765
 7939SOL    HW135276   0.226   1.459   6.566  0.1224 -2.1265  1.1476
 7939SOL    HW235277   0.097   1.398   6.612  0.0747 -0.1133 -0.1315
 7940SOL     OW35278   0.263   4.405   7.361  0.4919 -0.1931  0.3447
 7940SOL    HW135279   0.280   4.371   7.449 -1.3957  2.9798  1.9193
 7940SOL    HW235280   0.338   4.374   7.309  0.1624  0.4643 -0.5240
 7941SOL     OW35281   1.541   1.213   6.140 -0.4901  0.1361  0.0866
 7941SOL    HW135282   1.476   1.239   6.075 -0.7863  1.1916  0.8105
 7941SOL    HW235283   1.507   1.128   6.166 -0.3042 -0.1005 -0.4494
 7942SOL     OW35284   1.848   0.721   1.997  0.4822  0.1409 -0.0180
 7942SOL    HW135285   1.893   0.762   2.071 -0.9886 -0.5813  1.2791
 7942SOL    HW235286   1.925   0.690   1.950 -0.7569  1.3761 -2.8049
 7943SOL     OW35287   2.719   0.593   8.520  0.1639  0.3174  0.4644
 7943SOL    HW135288   2.721   0.625   8.610  0.7458  1.0381  0.1876
 7943SOL    HW235289   2.753   0.668   8.472 -0.1062 -0.3914 -0.8304
 7944SOL     OW35290   0.361   1.510   5.992 -0.9447  0.5062  0.3990
 7944SOL    HW135291   0.415   1.448   5.943 -0.6199 -0.0133  1.4300
 7944SOL    HW235292   0.420   1.571   6.035  0.1901 -0.2620 -0.0692
 7945SOL     OW35293   4.187   3.452  11.051 -0.8758 -0.2118  0.1666
 7945SOL    HW135294   4.223   3.371  11.089 -1.2263 -0.5334 -0.1881
 7945SOL    HW235295   4.170   3.491  11.137  1.5126  0.2688  0.4151
 7946SOL     OW35296   4.126   3.331   8.847  0.1575  0.2060 -0.5924
 7946SOL    HW135297   4.171   3.415   8.857  1.0948 -0.3252 -0.2903
 7946SOL    HW235298   4.174   3.299   8.771 -1.1262  0.2893 -1.4332
 7947SOL     OW35299   4.721   3.526   9.080 -0.0618  0.1092 -0.2001
 7947SOL    HW135300   0.030   3.574   9.156  0.5273 -0.5121 -0.0685
 7947SOL    HW235301   0.064   3.459   9.069 -1.4883 -1.4461  0.5226
 7948SOL     OW35302   0.645   3.729   3.588  0.1299 -0.0592 -0.0830
 7948SOL    HW135303   0.724   3.780   3.608  1.2517 -0.6230 -3.0659
 7948SOL    HW235304   0.590   3.801   3.556 -0.7513 -1.1081 -0.8897
 7949SOL     OW35305   0.330   4.039   2.426  0.5970  0.0191 -0.6048
 7949SOL    HW135306   0.405   4.037   2.368 -0.2682 -1.9607 -1.6709
 7949SOL    HW235307   0.260   4.064   2.365  0.9867  0.3103 -0.9287
 7950SOL     OW35308   2.453   0.865   4.360 -0.4189 -0.6939  0.2704
 7950SOL    HW135309   2.514   0.792   4.363 -0.4024 -0.6869  0.0626
 7950SOL    HW235310   2.417   0.875   4.449  0.7268  2.0448  0.4354
 7951SOL     OW35311   0.682   3.127   6.516 -0.5227 -0.1511 -0.1738
 7951SOL    HW135312   0.730   3.200   6.477 -2.4780  1.1754 -0.1527
 7951SOL    HW235313   0.736   3.106   6.592  1.2311  0.4921 -1.2501
 7952SOL     OW35314   3.645   2.486   7.791 -0.4487 -0.0418 -0.1283
 7952SOL    HW135315   3.599   2.568   7.810 -2.7417 -1.8172  1.9619
 7952SOL    HW235316   3.733   2.502   7.826 -0.5863  0.3292  0.0495
 7953SOL     OW35317   4.034   0.014   2.344  0.2059 -0.5261 -0.0688
 7953SOL    HW135318   4.023   4.644   2.330  0.8486 -0.4960 -0.7449
 7953SOL    HW235319   3.968   0.035   2.410 -0.0421 -3.2976  0.5877
 7954SOL     OW35320   1.887   2.875   7.056 -0.2677 -0.0344  0.3591
 7954SOL    HW135321   1.825   2.859   7.127 -1.3586  1.2949 -0.2966
 7954SOL    HW235322   1.967   2.897   7.104  1.0667  0.9644 -2.2886
 7955SOL     OW35323   4.032   4.075   9.757  0.2811 -0.1204 -0.1141
 7955SOL    HW135324   3.978   4.087   9.679  1.0794  1.6952 -0.3825
 7955SOL    HW235325   4.082   3.999   9.727  3.5132  1.0369  2.3437
 7956SOL     OW35326   4.583   2.924   2.039  0.4431  0.0235 -0.5397
 7956SOL    HW135327   4.533   2.968   2.107  2.5429  0.4847  0.7131
 7956SOL    HW235328   4.655   2.987   2.037 -0.9653  1.7322  1.7521
 7957SOL     OW35329   1.260   3.125  15.427  0.2807  0.4954 -0.4386
 7957SOL    HW135330   1.242   3.206  15.474  0.2919  1.4060 -2.0154
 7957SOL    HW235331   1.202   3.136  15.351 -0.7256  1.5498  0.4886
 7958SOL     OW35332   1.287   4.604  13.806  0.1471 -0.0494  0.1545
 7958SOL    HW135333   1.199   4.620  13.838 -0.2824 -1.0689 -0.5194
 7958SOL    HW235334   1.306   4.686  13.760 -0.2317  0.2768  0.5853
 7959SOL     OW35335   2.792   3.463   3.440  0.1433 -0.0998 -0.2024
 7959SOL    HW135336   2.857   3.411   3.487  0.2545  0.5583  0.3698
 7959SOL    HW235337   2.709   3.416   3.450 -0.8789  1.5916 -0.7032
 7960SOL     OW35338   1.466   1.212   0.309  0.0450 -0.5907  0.0760
 7960SOL    HW135339   1.483   1.265   0.387 -0.4005 -1.8994  1.0666
 7960SOL    HW235340   1.430   1.132   0.349  1.8143 -0.5054  1.8465
 7961SOL     OW35341   1.566   0.053   6.759  0.6235 -0.9063 -0.2525
 7961SOL    HW135342   1.617   4.712   6.808 -2.5184 -2.4822  0.9438
 7961SOL    HW235343   1.520   4.719   6.699  0.4711 -2.8150  1.6859
 7962SOL     OW35344   1.720   0.183   8.160  0.6770  0.2344 -0.2990
 7962SOL    HW135345   1.654   0.234   8.208  0.0254  0.9991 -2.0077
 7962SOL    HW235346   1.799   0.227   8.190  1.3417 -1.0023 -0.2245
 7963SOL     OW35347   1.949   2.755   3.247 -0.5098 -0.2420  0.0874
 7963SOL    HW135348   2.033   2.774   3.204 -0.6726  1.8548  0.6975
 7963SOL    HW235349   1.895   2.821   3.203 -1.4601 -1.6577 -0.8496
 7964SOL     OW35350   3.738   1.468   7.637 -0.4565 -0.3217  0.0795
 7964SOL    HW135351   3.810   1.523   7.667 -1.0189  0.5767 -0.2204
 7964SOL    HW235352   3.779   1.382   7.648 -0.6026 -0.4845 -0.6357
 7965SOL     OW35353   1.599   2.624   2.996  0.2162  0.1838  0.0504
 7965SOL    HW135354   1.677   2.605   3.049  0.1260 -0.3544 -0.0049
 7965SOL    HW235355   1.588   2.539   2.953 -0.1402 -0.0622  0.6319
 7966SOL     OW35356   2.481   1.163  17.130 -0.1483 -0.2201 -0.5011
 7966SOL    HW135357   2.538   1.198  17.061  0.9158  0.4540  0.7029
 7966SOL    HW235358   2.446   1.082  17.094  0.0426 -0.5736  0.1079
 7967SOL     OW35359   3.421   3.769  10.962  0.2545  0.5227 -0.2264
 7967SOL    HW135360   3.405   3.687  11.010 -1.8589  0.1510 -1.5719
 7967SOL    HW235361   3.381   3.837  11.016  0.5172  0.2820  0.2751
 7968SOL     OW35362   4.570   2.503   4.134 -0.0510  0.5699 -0.7622
 7968SOL    HW135363   4.496   2.563   4.141  0.2760  0.8341  0.5761
 7968SOL    HW235364   4.628   2.551   4.193  1.2363  1.4525 -2.7566
 7969SOL     OW35365   4.080   0.138   7.561 -0.7310  0.5186  0.1903
 7969SOL    HW135366   4.127   0.147   7.643  1.9208 -1.2340 -1.1551
 7969SOL    HW235367   4.120   0.055   7.535  2.1626  1.5819  1.2917
 7970SOL     OW35368   2.916   1.316   8.712 -0.1896 -0.0261  0.5604
 7970SOL    HW135369   2.997   1.302   8.760 -0.6584 -0.1101  1.3228
 7970SOL    HW235370   2.940   1.353   8.627  0.3439  0.3053  0.8543
 7971SOL     OW35371   2.494   4.081   3.569  0.6334 -0.3340 -0.6171
 7971SOL    HW135372   2.438   4.003   3.569 -0.2279  0.2883 -1.7097
 7971SOL    HW235373   2.565   4.046   3.514  1.4338 -1.7141  1.3187
 7972SOL     OW35374   1.183   3.542   0.545 -0.1061 -0.0923 -1.0133
 7972SOL    HW135375   1.112   3.530   0.608  0.7883  0.0444  0.0236
 7972SOL    HW235376   1.191   3.637   0.537  2.4379 -0.3191 -1.2680
 7973SOL     OW35377   2.741   3.704   8.906  0.7444  0.2546  0.2664
 7973SOL    HW135378   2.671   3.698   8.841 -0.9977  0.7517  2.0968
 7973SOL    HW235379   2.710   3.769   8.969 -0.5327 -0.6713  0.6006
 7974SOL     OW35380   0.066   3.280   6.584 -0.0655 -0.7115  0.1661
 7974SOL    HW135381   0.155   3.274   6.617 -0.4207 -0.5375  1.1469
 7974SOL    HW235382   0.010   3.270   6.661  1.2868 -1.3885  1.0504
 7975SOL     OW35383   2.323   0.626  14.048 -0.6011 -0.0690  0.5768
 7975SOL    HW135384   2.272   0.548  14.069 -2.1242  1.1166  1.2751
 7975SOL    HW235385   2.358   0.594  13.965 -0.3066  2.8935 -0.4219
 7976SOL     OW35386   4.326   3.806   1.534  0.1670 -0.7931 -0.0897
 7976SOL    HW135387   4.412   3.777   1.502 -0.7581 -1.8847 -1.5530
 7976SOL    HW235388   4.304   3.724   1.577  0.0682 -0.7929 -0.1409
 7977SOL     OW35389   1.652   2.334  17.322 -0.4782  0.1956  0.5125
 7977SOL    HW135390   1.696   2.254  17.348  0.3906  0.4826 -0.0796
 7977SOL    HW235391   1.564   2.301  17.303 -1.0600  1.9052  0.1805
 7978SOL     OW35392   1.648   4.670   3.488  0.0106  0.0856 -0.2260
 7978SOL    HW135393   1.637   0.037   3.461  0.6341 -0.3512 -1.9536
 7978SOL    HW235394   1.741   4.648   3.480 -0.2017 -0.2765 -1.8994
 7979SOL     OW35395   3.529   2.870   6.467  0.1266 -0.5218  0.1823
 7979SOL    HW135396   3.504   2.790   6.421 -1.2915 -0.3816  0.7156
 7979SOL    HW235397   3.620   2.886   6.442  0.0888 -1.0420 -0.3023
 7980SOL     OW35398   0.150   2.855  12.370  0.2983 -0.5690 -0.1493
 7980SOL    HW135399   0.219   2.803  12.328  0.8208 -0.6146  0.7639
 7980SOL    HW235400   0.196   2.899  12.441 -1.2143  1.4751 -0.4577
 7981SOL     OW35401   4.716   3.314   7.865  0.3207  0.0483 -0.0166
 7981SOL    HW135402   4.663   3.238   7.844 -0.9257  1.7435 -3.0096
 7981SOL    HW235403   4.656   3.355   7.927 -1.4163 -0.4722 -1.3735
 7982SOL     OW35404   3.852   1.951   8.147  0.3447  0.4402  0.3824
 7982SOL    HW135405   3.927   2.010   8.144 -0.5231  1.5257  0.2524
 7982SOL    HW235406   3.859   1.904   8.064  2.7598  1.0018  0.2680
 7983SOL     OW35407   4.680   2.932   8.911 -0.0034 -0.1190  0.0879
 7983SOL    HW135408   0.004   3.014   8.897  1.2171 -1.0185 -1.0680
 7983SOL    HW235409   4.670   2.900   8.821  0.7947 -3.2212  1.0880
 7984SOL     OW35410   2.410   4.681  15.287  0.0129  0.5443  0.2001
 7984SOL    HW135411   2.388   4.697  15.195 -0.1036 -0.0844  0.1236
 7984SOL    HW235412   2.329   4.710  15.330 -1.1937 -0.2479 -1.5624
 7985SOL     OW35413   4.121   2.679   9.872 -0.1460 -0.3190  0.2621
 7985SOL    HW135414   4.047   2.701   9.816 -0.9858  0.8685  1.8272
 7985SOL    HW235415   4.190   2.738   9.841  0.7820 -0.4842  1.9859
 7986SOL     OW35416   0.562   2.746   3.260 -0.5228  0.2001 -0.6054
 7986SOL    HW135417   0.658   2.750   3.257 -0.4799  0.2712  0.5817
 7986SOL    HW235418   0.543   2.791   3.342  0.5033 -0.9730  0.2803
 7987SOL     OW35419   2.798   0.826   5.350  0.3490 -0.0503 -0.1694
 7987SOL    HW135420   2.862   0.890   5.381  1.7639 -1.5706  0.0841
 7987SOL    HW235421   2.734   0.819   5.421 -0.6452  0.6936 -1.0053
 7988SOL     OW35422   4.660   0.701   9.477 -1.0134  0.2560  0.4631
 7988SOL    HW135423   4.654   0.758   9.400 -0.5276 -0.5287 -0.1529
 7988SOL    HW235424   4.657   0.616   9.433  0.0177  0.2240  0.4605
 7989SOL     OW35425   2.911   4.585  11.420 -0.0304  0.0476  0.4496
 7989SOL    HW135426   2.869   4.502  11.442  1.6417 -1.2700 -1.3696
 7989SOL    HW235427   2.850   4.618  11.355  1.2011 -1.2148 -1.3326
 7990SOL     OW35428   3.952   0.631   1.978 -0.5674  0.3250  0.0088
 7990SOL    HW135429   3.984   0.550   2.018  0.8655  0.6181 -0.5650
 7990SOL    HW235430   3.917   0.605   1.893  0.2192 -0.9029  0.0608
 7991SOL     OW35431   0.497   0.584   7.635  0.0754  0.0915 -0.1498
 7991SOL    HW135432   0.403   0.570   7.643  0.1834  0.1189  1.1203
 7991SOL    HW235433   0.501   0.574   7.540 -0.1435  1.0649 -0.2603
 7992SOL     OW35434   4.075   2.239   8.767 -0.3155 -0.5782 -0.1678
 7992SOL    HW135435   4.073   2.284   8.851 -1.4676  2.0106 -1.5475
 7992SOL    HW235436   3.981   2.235   8.751 -0.2385 -3.4328  0.1390
 7993SOL     OW35437   0.306   4.651   3.898 -0.1762  0.5025 -0.6875
 7993SOL    HW135438   0.348   4.675   3.815 -0.5153  3.1205 -0.1070
 7993SOL    HW235439   0.371   4.684   3.960 -0.6043 -0.2327  0.1391
 7994SOL     OW35440   3.102   4.335   2.341  0.7537  0.1767  0.2780
 7994SOL    HW135441   3.022   4.388   2.336 -0.3975 -1.8448 -2.5081
 7994SOL    HW235442   3.068   4.250   2.311  0.9386  0.4566 -0.7115
 7995SOL     OW35443   1.640   0.346   0.800  0.2465 -0.4486  0.7406
 7995SOL    HW135444   1.602   0.311   0.720 -4.0362  1.8252  1.7771
 7995SOL    HW235445   1.712   0.400   0.765  1.5132 -2.6937 -0.1191
 7996SOL     OW35446   2.936   0.850  14.388  0.4670 -0.6562  0.7457
 7996SOL    HW135447   2.908   0.812  14.304 -0.2862 -1.2585  1.2636
 7996SOL    HW235448   2.928   0.778  14.451  0.0296 -0.7715  0.5618
 7997SOL     OW35449   1.505   3.088  14.140 -0.5650 -0.4442 -0.1439
 7997SOL    HW135450   1.423   3.094  14.187 -1.3039 -2.6392 -1.1290
 7997SOL    HW235451   1.504   3.167  14.086 -0.3508  0.1433  0.7137
 7998SOL     OW35452   0.892   2.285   7.993  0.0787 -0.4217 -0.2469
 7998SOL    HW135453   0.963   2.284   8.058 -0.5137  0.6868  0.4270
 7998SOL    HW235454   0.855   2.367   8.027  1.3408 -0.9046  2.3057
 7999SOL     OW35455   2.075   0.558  11.160  0.0141  0.0811  0.4964
 7999SOL    HW135456   2.087   0.483  11.101 -0.3274  0.4352 -0.0292
 7999SOL    HW235457   2.002   0.521  11.209 -2.2197 -3.2437 -5.3954
 8000SOL     OW35458   3.079   1.929   3.196 -0.2084  0.0488  0.0111
 8000SOL    HW135459   3.003   1.964   3.149 -1.1492 -0.4225  1.1798
 8000SOL    HW235460   3.130   1.888   3.126  1.5967  0.7365  0.9212
 8001SOL     OW35461   0.533   2.795   5.700  0.0627 -0.3723  0.2448
 8001SOL    HW135462   0.525   2.759   5.789  2.7786  0.8593  1.0009
 8001SOL    HW235463   0.450   2.843   5.703 -0.0029 -0.3892 -1.7933
 8002SOL     OW35464   4.110   2.744  12.894 -0.1554 -0.0941  0.1940
 8002SOL    HW135465   4.147   2.831  12.897 -2.0138  0.7503 -1.1628
 8002SOL    HW235466   4.132   2.723  12.803 -1.0254 -1.2669  0.2507
 8003SOL     OW35467   4.502   1.174  15.908  0.2818  0.5363 -0.6743
 8003SOL    HW135468   4.428   1.234  15.917  0.4420  0.7155 -0.5562
 8003SOL    HW235469   4.497   1.167  15.813  2.3238 -0.2566 -0.7169
 8004SOL     OW35470   1.775   0.250   2.255 -0.1605  0.0859 -0.2223
 8004SOL    HW135471   1.817   0.228   2.172 -0.2110 -0.9352  0.0214
 8004SOL    HW235472   1.694   0.201   2.239 -1.5444  3.0150 -2.2261
 8005SOL     OW35473   3.297   3.752   8.436  0.1813  1.2106  0.1139
 8005SOL    HW135474   3.287   3.769   8.530 -0.3135  0.6126  0.1695
 8005SOL    HW235475   3.263   3.833   8.397 -1.1903  1.3126  1.5218
 8006SOL     OW35476   4.357   0.431   3.433  0.5374 -0.4589  0.0313
 8006SOL    HW135477   4.357   0.336   3.448  2.2039 -0.1651  1.9471
 8006SOL    HW235478   4.414   0.437   3.356 -1.8239  3.1440 -1.4551
 8007SOL     OW35479   0.014   0.483   2.506 -0.2352  0.1396 -0.0262
 8007SOL    HW135480   4.719   0.575   2.490 -0.3214  0.3526  1.3252
 8007SOL    HW235481   4.652   0.442   2.493 -1.5285  3.0514 -0.7018
 8008SOL     OW35482   0.520   3.948   7.404  0.0267 -0.2739  0.1172
 8008SOL    HW135483   0.604   3.948   7.450  0.8378 -0.4248 -1.3813
 8008SOL    HW235484   0.499   3.854   7.409  0.5801 -0.3687  0.6551
 8009SOL     OW35485   0.321   1.762   7.830  0.1533  0.1145 -0.1650
 8009SOL    HW135486   0.300   1.669   7.844 -2.6751  0.7260 -0.3128
 8009SOL    HW235487   0.307   1.763   7.735 -1.2885 -1.8918  0.0173
 8010SOL     OW35488   3.414   2.594   9.615 -0.2007  0.0532  0.3457
 8010SOL    HW135489   3.335   2.640   9.589  0.1759  1.0040  0.8864
 8010SOL    HW235490   3.387   2.555   9.698 -0.9209 -0.1314  0.0219
 8011SOL     OW35491   0.907   2.844  13.229 -0.3288 -0.1566 -0.3797
 8011SOL    HW135492   0.848   2.806  13.294 -0.0123  1.2099  0.6992
 8011SOL    HW235493   0.983   2.866  13.284 -0.1224  0.6444 -0.9944
 8012SOL     OW35494   3.629   2.275   3.234  0.5113  0.1779  0.6394
 8012SOL    HW135495   3.677   2.237   3.160 -2.3901  1.1923 -1.7414
 8012SOL    HW235496   3.591   2.354   3.197  0.6135 -0.2387 -0.3444
 8013SOL     OW35497   3.630   2.341   2.693 -0.7373 -0.1726  0.1353
 8013SOL    HW135498   3.620   2.412   2.756  0.9865 -0.3446  0.6187
 8013SOL    HW235499   3.596   2.272   2.749 -0.2045  0.3426  1.0965
 8014SOL     OW35500   3.301   4.349  11.612  0.2312  0.0451  0.0906
 8014SOL    HW135501   3.332   4.321  11.526 -2.8468 -2.4979 -0.1872
 8014SOL    HW235502   3.285   4.264  11.654  1.9802  0.8068  2.3094
 8015SOL     OW35503   2.100   2.396   4.059 -0.1544  0.0411  0.3773
 8015SOL    HW135504   2.087   2.304   4.038 -0.3136 -0.0008  0.6537
 8015SOL    HW235505   2.146   2.430   3.982 -1.3112  0.9796  0.1064
 8016SOL     OW35506   2.684   1.147   5.565  0.4501  0.0442  0.1548
 8016SOL    HW135507   2.729   1.190   5.492 -0.0279  2.2183  1.1424
 8016SOL    HW235508   2.751   1.169   5.631 -0.6643  2.1303  0.5848
 8017SOL     OW35509   1.708   3.661   3.720 -0.1869 -0.1333 -0.2154
 8017SOL    HW135510   1.678   3.667   3.629 -0.2429  0.2949 -0.1691
 8017SOL    HW235511   1.741   3.573   3.736  0.0537 -0.0318 -0.1603
 8018SOL     OW35512   0.960   3.501   8.832  0.1476  0.3993  0.0440
 8018SOL    HW135513   0.940   3.554   8.909 -1.0518 -0.5987  0.4180
 8018SOL    HW235514   1.048   3.531   8.810  0.0562  1.7974  1.6253
 8019SOL     OW35515   2.266   3.660   8.617  0.4395  0.2017  0.5864
 8019SOL    HW135516   2.342   3.622   8.573  0.5161  2.0618 -0.8780
 8019SOL    HW235517   2.284   3.622   8.703 -0.4263  0.6114  0.9453
 8020SOL     OW35518   2.376   3.235   1.811  0.8752  0.6191  0.2628
 8020SOL    HW135519   2.464   3.223   1.776 -0.3811 -2.7223 -1.6785
 8020SOL    HW235520   2.394   3.238   1.905  1.0585  0.4921  0.2311
 8021SOL     OW35521   1.682   3.963  17.292 -0.9469 -0.8675  0.1744
 8021SOL    HW135522   1.691   3.877  17.251  0.2689  0.6306 -2.7060
 8021SOL    HW235523   1.727   4.023  17.232 -1.3825  0.0650  0.7784
 8022SOL     OW35524   2.101   3.519   4.611 -0.3775  0.4120 -0.4409
 8022SOL    HW135525   2.139   3.432   4.600 -2.2326 -0.4560  0.0887
 8022SOL    HW235526   2.084   3.539   4.519 -1.3390  0.8119 -0.1768
 8023SOL     OW35527   1.800   1.505   2.370  0.4283 -0.1815  0.1639
 8023SOL    HW135528   1.871   1.463   2.418 -1.6455 -0.7247  2.7357
 8023SOL    HW235529   1.844   1.585   2.342  0.7811 -0.5640 -0.3919
 8024SOL     OW35530   2.395   2.505  14.723 -0.0579 -0.1072  0.0813
 8024SOL    HW135531   2.435   2.575  14.775 -0.2035 -0.7059  1.0049
 8024SOL    HW235532   2.327   2.552  14.674  1.5147  0.2175 -1.7713
 8025SOL     OW35533   1.977   4.446   6.664 -0.2477 -0.3613  0.5171
 8025SOL    HW135534   1.972   4.356   6.697 -0.4101  0.5075  2.8009
 8025SOL    HW235535   1.898   4.442   6.609 -0.5998 -1.4752  1.1033
 8026SOL     OW35536   1.377   4.724   9.753  0.1975  0.0661 -0.4098
 8026SOL    HW135537   1.344   4.652   9.807 -0.1954 -0.0936 -0.8579
 8026SOL    HW235538   1.408   4.673   9.678  1.1866  0.3938 -0.2269
 8027SOL     OW35539   0.525   3.000   1.434 -0.4313 -0.2919  0.4511
 8027SOL    HW135540   0.581   2.957   1.369 -0.5284 -1.5618  1.2082
 8027SOL    HW235541   0.595   3.026   1.494  0.1260 -1.0631  0.1347
 8028SOL     OW35542   1.971   1.800  11.338 -0.2173 -0.1463 -0.2560
 8028SOL    HW135543   2.048   1.752  11.310 -0.0541 -0.6530  1.0440
 8028SOL    HW235544   1.983   1.882  11.290  2.7560 -0.8448 -0.6594
 8029SOL     OW35545   0.019   1.655   8.101  0.5595  0.6051  0.3191
 8029SOL    HW135546   0.002   1.718   8.171  0.2264  0.2931  0.5183
 8029SOL    HW235547   0.106   1.625   8.128 -0.1830 -0.1882  1.8459
 8030SOL     OW35548   1.334   1.716   6.076 -0.2712  0.2787  0.1071
 8030SOL    HW135549   1.392   1.768   6.021  0.6051  1.4845  2.1840
 8030SOL    HW235550   1.371   1.630   6.054  0.6238  0.6373  0.2453
 8031SOL     OW35551   1.232   1.359   0.549 -0.7254  0.2004 -0.8199
 8031SOL    HW135552   1.327   1.350   0.536 -0.8033 -1.7483  0.0064
 8031SOL    HW235553   1.229   1.419   0.623  2.5092  0.4241 -0.8747
 8032SOL     OW35554   3.995   2.846   3.680  0.4936  0.6249  0.3441
 8032SOL    HW135555   3.994   2.806   3.767 -1.8984  0.5973  0.3011
 8032SOL    HW235556   4.009   2.937   3.706  0.0172  0.7999 -0.0134
 8033SOL     OW35557   2.526   1.709  12.498  0.4205  0.0301  0.5999
 8033SOL    HW135558   2.601   1.710  12.558  0.5511 -1.9740  0.4868
 8033SOL    HW235559   2.504   1.801  12.490 -2.4260 -0.7983 -0.9061
 8034SOL     OW35560   4.294   3.242   6.734 -0.0804 -0.6425 -0.0155
 8034SOL    HW135561   4.276   3.293   6.813  2.9112  0.0304  0.2419
 8034SOL    HW235562   4.331   3.305   6.672  0.1178  0.8181  1.5975
 8035SOL     OW35563   3.447   3.728  12.364  0.1611  0.5857 -0.3269
 8035SOL    HW135564   3.363   3.759  12.331 -0.2948  1.2419  1.4967
 8035SOL    HW235565   3.460   3.777  12.444  3.7803  2.3323 -1.9809
 8036SOL     OW35566   0.719   1.624  16.241 -0.2622 -0.2924 -0.0543
 8036SOL    HW135567   0.680   1.607  16.327 -1.6682 -1.1972 -0.8659
 8036SOL    HW235568   0.677   1.548  16.201 -0.4429  0.1012 -0.6242
 8037SOL     OW35569   4.508   0.061   7.207  0.5163 -0.6248  0.0130
 8037SOL    HW135570   4.488   0.029   7.119  2.0557  0.2476 -0.6391
 8037SOL    HW235571   4.495   0.155   7.199 -1.3446 -0.5726  3.7919
 8038SOL     OW35572   3.891   3.423   2.625 -0.4887  0.3639 -0.9721
 8038SOL    HW135573   3.964   3.475   2.591  0.3530  1.5261  2.6194
 8038SOL    HW235574   3.845   3.486   2.680 -1.3686  0.2568 -1.5695
 8039SOL     OW35575   0.775   0.675   8.705  0.2880 -0.1554 -1.0184
 8039SOL    HW135576   0.868   0.695   8.695 -0.0133  1.4452 -0.6157
 8039SOL    HW235577   0.752   0.624   8.627 -3.0562 -2.0288  1.1739
 8040SOL     OW35578   2.149   4.173   3.669  0.3767  0.1663  0.2448
 8040SOL    HW135579   2.217   4.120   3.626  0.4673 -1.1805  2.0611
 8040SOL    HW235580   2.109   4.104   3.722 -1.2602  3.1166  2.8376
 8041SOL     OW35581   1.046   1.505  12.692  0.3862  0.4870  0.0167
 8041SOL    HW135582   1.066   1.482  12.601  0.6379 -1.8670  0.6765
 8041SOL    HW235583   1.133   1.516  12.729 -0.4943 -0.0629  2.2206
 8042SOL     OW35584   1.250   1.392   9.864  0.2257 -0.2620  0.5080
 8042SOL    HW135585   1.282   1.478   9.891 -1.5757  0.1728  1.2420
 8042SOL    HW235586   1.328   1.363   9.817 -0.6455  1.2721 -1.9173
 8043SOL     OW35587   2.965   0.518   5.765  0.1516  0.4495 -0.4596
 8043SOL    HW135588   3.000   0.540   5.852  0.1830  1.8660 -0.8206
 8043SOL    HW235589   3.004   0.594   5.722  2.3974  0.6113  1.7987
 8044SOL     OW35590   1.145   2.297   6.590 -0.2828 -0.8740 -0.0660
 8044SOL    HW135591   1.231   2.291   6.630 -0.1343 -1.4499 -0.4611
 8044SOL    HW235592   1.158   2.368   6.527  0.2601  1.3478  2.5560
 8045SOL     OW35593   3.650   0.250  15.039  0.4444  0.1805 -0.3718
 8045SOL    HW135594   3.702   0.188  14.988  1.2677  0.9277 -0.4468
 8045SOL    HW235595   3.587   0.275  14.972  1.5920 -1.1623 -1.9846
 8046SOL     OW35596   0.970   1.545  11.917  0.2196  0.1325 -0.1067
 8046SOL    HW135597   1.035   1.607  11.951  0.5341 -0.0824 -0.3168
 8046SOL    HW235598   1.030   1.492  11.864  1.1941  1.0911  0.0452
 8047SOL     OW35599   1.171   1.587   7.526  0.0150  0.2401 -0.2694
 8047SOL    HW135600   1.120   1.605   7.446 -1.2665 -0.0571  0.4808
 8047SOL    HW235601   1.260   1.580   7.493  0.4930 -0.1093  1.0971
 8048SOL     OW35602   1.966   1.704   7.921 -0.4856  0.1204 -0.3160
 8048SOL    HW135603   1.930   1.720   8.008  2.1221  2.0989  0.4182
 8048SOL    HW235604   1.989   1.792   7.892 -0.5217  0.8881  2.0223
 8049SOL     OW35605   1.014   2.427   8.586  0.3634  0.1403 -0.2854
 8049SOL    HW135606   0.958   2.415   8.662 -0.3926  1.0145 -0.6993
 8049SOL    HW235607   1.074   2.501   8.600  1.0620 -0.5652  0.4097
 8050SOL     OW35608   2.236   0.948   0.973  0.3097  0.1372 -0.6202
 8050SOL    HW135609   2.245   0.890   1.049 -1.5368  0.0857 -0.4413
 8050SOL    HW235610   2.159   0.999   0.997  0.6664  0.4890 -0.2324
 8051SOL     OW35611   2.772   4.614   3.724  0.5214  0.5259 -0.7001
 8051SOL    HW135612   2.829   4.537   3.727 -1.2380 -0.6945  1.7612
 8051SOL    HW235613   2.844   4.674   3.744  0.4227  0.0599  1.0395
 8052SOL     OW35614   0.936   4.504   8.503 -0.8201 -0.0556  0.4722
 8052SOL    HW135615   0.912   4.434   8.563 -0.8355 -1.0091 -0.6426
 8052SOL    HW235616   0.926   4.462   8.417  2.4519 -0.4641  0.3005
 8053SOL     OW35617   3.206   0.165   3.415  0.1854  0.1771  0.0934
 8053SOL    HW135618   3.289   0.148   3.460  0.6469  2.6269  0.1785
 8053SOL    HW235619   3.232   0.204   3.332 -2.0424  1.2693 -0.0785
 8054SOL     OW35620   4.468   4.366   2.021 -0.1590 -0.0488  0.1520
 8054SOL    HW135621   4.563   4.378   2.021 -0.4125  1.9099  0.5088
 8054SOL    HW235622   4.459   4.314   1.941  1.5893  0.6555 -0.5058
 8055SOL     OW35623   0.875   4.062   4.115 -0.1419 -0.1546 -0.5500
 8055SOL    HW135624   0.957   4.013   4.114  0.6712  1.2138 -2.5398
 8055SOL    HW235625   0.916   4.146   4.136 -0.3124 -0.0771 -0.5326
 8056SOL     OW35626   2.299   0.952   5.424 -0.2947 -0.3344 -0.5684
 8056SOL    HW135627   2.261   0.866   5.411 -1.3155 -0.3882  2.7144
 8056SOL    HW235628   2.378   0.932   5.375  2.1390  0.8658  2.7968
 8057SOL     OW35629   1.246   4.135   8.324 -0.9251  0.2835 -0.4038
 8057SOL    HW135630   1.162   4.110   8.364 -0.4277  1.8808  1.6542
 8057SOL    HW235631   1.311   4.080   8.366 -1.9954  0.1824  1.1305
 8058SOL     OW35632   3.142   2.118   8.961  0.0339 -0.2193 -0.1202
 8058SOL    HW135633   3.114   2.192   8.907  2.2536  0.7269  0.0024
 8058SOL    HW235634   3.227   2.148   8.993 -0.3977 -0.4123  1.2087
 8059SOL     OW35635   1.304   0.804   3.389 -0.5697 -0.1631 -0.6229
 8059SOL    HW135636   1.375   0.781   3.448 -0.9734 -0.8711 -0.4079
 8059SOL    HW235637   1.299   0.725   3.335 -0.3595 -1.4044  1.1877
 8060SOL     OW35638   2.650   2.686   3.746  0.3463  0.3094  0.2159
 8060SOL    HW135639   2.620   2.625   3.814 -2.9679 -1.6257 -2.9713
 8060SOL    HW235640   2.610   2.767   3.778 -2.4857 -1.1730  0.5135
 8061SOL     OW35641   2.098   4.601   2.323  0.0726 -0.8751 -0.4351
 8061SOL    HW135642   2.008   4.582   2.294 -1.0980  1.8468  1.3734
 8061SOL    HW235643   2.112   4.689   2.288 -1.1713  0.0412  1.3722
 8062SOL     OW35644   4.445   1.187   6.367 -0.2597 -0.5503  0.0172
 8062SOL    HW135645   4.528   1.196   6.321  0.2289 -0.5657  0.8830
 8062SOL    HW235646   4.444   1.269   6.416  1.7474 -0.5450  0.0193
 8063SOL     OW35647   4.117   3.769   9.252 -0.0928 -0.4138 -0.3833
 8063SOL    HW135648   4.208   3.787   9.229 -0.0762  1.3445  1.0431
 8063SOL    HW235649   4.111   3.675   9.232 -0.6094 -0.7968  1.5877
 8064SOL     OW35650   3.236   0.026   4.483 -0.5565  0.2133  0.0281
 8064SOL    HW135651   3.295   0.102   4.490  1.1655 -1.0939 -0.1931
 8064SOL    HW235652   3.187   0.053   4.560 -1.4140  1.5408 -0.9752
 8065SOL     OW35653   4.178   3.231   2.662 -0.3232  0.3787 -0.1987
 8065SOL    HW135654   4.105   3.229   2.599 -0.4030  0.4890 -0.1084
 8065SOL    HW235655   4.133   3.201   2.741  0.5066  2.0370  0.9000
 8066SOL     OW35656   0.924   0.221   6.294  0.2758  0.1444  0.8314
 8066SOL    HW135657   0.863   0.294   6.286 -1.0737 -1.2534 -1.9001
 8066SOL    HW235658   0.938   0.224   6.388  1.7566  0.9076  0.5887
 8067SOL     OW35659   0.929   1.038   2.678  0.2764  0.2251  0.1981
 8067SOL    HW135660   0.973   0.978   2.739  0.2391 -1.6290 -1.6105
 8067SOL    HW235661   0.979   1.116   2.700  1.7803  0.0060 -2.5033
 8068SOL     OW35662   2.633   2.990  12.595 -0.1790 -0.1257  0.5162
 8068SOL    HW135663   2.680   3.006  12.514 -0.0479  0.0786  0.6312
 8068SOL    HW235664   2.562   2.931  12.568  0.5771  0.0266 -1.7762
 8069SOL     OW35665   1.579   3.100  15.185 -0.1729  0.0080  0.3991
 8069SOL    HW135666   1.590   3.011  15.218  2.6957  0.3201  0.2486
 8069SOL    HW235667   1.523   3.144  15.249 -1.6579 -0.7996 -0.3493
 8070SOL     OW35668   1.943   4.590   5.638 -0.1878  0.3080  0.0745
 8070SOL    HW135669   2.005   4.586   5.565  0.0070  0.4148  0.2347
 8070SOL    HW235670   1.872   4.533   5.609  1.0615 -0.5284 -1.3365
 8071SOL     OW35671   0.485   2.588   5.548 -0.5673  0.5179 -0.1229
 8071SOL    HW135672   0.465   2.645   5.474 -0.3654 -0.7109 -1.1121
 8071SOL    HW235673   0.491   2.661   5.611  2.7237  0.2302 -0.0629
 8072SOL     OW35674   4.333   0.250   2.116 -0.6396 -0.6381 -0.0740
 8072SOL    HW135675   4.304   0.227   2.028  0.5669  0.8472 -0.8564
 8072SOL    HW235676   4.377   0.171   2.147  0.8248  0.7309  1.3033
 8073SOL     OW35677   4.666   1.643  11.409  0.1339 -0.2077  0.0769
 8073SOL    HW135678   4.637   1.628  11.319 -0.6738  0.1487  0.2867
 8073SOL    HW235679   4.682   1.552  11.435  1.9851  0.0245 -0.2012
 8074SOL     OW35680   2.736   2.853   4.516 -0.4861  0.0810 -0.8042
 8074SOL    HW135681   2.822   2.863   4.475  0.4682  0.3381  1.2614
 8074SOL    HW235682   2.700   2.937   4.487 -0.7072  0.3841  0.3741
 8075SOL     OW35683   2.970   2.351   7.102  0.3603  0.1931  0.0605
 8075SOL    HW135684   3.054   2.397   7.096  0.6568 -0.4757 -1.0250
 8075SOL    HW235685   2.981   2.293   7.027  0.0456  1.6558 -1.1230
 8076SOL     OW35686   1.820   2.393   9.896  0.0291  0.3787  0.1887
 8076SOL    HW135687   1.835   2.302   9.869  0.4106  0.8104 -1.0534
 8076SOL    HW235688   1.881   2.393   9.970 -1.6969 -0.9911  1.5890
 8077SOL     OW35689   3.107   3.978   6.907  0.0159 -0.0359 -0.1676
 8077SOL    HW135690   3.138   3.997   6.995  0.5380  0.9695 -0.5732
 8077SOL    HW235691   3.044   4.048   6.891  0.4786  0.4389  0.0777
 8078SOL     OW35692   3.050   0.167   2.023  0.9171  0.5129  0.2232
 8078SOL    HW135693   2.991   0.174   1.948  1.4396 -0.6092 -0.2798
 8078SOL    HW235694   3.049   0.256   2.059 -1.4946 -0.1405  1.7604
 8079SOL     OW35695   4.443   1.653   4.982 -0.5821 -0.3755  0.1758
 8079SOL    HW135696   4.526   1.700   4.993 -0.4206 -1.1189  2.0292
 8079SOL    HW235697   4.386   1.724   4.952  0.6875  1.6243  2.4186
 8080SOL     OW35698   4.180   1.120   6.829  0.1914  0.2816 -0.0496
 8080SOL    HW135699   4.110   1.077   6.878 -1.5240  0.7630 -2.1091
 8080SOL    HW235700   4.260   1.069   6.846 -1.4525 -2.0459  0.6187
 8081SOL     OW35701   3.028   3.790   2.172  0.3073  0.8534  0.0266
 8081SOL    HW135702   2.956   3.782   2.109  1.2141 -0.6478 -0.8289
 8081SOL    HW235703   3.090   3.724   2.141 -0.8289  1.1574 -2.9436
 8082SOL     OW35704   1.780   3.279   9.847 -0.1818 -0.5054 -0.5160
 8082SOL    HW135705   1.756   3.372   9.843 -3.0313 -1.2903 -1.9441
 8082SOL    HW235706   1.699   3.232   9.827  0.2316 -0.9802 -1.1031
 8083SOL     OW35707   2.470   4.073   5.303  0.4333 -0.6053  0.2033
 8083SOL    HW135708   2.554   4.033   5.325 -0.9094 -3.5145  0.0163
 8083SOL    HW235709   2.414   4.060   5.380 -0.4875  1.8233 -0.0426
 8084SOL     OW35710   1.250   3.326   4.847  0.0367  0.0326 -0.1292
 8084SOL    HW135711   1.250   3.286   4.760  1.0764  1.8374 -0.9748
 8084SOL    HW235712   1.224   3.417   4.835 -1.5548 -0.7166 -2.2999
 8085SOL     OW35713   4.125   1.242   9.010 -0.0885 -0.5198  0.4739
 8085SOL    HW135714   4.130   1.305   8.937  0.4800 -2.3001 -1.0245
 8085SOL    HW235715   4.212   1.202   9.014  1.3383  2.5936  0.9930
 8086SOL     OW35716   3.661   1.156   7.381  0.0363 -0.2801  0.5801
 8086SOL    HW135717   3.636   1.125   7.294  2.1989  1.5133 -0.6876
 8086SOL    HW235718   3.602   1.104   7.435 -0.2987  0.3334  0.8061
 8087SOL     OW35719   0.275   0.535  14.374  0.1672  0.3653 -0.4832
 8087SOL    HW135720   0.366   0.561  14.362  0.7725 -1.0611  1.0308
 8087SOL    HW235721   0.221   0.613  14.360  2.1436  1.9159  0.5890
 8088SOL     OW35722   3.825   1.295   5.043  0.2515 -0.0998  0.3019
 8088SOL    HW135723   3.774   1.218   5.019 -0.0087 -0.1438  0.9897
 8088SOL    HW235724   3.862   1.324   4.960  2.0327 -1.2364  0.7001
 8089SOL     OW35725   4.098   2.598   4.918 -0.4862  0.3680  0.6764
 8089SOL    HW135726   4.118   2.529   4.981  1.1011  0.0510 -0.1755
 8089SOL    HW235727   4.003   2.588   4.912 -0.5254  0.5837  0.9306
 8090SOL     OW35728   0.728   0.296  13.569 -0.5389  0.1874  0.3763
 8090SOL    HW135729   0.707   0.202  13.571  1.7023 -0.3241 -0.5370
 8090SOL    HW235730   0.680   0.325  13.646 -1.7504  3.2693 -1.5254
 8091SOL     OW35731   0.404   0.443   2.907 -0.2035  0.1750  0.0547
 8091SOL    HW135732   0.478   0.459   2.966 -0.9890 -0.2942  1.1738
 8091SOL    HW235733   0.367   0.531   2.907  0.1432  0.3223  2.8772
 8092SOL     OW35734   0.226   1.133   9.029 -0.6813 -0.0376 -0.0377
 8092SOL    HW135735   0.232   1.122   9.124 -0.3728  0.0089 -0.0528
 8092SOL    HW235736   0.276   1.210   9.001 -0.0677 -0.1315  0.8201
 8093SOL     OW35737   1.466   1.626   2.806 -0.0861  0.6649  0.2878
 8093SOL    HW135738   1.472   1.541   2.849  2.8442  0.1199 -1.1984
 8093SOL    HW235739   1.413   1.666   2.875 -1.0156  0.5361 -0.3654
 8094SOL     OW35740   2.589   2.277   4.206 -0.1878  0.3446  0.0845
 8094SOL    HW135741   2.618   2.247   4.120 -3.6683 -0.0593 -0.9647
 8094SOL    HW235742   2.623   2.215   4.271  2.0641  3.8325  2.2166
 8095SOL     OW35743   1.932   1.092  17.692  0.3672 -0.0033 -0.0985
 8095SOL    HW135744   1.980   1.010   0.009  0.7700  0.0357 -1.2498
 8095SOL    HW235745   1.974   1.130  17.615  1.2666  0.0973  0.4350
 8096SOL     OW35746   2.696   4.372   4.721 -0.7727 -0.1321  0.8783
 8096SOL    HW135747   2.673   4.290   4.764  2.6223 -1.5431 -0.0297
 8096SOL    HW235748   2.666   4.373   4.630 -0.2126 -0.4262  0.6943
 8097SOL     OW35749   0.665   3.871  13.277 -0.8133  0.0837 -0.1667
 8097SOL    HW135750   0.609   3.821  13.217 -2.0114 -0.0452  1.0559
 8097SOL    HW235751   0.756   3.852  13.256 -0.5889 -0.7686  1.5176
 8098SOL     OW35752   0.087   1.916   2.086  0.0206 -0.3751  0.0618
 8098SOL    HW135753   0.053   1.862   2.014 -2.0337  1.3968 -0.2831
 8098SOL    HW235754   0.011   1.969   2.109 -0.1732 -0.6529  0.0567
 8099SOL     OW35755   1.318   0.731   5.158 -0.4742 -0.3891 -0.3967
 8099SOL    HW135756   1.264   0.656   5.184 -1.8701  0.0284 -2.0947
 8099SOL    HW235757   1.260   0.772   5.094 -1.7408  0.2284  1.1696
 8100SOL     OW35758   1.905   3.631   8.310  0.5015  0.5942  0.1015
 8100SOL    HW135759   1.843   3.703   8.303  1.1918  1.1343 -0.4595
 8100SOL    HW235760   1.894   3.617   8.404  2.1481  0.4770  0.2840
 8101SOL     OW35761   0.487   1.670   4.113 -0.5249  0.3369 -0.4062
 8101SOL    HW135762   0.492   1.743   4.176  1.7704 -1.0927  1.0699
 8101SOL    HW235763   0.452   1.599   4.167 -0.0898 -0.0636 -0.6527
 8102SOL     OW35764   0.734   1.900  14.087  0.4760  0.6711  0.0051
 8102SOL    HW135765   0.700   1.886  14.175  0.9517 -0.9898 -0.0778
 8102SOL    HW235766   0.707   1.986  14.056 -0.1608  0.9980  1.4802
 8103SOL     OW35767   2.778   4.578  16.501  0.3523 -0.3151  0.3617
 8103SOL    HW135768   2.780   4.508  16.436  0.4454 -2.1720  2.3562
 8103SOL    HW235769   2.831   4.647  16.461 -2.8145  3.2126  2.1631
 8104SOL     OW35770   3.107   4.309   8.057  0.0483  0.1194  0.2472
 8104SOL    HW135771   3.106   4.254   8.135 -2.2847 -0.2495 -0.0450
 8104SOL    HW235772   3.042   4.270   7.999 -1.6970 -0.4267  2.5860
 8105SOL     OW35773   3.080   3.452   9.143 -0.2812  0.0114  0.1130
 8105SOL    HW135774   3.168   3.416   9.139  0.1242  0.9469  0.5027
 8105SOL    HW235775   3.030   3.381   9.102 -0.0341 -1.2201  1.9685
 8106SOL     OW35776   0.806   0.459   7.012  0.6157 -0.4841  0.6544
 8106SOL    HW135777   0.767   0.408   7.083  0.3644 -0.6021  0.4329
 8106SOL    HW235778   0.865   0.521   7.056 -1.0894  0.7463  1.1929
 8107SOL     OW35779   3.068   1.249  15.422  0.1162 -0.2336 -0.0324
 8107SOL    HW135780   3.054   1.283  15.511 -2.4055 -1.4887  0.0302
 8107SOL    HW235781   3.161   1.257  15.398  0.1845  0.6815  0.5505
 8108SOL     OW35782   4.448   4.539  15.065  0.4560 -0.3986  0.3176
 8108SOL    HW135783   4.464   4.615  15.121  0.1507  0.3504 -0.6030
 8108SOL    HW235784   4.496   4.554  14.983 -0.3268 -0.7452 -0.2039
 8109SOL     OW35785   2.261   2.698  14.338 -0.2775  0.0176  0.1724
 8109SOL    HW135786   2.270   2.793  14.327  2.5828 -0.1982  0.7149
 8109SOL    HW235787   2.328   2.650  14.290 -1.3084 -2.2735  1.0169
 8110SOL     OW35788   1.099   1.287   6.251  0.6267 -0.1245 -0.3443
 8110SOL    HW135789   1.124   1.323   6.166  0.3972  1.5974  0.3142
 8110SOL    HW235790   1.016   1.327   6.277  0.0184 -2.0388  0.7430
 8111SOL     OW35791   4.273   1.939  15.543  0.4055 -0.2070 -0.9284
 8111SOL    HW135792   4.215   2.009  15.571  0.3569 -0.9417  0.7999
 8111SOL    HW235793   4.362   1.974  15.551  0.5716 -1.2459  1.7327
 8112SOL     OW35794   1.397   3.530  14.082 -0.3999 -0.3057 -0.2737
 8112SOL    HW135795   1.490   3.551  14.081 -1.0950  2.7899  0.1495
 8112SOL    HW235796   1.358   3.614  14.060  0.2586 -0.1549 -0.8641
 8113SOL     OW35797   1.801   1.673   8.134 -0.4232  0.8820 -0.0344
 8113SOL    HW135798   1.737   1.698   8.200 -0.7271 -1.3177  0.4999
 8113SOL    HW235799   1.786   1.578   8.131 -0.0949  0.8007  0.8641
 8114SOL     OW35800   0.429   3.734   3.897  0.2304  0.0516 -0.1818
 8114SOL    HW135801   0.414   3.826   3.876 -2.5107 -0.5541 -0.8674
 8114SOL    HW235802   0.471   3.750   3.981  0.7474  0.1910 -0.4694
 8115SOL     OW35803   0.624   0.724  10.429  0.4214 -0.5719 -0.1431
 8115SOL    HW135804   0.676   0.666  10.374  2.0402  0.9006 -0.1554
 8115SOL    HW235805   0.680   0.801  10.439  2.4457 -1.5384 -4.3034
 8116SOL     OW35806   2.248   3.580  11.405  0.5720 -0.0673 -0.1939
 8116SOL    HW135807   2.163   3.548  11.374  0.0555  2.0341 -0.9420
 8116SOL    HW235808   2.307   3.518  11.362 -0.8111 -0.2082 -1.9108
 8117SOL     OW35809   0.834   3.992   8.882  0.6163  0.1333  0.4136
 8117SOL    HW135810   0.809   3.905   8.851 -0.7648  1.2504 -1.6139
 8117SOL    HW235811   0.774   4.027   8.816  1.7693 -0.5414 -1.0073
 8118SOL     OW35812   3.074   1.660   8.224 -0.3088  0.3079 -0.2459
 8118SOL    HW135813   3.118   1.744   8.215  0.9583 -0.2544  0.6523
 8118SOL    HW235814   2.981   1.678   8.211 -0.2274  2.0144  1.5680
 8119SOL     OW35815   4.296   4.291   2.485  0.9914  0.4838 -0.1023
 8119SOL    HW135816   4.316   4.200   2.506  1.1891  0.7691  0.9244
 8119SOL    HW235817   4.350   4.339   2.547  0.7517  2.6616 -1.5766
 8120SOL     OW35818   4.005   3.661  10.272 -0.0683 -0.4864 -0.0236
 8120SOL    HW135819   3.933   3.693  10.327  0.3986  0.5659 -0.0226
 8120SOL    HW235820   3.959   3.610  10.206 -0.2373 -0.7518  0.2932
 8121SOL     OW35821   2.759   1.184  15.550 -0.2557  0.1886  0.4614
 8121SOL    HW135822   2.832   1.233  15.589  1.1783  0.5089 -2.5681
 8121SOL    HW235823   2.749   1.114  15.615 -3.6541 -0.1167 -0.4052
 8122SOL     OW35824   0.971   0.291  13.695 -0.1232 -0.4506  0.3638
 8122SOL    HW135825   0.900   0.302  13.631 -0.9063  0.2203  1.3429
 8122SOL    HW235826   0.935   0.233  13.762 -1.3753 -1.7700 -1.4720
 8123SOL     OW35827   4.029   4.520  12.000  0.6712 -0.3146 -0.0679
 8123SOL    HW135828   4.048   4.510  11.907 -0.1369 -1.8745 -0.0506
 8123SOL    HW235829   4.023   4.616  12.001 -1.8489 -0.4810 -1.2674
 8124SOL     OW35830   0.235   2.329   2.090 -0.1261 -0.4570  0.0499
 8124SOL    HW135831   0.240   2.249   2.142  0.3698 -0.9771 -0.7910
 8124SOL    HW235832   0.248   2.300   2.000  1.2399  3.6390 -1.0912
 8125SOL     OW35833   1.261   1.616   2.586  0.5760  0.1328  0.0508
 8125SOL    HW135834   1.330   1.633   2.650 -2.4615 -1.9072  3.8430
 8125SOL    HW235835   1.183   1.667   2.610  0.5758 -0.0759  0.4970
 8126SOL     OW35836   4.226   3.387   6.974 -0.0691  0.1145  0.1510
 8126SOL    HW135837   4.174   3.329   7.029  0.5923 -0.0477  0.6053
 8126SOL    HW235838   4.207   3.469   7.021 -0.1399 -0.9854  2.0207
 8127SOL     OW35839   0.079   4.426   4.661  0.1489 -0.5354 -0.0780
 8127SOL    HW135840   0.120   4.343   4.636  1.1650  0.1393 -0.6959
 8127SOL    HW235841   0.065   4.471   4.578 -2.0568 -0.3201  0.4261
 8128SOL     OW35842   3.491   2.067   7.033  0.0298 -0.3530 -0.7062
 8128SOL    HW135843   3.465   2.048   7.123  0.1790 -0.2137 -0.6354
 8128SOL    HW235844   3.419   2.032   6.980  0.2075  0.8550 -1.7431
 8129SOL     OW35845   3.215   3.028  16.431 -0.2007 -0.1072 -0.3448
 8129SOL    HW135846   3.256   3.106  16.394 -1.0679  0.3609 -0.3097
 8129SOL    HW235847   3.285   2.962  16.431  0.2560  0.3692 -1.6492
 8130SOL     OW35848   4.670   2.212  11.424 -0.3753  0.6087  0.6012
 8130SOL    HW135849   4.672   2.219  11.329 -0.4459  1.1847  0.6462
 8130SOL    HW235850   4.674   2.117  11.435 -3.1373  0.2104 -1.7370
 8131SOL     OW35851   4.449   0.164   8.403  0.1264  0.3385  0.1944
 8131SOL    HW135852   4.402   0.133   8.325 -1.2586 -0.8263  1.5144
 8131SOL    HW235853   4.371   0.203   8.442 -1.5319 -2.3658 -0.4142
 8132SOL     OW35854   1.334   3.539   4.227  0.0193  0.0668 -0.2810
 8132SOL    HW135855   1.292   3.473   4.171  0.6964 -2.0748  1.7320
 8132SOL    HW235856   1.366   3.491   4.303 -0.0620  0.5678  0.0686
 8133SOL     OW35857   3.406   4.648  15.531 -0.0475  0.0201  0.4421
 8133SOL    HW135858   3.387   4.561  15.496  0.4227  0.6622 -1.4055
 8133SOL    HW235859   3.451   4.633  15.615  0.8036  0.6836  0.1060
 8134SOL     OW35860   0.005   4.578   5.842  0.0212 -0.0549  0.2972
 8134SOL    HW135861   0.070   4.600   5.775  0.1126 -0.6832  0.1763
 8134SOL    HW235862   0.038   4.641   5.905  1.1170 -0.2474 -0.0857
 8135SOL     OW35863   2.245   4.325   3.355  0.9377 -0.0389  0.2840
 8135SOL    HW135864   2.224   4.232   3.368 -0.6445  0.3053  0.1664
 8135SOL    HW235865   2.304   4.344   3.428  1.8942  0.7686 -0.7152
 8136SOL     OW35866   1.977   4.190  13.684  0.0884 -0.1590 -0.0053
 8136SOL    HW135867   2.008   4.101  13.664 -2.5190 -0.7748 -1.3657
 8136SOL    HW235868   1.981   4.226  13.596  1.2503  0.0814  0.1539
 8137SOL     OW35869   3.808   1.614   3.120 -0.2939  0.0939 -0.1990
 8137SOL    HW135870   3.828   1.569   3.037 -1.4208 -0.9316  0.0822
 8137SOL    HW235871   3.841   1.702   3.101 -0.9283  0.4457  0.3438
 8138SOL     OW35872   2.027   3.952   9.498  0.1635 -0.1208  0.0874
 8138SOL    HW135873   1.967   4.022   9.475 -1.6809 -1.1785  1.6488
 8138SOL    HW235874   1.971   3.880   9.529 -0.2914 -0.5548 -1.7811
 8139SOL     OW35875   1.446   3.608   8.128  0.5812  0.0056 -0.0687
 8139SOL    HW135876   1.532   3.623   8.091  0.0993 -0.1493 -1.2449
 8139SOL    HW235877   1.448   3.659   8.209  0.5518 -0.9756  0.5553
 8140SOL     OW35878   2.249   4.517   9.337 -0.7858 -0.1242  0.4161
 8140SOL    HW135879   2.172   4.460   9.338  0.5218 -1.9155  0.0046
 8140SOL    HW235880   2.306   4.459   9.287 -2.7570 -2.8974  1.3681
 8141SOL     OW35881   1.298   3.637   5.237  0.2275  0.2870  0.4563
 8141SOL    HW135882   1.310   3.654   5.144 -0.0324  1.3451  0.6254
 8141SOL    HW235883   1.205   3.656   5.233  0.0519  0.2851  4.0516
 8142SOL     OW35884   2.280   0.162   2.932  0.2980  0.4079 -0.7459
 8142SOL    HW135885   2.201   0.158   2.879 -0.1432  1.5336 -0.1504
 8142SOL    HW235886   2.340   0.104   2.884  0.0253 -1.1182  0.7737
 8143SOL     OW35887   2.206   3.398   8.232  0.2052  0.1450  0.2371
 8143SOL    HW135888   2.273   3.345   8.189  0.4274  0.7548 -0.1573
 8143SOL    HW235889   2.212   3.475   8.176  0.2003  1.4417  2.0254
 8144SOL     OW35890   0.997   0.254  14.290 -0.0345 -0.6229  0.2630
 8144SOL    HW135891   0.966   0.333  14.333 -1.6360 -0.8166 -0.5378
 8144SOL    HW235892   0.934   0.192  14.326 -1.5267  0.0397 -1.1658
 8145SOL     OW35893   2.126   0.176   3.323  0.5605  0.0019 -0.1570
 8145SOL    HW135894   2.052   0.120   3.298 -1.3625  2.0785  0.9274
 8145SOL    HW235895   2.191   0.118   3.361  1.1780  0.4913 -0.4782
 8146SOL     OW35896   3.085   1.616   8.714  0.2303 -0.3494  0.3980
 8146SOL    HW135897   3.036   1.573   8.644 -0.4473 -0.4373  0.9156
 8146SOL    HW235898   3.064   1.703   8.679  2.2397 -0.4780 -1.0810
 8147SOL     OW35899   2.817   3.818   6.484  0.0761  0.1922  0.2153
 8147SOL    HW135900   2.886   3.755   6.502 -2.5469 -3.1840 -1.5762
 8147SOL    HW235901   2.740   3.766   6.505 -0.2839  0.9079  0.6785
 8148SOL     OW35902   1.674   4.048   1.564 -0.4141  0.2737 -0.3061
 8148SOL    HW135903   1.726   4.045   1.484  1.2242  1.3605  0.7201
 8148SOL    HW235904   1.630   3.965   1.546  0.2005  0.1397 -1.2069
 8149SOL     OW35905   0.979   4.694  13.536  0.3610  0.9461  0.0613
 8149SOL    HW135906   1.029   0.006  13.609  2.2682 -0.4519 -0.5579
 8149SOL    HW235907   1.029   4.723  13.459 -1.8945  1.2404 -1.2928
 8150SOL     OW35908   1.295   1.392   5.714  0.3723 -0.4418 -0.2240
 8150SOL    HW135909   1.217   1.418   5.667  1.7379 -0.5259 -2.5192
 8150SOL    HW235910   1.357   1.411   5.644  0.5444  3.5397  1.0537
 8151SOL     OW35911   0.202   3.636  11.607  0.0121  0.3015 -0.3399
 8151SOL    HW135912   0.285   3.606  11.645  0.4704  1.8247 -0.0966
 8151SOL    HW235913   0.180   3.557  11.558  1.7999 -0.2103 -0.3267
 8152SOL     OW35914   0.819   1.333   3.137  0.3285 -0.4000  0.1442
 8152SOL    HW135915   0.764   1.386   3.079  1.3865  2.1215  1.4302
 8152SOL    HW235916   0.879   1.395   3.178 -0.7264  0.2606  0.7014
 8153SOL     OW35917   0.464   4.302   1.364 -0.4439 -0.4107  0.2687
 8153SOL    HW135918   0.524   4.285   1.436  1.3547 -0.1422 -1.1859
 8153SOL    HW235919   0.517   4.288   1.286 -1.9105 -0.9774 -0.6238
 8154SOL     OW35920   0.079   2.755  14.873  0.2460 -0.2314  0.3103
 8154SOL    HW135921   0.173   2.765  14.886  0.3916 -0.3505 -0.6186
 8154SOL    HW235922   0.048   2.831  14.923 -0.3859 -1.1465  1.3092
 8155SOL     OW35923   3.941   2.201   2.303  0.0909 -1.0128  0.3809
 8155SOL    HW135924   3.924   2.186   2.396  1.4050  1.4620  1.0117
 8155SOL    HW235925   4.006   2.135   2.279 -0.9475 -1.4088 -1.3619
 8156SOL     OW35926   0.269   3.216   8.669  0.7374  0.0062 -0.1741
 8156SOL    HW135927   0.246   3.278   8.600  0.7797 -1.0181 -1.1258
 8156SOL    HW235928   0.351   3.244   8.709 -0.2560  0.6575  1.4326
 8157SOL     OW35929   4.250   1.003   7.701  0.1979  0.9072  0.4596
 8157SOL    HW135930   4.210   1.029   7.783  0.0062  0.8470  0.3855
 8157SOL    HW235931   4.270   1.085   7.655  1.3932  0.4260  0.1153
 8158SOL     OW35932   0.489   3.156   2.846 -0.2664 -0.3094  0.2686
 8158SOL    HW135933   0.547   3.229   2.821 -2.1946  1.8444  2.0252
 8158SOL    HW235934   0.481   3.129   2.754  1.8764 -0.4681  0.1222
 8159SOL     OW35935   2.198   3.552   3.902 -0.2064  0.3193 -0.0576
 8159SOL    HW135936   2.239   3.619   3.848 -0.4626  1.9172  1.7402
 8159SOL    HW235937   2.242   3.561   3.986 -0.3116  0.4643 -0.0202
 8160SOL     OW35938   4.009   1.464  13.277 -0.9640 -0.3767 -0.0220
 8160SOL    HW135939   3.924   1.477  13.235 -1.1324 -0.1676  0.3803
 8160SOL    HW235940   4.020   1.370  13.261 -1.5613 -0.3656 -0.4924
 8161SOL     OW35941   4.153   0.081   7.845 -0.4682  0.5551  0.0078
 8161SOL    HW135942   4.080   0.043   7.893 -0.5525  1.0319  0.2643
 8161SOL    HW235943   4.167   0.166   7.887  0.1206 -0.3582  1.6692
 8162SOL     OW35944   1.868   2.114   7.418  0.1036  0.1914  1.0938
 8162SOL    HW135945   1.858   2.209   7.426  1.5102  0.7189 -3.2719
 8162SOL    HW235946   1.931   2.103   7.489 -0.4862 -1.4993  1.3638
 8163SOL     OW35947   3.079   2.848   3.141 -0.0071 -0.3051  0.8011
 8163SOL    HW135948   3.040   2.850   3.229 -1.3464  2.6170  0.1574
 8163SOL    HW235949   3.171   2.872   3.153 -0.1283  0.3593  0.4280
 8164SOL     OW35950   0.597   2.472   8.569  0.2616 -0.1444 -0.0269
 8164SOL    HW135951   0.632   2.462   8.657 -0.4416  0.8797  0.3666
 8164SOL    HW235952   0.660   2.424   8.515 -0.7360  0.8846 -2.0977
 8165SOL     OW35953   1.902   2.129   3.673  0.0945  0.2484  0.9550
 8165SOL    HW135954   1.862   2.183   3.604 -0.5705 -0.7978  0.5307
 8165SOL    HW235955   1.894   2.038   3.645  0.4703  0.0289  1.5625
 8166SOL     OW35956   4.703   0.203   7.611  0.2431  0.2543  0.4016
 8166SOL    HW135957   4.616   0.167   7.629  1.4400 -1.8177  1.9359
 8166SOL    HW235958   0.003   0.160   7.529  1.0039 -0.0733  0.7998
 8167SOL     OW35959   3.903   3.717  14.978  0.3979 -0.3111  0.2715
 8167SOL    HW135960   3.817   3.702  15.018 -1.0681  0.3561 -2.6201
 8167SOL    HW235961   3.962   3.692  15.049  3.3282  2.4517 -1.2368
 8168SOL     OW35962   0.425   3.593   0.993 -0.1625  0.1919 -0.1990
 8168SOL    HW135963   0.457   3.668   0.943 -0.0832  0.0748 -0.3244
 8168SOL    HW235964   0.491   3.587   1.062 -0.5774 -0.1291  0.1703
 8169SOL     OW35965   1.409   3.855   0.320  0.4702 -0.1614 -0.1059
 8169SOL    HW135966   1.436   3.902   0.241 -1.9111  2.5762  0.6982
 8169SOL    HW235967   1.455   3.774   0.297 -0.8368 -0.8277 -0.4201
 8170SOL     OW35968   2.323   0.244   0.468 -0.2578  0.0719 -0.7581
 8170SOL    HW135969   2.301   0.174   0.529 -2.2910 -0.5686 -2.2350
 8170SOL    HW235970   2.363   0.201   0.393 -1.4437  2.0700 -2.5193
 8171SOL     OW35971   1.706   2.699   7.724 -0.0874 -0.4915  0.3942
 8171SOL    HW135972   1.618   2.727   7.700  0.4134 -1.1432 -2.1811
 8171SOL    HW235973   1.733   2.732   7.810  2.0699 -0.1763 -0.3949
 8172SOL     OW35974   0.406   4.265   7.625  0.5707  0.0489  0.7365
 8172SOL    HW135975   0.464   4.275   7.549  0.2187 -2.4064  0.1390
 8172SOL    HW235976   0.431   4.181   7.664  0.1175 -0.0159  0.8812
 8173SOL     OW35977   2.160   1.635  10.954 -0.0736  0.1970  0.4735
 8173SOL    HW135978   2.081   1.584  10.943 -0.5228  1.3692 -1.7053
 8173SOL    HW235979   2.130   1.725  10.939  2.7571  1.0629 -0.0141
 8174SOL     OW35980   2.682   1.716  14.578 -0.1904 -0.0462  0.0735
 8174SOL    HW135981   2.739   1.786  14.609  2.0982 -1.8988 -0.0107
 8174SOL    HW235982   2.614   1.778  14.549 -1.5750 -1.4022  0.4243
 8175SOL     OW35983   3.424   2.522   3.449  0.4003  0.4018 -0.1136
 8175SOL    HW135984   3.505   2.470   3.446  0.8990  1.1203  0.9553
 8175SOL    HW235985   3.384   2.478   3.524 -0.9902  2.0034  0.0652
 8176SOL     OW35986   0.669   2.461   2.637  0.1710  0.6094  0.5270
 8176SOL    HW135987   0.619   2.381   2.651 -0.9652  0.8071 -2.3387
 8176SOL    HW235988   0.760   2.435   2.623 -0.5924 -1.7159 -0.0257
 8177SOL     OW35989   1.255   1.979  12.029  0.1656 -0.1924 -0.3512
 8177SOL    HW135990   1.286   2.065  12.002 -1.9723  0.6514 -0.0604
 8177SOL    HW235991   1.333   1.924  12.019  2.0978  2.3653  0.7890
 8178SOL     OW35992   1.732   0.900   5.619 -0.5700 -0.1758 -0.3613
 8178SOL    HW135993   1.759   0.853   5.698 -0.9811  2.0980  1.1462
 8178SOL    HW235994   1.721   0.827   5.560  2.9068  0.0717 -1.3577
 8179SOL     OW35995   0.223   2.948   8.679 -0.2177  0.1490  0.0920
 8179SOL    HW135996   0.231   3.040   8.653 -0.2581 -0.1306 -0.9126
 8179SOL    HW235997   0.133   2.929   8.651 -0.6189  0.9287  0.8295
 8180SOL     OW35998   0.046   4.123   2.654  0.1249 -0.5283 -0.6563
 8180SOL    HW135999   0.026   4.211   2.624  1.6725  0.3310  0.8144
 8180SOL    HW236000   0.115   4.135   2.720 -0.3311 -0.8437 -0.1256
 8181SOL     OW36001   0.846   1.921  11.620  0.4623 -0.1510 -0.3648
 8181SOL    HW136002   0.782   1.961  11.561 -0.5206 -0.0092  0.7963
 8181SOL    HW236003   0.846   1.990  11.686  2.8968  0.2068 -0.7293
 8182SOL     OW36004   2.912   1.158  16.207 -0.5039 -0.1423  0.2584
 8182SOL    HW136005   2.925   1.098  16.280  0.7076  0.8012  0.8138
 8182SOL    HW236006   2.942   1.242  16.243 -1.4533  0.0486  0.6196
 8183SOL     OW36007   1.913   2.262  16.025  0.4249  0.4628 -0.0938
 8183SOL    HW136008   1.902   2.169  16.045 -1.9976  0.7172 -0.2200
 8183SOL    HW236009   1.867   2.307  16.096  1.7798  3.2484 -0.9968
 8184SOL     OW36010   3.550   1.115  11.016  0.3864  0.2502 -0.1104
 8184SOL    HW136011   3.520   1.035  11.058  0.5037  0.5966  0.6359
 8184SOL    HW236012   3.520   1.180  11.079  0.2338 -2.0603  2.1914
 8185SOL     OW36013   1.710   0.987   0.102  0.1302  0.2564  0.0065
 8185SOL    HW136014   1.717   0.991   0.197 -1.2579  1.1907  0.0613
 8185SOL    HW236015   1.792   1.033   0.080 -0.5649  0.8487 -1.3157
 8186SOL     OW36016   0.417   1.277   3.615 -0.0924  0.9168  0.5030
 8186SOL    HW136017   0.486   1.212   3.626 -0.9934 -0.4547 -1.9515
 8186SOL    HW236018   0.418   1.317   3.702 -0.5731  2.5193 -0.2287
 8187SOL     OW36019   4.091   2.897   5.600 -0.0696 -0.4780  0.0581
 8187SOL    HW136020   4.151   2.846   5.545 -0.7472 -0.0309 -1.0914
 8187SOL    HW236021   4.059   2.828   5.659 -2.8264  2.5696  2.1238
 8188SOL     OW36022   2.429   1.284   9.722  0.4882  0.7093  0.1647
 8188SOL    HW136023   2.359   1.231   9.684  1.1033 -0.6291  0.8459
 8188SOL    HW236024   2.476   1.211   9.764 -1.1167  0.3914  1.4196
 8189SOL     OW36025   1.270   2.826   4.119  0.3901  0.0003 -0.1863
 8189SOL    HW136026   1.358   2.788   4.117  2.3651  4.4973  1.1740
 8189SOL    HW236027   1.285   2.891   4.188 -0.1980 -0.6297  0.5264
 8190SOL     OW36028   4.464   2.276   7.238  0.3214 -0.6386  0.1027
 8190SOL    HW136029   4.511   2.231   7.308 -2.3912 -3.0951  0.3252
 8190SOL    HW236030   4.529   2.334   7.197  0.8487 -0.4263  1.2189
 8191SOL     OW36031   1.472   0.957   0.703  0.5898  0.3491 -1.0004
 8191SOL    HW136032   1.548   0.942   0.759 -0.9032  1.6142  1.3890
 8191SOL    HW236033   1.423   0.875   0.709 -1.0331  1.2027 -2.6023
 8192SOL     OW36034   1.651   3.041   6.654  0.4984  0.2681  0.1878
 8192SOL    HW136035   1.621   3.041   6.745  0.5287 -1.2786  0.1880
 8192SOL    HW236036   1.601   3.112   6.615  0.2283  0.5524  1.0464
 8193SOL     OW36037   1.955   1.269  14.473  0.1149  0.2819 -0.0769
 8193SOL    HW136038   2.045   1.243  14.494  0.0117 -1.1046 -1.3842
 8193SOL    HW236039   1.901   1.246  14.549 -0.5453  2.6223  0.1742
 8194SOL     OW36040   1.524   0.801   3.991  0.7513  0.3179 -0.5064
 8194SOL    HW136041   1.467   0.742   3.942 -1.3549  2.9391 -1.2171
 8194SOL    HW236042   1.556   0.852   3.917  1.0245 -0.5814 -1.0124
 8195SOL     OW36043   2.358   2.183   6.827 -0.5086  0.0106  0.3826
 8195SOL    HW136044   2.264   2.168   6.815 -0.1284 -0.6427 -1.7858
 8195SOL    HW236045   2.386   2.091   6.830  1.9718  0.7236 -0.8622
 8196SOL     OW36046   0.196   2.869   5.140 -0.6001 -0.2799  0.1038
 8196SOL    HW136047   0.129   2.842   5.078  0.8893 -0.2973 -1.5005
 8196SOL    HW236048   0.221   2.779   5.161 -0.5940 -0.7166 -1.7879
 8197SOL     OW36049   2.053   0.452  15.783 -0.0454  0.2563  0.6687
 8197SOL    HW136050   2.074   0.503  15.861  1.8871 -1.2013  1.1266
 8197SOL    HW236051   2.110   0.498  15.721 -0.8440  0.4707  0.0944
 8198SOL     OW36052   3.394   4.397  12.909  0.7712  0.9723 -0.1446
 8198SOL    HW136053   3.414   4.304  12.921  0.3449  0.7126 -1.4399
 8198SOL    HW236054   3.319   4.412  12.966  0.5302 -0.6739 -0.0346
 8199SOL     OW36055   3.718   4.604  12.336 -0.1017  0.1978  0.6076
 8199SOL    HW136056   3.799   4.567  12.302 -1.6198 -1.6939 -1.0133
 8199SOL    HW236057   3.675   4.529  12.378  1.6149  0.7796  3.3277
 8200SOL     OW36058   0.813   4.710  14.868 -0.5463  0.4717 -0.3217
 8200SOL    HW136059   0.825   0.062  14.811  3.2356  0.1973  0.0785
 8200SOL    HW236060   0.892   4.657  14.857 -0.1007  1.6203 -2.5906
 8201SOL     OW36061   2.072   0.215  10.373  0.0092 -0.1724 -0.1221
 8201SOL    HW136062   2.028   0.217  10.458  0.5659 -1.3893  0.1955
 8201SOL    HW236063   2.112   0.301  10.388 -0.5003 -0.1907  1.3915
 8202SOL     OW36064   0.509   0.078   7.944  0.4122  0.0587 -0.1524
 8202SOL    HW136065   0.570   0.057   8.015  1.5151 -0.2659 -1.1823
 8202SOL    HW236066   0.515   4.720   7.893 -2.4095  0.1623 -0.6406
 8203SOL     OW36067   2.781   1.798  15.468  1.0402 -0.2949 -0.5823
 8203SOL    HW136068   2.788   1.713  15.424  0.0581 -1.0968  0.8117
 8203SOL    HW236069   2.787   1.860  15.395 -2.1572 -0.7035 -1.2261
 8204SOL     OW36070   4.716   2.541   3.356 -0.2402  0.3328 -0.2854
 8204SOL    HW136071   0.007   2.634   3.339 -0.7177  0.7418  1.5063
 8204SOL    HW236072   4.667   2.540   3.439 -0.5838 -1.2587 -0.4985
 8205SOL     OW36073   0.977   0.167  16.498  0.3759 -0.1411  0.0914
 8205SOL    HW136074   1.009   0.252  16.467  0.4400 -0.8795 -1.8419
 8205SOL    HW236075   0.893   0.158  16.453 -0.0269 -0.9118  1.0000
 8206SOL     OW36076   3.064   4.072   2.241 -0.4413  0.1939 -0.0339
 8206SOL    HW136077   3.032   4.077   2.151  1.3057  2.9772 -0.4910
 8206SOL    HW236078   3.042   3.980   2.256  1.0072 -0.1761 -0.1334
 8207SOL     OW36079   2.009   3.652   0.248 -0.5481 -0.4293 -0.3355
 8207SOL    HW136080   1.937   3.697   0.205  0.3410 -0.7027 -2.1381
 8207SOL    HW236081   2.080   3.716   0.240  0.2664 -1.0469  2.0069
 8208SOL     OW36082   4.115   2.547   9.330  0.2485 -0.2131 -0.2079
 8208SOL    HW136083   4.081   2.634   9.351 -1.1513 -0.9611  0.6163
 8208SOL    HW236084   4.183   2.581   9.273  0.3241  0.6759  0.4110
 8209SOL     OW36085   3.932   1.257  15.854 -0.2199  0.5319  0.1902
 8209SOL    HW136086   3.858   1.313  15.879 -3.7670 -3.8599 -0.3866
 8209SOL    HW236087   3.972   1.317  15.790 -0.5730 -0.6991 -1.1790
 8210SOL     OW36088   2.442   0.908   4.676 -0.2767  0.1664  0.0333
 8210SOL    HW136089   2.498   0.899   4.753 -0.1544 -0.8770 -0.1818
 8210SOL    HW236090   2.436   1.002   4.662  0.3813  0.0568 -0.9519
 8211SOL     OW36091   3.562   2.487  17.597 -0.0931  0.3087  0.2093
 8211SOL    HW136092   3.569   2.578  17.567 -2.3250 -0.5039 -2.8282
 8211SOL    HW236093   3.485   2.453  17.552 -0.4961 -0.0390  1.1622
 8212SOL     OW36094   2.248   3.574   8.021  0.0714 -0.4263  0.1086
 8212SOL    HW136095   2.296   3.551   7.942 -0.0556  0.1108 -0.1231
 8212SOL    HW236096   2.175   3.623   7.982  0.8134  2.2422  2.0631
 8213SOL     OW36097   0.493   2.732   6.846  0.0650  0.8685 -0.5479
 8213SOL    HW136098   0.419   2.678   6.874 -0.0635  1.4451  0.2112
 8213SOL    HW236099   0.565   2.672   6.866 -0.4500  0.6190  0.5822
 8214SOL     OW36100   3.608   0.230  13.171 -0.7422 -0.2606  0.6735
 8214SOL    HW136101   3.688   0.268  13.137  0.8737 -4.8471 -0.6010
 8214SOL    HW236102   3.560   0.207  13.092  1.1958  0.7399 -0.7851
 8215SOL     OW36103   0.527   3.030   6.823  0.0016 -0.2092  0.5963
 8215SOL    HW136104   0.545   2.937   6.835  0.0505 -0.6437 -2.9191
 8215SOL    HW236105   0.471   3.044   6.899 -1.9036 -0.7054 -0.7204
 8216SOL     OW36106   2.972   0.648   0.821  0.1744 -0.0427  0.0088
 8216SOL    HW136107   2.960   0.741   0.838 -1.2674 -0.5680  1.8497
 8216SOL    HW236108   3.060   0.632   0.856  0.1147 -0.6127 -0.0927
 8217SOL     OW36109   1.491   1.055   9.374 -0.6079 -0.4023  0.1555
 8217SOL    HW136110   1.479   0.973   9.423  0.2522 -0.4440  0.2856
 8217SOL    HW236111   1.566   1.094   9.417  0.9550 -0.4741 -2.5133
 8218SOL     OW36112   4.361   4.641  12.469 -0.1028 -0.1444  0.0485
 8218SOL    HW136113   4.291   4.632  12.404 -0.0438  0.2840 -0.0752
 8218SOL    HW236114   4.307   4.610  12.542 -0.7300  1.5690  0.3120
 8219SOL     OW36115   0.489   3.651  16.029  0.2667  0.2223  0.4661
 8219SOL    HW136116   0.511   3.739  16.059 -0.8357  0.3931  0.7536
 8219SOL    HW236117   0.399   3.639  16.058 -0.6907 -1.6744 -3.3309
 8220SOL     OW36118   3.794   2.995   8.053 -0.3388 -0.3742 -0.7082
 8220SOL    HW136119   3.831   2.927   8.109 -3.0061 -1.9879 -0.9258
 8220SOL    HW236120   3.832   2.974   7.968  3.8783  1.2086  0.7543
 8221SOL     OW36121   2.587   1.360   5.157 -0.2935 -0.6246 -0.0618
 8221SOL    HW136122   2.572   1.452   5.179  2.3434 -0.6536  1.8283
 8221SOL    HW236123   2.543   1.360   5.072 -1.8432 -1.3457  0.7226
 8222SOL     OW36124   0.879   0.071   3.667  0.1049 -0.2238  0.1338
 8222SOL    HW136125   0.891   0.096   3.759  0.5521  1.6300 -0.4322
 8222SOL    HW236126   0.963   0.094   3.629 -0.4294 -0.5401 -1.2377
 8223SOL     OW36127   3.579   0.781   4.670  0.3651 -0.4963 -0.4064
 8223SOL    HW136128   3.576   0.866   4.713  0.2810 -0.1465 -1.0990
 8223SOL    HW236129   3.673   0.763   4.675  0.2403 -1.6430 -2.2405
 8224SOL     OW36130   0.297   2.954   5.669 -0.4214  0.3871  0.5278
 8224SOL    HW136131   0.203   2.971   5.671  0.1468  3.8614 -2.2191
 8224SOL    HW236132   0.324   3.000   5.589  2.0909 -1.3708  0.3820
 8225SOL     OW36133   4.599   3.870   3.073 -0.4375 -0.2117  0.3288
 8225SOL    HW136134   4.666   3.855   3.139 -0.4494 -0.2359  0.3352
 8225SOL    HW236135   4.653   3.849   2.998 -0.1064  0.5499  0.3476
 8226SOL     OW36136   3.790   4.109   2.243 -0.7391 -0.0362  0.4569
 8226SOL    HW136137   3.700   4.084   2.261 -0.7600 -0.8360 -0.7657
 8226SOL    HW236138   3.788   4.145   2.155  2.0564  2.5594  1.4497
 8227SOL     OW36139   0.663   0.230   8.780 -0.0622 -0.4670  0.0090
 8227SOL    HW136140   0.603   0.284   8.729  0.3343  0.6004  0.6677
 8227SOL    HW236141   0.613   0.212   8.859 -0.8265 -0.5155 -0.4933
 8228SOL     OW36142   1.449   2.124   6.352  0.1515 -0.0478 -0.8114
 8228SOL    HW136143   1.508   2.124   6.277 -1.0957  0.0649 -1.8009
 8228SOL    HW236144   1.505   2.094   6.424  0.0821  2.2705  0.1984
 8229SOL     OW36145   2.584   1.199   6.235 -0.9268  0.2001 -0.0190
 8229SOL    HW136146   2.660   1.247   6.203 -1.4771  0.7063 -0.5824
 8229SOL    HW236147   2.617   1.112   6.258 -2.0301 -0.3665 -0.5357
 8230SOL     OW36148   3.011   1.873   8.723 -0.1876 -0.4502 -0.6630
 8230SOL    HW136149   3.084   1.905   8.776 -2.5850 -0.4000  2.6009
 8230SOL    HW236150   2.943   1.856   8.788  1.0373 -3.7744 -0.2639
 8231SOL     OW36151   3.313   1.823  14.298  0.0030  0.4308  0.2074
 8231SOL    HW136152   3.361   1.760  14.245 -1.5552 -0.2747 -0.3771
 8231SOL    HW236153   3.365   1.900  14.278  0.3226 -0.1091 -1.0068
 8232SOL     OW36154   0.905   0.726  16.697  0.5715  0.0116 -0.2680
 8232SOL    HW136155   0.991   0.745  16.734  0.0260  0.0779  0.9596
 8232SOL    HW236156   0.863   0.689  16.774 -0.4881 -2.1171 -1.8715
 8233SOL     OW36157   1.968   2.138   3.970  0.0332 -0.3851  0.1728
 8233SOL    HW136158   1.964   2.114   3.877  1.5376 -1.2215  0.3326
 8233SOL    HW236159   1.874   2.142   3.989  0.0421 -0.8886  0.3371
 8234SOL     OW36160   1.234   2.816   2.597 -0.3953 -0.2036 -0.7082
 8234SOL    HW136161   1.170   2.745   2.610 -1.4091  0.9099  0.3825
 8234SOL    HW236162   1.300   2.756   2.562  0.0311 -0.3493  0.3527
 8235SOL     OW36163   2.661   4.161   1.735 -0.1744 -0.6415 -0.0462
 8235SOL    HW136164   2.730   4.188   1.674 -0.3714  1.6319  0.7127
 8235SOL    HW236165   2.696   4.076   1.762 -0.9118 -0.2222  2.2675
 8236SOL     OW36166   1.208   1.559   3.419  0.7704 -0.2088  0.1658
 8236SOL    HW136167   1.132   1.604   3.456  1.7798  3.3577 -2.0383
 8236SOL    HW236168   1.202   1.481   3.474 -1.3281  0.0633  0.3484
 8237SOL     OW36169   0.246   1.181  17.455 -0.9214 -0.5265  0.1501
 8237SOL    HW136170   0.239   1.090  17.426 -3.0604  0.3095 -1.9507
 8237SOL    HW236171   0.309   1.169  17.525 -1.2711 -3.3181  0.0101
 8238SOL     OW36172   2.647   3.167   1.761 -0.6806 -0.0534  0.8184
 8238SOL    HW136173   2.707   3.183   1.687 -0.4950  1.1485  1.2327
 8238SOL    HW236174   2.716   3.129   1.816 -0.3434 -0.6191  0.0085
 8239SOL     OW36175   1.713   1.549   0.856 -0.3515 -0.3150 -0.2566
 8239SOL    HW136176   1.695   1.637   0.888 -0.4881 -0.6172  0.5016
 8239SOL    HW236177   1.766   1.563   0.777  0.8024 -2.1054  0.1893
 8240SOL     OW36178   3.544   2.894  17.462 -0.2133 -0.0012  0.0442
 8240SOL    HW136179   3.564   2.901  17.556 -0.7515 -0.2409  0.1751
 8240SOL    HW236180   3.617   2.833  17.453  0.7171  1.0393  0.5104
 8241SOL     OW36181   2.692   3.349   8.482 -0.6428  0.7011  0.1972
 8241SOL    HW136182   2.717   3.311   8.397 -0.5929 -0.9792  0.9750
 8241SOL    HW236183   2.774   3.328   8.528 -0.6351  1.2561  0.4290
 8242SOL     OW36184   1.521   1.964   7.923 -0.1723  0.0535 -0.0904
 8242SOL    HW136185   1.611   1.954   7.892  0.3657 -2.0008  2.1314
 8242SOL    HW236186   1.503   2.052   7.889 -2.0695 -0.2947 -0.0037
 8243SOL     OW36187   3.415   3.023   0.823 -0.4388 -0.3070 -0.3232
 8243SOL    HW136188   3.464   2.956   0.776  0.7720  0.5652 -0.3186
 8243SOL    HW236189   3.489   3.061   0.872 -0.2854  0.5666 -1.2176
 8244SOL     OW36190   2.878   3.847  10.625  0.0208  0.3372  0.7346
 8244SOL    HW136191   2.967   3.823  10.601 -0.7017 -1.1276 -0.4909
 8244SOL    HW236192   2.829   3.767  10.605  1.8578 -0.1406 -1.8153
 8245SOL     OW36193   4.067   0.319   1.928 -0.3112  0.1896  0.0342
 8245SOL    HW136194   4.073   0.238   1.980  0.7939 -0.3036 -0.8637
 8245SOL    HW236195   4.152   0.362   1.940 -0.3308  0.2608 -0.0831
 8246SOL     OW36196   3.741   1.934  16.764  0.1069  0.0639  0.0639
 8246SOL    HW136197   3.772   2.025  16.770 -0.8588  0.3513  0.7372
 8246SOL    HW236198   3.761   1.911  16.855 -1.5698 -1.3192  0.0752
 8247SOL     OW36199   1.087   0.657   2.389  0.0613  0.4356  0.4524
 8247SOL    HW136200   1.011   0.611   2.354  0.4171 -0.0569  0.3305
 8247SOL    HW236201   1.063   0.750   2.393  0.4891  0.5353  0.7551
 8248SOL     OW36202   3.215   4.084  11.667 -0.4956 -0.0853 -1.1915
 8248SOL    HW136203   3.168   4.072  11.749 -0.5843 -3.3047 -1.7270
 8248SOL    HW236204   3.155   4.037  11.609 -0.7790 -1.6486  0.3624
 8249SOL     OW36205   3.272   2.232   2.797  0.5505  0.2821 -0.2836
 8249SOL    HW136206   3.329   2.161   2.768  1.3407  1.4665 -1.6145
 8249SOL    HW236207   3.296   2.242   2.889  0.1078  0.8677 -0.2278
 8250SOL     OW36208   1.329   3.998   2.080 -0.0411 -0.6500 -0.5761
 8250SOL    HW136209   1.357   3.983   2.170  2.0166  2.9437 -0.6015
 8250SOL    HW236210   1.380   4.074   2.051  0.7148 -1.4343 -1.2849
 8251SOL     OW36211   2.469   1.723  10.370 -0.4462 -0.2870 -0.0995
 8251SOL    HW136212   2.545   1.778  10.386  1.0146 -2.9321  2.0991
 8251SOL    HW236213   2.456   1.744  10.278  0.3684 -0.5812 -0.2807
 8252SOL     OW36214   0.272   0.803   0.554  0.6381  0.1446 -0.0883
 8252SOL    HW136215   0.265   0.771   0.644 -0.2362  1.6853  0.4073
 8252SOL    HW236216   0.180   0.827   0.540  0.5876  0.6039  1.0076
 8253SOL     OW36217   3.037   3.321   3.549 -0.3861 -0.3018 -0.6411
 8253SOL    HW136218   3.066   3.245   3.498 -1.4629  0.0836 -1.8451
 8253SOL    HW236219   2.987   3.283   3.622  0.6056 -0.3034  0.0333
 8254SOL     OW36220   3.870   0.706   5.196 -0.2830  0.4623  0.1961
 8254SOL    HW136221   3.948   0.733   5.148 -1.3683  1.1956 -1.1530
 8254SOL    HW236222   3.902   0.666   5.277 -0.8974 -0.5090 -0.0413
 8255SOL     OW36223   0.459   4.273  10.315  0.2535  0.4244  0.1545
 8255SOL    HW136224   0.371   4.257  10.280  0.6083 -1.2615  0.0522
 8255SOL    HW236225   0.492   4.349  10.267  0.7536  0.0157 -0.1496
 8256SOL     OW36226   0.595   1.737   7.867 -0.2377 -0.4478 -0.0087
 8256SOL    HW136227   0.503   1.716   7.883 -0.5174  2.1831  1.8971
 8256SOL    HW236228   0.598   1.832   7.856 -0.6223 -0.0877  2.7800
 8257SOL     OW36229   1.634   1.530   6.490  0.5934  0.1046  0.7460
 8257SOL    HW136230   1.686   1.603   6.523  0.2070  0.3759  0.7465
 8257SOL    HW236231   1.689   1.461   6.528  0.5517 -2.2840 -3.5351
 8258SOL     OW36232   1.655   1.172  16.470 -0.4183  0.3743 -0.3298
 8258SOL    HW136233   1.584   1.157  16.531  0.9189  0.7842  1.3231
 8258SOL    HW236234   1.659   1.095  16.413  2.6938  0.3102 -0.0616
 8259SOL     OW36235   1.522   1.470  10.064  0.3795 -0.2490  0.2432
 8259SOL    HW136236   1.522   1.465  10.160 -0.3785  2.8832  0.4176
 8259SOL    HW236237   1.460   1.540  10.046  1.8053  0.9602  0.0794
 8260SOL     OW36238   2.469   1.178   1.488  0.4576 -0.2345 -0.6249
 8260SOL    HW136239   2.385   1.143   1.461 -0.3958  1.2217  0.1585
 8260SOL    HW236240   2.469   1.273   1.481  0.3892 -0.2836 -1.3016
 8261SOL     OW36241   1.741   3.842   2.163 -0.4508 -0.6467  0.2235
 8261SOL    HW136242   1.686   3.913   2.196  3.7320  1.9555  1.7034
 8261SOL    HW236243   1.721   3.846   2.069  1.3967 -2.3218 -0.2269
 8262SOL     OW36244   2.328   3.148  12.157 -0.0268 -0.8388 -0.5478
 8262SOL    HW136245   2.396   3.215  12.151 -2.1415  1.1223 -2.5200
 8262SOL    HW236246   2.291   3.167  12.243  1.0742 -2.4728  0.3119
 8263SOL     OW36247   2.259   1.954   4.294 -0.0267 -0.3875  0.1054
 8263SOL    HW136248   2.261   1.862   4.322  2.1090 -0.7588 -1.2426
 8263SOL    HW236249   2.174   1.961   4.250 -0.9053 -1.2105  1.6495
 8264SOL     OW36250   3.354   1.370   5.315 -0.1783 -0.3605  0.4908
 8264SOL    HW136251   3.286   1.359   5.249 -0.5307 -1.8589  1.0862
 8264SOL    HW236252   3.358   1.280   5.350 -2.0882  0.3183  2.4358
 8265SOL     OW36253   1.918   3.711  14.658  0.0948 -0.5877 -0.4544
 8265SOL    HW136254   1.946   3.679  14.744  0.7018  2.1523  0.3745
 8265SOL    HW236255   1.839   3.659  14.646 -0.5795  0.2577  0.3632
 8266SOL     OW36256   4.559   0.856   4.861  0.5042  0.2428  0.0272
 8266SOL    HW136257   4.503   0.933   4.863  0.2262  0.0327  0.3368
 8266SOL    HW236258   4.515   0.805   4.930 -0.2480  2.6010  1.2616
 8267SOL     OW36259   3.795   3.159   1.790 -0.6363  0.6706 -0.8866
 8267SOL    HW136260   3.764   3.075   1.756  2.5342  0.1254 -2.3850
 8267SOL    HW236261   3.868   3.180   1.732  0.0368  0.5388 -0.0801
 8268SOL     OW36262   1.604   1.565  12.161  0.7440  0.1326 -0.0998
 8268SOL    HW136263   1.688   1.590  12.201  0.9559  1.3701 -1.3168
 8268SOL    HW236264   1.594   1.640  12.103  0.4774  0.2331  0.0783
 8269SOL     OW36265   3.401   4.450   0.761 -0.0146 -0.3331  0.0091
 8269SOL    HW136266   3.490   4.417   0.752  0.4867  0.9503  0.2735
 8269SOL    HW236267   3.369   4.466   0.672  1.0893 -0.2100 -0.3733
 8270SOL     OW36268   2.231   3.583   9.430 -0.6425 -0.6293 -0.1878
 8270SOL    HW136269   2.164   3.615   9.370  0.3247  0.5872 -0.6212
 8270SOL    HW236270   2.241   3.499   9.386 -2.1042 -1.6722  1.5005
 8271SOL     OW36271   2.855   2.923   6.455  0.3477  0.1576 -0.0821
 8271SOL    HW136272   2.950   2.905   6.454 -0.0486 -2.0110  0.3299
 8271SOL    HW236273   2.820   2.835   6.439  1.5216 -0.6122  1.6580
 8272SOL     OW36274   3.313   1.261   5.787 -0.1877 -0.0173 -0.3683
 8272SOL    HW136275   3.392   1.207   5.784 -0.3019 -0.1843 -0.3786
 8272SOL    HW236276   3.243   1.195   5.790  1.3233 -1.6619 -1.2608
 8273SOL     OW36277   2.593   1.452  13.966  0.8026 -0.1821 -0.4110
 8273SOL    HW136278   2.527   1.517  13.992  0.9566  0.2371 -1.0813
 8273SOL    HW236279   2.615   1.470  13.875 -0.4415  1.2108 -0.4375
 8274SOL     OW36280   2.174   0.562  11.959  0.4192  0.1544 -0.3612
 8274SOL    HW136281   2.138   0.482  11.997  0.2463  0.3045 -0.2112
 8274SOL    HW236282   2.112   0.626  11.992 -1.6027 -1.4346 -1.0667
 8275SOL     OW36283   0.886   3.746   6.246  0.0764 -0.7475  0.0804
 8275SOL    HW136284   0.867   3.778   6.334  2.4729 -0.2647  0.4183
 8275SOL    HW236285   0.817   3.681   6.235 -1.2444  1.2394 -3.2087
 8276SOL     OW36286   1.895   3.421  10.056  0.1605  0.0130  0.3720
 8276SOL    HW136287   1.799   3.415  10.060  0.2328 -1.0004  0.4867
 8276SOL    HW236288   1.917   3.363   9.984 -1.1398 -0.5572  0.4367
 8277SOL     OW36289   4.004   4.471   8.027  0.8797 -0.1886 -0.6024
 8277SOL    HW136290   4.009   4.393   8.081  3.6563  0.8717  0.6580
 8277SOL    HW236291   3.993   4.548   8.084  0.8997 -0.5454 -0.1212
 8278SOL     OW36292   0.050   2.930   4.270 -0.3599  0.0425 -0.4408
 8278SOL    HW136293   0.030   2.889   4.186 -0.8250  0.1483 -0.3827
 8278SOL    HW236294   4.682   2.937   4.296 -0.0464  1.7174  0.2880
 8279SOL     OW36295   4.134   4.346  12.264 -0.2424 -0.1207 -0.1808
 8279SOL    HW136296   4.206   4.349  12.327  0.4658 -2.2856 -0.8774
 8279SOL    HW236297   4.105   4.437  12.256 -0.0954 -0.1607 -1.1094
 8280SOL     OW36298   4.295   2.357   3.072  0.1069 -0.1473  0.3125
 8280SOL    HW136299   4.271   2.380   2.983  0.8056  2.2216  0.7319
 8280SOL    HW236300   4.379   2.401   3.079  0.1190 -0.0752 -0.3632
 8281SOL     OW36301   4.032   4.686  14.363  0.5309  0.0590 -0.2286
 8281SOL    HW136302   4.083   4.667  14.442 -2.8700  0.2119  1.9993
 8281SOL    HW236303   4.051   0.055  14.351  1.1639  0.0978  1.1307
 8282SOL     OW36304   4.303   1.942   9.097 -0.0592 -0.0338 -0.0002
 8282SOL    HW136305   4.224   1.980   9.135  0.5391  1.8535 -0.6545
 8282SOL    HW236306   4.371   1.978   9.154  0.2907  0.2266 -0.5736
 8283SOL     OW36307   1.808   1.906   6.488  0.3421  0.4648 -0.6220
 8283SOL    HW136308   1.837   1.830   6.539 -2.9739 -0.8091 -0.6529
 8283SOL    HW236309   1.894   1.947   6.476  0.5467 -0.0430 -0.8598
 8284SOL     OW36310   1.140   0.606  15.420 -0.9238 -0.7086  0.2736
 8284SOL    HW136311   1.188   0.673  15.469 -0.6189 -1.3016  0.7831
 8284SOL    HW236312   1.113   0.658  15.344  1.7443 -0.9742 -0.8591
 8285SOL     OW36313   4.531   0.758  17.663  0.1797  0.1723  0.4610
 8285SOL    HW136314   4.442   0.793  17.670 -0.1987 -1.2589  2.5384
 8285SOL    HW236315   4.507   0.667  17.680 -1.2173 -0.0393 -2.5256
 8286SOL     OW36316   1.243   3.218   3.600  0.3998  0.1896 -0.1176
 8286SOL    HW136317   1.163   3.263   3.573  0.6736  0.1431 -1.0238
 8286SOL    HW236318   1.213   3.146   3.655 -1.5264  1.1006 -0.0002
 8287SOL     OW36319   4.718   1.099   3.347  0.0115 -0.1308 -0.0644
 8287SOL    HW136320   0.025   1.054   3.269 -0.7536  0.2305 -0.5762
 8287SOL    HW236321   0.060   1.072   3.410  1.1150  0.7236 -0.8524
 8288SOL     OW36322   2.100   2.616   2.172 -0.3165 -0.7060  0.3453
 8288SOL    HW136323   2.110   2.521   2.170  0.8789 -0.5319 -1.2822
 8288SOL    HW236324   2.065   2.635   2.259 -0.4717  1.2137 -0.1357
 8289SOL     OW36325   2.330   1.256   3.177 -0.3466 -0.1604 -0.0051
 8289SOL    HW136326   2.344   1.196   3.104  2.2594  0.0961  0.2762
 8289SOL    HW236327   2.267   1.310   3.130 -0.6173 -1.1425 -0.7649
 8290SOL     OW36328   0.608   2.285   7.141  0.9093 -0.4772 -0.9698
 8290SOL    HW136329   0.562   2.265   7.222  0.1499 -1.1667 -1.5705
 8290SOL    HW236330   0.666   2.210   7.136 -0.0979 -1.3233  0.0942
 8291SOL     OW36331   1.509   2.708   4.408  0.2068 -0.1542  0.3387
 8291SOL    HW136332   1.567   2.726   4.482 -0.7420 -2.7395  1.6988
 8291SOL    HW236333   1.496   2.794   4.367  1.0531 -0.1088  0.1550
 8292SOL     OW36334   2.257   0.580   2.206  0.1486 -0.2468 -0.4039
 8292SOL    HW136335   2.279   0.487   2.215  0.5472  0.0371  1.5566
 8292SOL    HW236336   2.342   0.616   2.179 -0.4946  1.8676  0.4506
 8293SOL     OW36337   1.522   1.340   0.859  0.1237 -0.1853  0.1745
 8293SOL    HW136338   1.568   1.286   0.795  0.3621  0.5953 -0.3208
 8293SOL    HW236339   1.591   1.400   0.888  0.5749 -0.4630 -0.3140
 8294SOL     OW36340   4.031   4.101   0.969 -0.6651  0.1814 -0.5716
 8294SOL    HW136341   4.039   4.195   0.950  1.4339  0.2807  0.8339
 8294SOL    HW236342   3.936   4.089   0.970 -0.1534 -3.7334 -1.2462
 8295SOL     OW36343   3.817   3.239   9.253  0.1306 -0.0615 -0.0150
 8295SOL    HW136344   3.855   3.279   9.175  1.3905 -0.2040  0.5145
 8295SOL    HW236345   3.848   3.308   9.313  2.1920 -2.4992  1.7307
 8296SOL     OW36346   3.182   2.677   9.528 -0.0279 -0.0838  0.7363
 8296SOL    HW136347   3.109   2.690   9.468 -0.9386 -1.9391  1.4484
 8296SOL    HW236348   3.140   2.621   9.594 -0.4105 -0.7699 -0.0949
 8297SOL     OW36349   0.570   2.844   6.042 -0.9717 -0.4107 -0.2886
 8297SOL    HW136350   0.534   2.756   6.057 -0.1631 -0.4339  1.4341
 8297SOL    HW236351   0.568   2.866   6.135  0.4515 -0.6011 -0.2128
 8298SOL     OW36352   0.932   2.543   2.429  0.6000  0.4126  0.1579
 8298SOL    HW136353   0.872   2.607   2.389 -1.8461 -2.2153 -0.3736
 8298SOL    HW236354   0.955   2.496   2.349  0.9470  0.7353  0.0704
 8299SOL     OW36355   3.741   4.716   8.492 -0.1785  0.2863 -0.3822
 8299SOL    HW136356   3.759   4.646   8.430 -1.9976  0.2576 -0.8727
 8299SOL    HW236357   3.750   0.063   8.428 -0.7097  0.0751 -0.6861
 8300SOL     OW36358   2.667   0.786   3.118 -0.0629 -0.4212  0.2799
 8300SOL    HW136359   2.713   0.870   3.116 -1.1746  0.1207 -1.5478
 8300SOL    HW236360   2.590   0.800   3.064  1.1116  2.3314 -0.7219
 8301SOL     OW36361   3.141   4.570  11.950 -0.2848 -0.1373  0.1709
 8301SOL    HW136362   3.051   4.556  11.979 -0.2669 -0.8609 -0.1345
 8301SOL    HW236363   3.139   4.538  11.860  0.6028  2.1523 -0.6523
 8302SOL     OW36364   4.333   4.002   7.961 -0.3013 -0.1900 -0.3501
 8302SOL    HW136365   4.260   3.949   7.930  0.1184  1.0161 -3.3632
 8302SOL    HW236366   4.292   4.088   7.968  0.8156  0.4248 -1.4723
 8303SOL     OW36367   3.065   1.982   8.451  0.2191 -0.3149 -0.3065
 8303SOL    HW136368   3.118   2.061   8.463 -0.9728  0.3531  0.5318
 8303SOL    HW236369   3.081   1.940   8.536  0.8400 -0.0277 -0.2782
 8304SOL     OW36370   1.994   3.221   5.672  0.0847 -0.1158  0.5511
 8304SOL    HW136371   1.941   3.168   5.613  0.1630  0.0155  0.3597
 8304SOL    HW236372   2.010   3.296   5.614  0.1698  0.0172  0.7472
 8305SOL     OW36373   2.224   1.521  15.867 -0.5007  0.1076  0.0061
 8305SOL    HW136374   2.132   1.514  15.843 -0.4374 -1.5066  0.1975
 8305SOL    HW236375   2.260   1.566  15.790 -1.1581  0.5030 -0.0642
 8306SOL     OW36376   3.710   3.824   1.077 -0.0882 -0.3056 -0.3628
 8306SOL    HW136377   3.623   3.783   1.081  0.0373 -0.8637 -3.5165
 8306SOL    HW236378   3.727   3.858   1.165 -2.7762  2.8731 -1.0957
 8307SOL     OW36379   3.211   0.476  10.670 -0.0158 -0.2193  0.3634
 8307SOL    HW136380   3.119   0.463  10.647  0.0943 -1.5620  0.6938
 8307SOL    HW236381   3.208   0.521  10.754 -1.6950  1.1736 -0.4315
 8308SOL     OW36382   3.780   2.229   3.019 -0.3145  0.5297 -0.1587
 8308SOL    HW136383   3.704   2.220   2.961 -1.9287  0.0003  2.0341
 8308SOL    HW236384   3.845   2.200   2.955 -0.1305 -0.7811  0.6139
 8309SOL     OW36385   0.923   0.412   5.175  0.2894  0.3464 -0.3111
 8309SOL    HW136386   0.946   0.355   5.101  0.3981  0.4028 -0.3211
 8309SOL    HW236387   0.854   0.460   5.130 -0.2537 -0.9781 -0.8953
 8310SOL     OW36388   0.267   4.580   6.715  0.1993  0.1959  0.3507
 8310SOL    HW136389   0.245   4.501   6.667 -0.8213  1.6633 -1.5826
 8310SOL    HW236390   0.187   4.595   6.765 -0.1891 -1.6839  0.3012
 8311SOL     OW36391   1.573   0.714   1.988  0.0811  1.1194 -0.1541
 8311SOL    HW136392   1.668   0.723   1.992  0.2636 -0.0149 -2.3305
 8311SOL    HW236393   1.566   0.621   2.008  0.9471  1.0203 -0.3338
 8312SOL     OW36394   0.085   3.084   1.916 -0.0357  0.0275 -0.0799
 8312SOL    HW136395   0.018   3.138   1.957  0.6154 -0.1814  1.2610
 8312SOL    HW236396   0.070   3.099   1.823  0.2033 -0.4715 -0.1995
 8313SOL     OW36397   3.644   3.384   3.974  0.1515 -0.1481  0.1039
 8313SOL    HW136398   3.629   3.462   3.920  1.0219  0.9223  1.3951
 8313SOL    HW236399   3.636   3.417   4.064  3.4556 -1.9927  1.0654
 8314SOL     OW36400   4.219   1.810   1.989  0.1242  0.1214 -0.0090
 8314SOL    HW136401   4.179   1.727   1.962  0.0704 -0.0899  0.7452
 8314SOL    HW236402   4.300   1.808   1.939  0.0328 -1.0651 -0.1041
 8315SOL     OW36403   0.163   0.230   4.002 -0.2597 -0.5733  0.5607
 8315SOL    HW136404   0.078   0.201   3.969 -1.3108  1.1787  1.7191
 8315SOL    HW236405   0.144   0.324   4.003 -1.2326 -0.7548 -0.6185
 8316SOL     OW36406   1.880   0.489  11.323 -0.0547  0.3984  0.6343
 8316SOL    HW136407   1.890   0.418  11.386  4.5877  0.8497  0.3458
 8316SOL    HW236408   1.844   0.562  11.374 -0.4293  0.8570 -0.2850
 8317SOL     OW36409   0.361   4.267   6.183  0.6089  0.0491 -0.2198
 8317SOL    HW136410   0.269   4.286   6.163  1.0797  0.2718 -2.2459
 8317SOL    HW236411   0.347   4.225   6.268  0.6310 -0.1451 -0.3114
 8318SOL     OW36412   4.086   3.197   9.480 -0.4898  0.0648  0.1468
 8318SOL    HW136413   4.040   3.148   9.411 -0.3565  0.1757 -0.0201
 8318SOL    HW236414   4.043   3.282   9.472 -2.1125 -0.6824  0.9419
 8319SOL     OW36415   1.277   3.256   6.475 -1.0097  0.1254 -0.1934
 8319SOL    HW136416   1.299   3.197   6.403 -0.6792  0.6383 -0.5118
 8319SOL    HW236417   1.220   3.323   6.435  1.3103  2.3201  0.1733
 8320SOL     OW36418   4.241   1.525   7.647  0.1310  0.0597 -0.0656
 8320SOL    HW136419   4.227   1.557   7.559 -2.1155 -1.8880 -0.4186
 8320SOL    HW236420   4.259   1.604   7.698  1.2589 -0.3378  0.1426
 8321SOL     OW36421   0.603   2.733  12.588  0.0594 -0.1318  0.6000
 8321SOL    HW136422   0.583   2.800  12.654  1.7643 -0.5957  1.5901
 8321SOL    HW236423   0.532   2.675  12.618  1.0643 -1.6719 -0.0252
 8322SOL     OW36424   2.434   2.921   6.020  0.3210 -0.3686  0.1198
 8322SOL    HW136425   2.357   2.947   6.071 -0.2001 -0.0456 -0.8346
 8322SOL    HW236426   2.455   3.005   5.980 -2.8426  0.8110  0.9328
 8323SOL     OW36427   1.134   2.666  13.378 -0.0810  0.0789  0.1038
 8323SOL    HW136428   1.131   2.760  13.398 -1.4488 -0.3752  2.0281
 8323SOL    HW236429   1.132   2.660  13.283  0.6113  0.2468  0.0804
 8324SOL     OW36430   3.618   0.120   9.063 -0.0390  0.4071 -0.1894
 8324SOL    HW136431   3.602   0.042   9.116  1.8848 -0.0060 -0.2203
 8324SOL    HW236432   3.713   0.120   9.058  0.0032 -0.7194  0.6335
 8325SOL     OW36433   0.018   1.690  15.808  0.3560  0.4332  0.1251
 8325SOL    HW136434   0.075   1.693  15.731 -1.8904 -1.6317 -1.6312
 8325SOL    HW236435   0.010   1.595  15.814  3.2358  0.1074 -1.3810
 8326SOL     OW36436   0.809   1.633  13.643 -0.0195  0.0017 -0.3356
 8326SOL    HW136437   0.876   1.579  13.684  0.4341  0.2861 -0.7034
 8326SOL    HW236438   0.858   1.674  13.572 -1.3160  2.3562  0.1105
 8327SOL     OW36439   1.045   0.737   6.673 -0.5040 -0.1777 -0.3277
 8327SOL    HW136440   1.039   0.821   6.627 -0.2085  0.1026  0.1554
 8327SOL    HW236441   1.102   0.691   6.611  0.1653 -2.6458  2.1116
 8328SOL     OW36442   2.574   3.579   9.244 -0.1642  0.4026  0.0809
 8328SOL    HW136443   2.559   3.574   9.339 -1.2503 -1.3988 -0.1895
 8328SOL    HW236444   2.532   3.664   9.232  1.2878  1.0527 -0.3042
 8329SOL     OW36445   0.578   1.904  11.795  0.2817 -0.3854  0.9566
 8329SOL    HW136446   0.606   1.908  11.887  1.1848 -4.0908  0.8793
 8329SOL    HW236447   0.657   1.861  11.760  0.8380  1.1304  0.3583
 8330SOL     OW36448   3.518   4.385   2.690  0.1380 -0.0756  0.0154
 8330SOL    HW136449   3.466   4.332   2.630  0.5036 -2.2620  1.6139
 8330SOL    HW236450   3.571   4.315   2.729  1.2282  1.2086  0.8122
 8331SOL     OW36451   2.595   0.758   9.191 -0.5165 -0.5481  0.2956
 8331SOL    HW136452   2.558   0.847   9.194 -1.7854 -1.0432 -0.7217
 8331SOL    HW236453   2.527   0.700   9.158  0.9874 -1.2347 -1.5961
 8332SOL     OW36454   1.611   1.543  17.249 -0.2600  0.1972 -0.3127
 8332SOL    HW136455   1.674   1.521  17.318  0.2172  0.6409 -0.6066
 8332SOL    HW236456   1.676   1.562  17.182 -1.5989  1.2609 -1.3014
 8333SOL     OW36457   0.213   0.656   9.298 -0.5620 -0.5732  0.0337
 8333SOL    HW136458   0.174   0.600   9.231 -1.2903 -0.8395  0.6787
 8333SOL    HW236459   0.136   0.663   9.356 -0.2223 -0.6061  0.4861
 8334SOL     OW36460   4.111   4.287   3.770 -0.1776  0.5143 -0.1435
 8334SOL    HW136461   4.089   4.251   3.684  0.7040 -3.0983  1.1496
 8334SOL    HW236462   4.207   4.279   3.766 -0.3689 -1.4049 -1.0942
 8335SOL     OW36463   2.531   2.897   8.092  0.7524 -0.1916 -0.0570
 8335SOL    HW136464   2.501   2.821   8.142 -0.7604 -0.1397 -0.8862
 8335SOL    HW236465   2.620   2.870   8.071  0.9358  0.0181  0.4444
 8336SOL     OW36466   2.597   3.613   4.142  0.2556 -0.0173  0.5288
 8336SOL    HW136467   2.601   3.639   4.050 -0.3988 -1.7905  0.0161
 8336SOL    HW236468   2.618   3.700   4.176 -0.4816  0.3701 -0.0015
 8337SOL     OW36469   2.591   1.113  11.423 -0.0827 -0.0467 -0.1358
 8337SOL    HW136470   2.557   1.187  11.473  1.8746  0.9536 -0.2755
 8337SOL    HW236471   2.590   1.148  11.334 -0.6977 -3.4888 -1.4918
 8338SOL     OW36472   0.862   2.192   2.961  0.1899  0.6851 -0.1598
 8338SOL    HW136473   0.797   2.224   3.024 -0.6397  0.1121 -0.7170
 8338SOL    HW236474   0.806   2.144   2.900  0.2666  0.9448 -0.4317
 8339SOL     OW36475   2.385   4.187  10.023 -0.1830  0.2554 -0.0296
 8339SOL    HW136476   2.297   4.194   9.985 -1.3959 -1.5527  2.4823
 8339SOL    HW236477   2.437   4.236   9.959 -1.5913 -0.6001 -1.8557
 8340SOL     OW36478   2.546   0.496   1.414 -0.2724  0.4782 -0.1234
 8340SOL    HW136479   2.575   0.535   1.332  0.2178 -0.2038 -0.2780
 8340SOL    HW236480   2.533   0.568   1.476 -1.4051  1.0768 -1.0626
 8341SOL     OW36481   0.141   0.977   2.169 -0.0120 -0.0692  0.0037
 8341SOL    HW136482   0.187   0.991   2.086 -0.1641  1.4761  0.1844
 8341SOL    HW236483   0.097   0.899   2.134 -1.7439  1.0405 -0.2858
 8342SOL     OW36484   1.812   3.846   0.778 -0.1476  0.0698 -0.2313
 8342SOL    HW136485   1.811   3.767   0.832 -0.0111  1.3257  1.5912
 8342SOL    HW236486   1.847   3.815   0.694  0.8411  2.8284 -0.8405
 8343SOL     OW36487   4.449   3.502   7.650  0.1559  0.0347  0.4054
 8343SOL    HW136488   4.502   3.572   7.612  0.7680 -0.6312  0.0158
 8343SOL    HW236489   4.438   3.532   7.740  1.1615 -0.5861  0.7381
 8344SOL     OW36490   3.592   4.542   5.298 -0.0101  0.4068 -0.4433
 8344SOL    HW136491   3.639   4.475   5.348  1.4817 -0.9021 -3.6222
 8344SOL    HW236492   3.522   4.494   5.254  0.3122 -0.8446  0.3886
 8345SOL     OW36493   2.057   3.885  17.115 -0.1334 -0.6217 -0.6950
 8345SOL    HW136494   2.136   3.937  17.098  0.0673 -0.4734  0.7015
 8345SOL    HW236495   2.052   3.912  17.206 -0.1124  0.2840 -0.9651
 8346SOL     OW36496   1.671   0.918  17.454  0.6118 -0.3758 -0.1800
 8346SOL    HW136497   1.766   0.918  17.466  1.0317  0.7482 -3.3008
 8346SOL    HW236498   1.653   1.009  17.431  1.9667  0.4048  1.8745
 8347SOL     OW36499   3.749   3.139   3.940  0.1508 -0.3606 -0.4724
 8347SOL    HW136500   3.774   3.230   3.956  2.0173 -0.7134 -1.3421
 8347SOL    HW236501   3.653   3.135   3.941  0.1524 -0.5624 -1.0790
 8348SOL     OW36502   0.473   4.378   3.823 -0.0474  0.0074  0.0872
 8348SOL    HW136503   0.382   4.395   3.846  0.6177  1.2586  1.7702
 8348SOL    HW236504   0.507   4.382   3.912 -0.1857  1.8527  0.0598
 8349SOL     OW36505   4.327   0.453  14.113 -0.0746 -0.3883  0.0115
 8349SOL    HW136506   4.287   0.380  14.066  1.3459 -2.3885  1.9786
 8349SOL    HW236507   4.250   0.493  14.155  0.3191 -1.2527  1.5375
 8350SOL     OW36508   4.276   0.652   6.609 -0.2969  0.0658 -0.1907
 8350SOL    HW136509   4.206   0.652   6.675  1.7886 -0.7222  2.0496
 8350SOL    HW236510   4.229   0.691   6.536 -0.1775  0.4047 -0.0870
 8351SOL     OW36511   0.314   0.443   4.575 -0.0121  0.5174  0.1281
 8351SOL    HW136512   0.327   0.410   4.486  1.3606 -0.0378  0.5325
 8351SOL    HW236513   0.259   0.516   4.546  1.0054  1.7291  1.2521
 8352SOL     OW36514   1.189   1.764   6.560 -0.2041  0.1186 -0.1656
 8352SOL    HW136515   1.162   1.846   6.519 -1.3102  0.2968  0.9297
 8352SOL    HW236516   1.274   1.794   6.594 -0.4224 -1.7481  2.0025
 8353SOL     OW36517   4.721   4.464   3.527  0.1330 -0.2760 -0.0422
 8353SOL    HW136518   0.016   4.428   3.614  1.8020  0.5131 -0.0851
 8353SOL    HW236519   0.077   4.512   3.505  0.2288 -1.1808 -1.6872
 8354SOL     OW36520   3.605   3.441   6.089  0.7877  0.3923 -0.2433
 8354SOL    HW136521   3.693   3.470   6.064  0.6596  1.3696  0.4639
 8354SOL    HW236522   3.610   3.346   6.103  0.2422  0.7160  2.2249
 8355SOL     OW36523   0.865   0.412   5.984 -0.2444 -0.0809 -0.1885
 8355SOL    HW136524   0.912   0.406   5.901 -2.2262 -1.6109 -1.2228
 8355SOL    HW236525   0.789   0.355   5.971 -1.0650  1.0274 -0.3200
 8356SOL     OW36526   4.050   2.839  10.119 -0.0523  0.1992 -0.3382
 8356SOL    HW136527   4.060   2.780  10.044 -1.8849  0.1469 -0.5656
 8356SOL    HW236528   3.998   2.785  10.178 -0.9977 -0.2284 -1.5477
 8357SOL     OW36529   1.491   4.124  17.362  0.4144 -0.1073  0.2965
 8357SOL    HW136530   1.537   4.207  17.378 -1.3275  1.6798 -3.9726
 8357SOL    HW236531   1.560   4.058  17.350 -0.1201 -0.7312  0.6657
 8358SOL     OW36532   3.593   4.056   6.499 -0.3049 -1.0394  0.0187
 8358SOL    HW136533   3.526   4.036   6.564 -0.4146  2.1595  0.9048
 8358SOL    HW236534   3.576   4.150   6.496 -2.5612 -1.4629 -0.0508
 8359SOL     OW36535   3.790   1.258   6.113  0.2002  0.2086  0.2630
 8359SOL    HW136536   3.776   1.278   6.205 -0.6917 -0.2007  0.2218
 8359SOL    HW236537   3.701   1.227   6.093 -0.2088  0.6523  1.4590
 8360SOL     OW36538   0.260   2.973   4.467  0.1133  0.0038  0.2455
 8360SOL    HW136539   0.218   2.987   4.552  0.9454  2.3007  0.2599
 8360SOL    HW236540   0.181   2.970   4.412  0.9263  0.3946 -0.9332
 8361SOL     OW36541   3.315   3.736  10.301  0.3067 -0.1514 -0.1629
 8361SOL    HW136542   3.234   3.704  10.261  1.1744  0.5734 -2.5674
 8361SOL    HW236543   3.352   3.769  10.219  0.5062  0.0930  0.0248
 8362SOL     OW36544   4.193   3.191   8.620 -0.5961 -0.4725  0.0570
 8362SOL    HW136545   4.182   3.154   8.532 -0.8176 -1.4859  0.5223
 8362SOL    HW236546   4.278   3.153   8.641  0.4144  1.2292 -0.9094
 8363SOL     OW36547   2.692   4.011   2.284 -0.0390  0.1116 -0.3553
 8363SOL    HW136548   2.696   4.106   2.271 -1.9374  0.0703 -1.2502
 8363SOL    HW236549   2.701   3.981   2.194  1.9844 -2.0574  0.5738
 8364SOL     OW36550   4.385   2.451   2.664  0.0124 -0.3072  0.0099
 8364SOL    HW136551   4.310   2.426   2.718 -1.1946  0.2997 -1.4112
 8364SOL    HW236552   4.430   2.516   2.719  3.6693 -1.6954 -1.3103
 8365SOL     OW36553   0.580   3.126  12.072 -0.5323 -0.1550 -0.2128
 8365SOL    HW136554   0.495   3.118  12.117 -0.6636 -0.5958 -0.5355
 8365SOL    HW236555   0.607   3.036  12.090  0.5801  0.6716  2.2857
 8366SOL     OW36556   3.589   2.210   5.014 -0.2418 -0.1185 -0.2163
 8366SOL    HW136557   3.534   2.178   5.085  1.6976 -0.3593  1.1628
 8366SOL    HW236558   3.542   2.290   4.992 -1.5544 -0.8419 -0.0290
 8367SOL     OW36559   4.233   0.124   6.854 -0.4719 -0.8886 -0.2514
 8367SOL    HW136560   4.160   0.137   6.915 -0.1194 -0.4260  0.0736
 8367SOL    HW236561   4.180   0.112   6.775  1.6755  1.6161 -2.0336
 8368SOL     OW36562   0.641   3.543  15.050 -0.6867  0.2910  0.9914
 8368SOL    HW136563   0.714   3.544  15.112 -0.0038  3.0496  0.1504
 8368SOL    HW236564   0.565   3.572  15.100 -0.7978  1.2124  0.2905
 8369SOL     OW36565   4.121   0.327   5.924 -0.7508  0.4249  0.2473
 8369SOL    HW136566   4.127   0.275   5.844  0.3459 -0.1879  0.7308
 8369SOL    HW236567   4.078   0.265   5.983  1.5585 -0.0786  1.4008
 8370SOL     OW36568   1.594   3.800  12.711  0.2067 -0.1989  0.3452
 8370SOL    HW136569   1.616   3.717  12.752  1.7929  0.3632  0.6226
 8370SOL    HW236570   1.660   3.857  12.751 -1.9530  1.8168  1.0403
 8371SOL     OW36571   3.811   3.841   5.729  0.2532 -0.1648 -0.1288
 8371SOL    HW136572   3.897   3.839   5.769 -0.8566 -0.8854  2.2318
 8371SOL    HW236573   3.780   3.751   5.736  0.7253 -0.3425 -0.3528
 8372SOL     OW36574   0.645   0.576   2.959  0.4084 -0.2386  0.2921
 8372SOL    HW136575   0.668   0.601   2.869 -2.0114 -1.3700 -0.6413
 8372SOL    HW236576   0.616   0.656   3.003 -2.0173 -0.5916 -0.6486
 8373SOL     OW36577   3.945   2.649  13.986 -0.5322  0.1348 -0.7983
 8373SOL    HW136578   4.039   2.638  13.969 -0.7993  0.7879 -2.6146
 8373SOL    HW236579   3.910   2.643  13.898 -1.0881 -1.2269 -0.4759
 8374SOL     OW36580   0.397   1.216   6.789  0.2516 -0.3531 -0.0972
 8374SOL    HW136581   0.435   1.157   6.724  1.7516  0.3911  0.0992
 8374SOL    HW236582   0.391   1.149   6.857 -2.6262  0.4536  0.4231
 8375SOL     OW36583   0.094   2.740   6.187 -0.3976  0.1158 -0.7853
 8375SOL    HW136584   0.021   2.792   6.220 -0.6457 -1.9648  1.9575
 8375SOL    HW236585   0.127   2.799   6.119  1.7934 -1.1137 -0.7898
 8376SOL     OW36586   0.588   1.671   4.488  0.1181 -0.1617 -0.1025
 8376SOL    HW136587   0.600   1.597   4.427 -3.7295 -1.8471  1.1506
 8376SOL    HW236588   0.666   1.658   4.542 -0.1212 -1.0513  0.0338
 8377SOL     OW36589   0.606   0.314   8.268 -0.6299  0.4278  0.1331
 8377SOL    HW136590   0.589   0.237   8.323  0.7983  0.1532  0.1867
 8377SOL    HW236591   0.545   0.297   8.196 -0.8252 -0.8952  0.5999
 8378SOL     OW36592   1.945   4.038   2.514  0.0749 -0.4463  0.0222
 8378SOL    HW136593   2.004   4.037   2.439  1.3466 -0.3178  1.0185
 8378SOL    HW236594   1.903   3.954   2.501 -0.1135 -0.1535 -1.3242
 8379SOL     OW36595   0.037   4.298   5.818 -0.1960  0.4512 -0.6772
 8379SOL    HW136596   4.700   4.287   5.745  0.3538 -1.1956 -0.8737
 8379SOL    HW236597   0.016   4.386   5.849 -0.0657  0.0474  0.5701
 8380SOL     OW36598   3.106   1.703  15.561  0.5663 -0.1474 -0.2783
 8380SOL    HW136599   3.162   1.626  15.570  3.0886  1.7354 -0.0933
 8380SOL    HW236600   3.100   1.712  15.466 -0.4945  1.4481 -0.0534
 8381SOL     OW36601   3.888   2.995   0.877 -0.0299  0.1925 -0.1277
 8381SOL    HW136602   3.966   2.967   0.828 -0.8196 -1.4633 -0.4253
 8381SOL    HW236603   3.835   2.916   0.874  0.0364  0.1596 -0.4367
 8382SOL     OW36604   2.555   3.179   5.614 -0.4069  0.5297  0.1288
 8382SOL    HW136605   2.562   3.097   5.662 -0.0239  0.3120 -0.2941
 8382SOL    HW236606   2.582   3.152   5.526  1.5353  0.1686  0.8550
 8383SOL     OW36607   2.103   4.695  16.613  0.1768  0.1834  0.7825
 8383SOL    HW136608   2.165   4.624  16.598  1.3491  1.4457 -0.4363
 8383SOL    HW236609   2.099   4.680  16.707  0.2577 -2.6164  0.3239
 8384SOL     OW36610   4.060   4.445   2.372 -0.2665  0.0517 -0.3938
 8384SOL    HW136611   4.142   4.460   2.325  0.4523  1.0978  1.1955
 8384SOL    HW236612   4.071   4.357   2.409 -1.6925 -1.5123 -3.7174
 8385SOL     OW36613   1.032   4.603   5.142  0.5190 -0.2016 -0.3985
 8385SOL    HW136614   1.034   4.659   5.064  0.9705 -0.2112 -0.3954
 8385SOL    HW236615   0.953   4.637   5.183  1.8955  0.5549  1.6811
 8386SOL     OW36616   0.552   0.178   2.970 -0.2312  0.5427  0.4403
 8386SOL    HW136617   0.585   0.216   2.889  0.1771  0.3911  0.5344
 8386SOL    HW236618   0.463   0.158   2.941 -1.2170  3.5271  1.4130
 8387SOL     OW36619   3.483   3.847   6.365  0.3544  0.3430  0.0910
 8387SOL    HW136620   3.495   3.922   6.423  2.0392 -1.5950  2.2814
 8387SOL    HW236621   3.550   3.865   6.299 -0.4222 -1.1608 -1.1045
 8388SOL     OW36622   1.104   4.721   4.910 -0.3214  0.2853  0.2460
 8388SOL    HW136623   1.144   4.674   4.837  1.7119 -0.7501  2.0102
 8388SOL    HW236624   1.092   0.081   4.865 -0.1579 -1.2417 -2.5999
 8389SOL     OW36625   2.076   2.790   4.756  0.5097  0.1423  0.2411
 8389SOL    HW136626   2.076   2.710   4.703  2.0801  0.3581 -0.0937
 8389SOL    HW236627   2.004   2.839   4.716 -0.2871  0.1271  1.6564
 8390SOL     OW36628   3.008   2.748  14.217  0.5058  0.0274 -0.2104
 8390SOL    HW136629   2.987   2.763  14.125  0.3459  0.1088 -0.1620
 8390SOL    HW236630   3.027   2.655  14.214  1.0273  0.0789  1.3444
 8391SOL     OW36631   1.387   3.282  12.841 -0.2338  0.0880  0.0904
 8391SOL    HW136632   1.395   3.276  12.746 -0.1266 -1.9613  0.2259
 8391SOL    HW236633   1.304   3.328  12.850  0.1633  0.6991  0.6229
 8392SOL     OW36634   3.415   4.142  12.484  0.8016 -0.1643  0.6103
 8392SOL    HW136635   3.336   4.172  12.528  2.1126 -0.6015  3.2652
 8392SOL    HW236636   3.375   4.149  12.398  1.3956 -3.0791  0.0920
 8393SOL     OW36637   4.304   2.456  16.484  0.3107  0.3422  0.2406
 8393SOL    HW136638   4.306   2.371  16.529 -0.6951 -0.2605 -0.8637
 8393SOL    HW236639   4.381   2.448  16.428 -0.6660 -2.2146 -0.7356
 8394SOL     OW36640   1.145   2.003   8.027  0.0572 -0.1991  0.1930
 8394SOL    HW136641   1.209   2.068   8.057  3.3226 -3.2017 -0.2254
 8394SOL    HW236642   1.078   2.011   8.095  0.0105  1.8086 -0.1056
 8395SOL     OW36643   2.780   1.002   7.807  0.2953  0.1124 -0.1436
 8395SOL    HW136644   2.738   1.084   7.833 -1.6488 -0.5952 -1.0436
 8395SOL    HW236645   2.790   1.008   7.712  0.0802  0.8949 -0.1205
 8396SOL     OW36646   2.048   3.509   0.968  0.2363  0.0046  0.3256
 8396SOL    HW136647   2.094   3.535   0.888  0.1049 -0.7964 -0.0160
 8396SOL    HW236648   2.107   3.448   1.011 -0.1121 -0.4165  0.2131
 8397SOL     OW36649   4.676   4.386  10.323 -0.0022 -0.2760  0.0616
 8397SOL    HW136650   4.654   4.297  10.350 -0.2193  0.3315  1.9191
 8397SOL    HW236651   0.043   4.375  10.296 -0.2917  1.8491 -1.7696
 8398SOL     OW36652   2.229   3.230   2.963  0.4760  0.2551  0.2044
 8398SOL    HW136653   2.285   3.204   2.890 -0.1781  0.7629 -0.4923
 8398SOL    HW236654   2.236   3.325   2.956  0.5052  0.2858  0.6783
 8399SOL     OW36655   2.094   2.668  12.881 -0.2824  0.3121  0.2582
 8399SOL    HW136656   2.107   2.754  12.921 -0.3212 -0.1130  1.1922
 8399SOL    HW236657   2.026   2.627  12.935 -1.7399 -1.0961 -2.6383
 8400SOL     OW36658   4.551   0.031   1.928 -0.1837 -0.4610  0.5958
 8400SOL    HW136659   4.499   4.711   1.994  0.6115 -1.5928  0.4544
 8400SOL    HW236660   4.638   4.718   1.945 -0.0629 -0.3659  0.1945
 8401SOL     OW36661   1.665   0.267  12.530 -0.5736 -0.1853 -0.3001
 8401SOL    HW136662   1.635   0.339  12.474 -0.9858 -0.6969 -0.7401
 8401SOL    HW236663   1.750   0.250  12.490  0.0723 -0.2941  1.1501
 8402SOL     OW36664   1.502   3.094   2.975  0.4122 -0.2396 -0.2567
 8402SOL    HW136665   1.422   3.047   2.952 -0.3994  0.9521  0.1289
 8402SOL    HW236666   1.465   3.150   3.043 -0.2465 -0.0045 -0.7985
 8403SOL     OW36667   1.387   3.518   0.745 -0.4618 -0.1334  0.0565
 8403SOL    HW136668   1.327   3.511   0.671  0.6976  3.2068 -1.1910
 8403SOL    HW236669   1.466   3.470   0.721 -0.0817 -0.7404  2.4857
 8404SOL     OW36670   2.474   4.307   6.077  0.0255 -0.1553  0.4097
 8404SOL    HW136671   2.484   4.401   6.089  0.3765 -0.1811  0.3027
 8404SOL    HW236672   2.565   4.281   6.092  0.5606  2.4411  1.7514
 8405SOL     OW36673   4.062   0.882   7.324 -0.2481 -0.4542  0.7591
 8405SOL    HW136674   4.116   0.940   7.377  2.3737  0.5594 -3.0429
 8405SOL    HW236675   4.029   0.955   7.272 -2.4176 -1.0054  1.3755
 8406SOL     OW36676   4.153   4.516  12.605  0.7146  0.0617 -0.3372
 8406SOL    HW136677   4.121   4.603  12.627  1.4415 -0.2779  2.0410
 8406SOL    HW236678   4.070   4.467  12.607  0.7341  0.0176 -0.5505
 8407SOL     OW36679   3.927   2.376   8.024 -0.5841 -0.3842 -0.2126
 8407SOL    HW136680   3.922   2.462   7.981  2.8527 -0.0723 -0.0122
 8407SOL    HW236681   3.858   2.324   7.985  0.2609  0.5309 -2.9118
 8408SOL     OW36682   1.769   3.152   4.689  0.4356  0.2162  0.4290
 8408SOL    HW136683   1.787   3.244   4.705 -1.2393  0.8536 -1.3805
 8408SOL    HW236684   1.678   3.131   4.713  1.2093 -3.5577  0.0162
 8409SOL     OW36685   4.698   4.648   4.925  0.3398 -0.2279  0.0894
 8409SOL    HW136686   4.658   4.586   4.986 -1.3281  0.6483 -0.0970
 8409SOL    HW236687   0.046   4.672   4.984  1.3364  2.0726 -2.0453
 8410SOL     OW36688   2.655   1.030   1.353 -0.0346  0.2824  0.3570
 8410SOL    HW136689   2.689   0.973   1.422  1.7672 -0.4963 -1.1760
 8410SOL    HW236690   2.625   1.107   1.401 -0.2421 -0.1349  0.8999
 8411SOL     OW36691   4.125   1.636   2.698  0.5962 -0.1044 -0.2693
 8411SOL    HW136692   4.125   1.679   2.784  2.4706 -1.5283  0.4606
 8411SOL    HW236693   4.054   1.572   2.706  1.1479 -0.6669  0.1391
 8412SOL     OW36694   2.198   1.478   5.540 -0.1292  0.3614  0.0858
 8412SOL    HW136695   2.192   1.388   5.507 -1.6650  0.1218  1.0561
 8412SOL    HW236696   2.260   1.466   5.612 -3.1816 -0.7594  2.4791
 8413SOL     OW36697   3.495   2.509   7.417  0.0611 -0.4534  0.0679
 8413SOL    HW136698   3.570   2.449   7.420 -3.6878 -5.2165 -1.5467
 8413SOL    HW236699   3.537   2.592   7.394 -1.5739 -0.3014 -2.3249
 8414SOL     OW36700   0.426   0.513  10.641  0.2894 -0.0102  0.2543
 8414SOL    HW136701   0.509   0.478  10.673  0.0436 -1.2792 -0.5107
 8414SOL    HW236702   0.420   0.584  10.706 -2.8613  0.7950 -0.8874
 8415SOL     OW36703   1.155   4.085   4.383 -0.1718 -0.4274 -0.6865
 8415SOL    HW136704   1.130   4.167   4.343  0.1024  0.3251  0.6805
 8415SOL    HW236705   1.078   4.033   4.359  0.0763  0.1145 -2.6271
 8416SOL     OW36706   2.177   0.898   2.665  0.3125 -0.2418  0.3961
 8416SOL    HW136707   2.236   0.972   2.676  0.6668 -0.5740  0.7688
 8416SOL    HW236708   2.090   0.934   2.650  0.3210 -0.5891 -0.4748
 8417SOL     OW36709   4.621   0.062  16.213  0.1553  0.8250 -0.1798
 8417SOL    HW136710   4.709   0.092  16.193  1.0860 -1.5014  0.4779
 8417SOL    HW236711   4.622   4.704  16.164 -1.2931  1.3648 -1.1191
 8418SOL     OW36712   1.498   1.235   7.691  0.5244 -0.9205 -0.9186
 8418SOL    HW136713   1.504   1.142   7.667  2.3008 -0.9060 -0.5715
 8418SOL    HW236714   1.466   1.227   7.781  1.1495 -4.1691 -0.9556
 8419SOL     OW36715   3.311   2.979   6.330 -0.0949 -0.2779  0.1062
 8419SOL    HW136716   3.340   3.071   6.329 -0.7761 -0.0903 -1.6853
 8419SOL    HW236717   3.393   2.941   6.364  0.2121 -0.1813 -0.5220
 8420SOL     OW36718   0.735   3.480   3.552 -0.1930 -0.0437 -0.2846
 8420SOL    HW136719   0.790   3.478   3.474 -0.6521  3.0004 -0.7047
 8420SOL    HW236720   0.712   3.573   3.551 -1.3466 -0.3688 -2.5293
 8421SOL     OW36721   3.331   3.837   1.171 -0.3834 -0.1086 -0.4912
 8421SOL    HW136722   3.398   3.771   1.153  2.0627  3.0085 -2.8963
 8421SOL    HW236723   3.380   3.891   1.233 -0.4809 -1.1347  0.4671
 8422SOL     OW36724   4.451   1.688   5.938  0.1554 -0.3813 -0.1368
 8422SOL    HW136725   4.412   1.746   6.003  0.9230 -0.9557  0.8289
 8422SOL    HW236726   4.534   1.726   5.910  0.4094 -1.8397 -1.3484
 8423SOL     OW36727   4.425   4.627   6.958 -0.5461 -0.4197 -0.1669
 8423SOL    HW136728   4.387   4.689   6.896 -0.4768 -2.6231 -2.3852
 8423SOL    HW236729   4.356   4.561   6.955 -3.0403  2.2110 -1.1243
 8424SOL     OW36730   0.953   3.477   1.512  0.0541  0.0414 -0.5786
 8424SOL    HW136731   0.994   3.562   1.495 -0.0740  0.8275  3.0308
 8424SOL    HW236732   0.906   3.493   1.594  0.6368  2.8211 -0.7975
 8425SOL     OW36733   1.572   3.766   9.271  0.4656  0.0139  0.1491
 8425SOL    HW136734   1.605   3.681   9.241  2.0064  0.3637  0.8358
 8425SOL    HW236735   1.596   3.763   9.364 -0.0204  0.3290  0.2865
 8426SOL     OW36736   4.063   0.155  11.839 -0.0908  0.1082 -0.2203
 8426SOL    HW136737   4.033   0.109  11.918  1.0450 -1.2054 -0.5498
 8426SOL    HW236738   3.986   0.144  11.783 -0.8370 -3.5324  1.5299
 8427SOL     OW36739   0.808   3.617   3.287 -0.5250  0.2654 -0.0078
 8427SOL    HW136740   0.736   3.556   3.298  0.4594 -0.7071  1.0462
 8427SOL    HW236741   0.879   3.555   3.274 -0.4420  0.3520  0.0270
 8428SOL     OW36742   4.018   3.596   4.237 -0.0638 -0.5664 -0.3486
 8428SOL    HW136743   4.114   3.604   4.244 -0.2110  0.5025  0.5204
 8428SOL    HW236744   4.009   3.681   4.194  0.0992  1.3129  3.3284
 8429SOL     OW36745   1.243   3.312   7.873 -0.0411  0.1646 -0.2710
 8429SOL    HW136746   1.174   3.246   7.872  0.9112 -0.8459 -1.2501
 8429SOL    HW236747   1.222   3.360   7.793 -0.3961  1.2459  0.4739
 8430SOL     OW36748   2.621   2.408   6.341  0.1271 -0.1589 -0.5328
 8430SOL    HW136749   2.532   2.413   6.308 -0.0832 -1.0263 -0.0953
 8430SOL    HW236750   2.674   2.415   6.261  3.2537 -1.5676  1.3993
 8431SOL     OW36751   0.939   0.193   7.268  0.0565  0.4371 -0.6158
 8431SOL    HW136752   0.980   0.107   7.263 -3.2313 -1.1148 -1.2203
 8431SOL    HW236753   0.999   0.257   7.229  1.8081 -0.7253  0.2043
 8432SOL     OW36754   0.914   2.413   3.516 -0.4849 -0.1691  0.1773
 8432SOL    HW136755   0.997   2.460   3.515 -1.1368  0.9470 -1.1335
 8432SOL    HW236756   0.912   2.373   3.429  1.1557 -0.8609  0.4608
 8433SOL     OW36757   3.877   3.245   8.734  0.3299 -0.0757  0.1672
 8433SOL    HW136758   3.859   3.163   8.780 -1.4711  0.0333 -0.3346
 8433SOL    HW236759   3.972   3.248   8.746  0.4722  1.3791 -1.4370
 8434SOL     OW36760   2.606   0.234   4.992  0.0107 -0.0872  0.1209
 8434SOL    HW136761   2.645   0.200   5.073  1.8041  1.5052 -0.0857
 8434SOL    HW236762   2.673   0.210   4.928  0.6423 -0.4626  0.9260
 8435SOL     OW36763   1.003   1.900   8.350 -0.1956 -0.2767  0.1802
 8435SOL    HW136764   0.990   1.855   8.267  0.5802  0.1031 -0.1501
 8435SOL    HW236765   1.053   1.830   8.393  1.7165  1.6157  1.0716
 8436SOL     OW36766   3.221   3.735  16.860 -0.1910 -0.4934  0.6089
 8436SOL    HW136767   3.167   3.656  16.856  1.3441 -1.5857  1.4562
 8436SOL    HW236768   3.308   3.696  16.866  0.1905  0.1665 -0.6949
 8437SOL     OW36769   2.759   4.316   3.554 -0.4127 -0.7808  0.6436
 8437SOL    HW136770   2.825   4.374   3.516 -1.6411 -0.8560 -1.5830
 8437SOL    HW236771   2.747   4.238   3.501  0.5595 -1.1589  0.9805
 8438SOL     OW36772   0.160   3.987   6.350  0.2574  0.3049  0.5309
 8438SOL    HW136773   0.174   4.065   6.297  1.1811 -1.0433 -1.1879
 8438SOL    HW236774   0.246   3.970   6.390  1.1604  1.6918 -0.8163
 8439SOL     OW36775   3.050   3.565   8.569  0.3117  0.4881 -0.0751
 8439SOL    HW136776   3.040   3.606   8.483 -0.5144  1.2029  0.3704
 8439SOL    HW236777   2.974   3.507   8.573  2.0502 -1.8353  0.0099
 8440SOL     OW36778   2.148   0.805   6.815 -0.4421  0.2587 -0.4614
 8440SOL    HW136779   2.159   0.734   6.879  1.5896  0.9031 -0.0882
 8440SOL    HW236780   2.054   0.803   6.799 -0.1888 -3.1213 -1.5807
 8441SOL     OW36781   2.531   2.365   2.475 -0.1491 -0.5249  0.1007
 8441SOL    HW136782   2.541   2.389   2.383  0.4219  1.0259  0.5529
 8441SOL    HW236783   2.524   2.456   2.506 -0.2331 -0.5540  0.1678
 8442SOL     OW36784   0.776   1.866  12.921 -0.4477 -0.2014  0.7013
 8442SOL    HW136785   0.684   1.855  12.943 -0.2556  1.0330  2.1414
 8442SOL    HW236786   0.789   1.810  12.844  2.2538  1.0537  0.2104
 8443SOL     OW36787   0.308   0.735   3.265  0.4836 -0.2778  0.1694
 8443SOL    HW136788   0.390   0.687   3.264  0.4164 -0.3773 -0.6504
 8443SOL    HW236789   0.329   0.820   3.304  0.8976  0.8653 -2.5261
 8444SOL     OW36790   2.018   2.489   5.923 -0.0537 -0.1588  0.1153
 8444SOL    HW136791   2.069   2.570   5.919 -1.1577  0.5453  0.2065
 8444SOL    HW236792   1.930   2.524   5.935  0.2453  0.6847 -0.1351
 8445SOL     OW36793   3.099   1.178  11.931  0.0758  0.4320  0.2417
 8445SOL    HW136794   3.109   1.267  11.965  1.9883  0.1792  0.3145
 8445SOL    HW236795   3.191   1.156  11.918  0.2999 -0.2549  3.2062
 8446SOL     OW36796   2.385   3.701   7.375 -0.1490  0.0588 -0.2680
 8446SOL    HW136797   2.431   3.775   7.337  1.5124 -0.9465 -0.2250
 8446SOL    HW236798   2.372   3.719   7.468  2.4763  1.8507 -0.2691
 8447SOL     OW36799   4.457   1.018  16.206  0.3645 -0.0593 -0.0188
 8447SOL    HW136800   4.503   0.947  16.250  0.3485  0.4146  0.7701
 8447SOL    HW236801   4.368   0.983  16.203 -0.5391  2.2255 -0.0722
 8448SOL     OW36802   3.325   1.261  16.298 -0.3183 -0.5206  0.0367
 8448SOL    HW136803   3.338   1.347  16.338 -1.5798 -0.4669  0.3219
 8448SOL    HW236804   3.250   1.233  16.349 -0.6173 -0.0043 -0.1253
 8449SOL     OW36805   4.331   4.629   3.254  0.2895 -0.0890  0.1875
 8449SOL    HW136806   4.377   4.593   3.330 -1.7708  0.0212  1.4731
 8449SOL    HW236807   4.282   4.552   3.225  1.0770 -1.2063  1.7921
 8450SOL     OW36808   4.165   3.500   2.667 -0.2218 -0.0104 -0.3323
 8450SOL    HW136809   4.147   3.518   2.759  2.6173  0.2135  0.1665
 8450SOL    HW236810   4.203   3.414   2.678  0.9052  0.2742 -1.9650
 8451SOL     OW36811   2.918   1.643   4.791 -0.1379 -0.1735 -0.0069
 8451SOL    HW136812   2.910   1.575   4.724 -2.4335  0.0897  0.0119
 8451SOL    HW236813   3.012   1.630   4.800 -0.4314 -2.1411  0.2162
 8452SOL     OW36814   1.047   0.260   8.136  0.5471 -0.2042 -0.3244
 8452SOL    HW136815   1.118   0.322   8.118  2.2422 -2.2870 -0.7632
 8452SOL    HW236816   1.100   0.190   8.175 -0.7405 -0.3693  1.1311
 8453SOL     OW36817   3.014   4.335   4.863 -0.5495 -0.0273 -0.2552
 8453SOL    HW136818   2.953   4.268   4.894 -0.3477 -0.6980 -1.3090
 8453SOL    HW236819   3.039   4.287   4.784 -2.0989 -1.8945  0.3799
 8454SOL     OW36820   2.323   1.279   7.370  0.7312  0.2752  0.0961
 8454SOL    HW136821   2.343   1.220   7.297  0.0564  1.9705 -1.4575
 8454SOL    HW236822   2.378   1.239   7.437 -1.4184 -0.8609  1.1747
 8455SOL     OW36823   1.955   3.055   9.220 -0.1377 -0.0243  0.1603
 8455SOL    HW136824   1.883   3.051   9.283  1.0366 -0.8553  1.4534
 8455SOL    HW236825   2.023   3.104   9.267 -0.7004  0.4259  0.5060
 8456SOL     OW36826   3.634   2.601   6.694 -0.1142 -0.3605 -0.3602
 8456SOL    HW136827   3.596   2.689   6.706  1.5230  0.0786  1.5225
 8456SOL    HW236828   3.685   2.591   6.774  1.1675  1.7823 -0.8994
 8457SOL     OW36829   1.065   2.761   4.705 -0.3823 -1.0190  0.2139
 8457SOL    HW136830   1.108   2.740   4.621 -2.0627  0.9010 -1.1418
 8457SOL    HW236831   1.124   2.833   4.727  1.2028 -2.5637  1.0130
 8458SOL     OW36832   4.608   2.289   8.423  0.4367 -0.3078 -0.4968
 8458SOL    HW136833   4.693   2.246   8.438  1.2813  1.5606  0.0026
 8458SOL    HW236834   4.578   2.290   8.513 -0.1430 -1.9910 -0.6624
 8459SOL     OW36835   1.154   2.780   5.329 -0.4545 -0.0187 -0.0666
 8459SOL    HW136836   1.118   2.863   5.357  3.9140  1.0344  2.4151
 8459SOL    HW236837   1.118   2.713   5.387  0.5058 -0.7561 -0.3198
 8460SOL     OW36838   2.453   3.466   3.039 -0.1645  0.6813 -0.2730
 8460SOL    HW136839   2.543   3.433   3.039 -0.5854 -0.4600 -1.5930
 8460SOL    HW236840   2.432   3.456   2.946  1.3717  1.0141 -0.6673
 8461SOL     OW36841   0.492   4.098  10.007 -0.1253 -0.0478 -0.2931
 8461SOL    HW136842   0.450   4.184  10.011  3.1407  1.5315 -0.4109
 8461SOL    HW236843   0.554   4.112   9.936  0.4085  0.3269  0.2549
 8462SOL     OW36844   1.722   3.761   4.316 -0.3682 -0.0421 -1.0935
 8462SOL    HW136845   1.735   3.856   4.320  1.2680 -0.2957 -0.1312
 8462SOL    HW236846   1.718   3.747   4.222  0.4965 -3.7478 -0.5650
 8463SOL     OW36847   4.318   0.026   0.890 -0.4117 -0.1814 -0.0274
 8463SOL    HW136848   4.300   4.656   0.892 -2.2632  0.1919  0.7986
 8463SOL    HW236849   4.370   0.018   0.971  0.2607 -0.5369 -0.4938
 8464SOL     OW36850   3.465   1.082   8.012 -0.1627  0.5535  0.2971
 8464SOL    HW136851   3.449   0.996   8.050 -0.5294  0.1781 -0.6983
 8464SOL    HW236852   3.383   1.130   8.027  0.6184  2.4147 -1.4348
 8465SOL     OW36853   4.167   4.270   2.794  0.4594  0.6479  0.2452
 8465SOL    HW136854   4.163   4.363   2.813 -1.1884  0.6975 -0.3995
 8465SOL    HW236855   4.165   4.259   2.699  1.9141  0.7489  0.1915
 8466SOL     OW36856   0.968   1.413   5.167 -0.2005  0.0637 -0.2561
 8466SOL    HW136857   1.026   1.379   5.235  0.7254  1.1163 -0.5294
 8466SOL    HW236858   0.962   1.335   5.111  0.3951 -1.0268  1.2061
 8467SOL     OW36859   1.925   2.813   8.181 -0.0392 -0.3156  0.1674
 8467SOL    HW136860   1.945   2.749   8.249  0.9237  0.6999  0.8332
 8467SOL    HW236861   1.919   2.888   8.240 -0.5810  1.8060 -2.5476
 8468SOL     OW36862   3.859   4.350   2.843  0.0075 -0.2410 -0.3036
 8468SOL    HW136863   3.942   4.309   2.820 -0.0990  0.7453 -2.5010
 8468SOL    HW236864   3.827   4.386   2.760  1.4798 -0.9178 -1.1445
 8469SOL     OW36865   4.151   1.892   2.248  0.5218  0.3770 -0.2974
 8469SOL    HW136866   4.179   1.880   2.158  1.5031  0.3407  0.0102
 8469SOL    HW236867   4.183   1.976   2.280 -0.7661  1.0241 -0.7323
 8470SOL     OW36868   1.318   3.917   1.818  0.6561 -0.4911  0.3493
 8470SOL    HW136869   1.406   3.940   1.788  0.8046 -2.8224 -0.9898
 8470SOL    HW236870   1.314   3.930   1.913 -1.0833 -1.3288  0.3961
 8471SOL     OW36871   1.939   4.325   0.945  0.2095 -0.0499  0.2476
 8471SOL    HW136872   1.908   4.240   0.916 -2.6082  1.6878 -1.8488
 8471SOL    HW236873   1.855   4.368   0.964  0.4459  0.1447  0.8782
 8472SOL     OW36874   2.267   3.369  15.597 -0.1543 -0.3908 -0.5053
 8472SOL    HW136875   2.320   3.323  15.662 -1.5895  0.9738  1.6723
 8472SOL    HW236876   2.182   3.355  15.640 -0.5921  3.0320 -0.2705
 8473SOL     OW36877   1.413   2.803   0.392  0.5027 -0.0768 -0.5576
 8473SOL    HW136878   1.400   2.709   0.381 -3.0419  0.1447  1.6773
 8473SOL    HW236879   1.346   2.846   0.340  0.4982  0.0709 -0.4297
 8474SOL     OW36880   2.544   1.478  15.711  0.2482 -0.2081 -0.0396
 8474SOL    HW136881   2.489   1.534  15.656 -1.2057 -0.4623  1.1461
 8474SOL    HW236882   2.600   1.548  15.743 -0.0079 -0.5386  1.1205
 8475SOL     OW36883   3.328   3.616   5.773  0.2120  0.3794 -0.2094
 8475SOL    HW136884   3.295   3.527   5.784  0.2106  0.0055 -3.2527
 8475SOL    HW236885   3.243   3.652   5.748  0.7573  0.6767 -1.6548
 8476SOL     OW36886   2.883   0.249   7.200 -0.2965 -0.0184  0.0512
 8476SOL    HW136887   2.943   0.211   7.263 -0.3401  0.8046  0.5899
 8476SOL    HW236888   2.850   0.173   7.153  0.9949 -0.1539 -0.6438
 8477SOL     OW36889   0.973   1.303   6.971  0.1684 -0.1361  0.2851
 8477SOL    HW136890   1.029   1.224   6.968 -0.9770 -0.9987  1.7371
 8477SOL    HW236891   1.023   1.360   6.912 -0.2064  0.5284  0.6222
 8478SOL     OW36892   1.275   4.209   2.284  0.0666 -0.3896  0.7568
 8478SOL    HW136893   1.257   4.286   2.230  0.8991 -0.6547  0.0934
 8478SOL    HW236894   1.192   4.181   2.322 -0.9457  0.4007 -0.8545
 8479SOL     OW36895   1.539   0.847   5.913 -0.1241 -0.0107  0.1926
 8479SOL    HW136896   1.572   0.774   5.861  1.0896  1.0636 -0.5400
 8479SOL    HW236897   1.459   0.799   5.936 -0.5946  2.0086  2.6852
 8480SOL     OW36898   2.232   2.774   7.020 -0.4448 -0.1175 -0.3685
 8480SOL    HW136899   2.160   2.806   7.074 -0.7421 -0.4692 -0.5497
 8480SOL    HW236900   2.220   2.679   7.023 -0.7711 -0.1195 -1.5376
 8481SOL     OW36901   3.424   1.726   7.821  0.1877 -0.0171  0.1702
 8481SOL    HW136902   3.466   1.641   7.835  1.7458  0.4936 -1.3731
 8481SOL    HW236903   3.441   1.769   7.905  0.6472 -2.0989  1.1625
 8482SOL     OW36904   2.232   1.221  15.066 -0.1316  0.6251 -0.2575
 8482SOL    HW136905   2.235   1.145  15.008  2.9490  1.4392 -1.1854
 8482SOL    HW236906   2.174   1.187  15.134 -0.7605 -0.7442 -1.4772
 8483SOL     OW36907   4.382   2.448  10.568  0.1677 -0.3474  0.9566
 8483SOL    HW136908   4.332   2.507  10.511 -1.0731 -1.9413  0.4047
 8483SOL    HW236909   4.474   2.470  10.553  0.3485 -2.2982 -0.7654
 8484SOL     OW36910   2.668   0.343   1.116 -0.2954 -0.0222 -0.6844
 8484SOL    HW136911   2.725   0.274   1.082 -0.3853 -0.0616 -0.7542
 8484SOL    HW236912   2.667   0.412   1.049 -2.3154 -1.8997 -2.5506
 8485SOL     OW36913   1.654   2.113   8.682  0.5080  0.4298  0.2199
 8485SOL    HW136914   1.584   2.097   8.745  0.4566 -0.7814 -0.1466
 8485SOL    HW236915   1.629   2.199   8.649  0.7602  0.2635 -0.4153
 8486SOL     OW36916   4.366   0.729   7.888 -0.4825  0.3383 -0.0233
 8486SOL    HW136917   4.328   0.796   7.945  0.3097  2.0855 -1.5679
 8486SOL    HW236918   4.367   0.667   7.962  1.1786 -0.7586 -0.9753
 8487SOL     OW36919   2.700   4.687   2.189  1.0216  0.1468 -0.6076
 8487SOL    HW136920   2.670   0.026   2.123 -0.1509 -1.7123 -1.8607
 8487SOL    HW236921   2.755   0.016   2.246 -0.5535  0.9371  0.1766
 8488SOL     OW36922   1.961   4.717  14.802  0.1670 -0.1825  0.4705
 8488SOL    HW136923   2.021   0.042  14.747  0.1242 -0.7611 -0.0948
 8488SOL    HW236924   1.904   4.669  14.742  1.7428 -0.9886 -0.3643
 8489SOL     OW36925   3.878   0.265   7.217  0.0868  0.0073 -0.1131
 8489SOL    HW136926   3.820   0.309   7.156  0.1278  3.2415  2.1716
 8489SOL    HW236927   3.872   0.325   7.291  0.9217  1.2590 -1.0635
 8490SOL     OW36928   3.881   4.230   5.647 -0.0046 -0.0212 -0.2419
 8490SOL    HW136929   3.961   4.276   5.670  0.3566 -1.3105  1.0453
 8490SOL    HW236930   3.914   4.146   5.615  1.2116  0.3023  0.1695
 8491SOL     OW36931   3.472   0.117   1.693  0.4312  0.1726 -0.8284
 8491SOL    HW136932   3.408   0.149   1.756  2.0130 -3.0765  2.4313
 8491SOL    HW236933   3.524   0.061   1.750 -0.4483 -0.4741 -0.6584
 8492SOL     OW36934   1.931   4.608   7.909 -0.1984  0.0453  0.0324
 8492SOL    HW136935   2.009   4.602   7.854  0.6256  0.2796  1.1691
 8492SOL    HW236936   1.965   4.597   7.998 -1.6595  0.8803  0.6960
 8493SOL     OW36937   0.279   2.516   9.473  0.4597 -0.1810 -0.5087
 8493SOL    HW136938   0.341   2.537   9.404  0.4532  1.2758 -0.0865
 8493SOL    HW236939   0.293   2.424   9.495 -2.1828 -0.6087 -0.6162
 8494SOL     OW36940   2.169   2.175   8.603 -0.2400 -0.2868  0.1769
 8494SOL    HW136941   2.093   2.125   8.632 -0.4129 -1.0031 -1.5209
 8494SOL    HW236942   2.137   2.261   8.630 -0.3394 -0.0586 -0.6689
 8495SOL     OW36943   2.401   4.207   8.056 -0.5310  0.3543  0.1114
 8495SOL    HW136944   2.323   4.262   8.045 -0.0734  0.9333 -0.2489
 8495SOL    HW236945   2.421   4.244   8.141 -1.9356  1.2660  0.0482
 8496SOL     OW36946   3.297   1.877   5.219 -0.4376 -1.0758 -0.2978
 8496SOL    HW136947   3.278   1.849   5.130 -2.3653  0.5109 -0.3934
 8496SOL    HW236948   3.358   1.805   5.236  1.4575 -0.0146 -2.7256
 8497SOL     OW36949   1.543   0.046   5.076 -0.4788  0.1394 -0.6021
 8497SOL    HW136950   1.595   4.695   5.107 -0.4942  0.0177 -0.8670
 8497SOL    HW236951   1.605   0.119   5.073  0.7501 -0.8910 -0.4619
 8498SOL     OW36952   3.076   4.305  12.323 -0.0936 -0.5393 -0.4180
 8498SOL    HW136953   3.158   4.274  12.283 -0.3387 -1.2110 -0.4084
 8498SOL    HW236954   3.068   4.253  12.402  0.1438 -1.3961 -0.9538
 8499SOL     OW36955   1.989   4.058  10.620  0.3280 -0.6291  0.3071
 8499SOL    HW136956   2.046   3.984  10.596  0.2659 -1.0029  1.3374
 8499SOL    HW236957   2.042   4.125  10.577 -0.9664  0.8341  1.0202
 8500SOL     OW36958   4.416   3.055  14.026 -0.2278 -0.3606  0.4702
 8500SOL    HW136959   4.479   3.126  14.031  0.0889 -0.5392 -0.8028
 8500SOL    HW236960   4.417   3.028  14.118  0.1455 -2.2161 -0.0674
 8501SOL     OW36961   3.874   3.605   4.473  0.0740 -0.4389 -0.2004
 8501SOL    HW136962   3.921   3.539   4.525  1.1244 -0.4305 -1.1592
 8501SOL    HW236963   3.940   3.624   4.407 -0.5423 -3.4489 -1.7164
 8502SOL     OW36964   0.659   0.918   8.502  0.3387 -0.0105 -0.1615
 8502SOL    HW136965   0.579   0.963   8.526  0.6175 -0.0136  0.7715
 8502SOL    HW236966   0.700   0.998   8.469  1.5458 -0.2021  0.8705
 8503SOL     OW36967   1.791   0.263   4.138 -0.6104 -0.2723 -0.3571
 8503SOL    HW136968   1.886   0.270   4.134 -0.5411  0.2176  1.7914
 8503SOL    HW236969   1.770   0.257   4.045  0.7900 -1.1039 -0.6081
 8504SOL     OW36970   2.410   1.577   2.251  0.4036 -0.2271 -0.5528
 8504SOL    HW136971   2.484   1.631   2.224  1.3572 -0.6378  1.2619
 8504SOL    HW236972   2.448   1.490   2.266 -2.3518 -1.6833 -1.9469
 8505SOL     OW36973   0.920   0.884  12.414  0.5222  0.4474  0.1204
 8505SOL    HW136974   0.957   0.830  12.483 -0.2751 -0.9877 -0.5681
 8505SOL    HW236975   0.927   0.821  12.342 -0.2671 -0.1490  0.5645
 8506SOL     OW36976   0.727   2.844   8.657 -0.1245  0.5850 -0.7041
 8506SOL    HW136977   0.653   2.819   8.714 -0.5264  0.8743 -1.0997
 8506SOL    HW236978   0.690   2.924   8.619 -1.9131  0.3319  0.4868
 8507SOL     OW36979   4.121   2.696   3.221 -0.2382 -0.3434  0.2750
 8507SOL    HW136980   4.103   2.603   3.236  1.2648 -0.6959 -0.1227
 8507SOL    HW236981   4.086   2.737   3.300  0.8677  0.6981  0.2194
 8508SOL     OW36982   0.503   3.142   1.776  0.0221  0.1062  0.5210
 8508SOL    HW136983   0.448   3.186   1.840 -0.6343 -0.5747  0.4317
 8508SOL    HW236984   0.453   3.066   1.745 -0.7351  0.2039  1.5151
 8509SOL     OW36985   3.113   1.590   3.205  0.3564  0.2213 -0.1909
 8509SOL    HW136986   3.023   1.606   3.176  0.0496 -0.0177  0.6210
 8509SOL    HW236987   3.092   1.548   3.288  2.7653  1.3862  1.0318
 8510SOL     OW36988   2.350   1.528  17.320 -0.3574 -0.0731 -0.3162
 8510SOL    HW136989   2.314   1.452  17.274 -0.0976  0.2469 -1.0517
 8510SOL    HW236990   2.330   1.588  17.248  3.8617 -0.3924 -1.7092
 8511SOL     OW36991   2.002   1.847   3.814 -0.1725  0.0374  0.4091
 8511SOL    HW136992   1.970   1.849   3.723  0.7373  0.8072  0.0968
 8511SOL    HW236993   2.084   1.895   3.800  0.4105 -1.3226 -0.8254
 8512SOL     OW36994   4.440   1.230   7.025 -0.1217 -0.4990 -0.3092
 8512SOL    HW136995   4.423   1.203   6.934  0.2668  1.3401 -0.9318
 8512SOL    HW236996   4.492   1.309   7.010 -0.6530 -0.6743 -3.1900
 8513SOL     OW36997   3.185   1.038   5.798  0.5478 -0.0378  0.2435
 8513SOL    HW136998   3.198   1.017   5.890  2.4315 -4.5967 -1.0304
 8513SOL    HW236999   3.098   1.001   5.779  1.1158 -1.2431 -0.0266
 8514SOL     OW37000   0.438   4.217   5.917 -0.2131  0.4585  0.5163
 8514SOL    HW137001   0.461   4.220   6.009  0.8610 -5.1892  0.4666
 8514SOL    HW237002   0.404   4.306   5.912 -1.0632  0.2227  2.1701
 8515SOL     OW37003   0.829   2.588   8.792  0.9145 -0.4781 -0.0450
 8515SOL    HW137004   0.765   2.529   8.832  1.1908 -1.3570 -0.9060
 8515SOL    HW237005   0.779   2.661   8.755  0.7772  0.0252  1.1376
 8516SOL     OW37006   1.413   2.133   0.486 -0.1790 -0.3257 -0.5020
 8516SOL    HW137007   1.443   2.223   0.500  1.9543 -0.9969 -0.6757
 8516SOL    HW237008   1.324   2.157   0.462 -0.1178 -0.8337 -1.2206
 8517SOL     OW37009   1.133   3.331  17.320 -0.1906 -0.0155 -0.1184
 8517SOL    HW137010   1.093   3.396  17.377 -0.8744  1.4436 -2.2434
 8517SOL    HW237011   1.104   3.252  17.365  1.3145  0.4864  1.7146
 8518SOL     OW37012   0.388   4.282   2.524  0.6033  0.3636 -0.2267
 8518SOL    HW137013   0.319   4.310   2.464  0.8320  0.0692 -0.6249
 8518SOL    HW237014   0.385   4.187   2.511 -1.2139  0.8350 -3.0576
 8519SOL     OW37015   0.135   4.634   2.817  0.0127 -0.8302  0.1745
 8519SOL    HW137016   0.081   4.706   2.784 -1.6978 -1.7875  0.8978
 8519SOL    HW237017   0.072   4.574   2.857  1.5697 -2.4894  0.1191
 8520SOL     OW37018   2.406   2.531   4.183 -0.2592 -0.3856  0.0249
 8520SOL    HW137019   2.443   2.445   4.200  0.8326  0.2298  0.7748
 8520SOL    HW237020   2.340   2.539   4.251 -1.0267  0.1537 -0.7774
 8521SOL     OW37021   3.885   0.933  13.384  0.0087 -0.3271  0.0875
 8521SOL    HW137022   3.863   0.844  13.356 -2.0790  0.2317 -0.0209
 8521SOL    HW237023   3.981   0.928  13.386 -0.0195 -0.3785  1.1869
 8522SOL     OW37024   2.007   3.500  10.324  0.1311 -0.9319 -0.7103
 8522SOL    HW137025   1.964   3.469  10.244 -1.7815  1.8379 -0.7674
 8522SOL    HW237026   2.011   3.595  10.309 -1.2607 -0.6332  0.7498
 8523SOL     OW37027   0.462   1.258   9.322 -0.7588  0.4553  0.0742
 8523SOL    HW137028   0.484   1.175   9.278  0.6413  0.8881 -0.0630
 8523SOL    HW237029   0.534   1.269   9.384 -1.4278  0.2803  0.8757
 8524SOL     OW37030   1.236   3.277  17.080 -0.3715  0.9499 -0.2182
 8524SOL    HW137031   1.158   3.313  17.039  0.6636  3.6616  0.1947
 8524SOL    HW237032   1.212   3.299  17.170  0.2946  0.9873 -0.0520
 8525SOL     OW37033   2.295   2.126  11.041  0.3302 -0.1568 -0.0496
 8525SOL    HW137034   2.314   2.048  11.092 -1.3246 -1.5564 -1.5365
 8525SOL    HW237035   2.379   2.154  11.005  0.7762 -2.4783 -0.8355
 8526SOL     OW37036   1.882   1.256  13.404 -0.8571  0.1656  0.0545
 8526SOL    HW137037   1.976   1.266  13.415 -0.9682  1.0125  0.2244
 8526SOL    HW237038   1.886   1.162  13.421  1.8143  0.0090 -1.4931
 8527SOL     OW37039   3.877   1.116  10.660  0.1283  0.0145 -0.0596
 8527SOL    HW137040   3.947   1.137  10.721 -0.4414 -2.3820  1.3966
 8527SOL    HW237041   3.804   1.146  10.714 -0.3898 -2.7379  0.7592
 8528SOL     OW37042   4.018   4.013   0.003  0.4403  0.0308  0.2291
 8528SOL    HW137043   4.050   3.926  17.676 -1.6567 -0.1506 -1.8516
 8528SOL    HW237044   3.944   3.985   0.057  0.3096 -0.1948 -0.0671
 8529SOL     OW37045   1.103   4.256   0.991  0.0738 -0.1237 -0.0346
 8529SOL    HW137046   1.129   4.198   0.920  0.9779  1.1707 -0.7638
 8529SOL    HW237047   1.088   4.335   0.939  1.7376  1.3942  1.7813
 8530SOL     OW37048   3.865   1.784   6.778  0.1238 -0.4087 -0.0049
 8530SOL    HW137049   3.866   1.850   6.847  1.4627 -0.4214 -0.0150
 8530SOL    HW237050   3.875   1.706   6.833 -0.8108  0.0990  0.8783
 8531SOL     OW37051   1.408   3.612   6.762  0.2515  0.5792  0.4964
 8531SOL    HW137052   1.468   3.579   6.694  1.7819  1.1703  1.5627
 8531SOL    HW237053   1.454   3.573   6.836 -2.4675 -0.5559  1.5985
 8532SOL     OW37054   2.846   3.222  14.641  0.1215  0.4102 -0.2278
 8532SOL    HW137055   2.840   3.293  14.578  2.0060 -1.6387 -2.7230
 8532SOL    HW237056   2.826   3.153  14.578 -0.4168  0.3064  0.0600
 8533SOL     OW37057   1.749   0.418  12.771  0.1071 -0.5417  0.2054
 8533SOL    HW137058   1.674   0.453  12.820 -1.3013 -1.0219 -1.6241
 8533SOL    HW237059   1.700   0.352  12.721  0.5514 -2.0357  1.7235
 8534SOL     OW37060   2.321   1.305   1.834  0.2030  0.0233  0.8836
 8534SOL    HW137061   2.403   1.342   1.869  1.1083 -0.9908 -0.1576
 8534SOL    HW237062   2.265   1.382   1.845 -1.5053 -0.7672 -2.4166
 8535SOL     OW37063   3.127   3.557   3.521 -0.1252 -0.3330 -0.7526
 8535SOL    HW137064   3.105   3.464   3.515 -1.4529  0.0474 -1.5636
 8535SOL    HW237065   3.040   3.595   3.516  0.6515  1.4192 -1.0441
 8536SOL     OW37066   0.750   0.067   4.895  0.1814  0.1966  0.5023
 8536SOL    HW137067   0.661   0.033   4.898 -0.2687  1.2359 -0.9230
 8536SOL    HW237068   0.772   0.027   4.811  1.7613 -0.2945  1.1492
 8537SOL     OW37069   4.567   1.811   6.968 -0.0007 -0.2238 -0.3741
 8537SOL    HW137070   4.645   1.772   6.927 -0.4061 -0.9582 -0.4605
 8537SOL    HW237071   4.581   1.798   7.061 -0.1688  1.8408 -0.0751
 8538SOL     OW37072   2.906   0.307   5.619 -0.1846  0.1343  0.4733
 8538SOL    HW137073   2.949   0.238   5.669  0.2509  0.0411 -0.0211
 8538SOL    HW237074   2.927   0.384   5.671  0.9097 -0.4325  0.8787
 8539SOL     OW37075   3.803   1.016   4.652  0.3730  0.5539 -0.5555
 8539SOL    HW137076   3.867   0.952   4.683 -0.9549 -0.4393  0.1532
 8539SOL    HW237077   3.859   1.067   4.593  0.7658  0.3753 -0.3350
 8540SOL     OW37078   2.809   0.556   7.584 -0.2034 -0.4140 -0.7480
 8540SOL    HW137079   2.788   0.490   7.518 -0.1930 -0.6406 -0.5254
 8540SOL    HW237080   2.873   0.520   7.645  1.9634  1.9569 -1.6368
 8541SOL     OW37081   0.765   0.416   6.241  0.6487 -0.0065  0.2110
 8541SOL    HW137082   0.797   0.430   6.152 -1.6297  0.2395 -0.5673
 8541SOL    HW237083   0.732   0.500   6.272  2.3766  0.8713 -0.3671
 8542SOL     OW37084   4.565   4.299   6.669  0.1632 -0.1323  0.2860
 8542SOL    HW137085   4.593   4.325   6.756  1.2203  2.6257 -0.8680
 8542SOL    HW237086   4.492   4.239   6.686 -0.1068  0.3926  0.9999
 8543SOL     OW37087   1.037   1.176   3.513  0.4914  0.5429 -0.8560
 8543SOL    HW137088   1.057   1.153   3.604 -0.8330  3.7189  0.2170
 8543SOL    HW237089   1.085   1.257   3.499 -0.3761  1.6130  2.3401
 8544SOL     OW37090   0.810   1.540   5.709 -0.1893 -0.3264 -0.1384
 8544SOL    HW137091   0.845   1.530   5.798  1.7395  1.5567 -0.7155
 8544SOL    HW237092   0.822   1.450   5.678  2.0628 -0.2875  0.6723
 8545SOL     OW37093   0.313   2.464  10.017 -0.1357 -0.5270 -0.0531
 8545SOL    HW137094   0.368   2.451  10.094 -1.0640  0.6502  0.8018
 8545SOL    HW237095   0.318   2.560  10.010  0.1374 -0.4301  1.5007
 8546SOL     OW37096   0.457   4.618   3.200 -0.0099 -0.3272 -0.8119
 8546SOL    HW137097   0.493   4.581   3.119  2.9780  0.6091  0.1058
 8546SOL    HW237098   0.375   4.650   3.161  1.4013 -1.9039 -5.1156
 8547SOL     OW37099   3.186   3.620   5.406 -0.1712 -0.5493  0.3491
 8547SOL    HW137100   3.106   3.666   5.379  0.5485  0.8749  0.6172
 8547SOL    HW237101   3.153   3.554   5.466 -2.4011 -1.6996 -2.1807
 8548SOL     OW37102   1.533   2.137   5.604  0.0361  0.0258 -0.0375
 8548SOL    HW137103   1.591   2.117   5.677  0.3020 -0.6767 -0.4495
 8548SOL    HW237104   1.472   2.065   5.621 -1.8752  1.5179 -0.4754
 8549SOL     OW37105   2.767   2.732  15.238 -0.1790  0.1318 -0.4684
 8549SOL    HW137106   2.680   2.757  15.205 -0.7580  1.0741  1.8174
 8549SOL    HW237107   2.821   2.784  15.178 -0.9526  2.9950  1.3504
 8550SOL     OW37108   1.603   3.479   7.557  0.1044 -0.6811  0.1527
 8550SOL    HW137109   1.571   3.469   7.647 -0.7653  0.1329 -0.0574
 8550SOL    HW237110   1.522   3.477   7.506 -0.2671  3.0890  0.5399
 8551SOL     OW37111   3.761   4.130   0.934 -0.3481  0.4043  0.1908
 8551SOL    HW137112   3.770   4.136   1.029 -1.0788  0.2829  0.2667
 8551SOL    HW237113   3.668   4.113   0.918 -0.7478  1.3968  1.4468
 8552SOL     OW37114   4.236   4.397  12.832 -0.0066  0.7266 -0.6624
 8552SOL    HW137115   4.207   4.430  12.747  0.4680  0.2904 -0.9967
 8552SOL    HW237116   4.315   4.451  12.839 -0.1267  0.5516  2.0935
 8553SOL     OW37117   0.526   1.244  10.908  0.2544  0.3251  0.2541
 8553SOL    HW137118   0.506   1.197  10.827  1.4184 -1.2319  0.8465
 8553SOL    HW237119   0.583   1.177  10.947  1.2519  0.1449 -1.5235
 8554SOL     OW37120   2.839   0.662   3.691 -0.5695 -0.5131 -0.0584
 8554SOL    HW137121   2.776   0.653   3.762  1.1591 -0.3784  1.5145
 8554SOL    HW237122   2.918   0.686   3.740 -1.4333  1.4338  0.3776
 8555SOL     OW37123   1.813   4.434   1.603  0.7936 -0.2553  0.2214
 8555SOL    HW137124   1.885   4.376   1.577 -0.8527 -2.2483  0.0939
 8555SOL    HW237125   1.739   4.411   1.547 -2.3691  0.7809  4.0524
 8556SOL     OW37126   0.482   3.078   7.570 -0.3843  0.1301  0.4637
 8556SOL    HW137127   0.468   3.083   7.475  0.4595  3.2296  0.4954
 8556SOL    HW237128   0.406   3.024   7.594  1.1163 -1.5729  1.3510
 8557SOL     OW37129   4.505   0.940   7.765  0.1710 -0.4479 -0.1447
 8557SOL    HW137130   4.424   0.985   7.744  0.4580  1.0181  1.8934
 8557SOL    HW237131   4.470   0.863   7.810 -0.9100 -0.0068 -0.2324
 8558SOL     OW37132   2.251   3.663   3.089 -0.0592 -0.0417  0.0473
 8558SOL    HW137133   2.293   3.721   3.027 -0.3863 -0.4561 -0.5580
 8558SOL    HW237134   2.321   3.605   3.120 -0.1944 -2.4113 -4.0619
 8559SOL     OW37135   2.140   0.783  11.503  0.4093 -0.1333 -0.7186
 8559SOL    HW137136   2.069   0.728  11.537 -1.9117  2.9403 -0.6304
 8559SOL    HW237137   2.102   0.870  11.516  1.3389 -0.0939  1.7520
 8560SOL     OW37138   1.756   3.329   7.211 -0.6486  0.1127 -0.1532
 8560SOL    HW137139   1.681   3.389   7.212 -2.4396 -2.0975 -1.4640
 8560SOL    HW237140   1.783   3.326   7.303 -1.0850 -2.9087 -0.1303
 8561SOL     OW37141   4.152   4.014  10.676 -0.0065 -0.4392  0.2826
 8561SOL    HW137142   4.193   4.090  10.718 -1.1695  1.1911 -1.5238
 8561SOL    HW237143   4.196   3.941  10.719 -0.7092 -1.8697 -1.4537
 8562SOL     OW37144   4.431   2.868   2.551  0.0129 -0.1042  0.0055
 8562SOL    HW137145   4.435   2.964   2.547  4.6663 -0.3040 -0.4724
 8562SOL    HW237146   4.350   2.863   2.601  0.3714  1.8591  0.8015
 8563SOL     OW37147   0.331   0.847   8.151  0.3075 -0.3101  0.0532
 8563SOL    HW137148   0.359   0.852   8.060  0.4478 -3.1533 -0.0703
 8563SOL    HW237149   0.411   0.822   8.197  0.0135  1.2813  1.4072
 8564SOL     OW37150   0.036   1.268   0.034  0.1605 -0.0316 -0.1506
 8564SOL    HW137151   0.126   1.301   0.039 -0.1935  0.8321  0.5369
 8564SOL    HW237152   0.029   1.235   0.124 -0.6583 -0.8156 -0.5040
 8565SOL     OW37153   1.044   0.746   6.010  0.6060 -0.6409  0.5045
 8565SOL    HW137154   0.960   0.791   6.010  0.9516 -0.0007 -0.8570
 8565SOL    HW237155   1.074   0.762   5.921 -1.5523  1.4369  0.1594
 8566SOL     OW37156   2.756   3.019   3.693  0.3777  0.2333  0.1992
 8566SOL    HW137157   2.737   3.060   3.609  0.0828 -1.9284 -0.7856
 8566SOL    HW237158   2.670   2.987   3.721  0.1260  1.1886  0.5319
 8567SOL     OW37159   0.530   4.164  10.989  0.0880  0.2951 -0.2413
 8567SOL    HW137160   0.571   4.203  11.066  1.1745  1.4232 -1.3883
 8567SOL    HW237161   0.437   4.170  11.011  0.2670 -0.2765  0.6641
 8568SOL     OW37162   4.150   1.672   2.977 -0.4286 -0.4314  0.0954
 8568SOL    HW137163   4.238   1.691   2.946 -0.9262  0.6167 -0.6996
 8568SOL    HW237164   4.177   1.604   3.039 -2.8765 -1.4756  0.0289
 8569SOL     OW37165   3.228   4.323   5.722 -0.1044  0.1762  0.1613
 8569SOL    HW137166   3.212   4.231   5.702 -0.8895 -0.1219  2.1276
 8569SOL    HW237167   3.306   4.339   5.669 -1.2164  3.0031 -0.5977
 8570SOL     OW37168   4.645   3.609   4.653 -0.1610 -0.4713 -0.6556
 8570SOL    HW137169   4.562   3.655   4.648 -0.6078 -1.1403  0.5218
 8570SOL    HW237170   4.678   3.641   4.737  0.1601  0.4995 -1.1512
 8571SOL     OW37171   4.187   1.208   3.009 -0.1002 -0.4784 -0.3160
 8571SOL    HW137172   4.245   1.137   2.983  0.8425  1.1701 -2.6824
 8571SOL    HW237173   4.242   1.254   3.073  2.0909 -2.9119 -0.4583
 8572SOL     OW37174   4.094   0.671   4.946 -0.3635  0.0370 -0.1945
 8572SOL    HW137175   4.022   0.724   4.913  1.7632  1.1096 -3.0722
 8572SOL    HW237176   4.091   0.591   4.894 -1.6552  0.5772 -0.9465
 8573SOL     OW37177   2.930   3.884   3.360  0.3721 -0.8359 -0.9357
 8573SOL    HW137178   2.996   3.940   3.402 -0.7245  0.5004 -0.9916
 8573SOL    HW237179   2.910   3.816   3.424 -0.4257 -0.0739 -0.3767
 8574SOL     OW37180   1.242   4.472   4.330 -0.0998  0.0541 -0.6395
 8574SOL    HW137181   1.300   4.548   4.317 -0.5346  0.7062  1.2835
 8574SOL    HW237182   1.234   4.437   4.241 -2.1635  0.5683 -0.6576
 8575SOL     OW37183   3.638   2.479  14.586 -0.3437 -0.0070  0.0439
 8575SOL    HW137184   3.616   2.387  14.603  0.8233 -0.5850 -1.5938
 8575SOL    HW237185   3.640   2.516  14.674 -1.4780 -0.3272  0.2058
 8576SOL     OW37186   2.292   3.379  11.587  0.3677 -0.1282  0.0050
 8576SOL    HW137187   2.200   3.355  11.599  0.1282  1.4838  1.5439
 8576SOL    HW237188   2.289   3.475  11.582  0.7019  0.0278  2.3257
 8577SOL     OW37189   2.507   1.084   3.022  0.2204  0.2377  0.3764
 8577SOL    HW137190   2.586   1.138   3.026 -1.0512  2.1432 -0.4581
 8577SOL    HW237191   2.539   0.998   2.993  0.0773  0.8385 -1.5611
 8578SOL     OW37192   0.432   0.380   9.003 -0.4237  0.8281  0.3856
 8578SOL    HW137193   0.483   0.308   9.040 -0.2498  0.5970 -0.2924
 8578SOL    HW237194   0.501   0.445   8.991  0.2710  0.1465  0.6594
 8579SOL     OW37195   1.242   4.009  10.478 -0.1020 -0.7243  0.5342
 8579SOL    HW137196   1.174   3.980  10.417 -0.5171 -0.3698  0.8272
 8579SOL    HW237197   1.225   4.103  10.476  0.2063 -0.6581  1.5131
 8580SOL     OW37198   1.785   2.233   3.096 -0.4965 -0.4118 -0.7468
 8580SOL    HW137199   1.694   2.220   3.070 -0.9262 -1.1946  1.1625
 8580SOL    HW237200   1.808   2.141   3.087  0.0189 -0.4852  1.3558
 8581SOL     OW37201   1.535   3.957   3.951 -0.0985  0.2625  0.1134
 8581SOL    HW137202   1.507   3.866   3.959 -0.3010  0.2410 -0.7913
 8581SOL    HW237203   1.551   3.966   3.857 -0.4942  1.7950  0.1899
 8582SOL     OW37204   4.407   0.098   5.963 -0.7071 -0.1225 -0.1242
 8582SOL    HW137205   4.411   0.130   5.873 -0.5489 -1.6649 -0.6605
 8582SOL    HW237206   4.319   0.119   5.992 -0.6265  3.2798 -2.3022
 8583SOL     OW37207   0.364   4.082   1.833 -0.2251  0.4039 -0.4999
 8583SOL    HW137208   0.413   4.052   1.756 -2.4126 -1.4889 -1.1902
 8583SOL    HW237209   0.306   4.006   1.835 -0.8091  0.8017 -2.0156
 8584SOL     OW37210   4.671   2.314   3.968  0.2247 -0.3698  0.1973
 8584SOL    HW137211   4.677   2.380   4.038  0.7508  1.0209 -1.1557
 8584SOL    HW237212   4.580   2.289   3.986 -0.0482 -0.0062 -0.7081
 8585SOL     OW37213   0.054   0.598   5.202  0.4182 -0.2498  0.4473
 8585SOL    HW137214   0.058   0.682   5.156 -3.3516 -0.0767  0.4462
 8585SOL    HW237215   0.120   0.544   5.158 -2.7670 -3.6627 -0.0689
 8586SOL     OW37216   4.683   2.019   8.179 -0.9471 -0.1531 -0.1041
 8586SOL    HW137217   4.602   2.066   8.159 -0.5911 -0.7102 -2.8520
 8586SOL    HW237218   4.648   1.938   8.216 -0.4715 -0.4444 -0.2890
 8587SOL     OW37219   2.030   4.500  10.497  0.0195  0.4809 -0.3094
 8587SOL    HW137220   2.102   4.563  10.489  0.4212 -0.1404 -1.5726
 8587SOL    HW237221   1.982   4.542  10.425 -0.9147 -1.2928 -0.7105
 8588SOL     OW37222   1.821   1.004   7.922  0.3894 -0.4984  0.2063
 8588SOL    HW137223   1.903   0.979   7.963 -0.5416  0.0727  2.4350
 8588SOL    HW237224   1.848   1.009   7.830 -1.0307 -1.5565 -0.2723
 8589SOL     OW37225   4.606   3.194   6.782 -0.1358  0.0119 -0.1346
 8589SOL    HW137226   4.613   3.101   6.805 -0.2251 -0.6206 -2.7288
 8589SOL    HW237227   4.575   3.237   6.862  0.6200 -0.5522  0.4750
 8590SOL     OW37228   4.193   4.438   6.687 -0.6548  0.5089 -0.1300
 8590SOL    HW137229   4.153   4.374   6.627 -0.8968 -0.4229  1.0222
 8590SOL    HW237230   4.260   4.470   6.626  1.5052 -0.0285  1.9598
 8591SOL     OW37231   0.291   2.218   5.684 -0.1298  0.2621 -0.3902
 8591SOL    HW137232   0.268   2.310   5.683 -0.4276  0.1831 -1.4364
 8591SOL    HW237233   0.384   2.223   5.663 -0.5206  1.6890 -1.7379
 8592SOL     OW37234   2.795   1.769   8.093  0.3931  0.7755 -0.5937
 8592SOL    HW137235   2.713   1.781   8.045  0.0503 -2.2327 -0.7663
 8592SOL    HW237236   2.839   1.852   8.076  0.7440  0.5310 -0.8797
 8593SOL     OW37237   0.836   1.154   1.595  0.2267  0.1248  0.5695
 8593SOL    HW137238   0.749   1.192   1.605 -1.0663 -1.8464 -3.2459
 8593SOL    HW237239   0.891   1.201   1.657 -0.0214  0.1055  0.8037
 8594SOL     OW37240   2.847   1.299  13.582  0.0011 -0.2313 -0.3742
 8594SOL    HW137241   2.792   1.377  13.587  1.6682  0.9977 -1.1440
 8594SOL    HW237242   2.858   1.277  13.675 -5.0656  0.2535  0.3330
 8595SOL     OW37243   0.043   2.659   8.407  0.0921 -0.3525 -0.2284
 8595SOL    HW137244   4.675   2.686   8.403  0.0967 -0.4458 -0.9370
 8595SOL    HW237245   0.057   2.643   8.500  0.1161  0.4205 -0.0973
 8596SOL     OW37246   2.066   3.058   3.884 -0.4816 -0.2665 -0.5565
 8596SOL    HW137247   2.044   3.081   3.974 -0.3465  0.5675 -0.7341
 8596SOL    HW237248   2.096   3.141   3.846  1.8189 -0.1117  1.6020
 8597SOL     OW37249   3.680   1.581   3.762 -0.0648 -0.4730  0.3212
 8597SOL    HW137250   3.619   1.643   3.722  0.7946  0.3568  0.2768
 8597SOL    HW237251   3.625   1.506   3.782 -1.3461 -0.6667 -3.9761
 8598SOL     OW37252   2.776   0.638  17.218 -0.2395  0.4204  0.3852
 8598SOL    HW137253   2.818   0.698  17.279  1.9153  1.0077 -1.6639
 8598SOL    HW237254   2.844   0.634  17.151 -0.2505  2.4500  0.2813
 8599SOL     OW37255   3.012   0.074   7.411 -0.6622 -0.1653 -0.0389
 8599SOL    HW137256   2.936   0.049   7.463 -1.4417 -0.2873 -1.2426
 8599SOL    HW237257   3.065   0.127   7.471  1.5081 -0.8118 -1.3961
 8600SOL     OW37258   0.744   2.509   4.903 -0.0759  0.8003 -0.1156
 8600SOL    HW137259   0.757   2.582   4.842  0.7712  2.2803  1.8066
 8600SOL    HW237260   0.834   2.485   4.926  0.3839  1.4008 -1.2642
 8601SOL     OW37261   1.235   3.176   5.806  0.0266 -0.2079 -0.1682
 8601SOL    HW137262   1.143   3.197   5.821  0.0891 -1.5263  2.1553
 8601SOL    HW237263   1.236   3.175   5.711 -0.8707 -0.8635 -0.1665
 8602SOL     OW37264   2.476   1.308   4.371  0.1960 -0.1602  0.3164
 8602SOL    HW137265   2.393   1.326   4.328 -0.1511  1.1976  1.5129
 8602SOL    HW237266   2.538   1.288   4.301 -0.1857  0.0173 -0.0671
 8603SOL     OW37267   2.802   0.145   3.021  0.3477  0.4612 -0.0770
 8603SOL    HW137268   2.871   0.210   3.005 -0.6570  1.4808 -0.2683
 8603SOL    HW237269   2.740   0.192   3.077 -0.0304 -0.1585  0.0288
 8604SOL     OW37270   4.641   3.562   2.806 -0.3381 -0.1377 -0.2964
 8604SOL    HW137271   4.693   3.481   2.814  1.1249  0.7254 -0.9734
 8604SOL    HW237272   4.708   3.622   2.839  0.4479 -0.4795 -1.2562
 8605SOL     OW37273   1.342   0.218   4.699  0.2421 -0.5715 -0.4461
 8605SOL    HW137274   1.284   0.255   4.766  1.1560 -1.6541  0.9219
 8605SOL    HW237275   1.406   0.289   4.695  0.4838 -0.8170 -0.9185
 8606SOL     OW37276   0.921   3.498   2.497  0.1038 -0.5336 -0.5464
 8606SOL    HW137277   0.995   3.557   2.485 -0.1680  0.1894  1.3609
 8606SOL    HW237278   0.961   3.415   2.523  1.1662  0.3855  0.7722
 8607SOL     OW37279   1.124   4.289  12.131  0.0695 -0.1490 -0.1936
 8607SOL    HW137280   1.122   4.253  12.220 -0.8369 -0.4054 -0.3204
 8607SOL    HW237281   1.217   4.313  12.135 -0.3303  1.1175  1.4274
 8608SOL     OW37282   0.771   4.515   5.600 -0.2905 -0.3401  0.3979
 8608SOL    HW137283   0.862   4.498   5.624  0.2045  0.9067 -0.5851
 8608SOL    HW237284   0.736   4.549   5.683 -2.0774 -2.9171  0.6916
 8609SOL     OW37285   3.149   1.838   4.105  0.3763 -0.0059  0.1431
 8609SOL    HW137286   3.125   1.799   4.021 -0.2743 -3.3552  1.8830
 8609SOL    HW237287   3.069   1.886   4.124  0.3260 -0.0302 -0.0122
 8610SOL     OW37288   0.089   4.250  13.531  0.1456 -0.0242  0.0444
 8610SOL    HW137289   0.030   4.181  13.499 -0.0225  1.1056 -2.1133
 8610SOL    HW237290   0.146   4.262  13.455  1.2273  1.5255  1.0863
 8611SOL     OW37291   2.831   2.269   6.528  0.1723 -0.4214  0.5834
 8611SOL    HW137292   2.761   2.313   6.481  0.8908  1.0186  0.8519
 8611SOL    HW237293   2.856   2.204   6.462 -0.7105  0.2773 -0.4304
 8612SOL     OW37294   1.541   3.782   1.581  0.0978 -0.4558  0.2759
 8612SOL    HW137295   1.513   3.761   1.492  0.5593 -1.0965  0.2807
 8612SOL    HW237296   1.614   3.720   1.587  0.4388 -0.0564  0.1956
 8613SOL     OW37297   1.925   3.718   0.550 -0.2960  0.0404 -0.0039
 8613SOL    HW137298   1.908   3.790   0.490 -1.7527  0.0743  0.4551
 8613SOL    HW237299   2.020   3.726   0.560 -0.3131  2.0549 -1.5560
 8614SOL     OW37300   1.472   1.518   1.869 -0.1635 -0.1499 -0.2237
 8614SOL    HW137301   1.493   1.562   1.952 -1.4026  0.7990 -0.4138
 8614SOL    HW237302   1.409   1.585   1.842 -1.3660 -1.7816 -1.4037
 8615SOL     OW37303   0.342   2.104   3.022 -0.3830  0.0189 -0.0933
 8615SOL    HW137304   0.324   2.167   3.091  0.7074  0.0241  0.1774
 8615SOL    HW237305   0.390   2.160   2.962 -1.0322  1.2584  0.5547
 8616SOL     OW37306   4.316   3.954   9.672  0.3498 -0.4867  0.6450
 8616SOL    HW137307   4.291   4.020   9.608  3.6022  0.1895  0.1108
 8616SOL    HW237308   4.343   3.884   9.613  2.4680 -1.6978  3.0587
 8617SOL     OW37309   2.877   1.548   6.460 -0.1443 -0.5334 -0.0144
 8617SOL    HW137310   2.931   1.624   6.437 -0.8676  0.5916  1.9731
 8617SOL    HW237311   2.815   1.599   6.512  1.5269  0.2975  1.1501
 8618SOL     OW37312   4.512   3.081   9.384  0.1150  0.1577 -0.2153
 8618SOL    HW137313   4.574   3.125   9.326 -1.8733  1.9605 -0.9587
 8618SOL    HW237314   4.554   2.997   9.402 -1.1811 -0.6104 -0.7758
 8619SOL     OW37315   0.146   0.438   9.155 -0.5262 -0.0267  0.6639
 8619SOL    HW137316   0.189   0.387   9.087 -2.1186  3.9675 -3.3015
 8619SOL    HW237317   0.178   0.394   9.234 -0.5490 -0.1151  0.6243
 8620SOL     OW37318   3.704   4.629   5.074 -0.2886  0.1594  0.8408
 8620SOL    HW137319   3.659   4.615   5.157  2.3117  0.2618  2.2687
 8620SOL    HW237320   3.799   4.619   5.082 -0.2057  0.1325 -0.1873
 8621SOL     OW37321   1.051   4.053  13.945 -0.8710  0.5557 -0.0197
 8621SOL    HW137322   1.042   4.148  13.943  1.9579  0.8259 -0.1021
 8621SOL    HW237323   1.021   4.027  13.858  1.6344 -0.0091 -0.7219
 8622SOL     OW37324   2.935   0.962   1.431  0.1782  0.2148 -0.3194
 8622SOL    HW137325   2.905   1.050   1.406 -0.3974  0.3765  0.9187
 8622SOL    HW237326   3.030   0.965   1.443 -0.2560 -0.5329  3.5375
 8623SOL     OW37327   3.466   0.714   8.566  0.0230 -0.0631 -0.2609
 8623SOL    HW137328   3.382   0.703   8.611 -0.1319  0.0984 -0.5062
 8623SOL    HW237329   3.472   0.810   8.559  3.5450 -0.4340 -1.8249
 8624SOL     OW37330   3.539   3.439   0.664 -0.1111 -0.0481 -0.9078
 8624SOL    HW137331   3.588   3.359   0.646 -0.1787  0.2844 -2.5631
 8624SOL    HW237332   3.579   3.472   0.744 -1.1535  2.5756 -1.4840
 8625SOL     OW37333   0.230   3.826  12.281 -0.4365  0.1665  0.4089
 8625SOL    HW137334   0.303   3.876  12.316 -0.3360 -0.4310  1.0633
 8625SOL    HW237335   0.272   3.761  12.225  0.1079  1.8482 -1.1255
 8626SOL     OW37336   3.006   4.456  16.085 -0.0367 -0.5035 -0.0933
 8626SOL    HW137337   3.041   4.438  15.998  0.5873  1.8489 -0.3398
 8626SOL    HW237338   3.063   4.411  16.147 -0.1171 -0.0450  0.3180
 8627SOL     OW37339   1.816   1.264   6.146 -0.4634  0.3234 -0.1582
 8627SOL    HW137340   1.721   1.271   6.146 -0.4015  1.1529  0.4343
 8627SOL    HW237341   1.839   1.234   6.058  1.1539  2.0971 -0.3343
 8628SOL     OW37342   3.339   3.029   8.775 -0.0777 -0.2661 -1.0875
 8628SOL    HW137343   3.283   3.018   8.698 -1.4394  0.5689 -0.2075
 8628SOL    HW237344   3.377   3.115   8.755 -2.2462  0.9719  0.0870
 8629SOL     OW37345   3.902   3.423   9.419  0.1697 -0.1627 -0.1106
 8629SOL    HW137346   3.919   3.517   9.422  1.8641 -0.4277 -1.8772
 8629SOL    HW237347   3.878   3.414   9.511  1.5289 -1.6293  0.0980
 8630SOL     OW37348   1.945   3.018   3.451  0.5182  0.4371  0.4100
 8630SOL    HW137349   1.860   2.980   3.428  0.5671  1.0857 -0.8166
 8630SOL    HW237350   1.916   3.093   3.502 -2.4102  1.1507 -2.3428
 8631SOL     OW37351   3.600   3.611   1.438  0.1717 -0.2384  0.6774
 8631SOL    HW137352   3.512   3.640   1.464 -0.5034  0.3658 -2.2541
 8631SOL    HW237353   3.641   3.570   1.514  0.0995 -1.9109 -0.1859
 8632SOL     OW37354   3.334   2.955  15.977 -0.0454  0.1427  0.0031
 8632SOL    HW137355   3.364   2.931  15.889 -0.0351 -2.7812  0.7986
 8632SOL    HW237356   3.243   2.941  15.952 -0.0099 -0.4885  0.2147
 8633SOL     OW37357   4.390   4.525   2.756 -0.1930  0.5994  0.2224
 8633SOL    HW137358   4.296   4.523   2.771 -0.3506 -1.6558 -0.9404
 8633SOL    HW237359   4.416   4.590   2.821  2.9999  0.5193 -0.9544
 8634SOL     OW37360   4.593   4.442   5.073 -0.0189  0.8100  0.1800
 8634SOL    HW137361   4.584   4.361   5.121 -0.5839  0.3993 -0.6208
 8634SOL    HW237362   4.529   4.491   5.124  0.2227 -1.0079  2.1961
 8635SOL     OW37363   4.658   2.415   7.105 -0.3227  0.1188 -0.7085
 8635SOL    HW137364   0.001   2.417   7.173 -0.9773 -2.2161  0.0169
 8635SOL    HW237365   4.708   2.466   7.042  1.9357 -0.7254  0.4071
 8636SOL     OW37366   1.789   1.009   4.624 -0.2206 -0.4204  0.5419
 8636SOL    HW137367   1.870   1.044   4.659 -0.3704  0.7835 -0.2866
 8636SOL    HW237368   1.740   1.003   4.706  0.7935 -1.4951  1.0541
 8637SOL     OW37369   1.232   1.870   6.857 -0.0155  0.2640 -0.0786
 8637SOL    HW137370   1.325   1.891   6.853  0.0649 -0.1732 -0.5281
 8637SOL    HW237371   1.197   1.911   6.778  1.4545 -0.4038 -1.0668
 8638SOL     OW37372   0.890   2.886  17.486 -0.6702 -0.1630  0.2006
 8638SOL    HW137373   0.817   2.939  17.455  0.0414  1.4669  1.2853
 8638SOL    HW237374   0.967   2.936  17.459 -0.8803  0.1266  0.1345
 8639SOL     OW37375   2.602   1.575   7.598 -0.4755  0.5584  0.0970
 8639SOL    HW137376   2.606   1.623   7.680 -1.0033 -0.2646  0.5985
 8639SOL    HW237377   2.554   1.636   7.541 -0.4106  0.6604  0.1501
 8640SOL     OW37378   3.907   4.126   5.906  0.1095  0.6019  0.2793
 8640SOL    HW137379   3.854   4.173   5.842  0.2715  0.3834 -0.0116
 8640SOL    HW237380   3.976   4.084   5.855  0.7339  0.9246  0.8577
 8641SOL     OW37381   3.114   3.913  11.441  0.3078  0.7124  0.3324
 8641SOL    HW137382   3.179   3.953  11.383 -0.3351  2.5800  0.9335
 8641SOL    HW237383   3.041   3.954  11.396  0.0886  1.2132  1.1421
 8642SOL     OW37384   2.227   1.273   9.942  0.2756  0.4124 -0.4577
 8642SOL    HW137385   2.153   1.333   9.936 -0.8006 -1.0102 -1.5550
 8642SOL    HW237386   2.244   1.235   9.856 -0.1791 -0.0975 -0.3282
 8643SOL     OW37387   3.655   0.823   1.596 -0.0601 -0.2865 -0.0493
 8643SOL    HW137388   3.731   0.848   1.650 -0.5836  0.8331  0.1649
 8643SOL    HW237389   3.635   0.738   1.633 -0.5339  0.4497  1.3912
 8644SOL     OW37390   4.031   2.728  15.981  0.1666 -0.3025  0.9408
 8644SOL    HW137391   3.997   2.766  16.062 -2.4479 -0.1805 -0.2103
 8644SOL    HW237392   3.968   2.745  15.911  0.5366 -2.1152  0.1759
 8645SOL     OW37393   3.420   3.291   8.724  0.3785 -0.0263 -0.1465
 8645SOL    HW137394   3.493   3.345   8.695 -0.3994  1.1484  0.1136
 8645SOL    HW237395   3.344   3.340   8.693  0.8706 -0.6253 -2.2643
 8646SOL     OW37396   4.283   1.739   3.761 -0.2194  0.1199  0.4566
 8646SOL    HW137397   4.278   1.770   3.851 -1.4264 -3.6261  1.6796
 8646SOL    HW237398   4.225   1.802   3.717  0.6727  0.3047 -0.4685
 8647SOL     OW37399   2.506   1.995  16.032 -0.1961  0.0202 -0.7272
 8647SOL    HW137400   2.583   2.013  15.979 -0.9942  0.5706 -1.6869
 8647SOL    HW237401   2.523   1.914  16.080  0.1660 -0.3240 -1.4453
 8648SOL     OW37402   3.109   0.392  15.741  0.1830 -0.0652 -0.0312
 8648SOL    HW137403   3.068   0.440  15.669  0.6351 -0.8963 -0.8491
 8648SOL    HW237404   3.081   0.301  15.728  2.3337 -0.8728  0.9988
 8649SOL     OW37405   1.252   3.556  12.658  0.3811  0.3263  0.1706
 8649SOL    HW137406   1.226   3.483  12.715 -0.7285  0.0419 -0.6855
 8649SOL    HW237407   1.300   3.502  12.596  0.4665  1.5374 -0.8073
 8650SOL     OW37408   0.934   0.886   6.885 -0.6375  0.2350 -0.2066
 8650SOL    HW137409   0.961   0.806   6.839 -1.8834 -0.1520 -0.2798
 8650SOL    HW237410   0.987   0.949   6.836  1.9369  0.2986  2.6301
 8651SOL     OW37411   3.280   3.787   8.687 -0.0094  0.2821  0.2363
 8651SOL    HW137412   3.221   3.802   8.761  1.3363  1.0897  1.1539
 8651SOL    HW237413   3.333   3.719   8.729  1.9033 -0.1000 -2.7964
 8652SOL     OW37414   2.206   0.788   7.329 -0.4357 -0.0282 -0.5750
 8652SOL    HW137415   2.166   0.827   7.408  2.2246 -0.4227  0.9805
 8652SOL    HW237416   2.154   0.840   7.267 -2.7544 -0.7936  0.7336
 8653SOL     OW37417   1.161   4.708   3.972 -0.0113  0.0955 -0.6834
 8653SOL    HW137418   1.075   0.022   3.988  0.3428 -0.3614  2.2811
 8653SOL    HW237419   1.151   4.628   4.024 -0.9234 -0.8086 -2.2467
 8654SOL     OW37420   1.570   1.216  10.000 -0.2942 -0.2081 -0.0002
 8654SOL    HW137421   1.559   1.310  10.013 -0.2797 -0.0397 -1.2575
 8654SOL    HW237422   1.603   1.192  10.087 -0.9055 -0.5260  0.1463
 8655SOL     OW37423   2.685   3.460  13.594 -0.1374 -0.0866  0.4985
 8655SOL    HW137424   2.679   3.449  13.689  2.9443  1.0953  0.8322
 8655SOL    HW237425   2.715   3.551  13.588 -2.3572  0.6351  0.4762
 8656SOL     OW37426   2.014   2.713  16.809 -0.2422 -0.3345 -0.1614
 8656SOL    HW137427   2.002   2.688  16.901  1.4457 -0.7299 -0.0521
 8656SOL    HW237428   1.922   2.706  16.784 -0.0093  2.7442 -1.9164
 8657SOL     OW37429   3.263   4.354   4.278  0.1022  0.6770 -0.1043
 8657SOL    HW137430   3.208   4.306   4.216  0.0506  1.5805 -0.7639
 8657SOL    HW237431   3.275   4.444   4.246 -0.0298  0.6892 -0.1187
 8658SOL     OW37432   0.287   1.263   8.023  0.6400  0.5523  0.2106
 8658SOL    HW137433   0.205   1.220   8.000  1.2915  0.3095 -1.7534
 8658SOL    HW237434   0.324   1.222   8.101  0.5479  0.1246  0.0288
 8659SOL     OW37435   3.576   4.627  12.779  0.8250  0.9499  0.1762
 8659SOL    HW137436   3.535   4.558  12.727  0.9654  0.9858  0.0157
 8659SOL    HW237437   3.619   4.585  12.854 -1.6838 -2.5058 -0.3228
 8660SOL     OW37438   0.115   0.975   3.059  0.1369  0.2326  0.0675
 8660SOL    HW137439   0.047   0.922   3.100 -0.9183 -0.2977 -2.3751
 8660SOL    HW237440   0.100   0.950   2.967  3.3014 -0.7024 -0.2205
 8661SOL     OW37441   3.862   2.518   5.583 -0.3128  0.4358 -0.0252
 8661SOL    HW137442   3.911   2.571   5.646  0.4877  1.9864 -1.9551
 8661SOL    HW237443   3.785   2.571   5.562 -1.1186 -0.0603  1.6713
 8662SOL     OW37444   1.502   3.276  17.089  0.6933 -0.4177  0.2058
 8662SOL    HW137445   1.416   3.316  17.076  0.2041 -1.0057  1.5419
 8662SOL    HW237446   1.488   3.230  17.172 -3.9921  1.2423  0.3203
 8663SOL     OW37447   2.766   4.257  15.903 -0.2270  0.2625 -0.2099
 8663SOL    HW137448   2.847   4.256  15.852  0.1612 -0.1752  0.4085
 8663SOL    HW237449   2.743   4.349  15.895  1.3048  0.6777  0.2347
 8664SOL     OW37450   4.259   2.979   4.446  0.0211  0.0453 -0.6746
 8664SOL    HW137451   4.181   3.009   4.492 -0.7042  0.8440 -2.3973
 8664SOL    HW237452   4.323   2.990   4.516 -1.2391  0.7306  0.3697
 8665SOL     OW37453   2.399   0.983   3.297  0.2061  0.0548  0.0343
 8665SOL    HW137454   2.483   0.991   3.341 -0.3717  1.4082  0.8762
 8665SOL    HW237455   2.427   0.963   3.208 -1.3143  2.2353 -0.9553
 8666SOL     OW37456   2.935   2.791  13.955  0.5083 -0.0428  0.3188
 8666SOL    HW137457   3.011   2.802  13.898  0.7967  1.0225  0.9037
 8666SOL    HW237458   2.862   2.814  13.898  0.1283 -0.8396  0.4933
 8667SOL     OW37459   1.232   0.699  14.458  0.1278 -0.1542  0.0983
 8667SOL    HW137460   1.247   0.690  14.364 -0.4763  2.7076 -0.2857
 8667SOL    HW237461   1.251   0.791  14.478  0.5926 -0.2551  0.1297
 8668SOL     OW37462   3.404   4.216   8.404 -0.8193  0.0320  0.0962
 8668SOL    HW137463   3.487   4.175   8.430 -1.6923  0.0222  2.8486
 8668SOL    HW237464   3.433   4.305   8.385 -0.0684 -0.1734  0.2703
 8669SOL     OW37465   0.067   2.401   6.867  0.8548  0.4246  0.1648
 8669SOL    HW137466   0.070   2.310   6.897 -0.0951  0.9040  1.7180
 8669SOL    HW237467   0.150   2.421   6.824 -0.8610  3.4168 -1.7286
 8670SOL     OW37468   0.673   2.873   7.450  0.0476  0.1832 -0.6985
 8670SOL    HW137469   0.610   2.918   7.506  1.3202 -1.8870  2.3929
 8670SOL    HW237470   0.751   2.924   7.473 -1.1069  0.5035  2.4176
 8671SOL     OW37471   3.093   2.222   4.089  0.2909 -0.0545  0.5034
 8671SOL    HW137472   3.148   2.254   4.016  0.0120  1.2832  0.8787
 8671SOL    HW237473   3.042   2.300   4.111  1.9760  1.0192  0.5970
 8672SOL     OW37474   4.018   0.240   4.583  0.7442 -0.4250 -0.1307
 8672SOL    HW137475   4.026   0.162   4.528 -0.5659 -0.4184 -0.3493
 8672SOL    HW237476   3.926   0.259   4.564  0.8175 -0.8038 -0.8972
 8673SOL     OW37477   3.026   3.934   4.720 -0.1561 -0.0428 -0.5427
 8673SOL    HW137478   2.964   3.868   4.751 -1.2594  0.7554 -1.0482
 8673SOL    HW237479   3.073   3.893   4.648  1.3996 -1.1434  1.1043
 8674SOL     OW37480   3.388   0.537   6.560 -0.2684  0.1816  0.5063
 8674SOL    HW137481   3.348   0.513   6.644  5.2883  0.8392  3.2947
 8674SOL    HW237482   3.426   0.623   6.579  1.0272 -0.1761 -0.5119
 8675SOL     OW37483   4.075   1.149   4.946  0.4658  0.5237  0.0509
 8675SOL    HW137484   4.070   1.238   4.911 -1.5272 -0.5476 -2.3681
 8675SOL    HW237485   4.165   1.122   4.965 -0.7689 -3.3377  0.2845
 8676SOL     OW37486   3.940   3.332   5.507  0.1706 -0.1440  0.5697
 8676SOL    HW137487   3.907   3.316   5.596 -1.9487 -1.7982 -0.4952
 8676SOL    HW237488   3.859   3.323   5.457  1.3194 -1.3585 -1.0682
 8677SOL     OW37489   0.627   2.130   4.282  0.2614 -0.8109  0.2613
 8677SOL    HW137490   0.584   2.045   4.293  1.3745 -1.3585  0.3991
 8677SOL    HW237491   0.565   2.188   4.328 -0.0612 -1.7856  1.0664
 8678SOL     OW37492   1.829   1.415   1.133  0.1678 -0.1261  0.2217
 8678SOL    HW137493   1.820   1.428   1.038 -0.5635  1.6794  0.5432
 8678SOL    HW237494   1.741   1.438   1.161 -0.1286  0.8273 -1.4558
 8679SOL     OW37495   1.423   3.692   3.765 -0.1496 -0.3295  0.1291
 8679SOL    HW137496   1.514   3.672   3.789 -0.3024 -0.3235  0.7082
 8679SOL    HW237497   1.384   3.605   3.752 -1.3723  0.3333 -0.5340
 8680SOL     OW37498   1.086   2.218   2.341  0.1868  0.0911 -0.3482
 8680SOL    HW137499   1.034   2.296   2.322 -1.6518 -1.0291  0.0693
 8680SOL    HW237500   1.108   2.189   2.253  2.8728 -0.5878  0.5401
 8681SOL     OW37501   0.909   0.730   3.759 -0.4172 -0.4765  0.4048
 8681SOL    HW137502   0.917   0.649   3.707  0.1331  1.0985 -1.9986
 8681SOL    HW237503   0.998   0.767   3.759  0.0380 -1.5589 -0.6451
 8682SOL     OW37504   0.900   0.303   7.529  0.1278  0.4765  0.1997
 8682SOL    HW137505   0.946   0.277   7.449  1.4533  1.1025  0.7639
 8682SOL    HW237506   0.811   0.284   7.500 -0.1936  1.9689  0.2205
 8683SOL     OW37507   3.334   4.457   8.186  0.4068 -0.7242  0.6432
 8683SOL    HW137508   3.287   4.541   8.191  1.2207 -0.2379  0.1256
 8683SOL    HW237509   3.261   4.400   8.164  0.0117 -0.2278  0.6592
 8684SOL     OW37510   4.428   3.795   5.511 -0.4501  0.0040 -0.3912
 8684SOL    HW137511   4.469   3.709   5.506 -0.3631 -0.0208  0.7273
 8684SOL    HW237512   4.427   3.817   5.418  1.1006 -1.9921 -0.8697
 8685SOL     OW37513   4.683   0.103   2.755  0.5594 -0.0714 -0.2446
 8685SOL    HW137514   4.622   0.118   2.682  1.3974 -0.0468 -0.9414
 8685SOL    HW237515   4.669   0.181   2.808  0.2192 -0.2145 -0.1249
 8686SOL     OW37516   3.026   3.570   5.969  0.4864  0.1662 -0.0503
 8686SOL    HW137517   2.941   3.555   5.928 -0.0106  1.5944  0.4684
 8686SOL    HW237518   3.046   3.479   5.993  2.3688  0.8032  0.7929
 8687SOL     OW37519   2.024   3.646   9.246  0.3596 -0.3102  0.3778
 8687SOL    HW137520   2.043   3.649   9.152 -2.2798  5.0429 -0.0026
 8687SOL    HW237521   1.944   3.593   9.242 -0.3711  0.7287  1.2742
 8688SOL     OW37522   3.941   1.829   9.056 -0.5944  0.4300  0.4414
 8688SOL    HW137523   3.973   1.906   9.010  0.7278  0.5405  1.5414
 8688SOL    HW237524   3.846   1.828   9.041 -0.6948 -0.4137  1.1001
 8689SOL     OW37525   4.165   3.836   2.921  0.2832 -0.1014  0.2149
 8689SOL    HW137526   4.238   3.888   2.953 -0.7099  0.9221  0.8115
 8689SOL    HW237527   4.114   3.906   2.880  1.1469  1.3975  1.7186
 8690SOL     OW37528   1.837   4.275   7.066  0.1672 -0.1136  0.7002
 8690SOL    HW137529   1.751   4.252   7.029  1.4468 -1.6222 -1.2909
 8690SOL    HW237530   1.866   4.195   7.108 -1.2677 -1.9419 -1.7922
 8691SOL     OW37531   1.980   3.593   7.146  0.4512 -0.0047  0.3906
 8691SOL    HW137532   2.061   3.550   7.174  0.2840 -0.1402  0.6680
 8691SOL    HW237533   1.916   3.544   7.197 -0.6686 -0.3061 -1.3228
 8692SOL     OW37534   0.598   1.378   6.145 -0.4991  0.1457 -0.6495
 8692SOL    HW137535   0.506   1.363   6.170 -0.8679  1.7022 -1.0214
 8692SOL    HW237536   0.596   1.357   6.052  2.2154  1.0178 -0.8809
 8693SOL     OW37537   4.377   3.269   1.229  0.1034  0.3957 -0.1858
 8693SOL    HW137538   4.379   3.175   1.208  2.9094  0.8321 -1.9008
 8693SOL    HW237539   4.303   3.267   1.289 -1.1456 -1.0295 -1.7464
 8694SOL     OW37540   1.856   1.474   0.513  0.2878  0.4397 -0.2863
 8694SOL    HW137541   1.800   1.543   0.549  0.2724  0.0090  0.5139
 8694SOL    HW237542   1.812   1.467   0.428  1.5892  0.3318 -0.9527
 8695SOL     OW37543   0.310   2.858   1.201  0.1936  0.5454  0.3080
 8695SOL    HW137544   0.270   2.814   1.126  0.7948  0.0666  0.2645
 8695SOL    HW237545   0.367   2.789   1.235 -0.3365 -1.6834 -3.2817
 8696SOL     OW37546   1.798   3.226   7.957  0.2092  0.0465 -0.3636
 8696SOL    HW137547   1.728   3.285   7.930 -1.3022 -1.2678  0.6852
 8696SOL    HW237548   1.764   3.192   8.040  0.8483  2.5134  0.9166
 8697SOL     OW37549   4.256   1.515   3.239  0.0003 -0.0890 -0.4296
 8697SOL    HW137550   4.295   1.460   3.307 -1.0156 -1.3948 -0.9085
 8697SOL    HW237551   4.171   1.470   3.237 -0.0801  0.0696 -0.6212
 8698SOL     OW37552   1.369   4.452   6.701 -0.5640 -0.0380 -0.2262
 8698SOL    HW137553   1.275   4.453   6.718 -0.5604  1.3518 -0.3200
 8698SOL    HW237554   1.404   4.437   6.789 -0.1441 -0.2894 -0.4321
 8699SOL     OW37555   1.191   0.770   3.097  0.2793 -0.4624  0.0163
 8699SOL    HW137556   1.201   0.675   3.098  0.6670 -0.4324 -0.8351
 8699SOL    HW237557   1.209   0.781   3.004 -1.3969 -3.3517 -0.6590
 8700SOL     OW37558   0.104   2.725   7.218 -0.1092 -0.4479  0.0353
 8700SOL    HW137559   0.051   2.687   7.289  0.2822 -0.0383  0.5442
 8700SOL    HW237560   0.187   2.678   7.228 -1.4463 -2.5163  1.5219
 8701SOL     OW37561   0.895   3.643   0.155 -0.3800 -0.3405  0.3138
 8701SOL    HW137562   0.886   3.711   0.222 -1.0125 -2.1244  2.0231
 8701SOL    HW237563   0.930   3.577   0.215  0.9295 -0.6569 -0.7970
 8702SOL     OW37564   1.041   0.015   3.332 -0.4895 -0.0806 -0.8867
 8702SOL    HW137565   1.059   0.068   3.255  0.6964 -0.5301 -0.9098
 8702SOL    HW237566   0.969   4.682   3.303  0.3306 -1.2981 -0.5090
 8703SOL     OW37567   4.398   1.885   6.779  0.1631  0.6451  0.0969
 8703SOL    HW137568   4.319   1.847   6.816 -0.0606  1.8768  0.8802
 8703SOL    HW237569   4.462   1.861   6.846 -0.5264 -1.2763  0.0692
 8704SOL     OW37570   4.393   2.121   4.273  0.3957  0.3182  0.1348
 8704SOL    HW137571   4.319   2.162   4.320 -0.9855 -1.9941 -0.0256
 8704SOL    HW237572   4.470   2.169   4.304  1.7502 -1.6665 -0.1876
 8705SOL     OW37573   3.239   0.819   2.758 -0.3272  0.5292 -0.7100
 8705SOL    HW137574   3.241   0.731   2.720 -0.6533 -0.2091  1.0166
 8705SOL    HW237575   3.175   0.802   2.826 -1.8990  0.1341 -2.2715
 8706SOL     OW37576   1.163   2.981   7.606 -0.3769  0.0791  0.1537
 8706SOL    HW137577   1.209   3.002   7.525 -0.8186 -1.2636 -0.4550
 8706SOL    HW237578   1.233   3.001   7.669 -0.9998  2.6124  0.0364
 8707SOL     OW37579   0.272   0.247   9.909  0.3111  0.3183  0.0708
 8707SOL    HW137580   0.236   0.331   9.940  0.5725  0.7524 -0.8162
 8707SOL    HW237581   0.300   0.204   9.990  1.2538 -0.5560 -0.7302
 8708SOL     OW37582   3.171   3.739   7.679 -0.2716 -0.5442 -0.4420
 8708SOL    HW137583   3.093   3.794   7.687 -1.6641 -2.4460 -0.9690
 8708SOL    HW237584   3.239   3.802   7.702  0.0588 -0.8771 -0.5120
 8709SOL     OW37585   4.090   2.696  10.648 -0.4004 -0.3769  0.6451
 8709SOL    HW137586   4.050   2.783  10.642  1.5503  0.4883  0.2953
 8709SOL    HW237587   4.164   2.706  10.588  0.1745 -0.2954  1.3608
 8710SOL     OW37588   4.130   2.751  14.694 -0.7521  0.5242  0.3323
 8710SOL    HW137589   4.204   2.693  14.712 -0.9798 -0.0982 -0.7203
 8710SOL    HW237590   4.063   2.683  14.687  1.8037 -2.0937  1.2764
 8711SOL     OW37591   2.456   3.249   1.477 -0.2133 -0.0129  0.6098
 8711SOL    HW137592   2.535   3.251   1.423 -2.3454 -3.1606 -2.6369
 8711SOL    HW237593   2.509   3.235   1.556  0.1886 -3.0468 -0.1996
 8712SOL     OW37594   1.560   2.079   9.867  0.2651 -0.1623  0.2316
 8712SOL    HW137595   1.638   2.127   9.838  0.7528  0.2321  2.2164
 8712SOL    HW237596   1.595   2.002   9.911  0.4593  1.3566  2.7130
 8713SOL     OW37597   3.017   0.639   7.312  0.0052  0.2577 -0.4126
 8713SOL    HW137598   3.018   0.576   7.240 -1.3624 -1.7698  1.3175
 8713SOL    HW237599   3.090   0.606   7.364 -0.9201 -1.3332 -0.1135
 8714SOL     OW37600   0.840   4.250  17.172  0.1020 -0.8202 -0.9088
 8714SOL    HW137601   0.809   4.165  17.203  0.3151 -0.6216 -0.1519
 8714SOL    HW237602   0.920   4.221  17.130  0.7502  1.5389 -1.3174
 8715SOL     OW37603   2.825   3.944   6.228  0.3523 -0.2990 -0.2432
 8715SOL    HW137604   2.782   3.947   6.313 -0.8745 -1.0076 -0.8581
 8715SOL    HW237605   2.901   3.894   6.257  1.2513  0.4279 -1.3118
 8716SOL     OW37606   0.475   3.198  14.748  0.2188 -0.6483  0.3091
 8716SOL    HW137607   0.415   3.127  14.723  0.7203 -1.0793  0.3460
 8716SOL    HW237608   0.533   3.205  14.673  0.1634 -2.4031  0.1057
 8717SOL     OW37609   1.836   3.213   3.622  0.2784 -0.5864  0.1011
 8717SOL    HW137610   1.894   3.253   3.686 -1.1470  1.0412  0.3783
 8717SOL    HW237611   1.759   3.269   3.614  0.6393 -0.4646 -2.6903
 8718SOL     OW37612   1.300   0.896   7.960 -0.2283  0.1816  0.1162
 8718SOL    HW137613   1.298   0.844   8.041 -0.0108  0.6913  0.4538
 8718SOL    HW237614   1.394   0.902   7.942 -0.3149  1.8505  0.2141
 8719SOL     OW37615   2.899   2.615   3.610 -0.1387  0.2398  0.5585
 8719SOL    HW137616   2.971   2.589   3.668 -0.8564  0.2928  1.4779
 8719SOL    HW237617   2.825   2.636   3.667 -0.8196  0.3315 -0.3637
 8720SOL     OW37618   4.351   1.301   4.432  0.1240  0.1494 -0.2557
 8720SOL    HW137619   4.435   1.257   4.424  0.2615  0.7282 -1.8862
 8720SOL    HW237620   4.301   1.285   4.352 -1.3691  1.2246  0.4407
 8721SOL     OW37621   2.025   4.689   4.127  0.4968 -0.3861 -0.1356
 8721SOL    HW137622   2.017   4.611   4.072 -0.4293 -1.7256  1.9032
 8721SOL    HW237623   2.091   0.011   4.075  0.4386 -0.8818 -0.6547
 8722SOL     OW37624   4.255   1.348   0.066  0.1137  0.1725  0.0710
 8722SOL    HW137625   4.298   1.432   0.082  1.6314 -0.5887 -0.0606
 8722SOL    HW237626   4.195   1.329   0.138 -0.7088  0.2131 -0.5871
 8723SOL     OW37627   0.707   2.395   4.641  0.2920  0.3200 -0.2138
 8723SOL    HW137628   0.777   2.417   4.703 -1.2424 -1.5697  2.1792
 8723SOL    HW237629   0.764   2.361   4.572  0.0560 -0.2673 -0.1182
 8724SOL     OW37630   0.394   0.294  15.796 -0.5120  0.4882 -0.5556
 8724SOL    HW137631   0.353   0.344  15.866  0.9889 -0.6753  1.1582
 8724SOL    HW237632   0.375   0.346  15.718 -1.9337  0.4758 -0.2151
 8725SOL     OW37633   3.990   0.102  17.119 -0.6617  0.0562 -0.0490
 8725SOL    HW137634   4.049   0.066  17.053 -0.9358  1.2408 -0.9484
 8725SOL    HW237635   3.989   0.031  17.183 -1.2778 -0.1898 -0.3334
 8726SOL     OW37636   2.808   3.790   0.844  0.2885  0.1526  0.1895
 8726SOL    HW137637   2.796   3.744   0.761  0.1339  0.5568 -0.0095
 8726SOL    HW237638   2.825   3.876   0.807 -0.5951  0.1372 -0.2533
 8727SOL     OW37639   1.617   0.017   3.195 -0.3224  0.7798  0.4014
 8727SOL    HW137640   1.569   4.674   3.243 -1.6353 -0.4361 -2.6338
 8727SOL    HW237641   1.708   0.005   3.224 -0.9927  0.8499  2.5216
 8728SOL     OW37642   0.047   2.378   6.535 -0.3929  0.5448 -0.2888
 8728SOL    HW137643   0.053   2.422   6.451 -3.9431 -0.6050 -1.1440
 8728SOL    HW237644   0.130   2.400   6.577 -0.3009 -1.0509  0.3858
 8729SOL     OW37645   1.379   1.682   1.255 -0.5024  0.1612 -0.0153
 8729SOL    HW137646   1.319   1.741   1.301  0.6323  0.2402  1.3615
 8729SOL    HW237647   1.343   1.703   1.168 -0.1105  1.1711  0.0560
 8730SOL     OW37648   4.193   1.978   7.912  0.3293 -0.1501  0.0821
 8730SOL    HW137649   4.162   1.891   7.936  0.2688 -0.1555 -0.0161
 8730SOL    HW237650   4.158   2.031   7.984  0.2359  0.4828 -0.4305
 8731SOL     OW37651   1.168   0.076   5.652 -0.6343 -0.3933  0.5495
 8731SOL    HW137652   1.073   0.080   5.654 -0.6688 -1.3881  0.9771
 8731SOL    HW237653   1.196   0.130   5.727  0.4110  0.7984 -0.6970
 8732SOL     OW37654   2.135   1.065  17.148 -0.1640 -0.1943 -0.7812
 8732SOL    HW137655   2.179   0.980  17.147  0.4752  0.1080  2.5443
 8732SOL    HW237656   2.043   1.040  17.154  0.2243 -1.1698  1.2114
 8733SOL     OW37657   3.842   2.896  13.851 -0.1904  0.3154  0.7917
 8733SOL    HW137658   3.804   2.809  13.838 -1.8524  1.3701 -1.3984
 8733SOL    HW237659   3.769   2.958  13.857  0.0318  0.7888 -1.3676
 8734SOL     OW37660   3.660   3.570   3.015 -0.3285  0.1553  0.4478
 8734SOL    HW137661   3.729   3.537   2.957  0.0134 -1.1364  1.6099
 8734SOL    HW237662   3.712   3.637   3.059  0.9252 -1.5342  1.5601
 8735SOL     OW37663   2.528   2.918   5.707  0.2620  0.3677  0.0173
 8735SOL    HW137664   2.566   2.935   5.793  0.7756 -1.1830  0.1006
 8735SOL    HW237665   2.443   2.877   5.725 -0.0651  1.4494  0.9077
 8736SOL     OW37666   4.393   0.448   4.949 -0.1653  0.0894  0.2481
 8736SOL    HW137667   4.315   0.397   4.968 -1.4182  1.7132 -0.5694
 8736SOL    HW237668   4.402   0.437   4.854 -2.2254 -2.5218  0.3770
 8737SOL     OW37669   2.256   2.816   2.808  0.4183  0.0398 -0.4546
 8737SOL    HW137670   2.311   2.881   2.852  0.1453 -0.1863  0.2173
 8737SOL    HW237671   2.294   2.818   2.720  1.2030 -2.1425 -0.1803
 8738SOL     OW37672   2.781   4.094  11.031 -0.1580 -0.3864 -0.6824
 8738SOL    HW137673   2.806   4.034  10.962  0.6272  0.7103 -1.3442
 8738SOL    HW237674   2.785   4.037  11.107  0.6840 -1.2947 -1.4252
 8739SOL     OW37675   3.102   3.785   4.463 -0.9585 -0.1946  0.0407
 8739SOL    HW137676   3.138   3.699   4.484 -0.0090  0.6260  1.7826
 8739SOL    HW237677   3.037   3.761   4.397 -0.7997  1.0547 -0.5795
 8740SOL     OW37678   1.037   3.002   2.849  0.0709 -0.4805  0.6281
 8740SOL    HW137679   0.974   2.959   2.791 -2.2066  1.0940  1.9352
 8740SOL    HW237680   0.989   2.983   2.930 -2.6410 -2.9654 -1.5396
 8741SOL     OW37681   0.758   1.187   8.537  0.8815 -0.6277  0.2865
 8741SOL    HW137682   0.699   1.184   8.613 -1.0441  1.9328 -1.1216
 8741SOL    HW237683   0.803   1.268   8.560 -0.2897 -0.0635  0.6162
 8742SOL     OW37684   1.791   1.272  14.710 -0.2480 -0.5186  0.0693
 8742SOL    HW137685   1.768   1.194  14.761 -1.0658  0.2857  0.9466
 8742SOL    HW237686   1.754   1.340  14.766 -2.1420 -0.8979 -0.7286
 8743SOL     OW37687   1.554   2.018   3.743 -0.1314  0.2912  0.2062
 8743SOL    HW137688   1.524   1.943   3.692  0.9395  0.2950 -0.4528
 8743SOL    HW237689   1.607   1.981   3.814  0.8983  1.2508 -0.0589
 8744SOL     OW37690   4.295   0.020   7.398  0.3137  0.1687  0.3280
 8744SOL    HW137691   4.320   0.049   7.310 -3.6773 -0.8535 -1.1321
 8744SOL    HW237692   4.308   0.105   7.442 -0.1359  0.7881 -0.7382
 8745SOL     OW37693   4.371   0.108  17.640  0.4459 -0.0346  0.4540
 8745SOL    HW137694   4.443   0.071  17.589  1.2878  1.2385  0.7172
 8745SOL    HW237695   4.310   0.034  17.649 -0.0002  0.3042  0.2603
 8746SOL     OW37696   3.421   2.548   8.163 -0.5631  0.0577  0.4068
 8746SOL    HW137697   3.477   2.470   8.174 -1.6231 -0.7352  0.2142
 8746SOL    HW237698   3.341   2.515   8.121 -0.5643  0.9613 -0.2903
 8747SOL     OW37699   4.325   1.237  17.526  0.5610 -0.4264  0.1385
 8747SOL    HW137700   4.298   1.265  17.614  0.7073 -1.4656  0.5098
 8747SOL    HW237701   4.247   1.238  17.471 -1.5846 -0.0089  3.1825
 8748SOL     OW37702   0.225   0.137   8.064 -0.0430  0.5099  0.4406
 8748SOL    HW137703   0.170   0.123   7.987  1.0904 -0.5470 -0.1926
 8748SOL    HW237704   0.289   0.067   8.050 -1.0606 -0.4527  0.6622
 8749SOL     OW37705   0.058   2.427  11.539 -0.1071  0.0676 -0.3509
 8749SOL    HW137706   0.135   2.434  11.483  1.4726 -0.5219  1.7595
 8749SOL    HW237707   0.014   2.351  11.501 -0.2671 -1.2346  2.4464
 8750SOL     OW37708   4.400   0.170  11.065 -0.0233  0.3951 -0.0371
 8750SOL    HW137709   4.465   0.171  11.135 -0.4838  1.9270  0.3673
 8750SOL    HW237710   4.334   0.109  11.097 -1.5317  2.2393  0.3418
 8751SOL     OW37711   3.246   0.243   3.831  0.0137  0.1736  0.2975
 8751SOL    HW137712   3.177   0.209   3.774 -0.0484  1.3351 -0.3223
 8751SOL    HW237713   3.266   0.333   3.805 -0.3863  0.3784  0.6841
 8752SOL     OW37714   1.072   4.441   3.574  0.5889  0.0676 -0.7115
 8752SOL    HW137715   1.127   4.490   3.636  0.8460  0.3703 -1.1745
 8752SOL    HW237716   0.985   4.457   3.611  1.8167  0.7617  1.8567
 8753SOL     OW37717   1.827   2.603  10.488  0.6729  0.0141 -0.4509
 8753SOL    HW137718   1.794   2.528  10.539  0.2527  0.8226  0.4671
 8753SOL    HW237719   1.901   2.568  10.439  0.6983 -1.0059  0.3090
 8754SOL     OW37720   0.599   4.499  10.177 -0.7165 -0.0104 -0.4643
 8754SOL    HW137721   0.649   4.524  10.255  1.3505 -1.0519 -1.4288
 8754SOL    HW237722   0.638   4.553  10.108  1.9827 -0.5240  0.6265
 8755SOL     OW37723   2.732   0.994  15.304  0.0126 -0.0946 -0.7855
 8755SOL    HW137724   2.661   1.057  15.317 -1.2365 -1.3603 -1.4465
 8755SOL    HW237725   2.765   0.979  15.392 -1.0593 -4.0589 -1.0748
 8756SOL     OW37726   2.038   0.087   8.352  0.6600 -0.1171 -0.3527
 8756SOL    HW137727   2.021   0.159   8.292 -0.5566 -0.0858  0.0299
 8756SOL    HW237728   2.027   0.141   8.430  0.1527 -0.5994 -0.0859
 8757SOL     OW37729   3.588   2.668   8.830 -0.0557  0.7378 -0.7348
 8757SOL    HW137730   3.509   2.719   8.811  0.4566  2.0332  0.5787
 8757SOL    HW237731   3.634   2.722   8.894  1.2701  0.9087 -1.8147
 8758SOL     OW37732   0.277   1.387  13.421  0.3537  0.8130  0.3156
 8758SOL    HW137733   0.351   1.447  13.434  0.7253  0.2035  1.0454
 8758SOL    HW237734   0.253   1.372  13.512 -0.7701 -0.0250 -0.1301
 8759SOL     OW37735   1.184   2.975  16.239 -0.5473 -0.1323  0.4031
 8759SOL    HW137736   1.159   3.022  16.318 -0.4139  1.3060 -0.4041
 8759SOL    HW237737   1.139   3.019  16.167 -1.3688  1.8368  2.1121
 8760SOL     OW37738   1.129   2.664   9.867 -0.1878 -0.5620 -0.2003
 8760SOL    HW137739   1.159   2.656   9.777  2.1201 -1.4969  0.6501
 8760SOL    HW237740   1.110   2.758   9.869  0.6954 -0.4242  2.1157
 8761SOL     OW37741   0.371   3.029   6.602  0.0214 -0.2311 -0.0914
 8761SOL    HW137742   0.399   3.032   6.693  0.2870 -1.5545 -0.1309
 8761SOL    HW237743   0.449   3.062   6.557  0.1380  1.4674  1.3812
 8762SOL     OW37744   4.118   1.725   7.192  0.5369  0.2841  0.5386
 8762SOL    HW137745   4.094   1.794   7.130  1.6920  0.8268  0.6973
 8762SOL    HW237746   4.200   1.706   7.147 -0.5268 -0.4420 -1.0682
 8763SOL     OW37747   4.500   2.488   6.826  0.4549  0.2517 -0.0567
 8763SOL    HW137748   4.488   2.470   6.919 -0.5468 -0.4091 -0.3210
 8763SOL    HW237749   4.532   2.401   6.805 -0.2666 -0.3044  1.1521
 8764SOL     OW37750   3.276   1.347   1.937  0.2217  0.0058  0.0838
 8764SOL    HW137751   3.216   1.322   1.867 -0.3175  0.7053  0.2942
 8764SOL    HW237752   3.343   1.377   1.875  0.5498  0.5105  0.6812
 8765SOL     OW37753   3.902   2.366   9.286  0.5804 -0.0251  0.3651
 8765SOL    HW137754   3.954   2.438   9.322 -0.2552  1.7330 -1.8965
 8765SOL    HW237755   3.960   2.291   9.298  2.2151  0.8182 -2.3090
 8766SOL     OW37756   1.211   2.738   8.361  0.4334  0.2117  0.1931
 8766SOL    HW137757   1.212   2.809   8.296  4.4657 -2.2290 -2.3846
 8766SOL    HW237758   1.133   2.759   8.413  0.2300  0.0349 -0.0459
 8767SOL     OW37759   3.843   4.498   3.062 -0.0367 -0.1165 -0.2171
 8767SOL    HW137760   3.883   4.584   3.046  1.0938 -0.6666 -0.3036
 8767SOL    HW237761   3.851   4.455   2.977 -1.2056 -0.1863 -0.2865
 8768SOL     OW37762   1.792   1.648   5.593 -0.1997 -0.6317 -0.0195
 8768SOL    HW137763   1.866   1.682   5.542  0.3978 -3.5003 -1.0503
 8768SOL    HW237764   1.781   1.564   5.549 -1.8819  0.2734 -1.3640
 8769SOL     OW37765   0.099   3.196   7.300 -0.2326  0.2017 -0.3579
 8769SOL    HW137766   0.075   3.119   7.248  0.5312 -0.6664  0.5838
 8769SOL    HW237767   0.026   3.193   7.362  0.1721 -0.0882  0.1043
 8770SOL     OW37768   2.373   2.958   2.380  0.3978  0.3452  0.1348
 8770SOL    HW137769   2.332   3.042   2.400 -1.9021 -1.3729  2.7671
 8770SOL    HW237770   2.447   2.979   2.323  1.0805  0.3447  1.0273
 8771SOL     OW37771   4.034   1.697   2.401 -0.0036  0.1765 -0.1781
 8771SOL    HW137772   4.059   1.776   2.354 -1.3090  0.2643 -0.7450
 8771SOL    HW237773   4.056   1.703   2.494  3.1920 -0.1748 -0.9329
 8772SOL     OW37774   4.046   0.200  17.681  0.1069  0.1055  0.2775
 8772SOL    HW137775   4.056   0.239  17.594 -0.4594  1.8091  0.9887
 8772SOL    HW237776   4.027   0.109  17.656  0.8695 -0.1363  0.5514
 8773SOL     OW37777   1.327   3.067   3.900  0.1806  0.1963 -0.2007
 8773SOL    HW137778   1.383   2.990   3.902  1.4049  1.1213  0.9951
 8773SOL    HW237779   1.269   3.045   3.827 -0.3769 -1.6293  0.7967
 8774SOL     OW37780   1.636   3.469  16.381  0.3851  0.4995 -0.2951
 8774SOL    HW137781   1.697   3.427  16.440  0.3878 -0.5765 -1.0731
 8774SOL    HW237782   1.645   3.557  16.418  0.0833  0.2703  0.3318
 8775SOL     OW37783   1.801   1.783   4.428  0.7350 -0.8060  0.0169
 8775SOL    HW137784   1.836   1.708   4.477  0.4110  0.1603  1.7269
 8775SOL    HW237785   1.799   1.746   4.340  0.0243  1.5438 -0.9621
 8776SOL     OW37786   3.251   3.843   6.184 -0.1762 -0.5554 -0.3761
 8776SOL    HW137787   3.308   3.851   6.108  0.1537  1.6584  0.1061
 8776SOL    HW237788   3.309   3.839   6.260 -2.9076 -0.1893  1.7198
 8777SOL     OW37789   1.871   1.974   8.423 -0.1966  0.2521  0.7431
 8777SOL    HW137790   1.951   1.945   8.378  0.0386  1.5458  0.3496
 8777SOL    HW237791   1.852   2.052   8.372 -1.0076 -0.5309 -0.1802
 8778SOL     OW37792   3.924   1.366   4.792  0.1235 -0.1110 -0.2682
 8778SOL    HW137793   3.923   1.356   4.697 -0.9535  1.5439 -0.4390
 8778SOL    HW237794   3.891   1.456   4.799  0.7095 -0.1362  2.5181
 8779SOL     OW37795   3.645   0.514   3.062 -0.2647  0.0940 -0.9800
 8779SOL    HW137796   3.605   0.508   3.149 -0.0763  0.8362 -0.8344
 8779SOL    HW237797   3.703   0.590   3.073  0.8053 -0.7239 -1.0246
 8780SOL     OW37798   2.487   1.646   6.801  0.1696 -0.0549  0.7676
 8780SOL    HW137799   2.418   1.693   6.848 -1.5223 -0.1339 -1.6790
 8780SOL    HW237800   2.472   1.554   6.822 -0.1065  0.6817  3.8641
 8781SOL     OW37801   1.591   3.927   5.387 -0.2782  0.3280  0.0943
 8781SOL    HW137802   1.675   3.920   5.341  0.0930 -0.5454  0.8975
 8781SOL    HW237803   1.551   4.008   5.356 -0.5264  0.4650  0.7676
 8782SOL     OW37804   1.461   1.501   5.952 -0.4436 -0.6825 -0.5079
 8782SOL    HW137805   1.438   1.489   5.860  1.5347 -0.2878 -1.0460
 8782SOL    HW237806   1.550   1.469   5.941  0.4013  0.9114  1.6289
 8783SOL     OW37807   3.772   0.585   2.301  0.6233 -0.8573  0.2347
 8783SOL    HW137808   3.773   0.607   2.394 -1.1910  0.0796  0.0456
 8783SOL    HW237809   3.806   0.669   2.271 -1.5940  0.7260  2.0932
 8784SOL     OW37810   0.941   0.152   4.334  0.4011 -0.4493  0.0989
 8784SOL    HW137811   0.999   0.188   4.268  1.4589 -0.8913  0.7945
 8784SOL    HW237812   0.968   0.060   4.326 -1.4732 -1.2680  3.1198
 8785SOL     OW37813   1.027   1.221  13.774 -0.9843 -0.5401  0.1714
 8785SOL    HW137814   1.070   1.226  13.860 -1.5329  1.3714  0.3360
 8785SOL    HW237815   1.059   1.139  13.737  0.4166  1.1734 -2.3669
 8786SOL     OW37816   2.541   2.485  13.144 -0.2651 -0.0405 -0.3953
 8786SOL    HW137817   2.572   2.407  13.099 -1.8026 -1.8451  1.7118
 8786SOL    HW237818   2.629   2.515  13.167 -0.3508  0.4484 -0.6954
 8787SOL     OW37819   0.986   2.418   2.137 -0.9812  0.1382 -0.1400
 8787SOL    HW137820   0.938   2.499   2.121  0.8417  1.4444  0.9264
 8787SOL    HW237821   0.942   2.366   2.071 -0.3130  4.2937 -3.9181
 8788SOL     OW37822   1.140   3.023  13.732  0.3849  0.2163 -0.6096
 8788SOL    HW137823   1.230   3.054  13.740  0.7866 -0.5864 -1.9679
 8788SOL    HW237824   1.112   3.013  13.823 -2.1314 -0.0681 -1.3993
 8789SOL     OW37825   2.886   2.021   4.139  0.1757 -0.6947  0.4083
 8789SOL    HW137826   2.840   2.056   4.215 -1.1772  1.1115 -1.2433
 8789SOL    HW237827   2.937   2.100   4.121  2.0536 -1.8787  0.6002
 8790SOL     OW37828   3.970   0.527  12.416 -0.4913 -0.6577 -0.5573
 8790SOL    HW137829   4.018   0.569  12.487  0.2417 -0.5476 -1.1102
 8790SOL    HW237830   4.028   0.455  12.395 -1.3716 -1.7887  0.9345
 8791SOL     OW37831   2.417   2.316   3.110  0.3518 -0.0579 -0.1494
 8791SOL    HW137832   2.411   2.239   3.054 -0.5577 -0.2407  0.2025
 8791SOL    HW237833   2.479   2.371   3.062  0.1821  1.0281  0.8574
 8792SOL     OW37834   3.743   1.970   0.061 -0.0085 -0.3322  0.3906
 8792SOL    HW137835   3.700   1.884   0.064 -0.6949 -0.0081 -0.3000
 8792SOL    HW237836   3.810   1.978   0.129  2.0721 -2.0665 -1.4242
 8793SOL     OW37837   0.198   2.264   2.446 -0.2607 -0.2679  0.4220
 8793SOL    HW137838   0.171   2.219   2.526  1.0528 -1.2219  0.3334
 8793SOL    HW237839   0.113   2.285   2.408 -0.1647  0.2830  0.5044
 8794SOL     OW37840   2.355   3.195  15.760  1.1219 -0.8766 -0.1465
 8794SOL    HW137841   2.294   3.125  15.738  1.7846 -1.8547  1.1562
 8794SOL    HW237842   2.407   3.145  15.823  1.5510  1.2907  1.2488
 8795SOL     OW37843   1.606   1.507  16.056 -0.3003  0.2837 -0.3448
 8795SOL    HW137844   1.699   1.497  16.035 -0.5006 -0.0216 -1.0620
 8795SOL    HW237845   1.601   1.455  16.136 -0.9081 -1.0190 -1.2319
 8796SOL     OW37846   2.969   1.124   6.033 -0.2227  0.2817  0.2824
 8796SOL    HW137847   2.993   1.191   6.097 -3.9616  1.0176  0.9110
 8796SOL    HW237848   2.938   1.064   6.101 -0.0176 -0.2866 -0.1217
 8797SOL     OW37849   4.318   2.803   3.561  0.2569  0.2846  0.5877
 8797SOL    HW137850   4.338   2.744   3.488  0.5070 -0.3304  1.1457
 8797SOL    HW237851   4.232   2.766   3.582 -0.4151  2.0101  0.8607
 8798SOL     OW37852   1.431   4.194   8.595 -0.2763  0.1667 -0.3035
 8798SOL    HW137853   1.522   4.163   8.590 -0.0809  0.8853 -1.1369
 8798SOL    HW237854   1.424   4.212   8.689  0.4185  2.0275 -0.6059
 8799SOL     OW37855   4.491   3.954   5.739 -0.0188  0.2313 -0.2587
 8799SOL    HW137856   4.553   3.883   5.756  0.6103  0.4043 -1.8778
 8799SOL    HW237857   4.446   3.912   5.666 -2.2880 -1.2816  1.9899
 8800SOL     OW37858   2.261   4.074   3.019 -0.6794 -0.4972  0.4445
 8800SOL    HW137859   2.220   4.140   2.963 -1.6870 -0.7221  0.9287
 8800SOL    HW237860   2.329   4.125   3.063  0.2037 -0.8241 -0.5408
 8801SOL     OW37861   4.432   3.946   8.474  0.2348  0.0687  0.3390
 8801SOL    HW137862   4.443   3.927   8.381  2.5646  0.2744  0.5609
 8801SOL    HW237863   4.339   3.969   8.477  0.0580 -0.4925 -0.8648
 8802SOL     OW37864   3.659   2.908   1.126 -0.6057 -0.2562 -0.6214
 8802SOL    HW137865   3.639   2.828   1.174  0.9296  0.0350  0.4933
 8802SOL    HW237866   3.678   2.872   1.040  1.3834  3.6662 -1.8554
 8803SOL     OW37867   1.113   0.781   4.349 -0.4656 -0.0250 -0.0661
 8803SOL    HW137868   1.196   0.821   4.374 -0.8414  2.2950 -2.5698
 8803SOL    HW237869   1.111   0.785   4.254 -1.0066  1.1101 -0.0033
 8804SOL     OW37870   1.552   0.889   7.861 -0.1302  0.1334 -0.3401
 8804SOL    HW137871   1.547   0.904   7.767  0.2751  1.1022 -0.2069
 8804SOL    HW237872   1.640   0.923   7.880  0.2714 -0.3831 -1.2733
 8805SOL     OW37873   3.177   1.715   4.761 -0.3953  0.0837  0.1571
 8805SOL    HW137874   3.157   1.774   4.688 -0.7543 -1.5355 -1.0612
 8805SOL    HW237875   3.246   1.658   4.728  0.0238  1.0395 -0.5946
 8806SOL     OW37876   2.179   2.511   7.071 -0.2777  0.4972 -0.3045
 8806SOL    HW137877   2.116   2.440   7.073  0.9055 -0.4869  2.0187
 8806SOL    HW237878   2.263   2.466   7.072 -0.5103  0.0717 -0.0893
 8807SOL     OW37879   2.837   3.712   3.562 -0.2299  0.2254  0.2695
 8807SOL    HW137880   2.812   3.635   3.511 -2.0186  1.2805 -0.4561
 8807SOL    HW237881   2.748   3.747   3.567 -0.4035 -0.5975  2.9253
 8808SOL     OW37882   2.032   1.341   0.732 -0.5906  0.0473  0.5640
 8808SOL    HW137883   2.106   1.367   0.787 -0.3900  1.0959 -0.1909
 8808SOL    HW237884   2.025   1.247   0.745 -1.9524 -0.1213 -1.4019
 8809SOL     OW37885   3.518   3.269   4.952  0.1055 -0.2667  0.2416
 8809SOL    HW137886   3.434   3.223   4.948 -0.6683  1.0437  1.4182
 8809SOL    HW237887   3.496   3.343   4.896 -0.2313 -0.1094  0.5836
 8810SOL     OW37888   1.226   1.631  16.382  0.8593 -0.1752 -0.2272
 8810SOL    HW137889   1.276   1.621  16.301  0.0339  0.2867 -0.7976
 8810SOL    HW237890   1.141   1.596  16.356  1.8771 -1.8523 -1.3006
 8811SOL     OW37891   1.863   0.152  11.714  0.4996 -0.0249  0.4150
 8811SOL    HW137892   1.919   0.085  11.754 -1.6142 -2.0951 -0.0893
 8811SOL    HW237893   1.886   0.135  11.623 -1.0875  1.4553 -0.2541
 8812SOL     OW37894   2.332   1.000  10.995 -0.4062  0.3692 -0.1879
 8812SOL    HW137895   2.353   1.090  11.021 -1.2465  0.4607  0.1965
 8812SOL    HW237896   2.414   0.973  10.954 -0.6733  1.0757 -1.1838
 8813SOL     OW37897   3.604   2.051   8.050  0.6653 -0.7006  0.4748
 8813SOL    HW137898   3.533   1.988   8.055 -0.3335  0.3842 -0.0200
 8813SOL    HW237899   3.671   2.014   8.107 -0.6468 -0.3211  2.2653
 8814SOL     OW37900   4.042   4.029  12.415 -0.0117 -0.4022  0.2908
 8814SOL    HW137901   3.955   4.054  12.444  0.2081  0.9450 -0.1952
 8814SOL    HW237902   4.106   4.087  12.456  2.1054 -1.9706 -0.7795
 8815SOL     OW37903   2.766   3.912   2.038  0.1555  1.0082 -0.2669
 8815SOL    HW137904   2.843   3.969   2.038  1.5659 -0.8646 -1.5541
 8815SOL    HW237905   2.760   3.890   1.945 -0.4029 -0.8923  0.2161
 8816SOL     OW37906   3.337   2.274  14.162 -0.2525  0.0820 -0.6370
 8816SOL    HW137907   3.403   2.289  14.094  0.7829 -4.0641 -0.5770
 8816SOL    HW237908   3.278   2.348  14.155  0.5361  0.8795  0.9868
 8817SOL     OW37909   0.076   2.906  13.004 -0.0478 -0.1627  0.1673
 8817SOL    HW137910   4.708   2.911  13.030  0.1906 -3.6266  1.6387
 8817SOL    HW237911   0.108   2.992  13.033 -2.4063  0.5522  0.6253
 8818SOL     OW37912   1.429   3.787  10.488 -0.0410 -0.7766  0.1278
 8818SOL    HW137913   1.372   3.864  10.494 -1.6923 -2.1186  1.6532
 8818SOL    HW237914   1.498   3.821  10.545  0.8495 -1.1027 -0.7535
 8819SOL     OW37915   1.605   3.946   9.677 -0.1875 -0.3694  0.3371
 8819SOL    HW137916   1.575   3.872   9.730 -1.7451  0.0614  0.0280
 8819SOL    HW237917   1.544   4.016   9.699 -0.3663 -0.5595  0.4464
 8820SOL     OW37918   4.185   0.451  12.705  0.1108  0.2327  0.0928
 8820SOL    HW137919   4.148   0.529  12.745  0.3052  1.2456 -1.7259
 8820SOL    HW237920   4.264   0.437  12.758  0.3415 -0.2968 -0.3941
 8821SOL     OW37921   2.326   1.267  11.084  0.8963 -0.0480 -0.0346
 8821SOL    HW137922   2.256   1.263  11.149 -0.8185  0.9008 -1.8412
 8821SOL    HW237923   2.361   1.355  11.099  0.8647 -0.5481  2.9619
 8822SOL     OW37924   3.018   1.977  17.389 -0.2360  0.5240 -0.1656
 8822SOL    HW137925   3.013   1.935  17.303  1.2383  2.0659 -1.0056
 8822SOL    HW237926   2.967   2.055  17.371  1.2518  2.0939  2.4559
 8823SOL     OW37927   2.102   1.552   4.519 -0.0679 -0.6709  0.2054
 8823SOL    HW137928   2.160   1.598   4.458 -2.9154  0.5650 -1.5079
 8823SOL    HW237929   2.093   1.619   4.588 -0.7995  0.8408 -1.3694
 8824SOL     OW37930   3.562   0.181   0.425  0.1271  0.1165 -0.0813
 8824SOL    HW137931   3.499   0.166   0.355 -2.2590  0.7612  1.9105
 8824SOL    HW237932   3.573   0.276   0.422 -2.2081  0.3763 -0.7374
 8825SOL     OW37933   1.354   0.528   7.672  0.6380  0.2962 -0.0296
 8825SOL    HW137934   1.282   0.587   7.694  0.4284 -0.2469  0.7178
 8825SOL    HW237935   1.338   0.471   7.747  2.6768 -1.0731 -0.6314
 8826SOL     OW37936   0.565   2.442  16.717 -0.0848  0.1471 -0.3353
 8826SOL    HW137937   0.522   2.403  16.640 -0.0509  0.3153 -0.4399
 8826SOL    HW237938   0.498   2.488  16.767 -0.0029 -0.8456  0.6770
 8827SOL     OW37939   2.950   2.168   4.782  0.6592 -0.0166  0.1392
 8827SOL    HW137940   2.888   2.104   4.747 -0.5424  1.1295  0.1864
 8827SOL    HW237941   2.894   2.241   4.809  2.3022  1.9355 -1.6397
 8828SOL     OW37942   1.799   2.795  10.654 -0.3010 -0.1848  0.0498
 8828SOL    HW137943   1.848   2.870  10.622 -2.0033  0.9247  0.0281
 8828SOL    HW237944   1.795   2.739  10.576  0.0960 -1.0635  0.6615
 8829SOL     OW37945   2.984   3.393   4.057 -0.6584 -0.3614 -0.0975
 8829SOL    HW137946   2.905   3.379   4.004 -1.8388 -0.2016  1.5911
 8829SOL    HW237947   2.994   3.484   4.029  0.8414 -0.9513 -1.4886
 8830SOL     OW37948   4.217   2.798  17.503  0.2573  0.1385 -0.1144
 8830SOL    HW137949   4.275   2.825  17.574  0.6936  2.0115 -1.1809
 8830SOL    HW237950   4.277   2.797  17.428 -1.9392 -0.4126 -1.8962
 8831SOL     OW37951   0.403   1.874  16.632 -0.0998  0.0184  0.7326
 8831SOL    HW137952   0.499   1.868  16.627 -0.2740 -0.3823 -2.0451
 8831SOL    HW237953   0.394   1.920  16.715  2.7292 -0.7262  1.4725
 8832SOL     OW37954   3.808   1.308   6.388 -0.5099 -0.3107  0.4283
 8832SOL    HW137955   3.833   1.390   6.431  0.3921  0.3388 -1.3461
 8832SOL    HW237956   3.893   1.265   6.379 -0.0196  1.1405 -1.6813
 8833SOL     OW37957   4.398   2.101   6.322 -0.4855 -0.2590  0.0182
 8833SOL    HW137958   4.485   2.072   6.296  0.0744 -0.8605  2.5676
 8833SOL    HW237959   4.395   2.065   6.410  0.7260  0.4580  0.3495
 8834SOL     OW37960   0.152   1.541  15.455  0.1612  0.0419 -0.6875
 8834SOL    HW137961   0.181   1.624  15.492  3.4480 -2.5277  2.5288
 8834SOL    HW237962   0.061   1.569  15.465 -0.4240 -2.3603  0.7497
 8835SOL     OW37963   4.592   0.805   3.443  0.9371  0.5210 -0.0092
 8835SOL    HW137964   4.552   0.754   3.372 -0.8603  0.0228  1.3573
 8835SOL    HW237965   4.552   0.767   3.521  1.2326 -1.1569 -0.6783
 8836SOL     OW37966   1.937   0.434   3.733  0.3547  0.4917  0.3658
 8836SOL    HW137967   1.965   0.406   3.646 -4.2941 -5.2652  0.7164
 8836SOL    HW237968   2.016   0.485   3.752  0.2472  0.8356 -0.1293
 8837SOL     OW37969   3.907   2.915  14.118 -0.4226 -0.5004  0.2913
 8837SOL    HW137970   3.899   2.898  14.025 -0.8010 -1.3030  0.4700
 8837SOL    HW237971   3.899   2.822  14.138 -1.1275 -0.3552  0.6863
 8838SOL     OW37972   1.438   2.157   1.560 -0.7725  0.2749 -0.1055
 8838SOL    HW137973   1.383   2.079   1.558 -1.8589  1.0421  0.2819
 8838SOL    HW237974   1.527   2.122   1.549 -1.0062 -0.6485  0.9925
 8839SOL     OW37975   2.463   2.787   1.016  0.3568  0.5432 -0.4335
 8839SOL    HW137976   2.471   2.857   1.081 -0.4679 -1.9045  2.2788
 8839SOL    HW237977   2.431   2.842   0.944 -1.0152  0.3763  0.0545
 8840SOL     OW37978   1.766   2.607   4.830  0.4267  0.7014 -0.1693
 8840SOL    HW137979   1.828   2.550   4.784  0.9514  0.4723  0.8276
 8840SOL    HW237980   1.712   2.553   4.887  0.9099 -1.3109 -1.5957
 8841SOL     OW37981   4.612   3.102   3.838  0.2081  0.1471  0.4494
 8841SOL    HW137982   4.541   3.065   3.785  0.4807  0.2692 -0.0084
 8841SOL    HW237983   4.612   3.195   3.817 -0.3139  0.1880  0.6258
 8842SOL     OW37984   1.911   4.214   3.481 -0.0441  0.2541 -0.4691
 8842SOL    HW137985   2.001   4.215   3.514 -0.7760 -0.0971  1.5355
 8842SOL    HW237986   1.865   4.251   3.557 -0.8937 -1.7276 -0.0164
 8843SOL     OW37987   1.148   0.101   7.854  0.7790  0.4191  0.0932
 8843SOL    HW137988   1.056   0.117   7.831  0.2854 -1.6186  0.6683
 8843SOL    HW237989   1.169   0.044   7.780  1.4092  1.5502 -0.6130
 8844SOL     OW37990   2.299   3.425   9.642 -0.2183 -0.1778  0.3060
 8844SOL    HW137991   2.234   3.444   9.710 -1.2449 -1.8548 -0.1985
 8844SOL    HW237992   2.262   3.477   9.571 -1.6130 -1.3062  0.1942
 8845SOL     OW37993   0.047   0.492   5.702  0.0262  0.0971 -0.2689
 8845SOL    HW137994   0.018   0.483   5.611  1.2169  0.2296 -0.6659
 8845SOL    HW237995   0.134   0.529   5.688 -1.2179  2.7951 -0.9478
 8846SOL     OW37996   4.365   4.256  13.185  0.4588  0.3023 -0.1187
 8846SOL    HW137997   4.352   4.351  13.178 -0.2404  0.1640 -0.6918
 8846SOL    HW237998   4.307   4.219  13.119  1.4855 -2.0218  0.2827
 8847SOL     OW37999   4.152   2.170  15.629 -0.0801 -0.4159 -0.2666
 8847SOL    HW138000   4.085   2.217  15.578 -0.2091 -0.2524  0.0554
 8847SOL    HW238001   4.197   2.244  15.669  0.0540 -1.1578  0.9469
 8848SOL     OW38002   1.773   2.276   3.468  0.2963 -0.3600  0.2404
 8848SOL    HW138003   1.712   2.230   3.411 -0.9934  2.3525 -0.5422
 8848SOL    HW238004   1.720   2.354   3.484  1.4604  0.8837 -1.9757
 8849SOL     OW38005   4.626   3.144   5.554  0.3026  0.6809 -0.0642
 8849SOL    HW138006   4.716   3.133   5.525  0.7796  1.1465  1.2524
 8849SOL    HW238007   4.602   3.208   5.486 -1.4836 -0.3451 -0.4079
 8850SOL     OW38008   2.367   1.033  15.365 -0.6080  0.3818  0.8409
 8850SOL    HW138009   2.421   1.113  15.365 -0.3436  0.2016 -0.8416
 8850SOL    HW238010   2.323   1.026  15.280 -1.8633  2.2811  1.3241
 8851SOL     OW38011   2.937   0.246  12.197  0.2779  0.1068  0.2257
 8851SOL    HW138012   2.931   0.198  12.114  3.6039  2.2254 -1.2574
 8851SOL    HW238013   2.845   0.256  12.221  0.5240  3.1504 -0.1436
 8852SOL     OW38014   2.855   1.400   4.611 -0.0573  0.4323 -0.3861
 8852SOL    HW138015   2.904   1.354   4.679 -0.5876  0.6563  0.1510
 8852SOL    HW238016   2.883   1.352   4.534  1.0760  0.0951  0.2334
 8853SOL     OW38017   4.649   4.489   6.943  0.2996  0.0380 -0.0240
 8853SOL    HW138018   4.568   4.538   6.952  0.7627  0.9882 -1.1165
 8853SOL    HW238019   4.702   4.551   6.893 -0.0343  0.5943  0.3105
 8854SOL     OW38020   3.215   0.033   1.204  0.6676  0.1864  0.3705
 8854SOL    HW138021   3.308   0.038   1.181  0.0354 -1.0551 -2.4261
 8854SOL    HW238022   3.220   0.034   1.300 -1.3852  0.3466  0.4781
 8855SOL     OW38023   3.315   0.660   5.863 -0.3646  0.0646 -0.4311
 8855SOL    HW138024   3.331   0.573   5.825  1.9073  0.2275  0.1564
 8855SOL    HW238025   3.220   0.670   5.860 -0.3408  0.6233  0.8214
 8856SOL     OW38026   1.135   3.081   4.133 -0.0338 -0.8410  0.2864
 8856SOL    HW138027   1.195   3.039   4.072  0.0654 -0.6818  0.2745
 8856SOL    HW238028   1.049   3.065   4.096  1.0056 -0.7713 -2.1736
 8857SOL     OW38029   0.862   1.024   9.517  0.0077  0.1947 -0.2296
 8857SOL    HW138030   0.932   0.977   9.471  1.8838  0.7763  2.0322
 8857SOL    HW238031   0.790   0.962   9.503 -0.6991  0.6072  1.5863
 8858SOL     OW38032   4.369   0.193  12.447 -0.5343 -0.3972  0.0558
 8858SOL    HW138033   4.382   0.100  12.466  1.3694 -0.7642 -3.1226
 8858SOL    HW238034   4.460   0.221  12.450 -0.4997 -0.5044 -0.0253
 8859SOL     OW38035   2.221   4.561  11.825 -0.9228 -0.9207 -0.4625
 8859SOL    HW138036   2.136   4.604  11.815 -0.7425 -0.7617 -1.2901
 8859SOL    HW238037   2.265   4.628  11.876 -0.3348 -1.7439  0.1169
 8860SOL     OW38038   1.677   1.073   5.900  0.1345  0.4888  0.2042
 8860SOL    HW138039   1.663   1.090   5.993 -0.9781 -0.7011  0.2598
 8860SOL    HW238040   1.633   0.989   5.891  0.0953  0.3556  1.6816
 8861SOL     OW38041   4.469   2.163   5.963  0.4405  0.0670 -0.1560
 8861SOL    HW138042   4.486   2.085   5.911  0.9656  0.4813 -0.5964
 8861SOL    HW238043   4.534   2.165   6.034  0.2995 -0.4254 -0.0138
 8862SOL     OW38044   0.610   0.809   5.838 -0.6167 -0.1171  0.1760
 8862SOL    HW138045   0.550   0.845   5.904  0.8939  0.1023  1.4290
 8862SOL    HW238046   0.692   0.816   5.887 -0.4806  0.2879 -0.1109
 8863SOL     OW38047   1.143   3.768  12.799  0.0114 -0.1510 -0.0445
 8863SOL    HW138048   1.194   3.835  12.753 -2.1541  1.4389 -0.1477
 8863SOL    HW238049   1.159   3.692  12.744  0.1974 -0.1283 -0.0197
 8864SOL     OW38050   3.033   4.367   7.139 -0.1058  0.2396 -0.4062
 8864SOL    HW138051   3.032   4.463   7.141  2.2566  0.2554  0.3020
 8864SOL    HW238052   3.013   4.352   7.232  1.5663 -1.2855 -0.3026
 8865SOL     OW38053   1.555   0.125   7.385 -0.2729  0.0999 -0.2396
 8865SOL    HW138054   1.468   0.092   7.364 -0.4256 -0.3588  1.1415
 8865SOL    HW238055   1.562   0.109   7.479 -1.1356  1.2215  0.0152
 8866SOL     OW38056   2.998   1.201   4.741 -0.2667 -1.0822  0.8642
 8866SOL    HW138057   3.032   1.117   4.772  0.8130 -0.1842  2.1626
 8866SOL    HW238058   2.973   1.176   4.652  0.8187 -0.2157  0.3088
 8867SOL     OW38059   3.411   1.797  10.215  0.5565  0.1582  0.1493
 8867SOL    HW138060   3.454   1.881  10.231 -1.1536  1.2938 -1.2415
 8867SOL    HW238061   3.340   1.814  10.277  0.7350 -0.7081  0.5960
 8868SOL     OW38062   1.898   2.938   4.603 -0.0633  0.1237 -0.5801
 8868SOL    HW138063   1.983   2.975   4.579 -0.0191  2.0655  2.5025
 8868SOL    HW238064   1.855   3.018   4.634  0.4766 -0.9699  3.0195
 8869SOL     OW38065   4.557   4.166   5.149 -0.0834  0.2585  0.3437
 8869SOL    HW138066   4.514   4.185   5.065 -2.9227  0.2169  1.7825
 8869SOL    HW238067   4.619   4.102   5.114  0.2651  0.2452  0.9925
 8870SOL     OW38068   0.302   2.207   6.992 -0.0136  0.6772  1.1273
 8870SOL    HW138069   0.225   2.187   6.939 -0.1739  0.1001  1.5704
 8870SOL    HW238070   0.333   2.120   7.015  0.6952  0.6065 -0.1295
 8871SOL     OW38071   3.360   4.552   1.753  0.0943  0.5462 -0.1066
 8871SOL    HW138072   3.424   4.552   1.682 -1.0135 -1.2974 -1.1345
 8871SOL    HW238073   3.281   4.582   1.708 -1.2660 -2.2653  0.3448
 8872SOL     OW38074   1.831   1.034   7.040 -0.2165 -0.5450 -0.1433
 8872SOL    HW138075   1.739   1.032   7.066 -0.5061 -1.0812 -1.2206
 8872SOL    HW238076   1.833   1.122   7.076 -1.6364  0.5089 -2.6441
 8873SOL     OW38077   1.132   1.483   6.844 -0.5455  0.5099 -0.2397
 8873SOL    HW138078   1.099   1.554   6.899 -0.2839  0.9009 -0.5888
 8873SOL    HW238079   1.192   1.523   6.781  1.5311 -0.5724  1.0419
 8874SOL     OW38080   1.450   2.308   9.911  1.3069 -0.2230  0.3460
 8874SOL    HW138081   1.472   2.215   9.915 -1.4276 -0.8854  0.0593
 8874SOL    HW238082   1.515   2.344   9.971  2.1041 -1.8730  0.4595
 8875SOL     OW38083   2.841   0.894   6.985 -0.1822 -0.4091  0.0612
 8875SOL    HW138084   2.829   0.855   6.898 -1.4671 -1.9426  0.9046
 8875SOL    HW238085   2.933   0.880   7.006 -0.6293 -2.8571  0.4534
 8876SOL     OW38086   2.990   3.726   6.232 -0.7545  0.5390  0.1826
 8876SOL    HW138087   2.991   3.664   6.159  1.0226 -0.9476  1.4477
 8876SOL    HW238088   3.084   3.745   6.242 -0.8326  1.0959 -0.1429
 8877SOL     OW38089   3.834   1.311  13.605 -0.3688  0.2644 -0.1658
 8877SOL    HW138090   3.829   1.401  13.574 -1.1960  1.0354  2.1897
 8877SOL    HW238091   3.835   1.271  13.518  0.8647 -1.3563  0.6043
 8878SOL     OW38092   2.412   2.062   0.571 -0.0702 -0.4278 -0.0095
 8878SOL    HW138093   2.434   2.064   0.478 -0.7408 -2.0698 -0.2071
 8878SOL    HW238094   2.378   2.151   0.582  1.6653  0.1596  0.7667
 8879SOL     OW38095   0.774   3.256   3.072 -0.4952  0.5554 -0.2437
 8879SOL    HW138096   0.845   3.209   3.117 -1.5390 -2.2839 -1.5828
 8879SOL    HW238097   0.748   3.181   3.019 -1.2732 -0.2160  1.2286
 8880SOL     OW38098   0.027   1.052   7.881 -0.6749 -0.4367  0.3466
 8880SOL    HW138099   4.674   1.014   7.839  0.1935 -2.8642  0.9141
 8880SOL    HW238100   4.720   1.142   7.889  0.9081  0.1792 -0.5514
 8881SOL     OW38101   4.682   0.637   4.201 -0.0581  0.3129  0.0548
 8881SOL    HW138102   4.596   0.661   4.168 -0.1803  1.8493  1.4659
 8881SOL    HW238103   4.723   0.723   4.188 -2.3846  1.3258 -0.4155
 8882SOL     OW38104   0.320   1.530  13.788 -0.0345  0.3055 -0.0786
 8882SOL    HW138105   0.384   1.585  13.744  0.8802 -2.1302 -1.7550
 8882SOL    HW238106   0.338   1.553  13.879 -0.6403  0.2837  0.0517
 8883SOL     OW38107   4.615   1.025   1.797 -0.1059  0.0276  0.2715
 8883SOL    HW138108   4.570   1.029   1.882 -0.0697 -0.2631  0.3037
 8883SOL    HW238109   4.547   1.056   1.737  0.2506  0.2645 -0.0034
 8884SOL     OW38110   3.227   3.668  11.486 -0.0128 -0.7041  0.1136
 8884SOL    HW138111   3.309   3.677  11.437  0.5909 -0.6380  1.1237
 8884SOL    HW238112   3.183   3.751  11.468 -1.7605 -1.7733 -0.5200
 8885SOL     OW38113   0.228   3.479   8.143  0.6265  0.3032  0.5800
 8885SOL    HW138114   0.279   3.465   8.063  0.3978 -1.0232  0.6608
 8885SOL    HW238115   0.202   3.568   8.122 -0.4316 -0.1079  0.1567
 8886SOL     OW38116   2.163   1.667   9.963  0.3037 -0.1785 -0.1244
 8886SOL    HW138117   2.251   1.653   9.928  1.0954  0.2789  1.7108
 8886SOL    HW238118   2.152   1.759   9.940 -0.8361 -0.6009 -1.3166
 8887SOL     OW38119   2.316   4.369   7.397  0.1162 -0.1788  0.0831
 8887SOL    HW138120   2.360   4.389   7.314 -0.2150  0.0809 -0.0292
 8887SOL    HW238121   2.276   4.454   7.417 -1.6226 -1.1025  0.4873
 8888SOL     OW38122   3.506   2.896  11.447 -0.2870  0.3871  0.8190
 8888SOL    HW138123   3.531   2.868  11.535 -0.1041 -0.4292  0.5045
 8888SOL    HW238124   3.433   2.835  11.440 -1.4493  1.6584  1.9501
 8889SOL     OW38125   4.495   0.423   5.726 -0.1124 -0.1390 -0.6475
 8889SOL    HW138126   4.584   0.458   5.720  0.5300 -1.2377  2.8829
 8889SOL    HW238127   4.454   0.480   5.790  0.6693 -1.1884  0.7902
 8890SOL     OW38128   1.461   2.417   2.848 -0.1851 -0.8239 -0.2650
 8890SOL    HW138129   1.439   2.397   2.757  0.9175 -0.5115 -0.6010
 8890SOL    HW238130   1.551   2.384   2.846  0.2462  0.3101  0.8117
 8891SOL     OW38131   1.550   4.158   1.788 -0.5505  0.0101 -0.3215
 8891SOL    HW138132   1.579   4.143   1.698 -1.3108 -1.0302 -0.3919
 8891SOL    HW238133   1.466   4.194   1.758 -0.4513  0.7867  0.3414
 8892SOL     OW38134   1.438   1.376   9.682 -0.2206 -0.1693 -0.2219
 8892SOL    HW138135   1.491   1.296   9.682 -0.4240 -0.2925 -1.6142
 8892SOL    HW238136   1.413   1.380   9.590  0.1699  1.7084 -0.2381
 8893SOL     OW38137   1.507   2.301   8.587  0.2861  0.0135  0.6192
 8893SOL    HW138138   1.422   2.302   8.542  0.0586 -1.7403  1.0045
 8893SOL    HW238139   1.526   2.388   8.621 -0.8895 -0.1390  1.6842
 8894SOL     OW38140   1.563   0.598  17.083  0.1096  0.6476  0.5235
 8894SOL    HW138141   1.529   0.608  17.172 -0.8356 -0.1532  0.2453
 8894SOL    HW238142   1.560   0.502  17.076 -2.5159  0.5996  2.2783
 8895SOL     OW38143   3.736   1.685  13.424 -0.1101  0.0910 -0.5815
 8895SOL    HW138144   3.703   1.728  13.503 -0.2772  2.2461 -1.8167
 8895SOL    HW238145   3.783   1.759  13.384  0.1875 -0.8443 -1.9851
 8896SOL     OW38146   3.588   0.447  10.336 -0.0188  0.9278  0.7144
 8896SOL    HW138147   3.665   0.418  10.385  0.3049 -1.1756 -1.0569
 8896SOL    HW238148   3.539   0.493  10.403  0.6408  1.2506  0.9800
 8897SOL     OW38149   1.197   0.650   6.393 -0.2576  0.3984  0.4361
 8897SOL    HW138150   1.139   0.599   6.336  0.3152 -0.2969  0.4774
 8897SOL    HW238151   1.224   0.726   6.341  0.3287  0.7433  1.2480
 8898SOL     OW38152   0.215   1.693   7.568 -0.0811  0.0155 -0.2911
 8898SOL    HW138153   0.134   1.643   7.567 -0.8877  1.2746  1.9628
 8898SOL    HW238154   0.281   1.629   7.542  1.1515  0.9119  0.5973
 8899SOL     OW38155   0.794   1.754   2.076 -0.0922  0.2322 -0.4273
 8899SOL    HW138156   0.753   1.782   2.158 -0.9153 -1.2209 -0.3288
 8899SOL    HW238157   0.778   1.824   2.013  1.7788  3.0566  2.2175
 8900SOL     OW38158   3.092   0.634   6.929  0.0820  0.1424 -0.3103
 8900SOL    HW138159   3.177   0.595   6.946 -0.6542 -1.0262  0.6550
 8900SOL    HW238160   3.048   0.549   6.926  0.3167 -0.0031  0.6504
 8901SOL     OW38161   2.337   0.766   6.626  0.0882  0.4750  0.1185
 8901SOL    HW138162   2.247   0.783   6.654 -0.5620  1.1051 -2.3579
 8901SOL    HW238163   2.381   0.733   6.704  0.7272  1.0476  0.0027
 8902SOL     OW38164   0.993   4.650   7.324  0.8351  0.0388  0.1565
 8902SOL    HW138165   1.000   4.617   7.235  1.5906  0.3536  0.1070
 8902SOL    HW238166   1.083   4.630   7.348  0.7741 -1.0884 -0.5763
 8903SOL     OW38167   4.442   1.137   3.341  0.6170  0.2182 -0.1856
 8903SOL    HW138168   4.444   1.138   3.245 -0.2019 -1.1796 -0.2087
 8903SOL    HW238169   4.534   1.121   3.365  0.6884  2.4453  1.0893
 8904SOL     OW38170   0.488   2.998   8.457 -0.1962 -0.2308  0.2446
 8904SOL    HW138171   0.394   2.978   8.446 -0.4205  1.2225 -0.5250
 8904SOL    HW238172   0.484   3.039   8.543  0.2678  1.7929 -0.6907
 8905SOL     OW38173   1.705   1.807   8.761  0.6612 -0.4411  0.2206
 8905SOL    HW138174   1.657   1.880   8.801  3.2131  1.5919 -0.5172
 8905SOL    HW238175   1.641   1.784   8.694  0.0898 -1.2736  1.0380
 8906SOL     OW38176   2.740   3.717   6.064 -0.1918  0.2487  1.4600
 8906SOL    HW138177   2.662   3.772   6.068 -1.1585 -0.8878 -1.3862
 8906SOL    HW238178   2.797   3.781   6.106  0.0480 -0.8798  2.8359
 8907SOL     OW38179   2.547   0.132   4.574  0.0334 -0.1522 -0.0370
 8907SOL    HW138180   2.631   0.091   4.591 -0.5950 -1.6662 -0.6119
 8907SOL    HW238181   2.545   0.147   4.479  1.0965  1.6821  0.2187
 8908SOL     OW38182   2.645   3.225   1.248 -0.3254 -0.0994 -0.5648
 8908SOL    HW138183   2.738   3.212   1.266  0.0459  0.8724 -1.7697
 8908SOL    HW238184   2.635   3.270   1.164 -1.2015 -0.4783 -0.6581
 8909SOL     OW38185   3.473   1.099   7.631 -0.0880  0.9915 -0.0727
 8909SOL    HW138186   3.380   1.084   7.644 -0.2975  0.5709 -2.0772
 8909SOL    HW238187   3.475   1.190   7.601 -0.4383  1.5131  1.5126
 8910SOL     OW38188   0.903   1.948   6.852  1.1300  0.3084 -0.2284
 8910SOL    HW138189   0.957   2.025   6.834  0.5000  0.3961 -1.6977
 8910SOL    HW238190   0.928   1.895   6.777  2.2065 -0.2963  0.5576
 8911SOL     OW38191   0.690   3.250   5.746  0.1991 -0.0353  0.3558
 8911SOL    HW138192   0.668   3.287   5.661  2.1502  0.0441 -0.1201
 8911SOL    HW238193   0.721   3.162   5.722 -1.2558 -0.3313 -0.4491
 8912SOL     OW38194   0.647   2.876   4.181  0.1581 -0.5577  0.1448
 8912SOL    HW138195   0.594   2.797   4.175 -1.6068  0.5728  0.9238
 8912SOL    HW238196   0.699   2.855   4.103 -0.2452  2.5427 -0.9849
 8913SOL     OW38197   1.589   2.507   2.010  0.5737  0.1361 -0.1459
 8913SOL    HW138198   1.515   2.556   1.975 -0.6765 -1.2211  0.5980
 8913SOL    HW238199   1.603   2.443   1.941 -0.5587 -0.8483  0.5457
 8914SOL     OW38200   1.261   1.055   3.248  0.2050  0.0813 -0.8235
 8914SOL    HW138201   1.245   0.971   3.292  1.4774  0.8623  1.1191
 8914SOL    HW238202   1.356   1.060   3.260  0.1521  0.0983 -0.4257
 8915SOL     OW38203   0.190   2.276   1.176  0.7381  0.0576 -0.1516
 8915SOL    HW138204   0.124   2.263   1.107  0.2965  1.7811 -0.0600
 8915SOL    HW238205   0.185   2.194   1.226  0.1313 -0.4847 -1.0930
 8916SOL     OW38206   0.716   0.349   2.565  0.3680  0.3178  0.2845
 8916SOL    HW138207   0.706   0.316   2.476 -0.8008  0.9522  0.1686
 8916SOL    HW238208   0.775   0.419   2.539  0.3240  0.0900 -0.4107
 8917SOL     OW38209   1.928   2.027   4.475 -0.0282 -0.0771 -0.1297
 8917SOL    HW138210   1.879   1.945   4.465 -0.7169  0.2559  0.5750
 8917SOL    HW238211   1.952   2.030   4.567 -2.1593 -0.5965  0.4516
 8918SOL     OW38212   1.203   3.612   3.248  0.2459 -0.1796 -0.1251
 8918SOL    HW138213   1.141   3.543   3.271 -0.5824 -0.5037 -3.2628
 8918SOL    HW238214   1.273   3.555   3.215 -0.2078 -2.0208  2.1082
 8919SOL     OW38215   1.159   1.213   1.994  0.5702 -0.0122  0.2789
 8919SOL    HW138216   1.182   1.126   2.028  4.7234  0.9528 -0.0204
 8919SOL    HW238217   1.139   1.264   2.072  0.5696  1.5542 -0.7322
 8920SOL     OW38218   4.190   3.888   6.571  0.4945  0.3158 -0.0366
 8920SOL    HW138219   4.212   3.819   6.633  1.1923  0.7420  0.1858
 8920SOL    HW238220   4.107   3.857   6.534  0.4054 -0.2000  0.5905
 8921SOL     OW38221   4.628   1.763   1.942 -0.0626  0.1652 -0.7628
 8921SOL    HW138222   4.600   1.721   2.023 -2.6615 -1.8394 -2.6854
 8921SOL    HW238223   4.550   1.766   1.885 -0.2522  0.7373 -0.4667
 8922SOL     OW38224   4.240   2.498   7.672 -0.0748  0.1068 -0.0185
 8922SOL    HW138225   4.238   2.443   7.750  0.6130 -0.1128 -0.1550
 8922SOL    HW238226   4.195   2.569   7.717  0.8950  1.6192 -1.4078
 8923SOL     OW38227   0.795   0.848   6.027 -0.1008 -0.5052 -0.2184
 8923SOL    HW138228   0.757   0.787   6.090  1.2810  0.5742  1.6428
 8923SOL    HW238229   0.799   0.934   6.068 -0.7642 -1.2020  1.3090
 8924SOL     OW38230   4.338   1.056   1.704  0.0321 -0.4062 -0.6044
 8924SOL    HW138231   4.252   1.073   1.667  0.1595  0.0747 -0.6839
 8924SOL    HW238232   4.326   0.962   1.716  0.6213 -0.2784  0.9968
 8925SOL     OW38233   4.320   0.273   9.222 -0.3499 -0.3292 -0.9634
 8925SOL    HW138234   4.296   0.208   9.288 -2.1401  1.3669  0.0262
 8925SOL    HW238235   4.235   0.279   9.180 -0.6113 -2.5835 -0.7768
 8926SOL     OW38236   1.965   0.473   4.925  0.4259 -0.0074  0.1103
 8926SOL    HW138237   1.992   0.544   4.867  0.5791 -0.2930 -0.1714
 8926SOL    HW238238   1.978   0.400   4.865  0.2131  0.8963 -1.0289
 8927SOL     OW38239   4.602   3.696   5.784 -1.0095 -0.3791 -0.2243
 8927SOL    HW138240   4.630   3.688   5.876  0.1351  0.9618 -0.4539
 8927SOL    HW238241   4.550   3.620   5.759  1.5410 -1.4702 -2.2789
 8928SOL     OW38242   3.623   4.413   1.829  0.0109  0.6665 -0.0961
 8928SOL    HW138243   3.707   4.408   1.784  0.1298 -1.1476  0.3374
 8928SOL    HW238244   3.600   4.506   1.825 -3.2235 -0.0267  2.5437
 8929SOL     OW38245   4.404   1.703   2.897 -0.3982  0.0588  0.3232
 8929SOL    HW138246   4.480   1.661   2.937  0.3687 -0.1856 -1.3947
 8929SOL    HW238247   4.437   1.788   2.867  1.0365 -0.3115  0.8538
 8930SOL     OW38248   1.182   0.106  14.161  0.7007  0.0620  0.6228
 8930SOL    HW138249   1.115   0.152  14.210  1.2261 -1.4564  2.7975
 8930SOL    HW238250   1.259   0.161  14.177 -0.1312  1.1920  0.7213
 8931SOL     OW38251   2.263   0.070   0.680  0.1141  0.1277 -0.0939
 8931SOL    HW138252   2.185   0.026   0.714 -0.8789  1.1275 -1.0884
 8931SOL    HW238253   2.308   4.721   0.637 -0.9848 -1.3017  1.1440
 8932SOL     OW38254   0.448   0.443  12.550 -0.5611 -0.2288  0.2348
 8932SOL    HW138255   0.526   0.406  12.509 -0.0499 -1.1408  2.0192
 8932SOL    HW238256   0.436   0.384  12.624  0.5363 -0.3963  0.2818
 8933SOL     OW38257   1.178   0.290   8.725 -0.0348 -0.7114 -0.0328
 8933SOL    HW138258   1.101   0.311   8.779  0.1959 -1.2269  0.4944
 8933SOL    HW238259   1.234   0.367   8.733 -1.6680  0.6090 -1.3018
 8934SOL     OW38260   1.791   4.254   5.988  1.0706  0.3437  0.3826
 8934SOL    HW138261   1.843   4.238   5.910 -1.5470 -0.7422 -1.1286
 8934SOL    HW238262   1.717   4.194   5.978  1.1919  0.4769 -1.2141
 8935SOL     OW38263   2.585   0.613   5.047  0.7516 -0.7570  0.3855
 8935SOL    HW138264   2.493   0.597   5.026  0.8090 -2.4722  1.4350
 8935SOL    HW238265   2.632   0.584   4.969  1.7402 -1.5061  1.2638
 8936SOL     OW38266   3.591   1.344   4.150 -0.7215  0.3715 -0.0764
 8936SOL    HW138267   3.623   1.313   4.234  0.2453 -1.1406 -1.0165
 8936SOL    HW238268   3.607   1.267   4.096 -0.7497  1.1902 -1.2532
 8937SOL     OW38269   3.467   2.207  10.756 -0.3721  0.6282 -0.4848
 8937SOL    HW138270   3.434   2.241  10.839 -1.5451 -3.0517  0.5308
 8937SOL    HW238271   3.526   2.281  10.738  0.1948 -0.3545 -2.5805
 8938SOL     OW38272   2.187   1.333   1.579 -0.0382  0.3351 -0.2889
 8938SOL    HW138273   2.261   1.302   1.631  0.6671 -1.0776 -2.1591
 8938SOL    HW238274   2.115   1.324   1.642 -0.7152 -0.1816 -1.1488
 8939SOL     OW38275   4.550   2.212   1.405  0.2807  0.7679  0.0134
 8939SOL    HW138276   4.539   2.117   1.402  1.7173  0.4821  3.6009
 8939SOL    HW238277   4.558   2.211   1.501 -1.2668 -3.3316  0.0891
 8940SOL     OW38278   0.840   3.687   6.809 -0.7756  0.1865  0.7698
 8940SOL    HW138279   0.891   3.763   6.782 -1.1511 -0.4057 -1.5777
 8940SOL    HW238280   0.817   3.639   6.730 -1.3642  0.8217  0.5574
 8941SOL     OW38281   0.696   1.196   6.944 -0.9960  0.6512 -0.1438
 8941SOL    HW138282   0.788   1.221   6.941 -0.3088 -2.1051 -1.5357
 8941SOL    HW238283   0.659   1.271   6.992 -0.4404  0.1644  1.0516
 8942SOL     OW38284   1.026   2.830  12.161 -0.0595  0.6010  0.9690
 8942SOL    HW138285   1.061   2.900  12.107  1.0512 -0.2131  0.6468
 8942SOL    HW238286   0.959   2.886  12.202 -1.0125  0.0880  0.1116
 8943SOL     OW38287   0.234   0.234  14.104 -0.3789  0.1480  0.6688
 8943SOL    HW138288   0.197   0.292  14.171  0.1022 -0.5476  1.5327
 8943SOL    HW238289   0.161   0.241  14.043  0.4323  1.5582 -0.1177
 8944SOL     OW38290   0.571   4.236   3.582 -0.0847 -0.3601 -0.0680
 8944SOL    HW138291   0.528   4.241   3.668  1.1766  0.3836  0.5382
 8944SOL    HW238292   0.593   4.329   3.573 -0.0055 -0.3281  0.4473
 8945SOL     OW38293   1.143   4.035  10.117  0.0346 -0.4669  0.3458
 8945SOL    HW138294   1.225   3.990  10.141  0.7884  0.7632  0.0854
 8945SOL    HW238295   1.149   4.110  10.175  1.5527  0.5194 -1.0801
 8946SOL     OW38296   1.807   2.420  16.243 -0.3306  0.3133 -0.3321
 8946SOL    HW138297   1.754   2.496  16.219 -2.3376 -0.8092  0.5422
 8946SOL    HW238298   1.732   2.370  16.276 -0.9420  2.9110  2.2192
 8947SOL     OW38299   2.994   2.792  11.975 -0.3603 -0.3328 -0.0754
 8947SOL    HW138300   3.052   2.868  11.968  0.6854 -1.0324  0.9387
 8947SOL    HW238301   2.927   2.829  12.032  0.3517 -2.0187  1.8402
 8948SOL     OW38302   2.357   4.714   6.512  0.3377 -0.4034  0.2070
 8948SOL    HW138303   2.292   4.649   6.487 -1.8902  1.4673  1.1952
 8948SOL    HW238304   2.312   0.069   6.543 -0.3580  0.0988 -2.0763
 8949SOL     OW38305   3.496   3.935  14.684 -0.0653 -0.5802  0.1033
 8949SOL    HW138306   3.496   3.946  14.779  0.1510 -0.3381  0.0735
 8949SOL    HW238307   3.495   4.028  14.662  1.2905 -0.8299 -0.9526
 8950SOL     OW38308   2.861   4.396   8.431  0.2830  0.2959  0.1238
 8950SOL    HW138309   2.868   4.303   8.454  0.2842  0.1883 -0.3113
 8950SOL    HW238310   2.831   4.394   8.340  0.7192  1.6491 -0.0554
 8951SOL     OW38311   4.525   4.079  15.343 -0.5169 -0.0730 -0.0895
 8951SOL    HW138312   4.499   4.148  15.282 -0.6533 -0.2496 -0.2313
 8951SOL    HW238313   4.449   4.077  15.402 -1.6364 -0.3100 -1.5257
 8952SOL     OW38314   1.449   2.846   3.812 -0.6463 -0.3172  0.1012
 8952SOL    HW138315   1.414   2.786   3.877 -1.5759 -0.5371 -0.6076
 8952SOL    HW238316   1.459   2.800   3.729 -1.0097 -1.7547  0.8513
 8953SOL     OW38317   3.674   1.439   0.109  0.2771 -0.2597  0.1100
 8953SOL    HW138318   3.649   1.419   0.199  0.3899 -1.0010 -0.0259
 8953SOL    HW238319   3.765   1.413   0.099  0.4831  0.2882  0.5847
 8954SOL     OW38320   3.037   2.187  14.918  0.0719  0.0768  0.2062
 8954SOL    HW138321   3.063   2.145  15.000  0.7402  2.4112  1.1976
 8954SOL    HW238322   3.083   2.271  14.927 -0.2790  0.2232  0.6734
 8955SOL     OW38323   1.267   1.699  16.956  0.0406 -0.4560  0.0020
 8955SOL    HW138324   1.327   1.760  16.912  0.5657 -1.0094 -0.0428
 8955SOL    HW238325   1.182   1.742  16.947 -0.1224 -0.6124  0.8768
 8956SOL     OW38326   2.966   1.015   2.812  0.7085 -0.4847  0.1437
 8956SOL    HW138327   3.023   1.022   2.735  0.3508  0.1891 -0.0543
 8956SOL    HW238328   3.007   0.970   2.886  2.6208  0.4401 -0.3577
 8957SOL     OW38329   4.236   4.069   7.584  0.0453 -0.1767 -0.2573
 8957SOL    HW138330   4.290   4.052   7.507 -0.7831 -0.8859 -0.6771
 8957SOL    HW238331   4.229   3.978   7.612 -1.0429  0.0678  0.2701
 8958SOL     OW38332   3.084   2.233   5.123 -0.5155  0.4021  0.4267
 8958SOL    HW138333   3.145   2.207   5.054  0.4187  1.0694  0.9879
 8958SOL    HW238334   3.092   2.165   5.190  0.7131 -1.1176 -1.2604
 8959SOL     OW38335   2.132   0.758  13.350  0.6045 -0.0153 -0.6829
 8959SOL    HW138336   2.137   0.826  13.417 -0.1874  0.8625 -1.5084
 8959SOL    HW238337   2.166   0.793  13.267 -0.3839  0.9903 -0.6677
 8960SOL     OW38338   4.652   0.720   6.975 -0.1658 -0.0740 -0.8599
 8960SOL    HW138339   4.619   0.798   6.929  0.7879 -0.7645 -2.7358
 8960SOL    HW238340   0.004   0.704   6.919  1.6341  3.2744  0.5835
 8961SOL     OW38341   2.075   1.423  12.338  0.1630 -0.0816  0.1777
 8961SOL    HW138342   2.070   1.499  12.397  2.6783  0.2067  0.0116
 8961SOL    HW238343   2.123   1.357  12.387  2.0515  0.5022 -0.8857
 8962SOL     OW38344   0.990   3.850   2.827 -0.0158  0.0650 -0.0959
 8962SOL    HW138345   0.976   3.767   2.781  0.9439 -0.4239  0.5007
 8962SOL    HW238346   0.944   3.837   2.910  0.7334  1.6337  0.5417
 8963SOL     OW38347   2.424   3.471   2.784  0.5528 -0.4363 -0.1794
 8963SOL    HW138348   2.517   3.495   2.787  0.4596  0.0182 -0.7460
 8963SOL    HW238349   2.403   3.498   2.694  1.9617  1.0825 -0.0519
 8964SOL     OW38350   2.945   4.517   4.012  0.1498  0.5874  0.0063
 8964SOL    HW138351   2.917   4.484   3.926  2.6830  1.3756 -1.1104
 8964SOL    HW238352   3.033   4.542   3.984  0.6356  0.4655  1.4721
 8965SOL     OW38353   1.904   0.081  10.582  1.2593  0.5072 -0.5106
 8965SOL    HW138354   1.863   0.054  10.500  1.3710  1.9729 -1.0352
 8965SOL    HW238355   1.822   0.096  10.629  0.4149 -0.9927 -1.4962
 8966SOL     OW38356   1.611   4.499   0.094  0.5939  0.5481 -0.0168
 8966SOL    HW138357   1.591   4.561   0.164  0.0242 -1.4356  1.5731
 8966SOL    HW238358   1.706   4.501   0.106  0.4775  3.5000  0.3264
 8967SOL     OW38359   2.709   0.091  15.072 -0.0253 -0.2555  0.4239
 8967SOL    HW138360   2.627   0.055  15.040  0.5292 -1.5103  0.3965
 8967SOL    HW238361   2.745   0.015  15.118  2.6229  0.8966  0.2792
 8968SOL     OW38362   1.872   1.067   9.691  0.3495  0.2119 -0.0960
 8968SOL    HW138363   1.918   1.002   9.743 -1.0150  0.0188  0.8775
 8968SOL    HW238364   1.918   1.080   9.608 -0.3706 -5.3802 -1.3252
 8969SOL     OW38365   1.737   0.253   2.523  0.2250  0.7697 -0.0932
 8969SOL    HW138366   1.830   0.270   2.538  0.1026  1.8469 -0.5218
 8969SOL    HW238367   1.747   0.242   2.428 -1.1765 -2.2320  0.1056
 8970SOL     OW38368   1.206   0.432  10.771  0.2173  0.1497  0.6333
 8970SOL    HW138369   1.269   0.452  10.703 -0.6149 -1.6919 -0.6901
 8970SOL    HW238370   1.128   0.400  10.726  0.8030 -2.5782  1.5470
 8971SOL     OW38371   2.264   4.446  13.030 -0.9511  0.5378  0.0365
 8971SOL    HW138372   2.315   4.417  13.106 -1.3546 -2.6713 -0.8909
 8971SOL    HW238373   2.305   4.398  12.958  0.8832  1.9000  0.1681
 8972SOL     OW38374   2.321   4.537  16.588 -0.1418 -0.6423 -0.4183
 8972SOL    HW138375   2.338   4.591  16.665 -1.3720 -0.1056 -0.5202
 8972SOL    HW238376   2.397   4.478  16.585  0.7112  0.5146 -1.5576
 8973SOL     OW38377   4.203   3.378  11.528  0.2223  0.3401 -0.1626
 8973SOL    HW138378   4.244   3.357  11.612 -1.6497 -1.0696  0.4011
 8973SOL    HW238379   4.198   3.289  11.493 -1.4360  0.6171 -0.6549
 8974SOL     OW38380   1.121   4.253   6.492 -0.2981  0.5324  0.0395
 8974SOL    HW138381   1.184   4.182   6.488  1.2270  1.9289 -0.8268
 8974SOL    HW238382   1.125   4.270   6.587 -1.7018  0.7477  0.0581
 8975SOL     OW38383   2.269   4.447   8.121 -0.1839  0.4145  0.3670
 8975SOL    HW138384   2.241   4.472   8.209  1.7166  2.4193  0.4052
 8975SOL    HW238385   2.194   4.473   8.067 -0.1463 -0.4256 -0.0965
 8976SOL     OW38386   1.248   3.421  16.579  0.3641  0.1626 -0.1934
 8976SOL    HW138387   1.342   3.437  16.571  0.3735  0.0471 -0.3212
 8976SOL    HW238388   1.195   3.459  16.508 -1.6984 -1.5507  0.4201
 8977SOL     OW38389   3.089   0.679   5.604  0.6075  0.2660  0.0644
 8977SOL    HW138390   3.133   0.641   5.529  0.8112 -1.2713  0.9586
 8977SOL    HW238391   3.108   0.773   5.600  0.5192  0.3268  1.0200
 8978SOL     OW38392   4.133   2.642   8.263 -0.2248  0.1422 -0.1230
 8978SOL    HW138393   4.206   2.677   8.212  0.5784 -1.8024 -0.2983
 8978SOL    HW238394   4.137   2.547   8.253 -0.1426  0.1496 -0.1586
 8979SOL     OW38395   0.276   4.100  14.080  0.4688 -0.0952 -0.2171
 8979SOL    HW138396   0.298   4.045  14.005  0.7788  1.1075 -0.9897
 8979SOL    HW238397   0.213   4.158  14.038  0.5538 -0.4215 -0.7878
 8980SOL     OW38398   2.033   1.947   9.726  0.2540  0.1316  0.2404
 8980SOL    HW138399   2.128   1.944   9.730  0.2643 -1.6362 -1.1763
 8980SOL    HW238400   2.020   1.892   9.649 -2.6862  1.8114 -0.4811
 8981SOL     OW38401   2.783   2.893  12.152  0.5034  0.3513 -0.3757
 8981SOL    HW138402   2.756   2.985  12.156 -2.1939 -0.4772  0.4287
 8981SOL    HW238403   2.809   2.884  12.244 -1.5716  2.3225  0.4179
 8982SOL     OW38404   4.605   4.567   7.792  0.0465  0.2691 -0.1748
 8982SOL    HW138405   4.530   4.507   7.787  1.7433 -1.8606 -0.1523
 8982SOL    HW238406   4.561   4.630   7.849 -2.2904 -2.1207  0.6478
 8983SOL     OW38407   3.442   3.150   7.693 -0.2390 -0.3096  0.0055
 8983SOL    HW138408   3.481   3.234   7.667  0.9884 -0.8805 -0.0022
 8983SOL    HW238409   3.349   3.166   7.682 -0.1782  0.4598  0.5969
 8984SOL     OW38410   0.812   2.696  11.001 -0.3694 -0.1221  0.2610
 8984SOL    HW138411   0.784   2.787  10.988 -0.0335 -0.1637 -0.7577
 8984SOL    HW238412   0.795   2.698  11.095 -0.0898  1.5627  0.2823
 8985SOL     OW38413   1.680   0.963   8.942 -0.2573 -0.3597  0.7516
 8985SOL    HW138414   1.613   0.913   8.990 -2.6126  1.8419 -0.2325
 8985SOL    HW238415   1.702   1.023   9.013  0.0607 -0.5320  0.7974
 8986SOL     OW38416   2.113   3.250   9.377  0.1796  0.2347 -0.0182
 8986SOL    HW138417   2.203   3.264   9.346 -0.0092 -0.5086 -0.9173
 8986SOL    HW238418   2.131   3.211   9.462 -0.4891 -0.1669 -0.0597
 8987SOL     OW38419   2.590   0.115  14.400 -0.1804  0.5745 -0.3893
 8987SOL    HW138420   2.627   0.072  14.478 -1.7972 -1.3573 -0.6876
 8987SOL    HW238421   2.654   0.091  14.332 -0.5955 -0.3480 -0.4559
 8988SOL     OW38422   3.226   4.143   0.428  0.2715 -0.4508  0.5272
 8988SOL    HW138423   3.276   4.134   0.347  0.4797 -0.5438  0.6663
 8988SOL    HW238424   3.175   4.061   0.427 -0.7115  0.1228  4.1012
 8989SOL     OW38425   2.903   2.640   8.525  0.1469  0.7116  0.3199
 8989SOL    HW138426   2.834   2.631   8.591 -0.7953  0.4343 -0.6917
 8989SOL    HW238427   2.976   2.670   8.579  1.9612 -2.2158 -0.4874
 8990SOL     OW38428   0.469   2.561   6.442 -0.2046  0.1517 -0.3831
 8990SOL    HW138429   0.393   2.618   6.445  0.8808  1.5596  0.6956
 8990SOL    HW238430   0.458   2.511   6.361 -0.6494  1.0276 -0.8629
 8991SOL     OW38431   1.376   0.548   3.304 -0.4218 -0.5592 -0.0692
 8991SOL    HW138432   1.327   0.505   3.234  0.2554 -1.3186 -0.0773
 8991SOL    HW238433   1.428   0.473   3.334 -0.9599 -0.4709  1.0655
 8992SOL     OW38434   3.108   2.881   5.596 -0.3428 -0.3633 -0.5239
 8992SOL    HW138435   3.095   2.933   5.517 -1.5156  1.2564  0.7187
 8992SOL    HW238436   3.138   2.948   5.658  1.2461  0.2375 -1.9584
 8993SOL     OW38437   3.754   2.363   4.587 -0.5571 -0.2707 -0.4983
 8993SOL    HW138438   3.823   2.316   4.539 -0.5509 -0.7655 -0.0014
 8993SOL    HW238439   3.772   2.336   4.677 -0.4873  2.6834  0.3688
 8994SOL     OW38440   3.805   3.887   7.501  0.1242 -0.6990  0.5108
 8994SOL    HW138441   3.822   3.866   7.593  0.5442  0.6604  0.7386
 8994SOL    HW238442   3.718   3.849   7.486 -0.8393  1.5903  0.4222
 8995SOL     OW38443   1.153   1.057   7.632 -0.5725 -0.4215 -0.5814
 8995SOL    HW138444   1.120   1.069   7.720 -0.4570  0.7175 -0.6888
 8995SOL    HW238445   1.189   1.145   7.620  0.4591 -0.6351  0.8908
 8996SOL     OW38446   1.880   1.653   6.581 -0.4908  0.2055 -0.5305
 8996SOL    HW138447   1.899   1.645   6.675 -2.0522  0.8415 -0.1678
 8996SOL    HW238448   1.972   1.666   6.558 -0.4308  1.1622  0.2541
 8997SOL     OW38449   0.198   4.219   4.499  0.4884  0.2918 -0.4929
 8997SOL    HW138450   0.154   4.172   4.429 -1.6478 -0.6165  1.4641
 8997SOL    HW238451   0.276   4.258   4.459  0.8570  1.8711  1.7434
 8998SOL     OW38452   0.692   2.975   5.582 -0.2861  0.3210  0.8198
 8998SOL    HW138453   0.612   3.006   5.540 -1.2099 -1.5939  1.1496
 8998SOL    HW238454   0.660   2.900   5.632  1.1550 -1.0312 -0.2666
 8999SOL     OW38455   2.981   4.165   0.903 -0.2188  0.2408  0.1145
 8999SOL    HW138456   2.894   4.201   0.921 -0.1800  0.3868  0.0119
 8999SOL    HW238457   3.037   4.239   0.928  0.1222  0.2082 -0.5594
 9000SOL     OW38458   3.768   2.707   5.873  0.8326 -0.6866 -0.1897
 9000SOL    HW138459   3.684   2.663   5.864 -0.3672  1.7974 -1.1508
 9000SOL    HW238460   3.769   2.724   5.968  0.4921 -1.9477  0.0355
 9001SOL     OW38461   2.409   1.197   0.992 -0.2920  0.5787  0.3535
 9001SOL    HW138462   2.331   1.156   0.953  0.3202  1.1412 -1.4719
 9001SOL    HW238463   2.413   1.147   1.073  1.4055 -0.5630 -0.4427
 9002SOL     OW38464   1.056   4.639   4.397 -0.1163  0.3539 -1.0170
 9002SOL    HW138465   1.137   4.592   4.380  0.4946  1.3459 -0.8399
 9002SOL    HW238466   0.999   4.563   4.387 -0.9574  0.9199 -0.5454
 9003SOL     OW38467   4.499   1.800  10.268  0.1714 -0.3167  0.2539
 9003SOL    HW138468   4.403   1.800  10.263  0.1867  0.4285  0.0147
 9003SOL    HW238469   4.529   1.743  10.198 -3.0171 -1.6180 -0.0710
 9004SOL     OW38470   4.542   1.987   3.942  0.7148 -0.7969  0.3543
 9004SOL    HW138471   4.619   1.969   3.995 -0.0958 -1.4056  1.3119
 9004SOL    HW238472   4.495   1.905   3.927 -2.5226  0.9408  0.9472
 9005SOL     OW38473   2.212   1.702  10.399 -0.1913 -0.3098 -0.3689
 9005SOL    HW138474   2.301   1.694  10.365  0.7919  0.9065  1.9024
 9005SOL    HW238475   2.154   1.666  10.332 -0.2997 -1.0512  0.1192
 9006SOL     OW38476   1.992   3.667   4.369  0.3573  0.1428  0.5041
 9006SOL    HW138477   2.030   3.752   4.392  0.7280 -0.2018  1.1579
 9006SOL    HW238478   1.910   3.698   4.331  0.3628  0.7564  0.9920
 9007SOL     OW38479   1.565   1.381  16.298 -0.2915  0.2684  0.2402
 9007SOL    HW138480   1.520   1.426  16.369  0.5753  1.0088  0.3142
 9007SOL    HW238481   1.624   1.330  16.354  0.5685 -0.6703 -1.5457
 9008SOL     OW38482   1.627   3.281   2.441 -0.1266  1.0060  0.1253
 9008SOL    HW138483   1.681   3.324   2.508  0.7235  0.4025 -0.1748
 9008SOL    HW238484   1.609   3.197   2.483 -0.1028  0.9862  0.0961
 9009SOL     OW38485   0.059   4.138   2.271 -0.6145 -0.3061 -0.3934
 9009SOL    HW138486   0.047   4.224   2.311  1.0223 -0.7065  0.9281
 9009SOL    HW238487   4.712   4.081   2.299 -0.0947 -0.7261  0.0418
 9010SOL     OW38488   1.168   3.204   6.717 -0.4041 -0.0485  0.1742
 9010SOL    HW138489   1.212   3.229   6.636  1.1540 -0.8948  0.7551
 9010SOL    HW238490   1.124   3.124   6.688 -0.6807  0.8234 -1.7894
 9011SOL     OW38491   2.956   1.236   4.449  0.9188 -0.4231  0.2641
 9011SOL    HW138492   2.923   1.159   4.401 -0.8851  1.1984 -1.0931
 9011SOL    HW238493   3.020   1.270   4.387  0.6675  1.2086  0.8956
 9012SOL     OW38494   3.721   1.226   3.766 -0.0810 -0.2002 -0.2089
 9012SOL    HW138495   3.637   1.270   3.774  0.0822 -0.1165  1.0649
 9012SOL    HW238496   3.768   1.245   3.847 -2.3754  2.0112  0.5752
 9013SOL     OW38497   2.766   2.932   1.186  0.2155 -0.1162  0.1388
 9013SOL    HW138498   2.803   2.945   1.099  1.3016 -4.3286 -0.0051
 9013SOL    HW238499   2.675   2.907   1.168  0.5303  0.3055 -2.0663
 9014SOL     OW38500   0.716   1.961   5.385 -0.9033  0.6152  0.1012
 9014SOL    HW138501   0.780   1.907   5.433 -0.6473 -0.5797 -1.5912
 9014SOL    HW238502   0.753   1.937   5.300 -1.0304  1.5462 -0.2128
 9015SOL     OW38503   0.134   2.538  12.694  0.2959  0.0773  0.5992
 9015SOL    HW138504   0.168   2.615  12.740 -2.4254  1.4281  0.3970
 9015SOL    HW238505   0.076   2.580  12.630 -0.4980 -0.8707  0.6922
 9016SOL     OW38506   1.449   4.531   0.788 -0.2444  0.1475  0.1638
 9016SOL    HW138507   1.392   4.455   0.794 -0.9472  0.4644 -2.4915
 9016SOL    HW238508   1.424   4.562   0.874 -1.1680  1.0130 -0.4158
 9017SOL     OW38509   0.811   0.133  13.901 -0.1699 -0.4738  0.8925
 9017SOL    HW138510   0.797   0.153  13.993 -0.7154  0.9564  0.4919
 9017SOL    HW238511   0.737   0.075  13.884  1.3708 -2.3037  0.3346
 9018SOL     OW38512   0.836   3.118  13.521  0.0215 -0.6839 -0.4047
 9018SOL    HW138513   0.792   3.052  13.573 -0.4131 -0.0742  0.0036
 9018SOL    HW238514   0.804   3.196  13.567  1.8995 -0.0734 -0.1610
 9019SOL     OW38515   0.726   1.303   7.931 -0.7072  0.5278 -0.2298
 9019SOL    HW138516   0.691   1.244   7.997  1.0041 -1.4825 -1.1118
 9019SOL    HW238517   0.757   1.375   7.985 -2.7823  0.3947  1.1172
 9020SOL     OW38518   3.206   3.184   2.398 -0.3410 -0.8731 -0.0608
 9020SOL    HW138519   3.126   3.206   2.351 -1.3843 -0.1384  2.0731
 9020SOL    HW238520   3.184   3.222   2.483 -0.2177  0.9585 -0.8380
 9021SOL     OW38521   0.157   3.160   5.500  0.5583  0.9139 -0.5661
 9021SOL    HW138522   0.188   3.222   5.434  3.3315 -2.1514 -2.1403
 9021SOL    HW238523   0.166   3.220   5.574  3.2337 -1.1061  0.7313
 9022SOL     OW38524   3.348   3.491   6.175 -0.1087  0.8611  1.2589
 9022SOL    HW138525   3.285   3.491   6.103  0.6826  1.2949  0.5669
 9022SOL    HW238526   3.414   3.436   6.133 -1.8748  1.6669 -2.6331
 9023SOL     OW38527   3.645   1.055   3.564 -0.3058 -0.2658 -0.1425
 9023SOL    HW138528   3.645   1.105   3.482 -0.4464 -0.5816 -0.3357
 9023SOL    HW238529   3.703   1.102   3.624 -1.9190 -0.2609  1.3831
 9024SOL     OW38530   4.137   0.261  13.996 -0.0063  0.5564  0.1203
 9024SOL    HW138531   4.184   0.254  13.912  1.3328 -0.9429  1.0014
 9024SOL    HW238532   4.048   0.288  13.973 -0.2631 -0.8936 -0.5632
 9025SOL     OW38533   2.903   3.295   1.946  0.3202 -0.2342  0.1977
 9025SOL    HW138534   2.863   3.381   1.930  0.5050  0.0331  1.1768
 9025SOL    HW238535   2.948   3.291   1.862 -0.7116 -0.2208 -0.3652
 9026SOL     OW38536   3.769   0.286   2.748 -0.0297 -0.6534 -0.3215
 9026SOL    HW138537   3.786   0.377   2.725 -2.3063  0.0788  0.8975
 9026SOL    HW238538   3.839   0.270   2.811  0.2324 -0.1263 -0.4815
 9027SOL     OW38539   1.117   2.040   2.551  0.1613  0.4306  0.0116
 9027SOL    HW138540   1.035   1.999   2.522 -0.6573  2.1111 -0.0886
 9027SOL    HW238541   1.133   2.113   2.491 -1.6840 -0.7903 -1.9976
 9028SOL     OW38542   0.216   0.221  13.751  0.5331  0.0787  0.3342
 9028SOL    HW138543   0.154   0.252  13.817  1.8015  1.2361  0.9833
 9028SOL    HW238544   0.246   0.140  13.791 -0.0444  0.0993  0.8103
 9029SOL     OW38545   1.618   2.389   6.423 -0.6622  0.4064 -0.1726
 9029SOL    HW138546   1.677   2.463   6.439  1.5095 -1.1010 -1.1894
 9029SOL    HW238547   1.613   2.389   6.328 -2.3022 -0.6344 -0.0949
 9030SOL     OW38548   1.801   0.102  14.326  0.2174 -0.0600  0.6037
 9030SOL    HW138549   1.749   0.034  14.369 -1.8285 -0.5637 -2.6091
 9030SOL    HW238550   1.859   0.123  14.399  0.1007 -0.3272  0.7734
 9031SOL     OW38551   1.602   0.633   8.057 -0.0151  0.1810  0.3418
 9031SOL    HW138552   1.589   0.579   7.979  1.1891 -1.2480  1.1316
 9031SOL    HW238553   1.593   0.715   8.007 -0.8784 -0.6264 -0.8248
 9032SOL     OW38554   3.636   2.282   2.264 -0.5642  0.4060  0.3993
 9032SOL    HW138555   3.710   2.223   2.280  0.3634  0.7941 -2.3512
 9032SOL    HW238556   3.638   2.297   2.169 -0.9576 -1.5438  0.0819
 9033SOL     OW38557   3.981   1.569   9.137  0.0792  0.0810  0.1701
 9033SOL    HW138558   3.893   1.544   9.109  1.4941 -1.5637 -2.8295
 9033SOL    HW238559   3.983   1.663   9.120  2.8039 -0.3946 -2.0412
 9034SOL     OW38560   4.345   4.264   3.991  0.2913  0.1745 -0.1998
 9034SOL    HW138561   4.383   4.309   3.916 -0.5453 -1.8030 -1.8265
 9034SOL    HW238562   4.340   4.329   4.061 -1.8695  0.7148 -0.8636
 9035SOL     OW38563   1.742   4.029   5.669 -0.1999 -0.5176 -0.1301
 9035SOL    HW138564   1.681   4.083   5.619  0.5178 -0.3599 -0.8426
 9035SOL    HW238565   1.688   3.954   5.689 -0.8902 -0.3133 -1.2036
 9036SOL     OW38566   1.575   0.736  13.277  0.7093  0.2743 -0.0707
 9036SOL    HW138567   1.614   0.781  13.352  0.3163  3.2126 -1.6307
 9036SOL    HW238568   1.650   0.689  13.241 -0.5030 -1.4157 -0.3841
 9037SOL     OW38569   2.421   1.430   6.516  0.5053 -0.4715  0.0690
 9037SOL    HW138570   2.374   1.460   6.593  3.1105 -1.7325  2.1572
 9037SOL    HW238571   2.348   1.399   6.463  1.5024  1.1136 -2.2653
 9038SOL     OW38572   3.330   1.030  12.848 -0.6502  0.4854 -0.3294
 9038SOL    HW138573   3.241   1.008  12.875 -0.2343 -0.8030  0.0423
 9038SOL    HW238574   3.321   1.008  12.755 -0.8141  1.8357 -0.6311
 9039SOL     OW38575   1.051   1.992   1.948 -0.2775 -0.1548  0.3573
 9039SOL    HW138576   0.977   1.938   1.919 -0.3016 -0.4866  1.0347
 9039SOL    HW238577   1.116   1.922   1.947 -0.8886 -0.7239 -0.0354
 9040SOL     OW38578   1.755   3.326   6.420 -0.1230 -0.0218 -0.1501
 9040SOL    HW138579   1.680   3.304   6.475 -0.7100  4.2352  0.7698
 9040SOL    HW238580   1.823   3.307   6.485  0.8485  2.5991 -0.4161
 9041SOL     OW38581   0.639   1.515  11.645 -0.0005  0.3303  0.3493
 9041SOL    HW138582   0.672   1.437  11.691  1.4721  0.9947  0.4473
 9041SOL    HW238583   0.678   1.593  11.685  1.7940 -1.9807  3.1468
 9042SOL     OW38584   4.556   2.615   8.680  0.5984  0.3585  0.1643
 9042SOL    HW138585   4.502   2.543   8.715  0.2693  0.6424  0.2409
 9042SOL    HW238586   4.625   2.605   8.745 -0.0914 -2.1993  0.5136
 9043SOL     OW38587   0.677   4.253   1.522  0.2631  0.4935 -0.2895
 9043SOL    HW138588   0.674   4.159   1.503  1.5789  0.4798 -0.4289
 9043SOL    HW238589   0.760   4.278   1.480 -0.5798 -0.7299 -2.6930
 9044SOL     OW38590   2.265   4.220  15.172 -0.4795 -0.0808  0.0828
 9044SOL    HW138591   2.321   4.242  15.097  0.6618 -0.9422  0.6722
 9044SOL    HW238592   2.277   4.128  15.198  2.4267  0.5051  0.8597
 9045SOL     OW38593   3.180   1.282   7.827  0.2372  0.2563  0.0987
 9045SOL    HW138594   3.135   1.303   7.909  0.0810  0.5760 -0.0666
 9045SOL    HW238595   3.158   1.354   7.767 -1.0994  0.0679  0.3766
 9046SOL     OW38596   1.699   1.764   8.367 -0.0187  0.0894 -0.3281
 9046SOL    HW138597   1.758   1.690   8.382 -3.5699 -2.2141  2.0770
 9046SOL    HW238598   1.754   1.838   8.393  1.0927 -1.0617  0.6343
 9047SOL     OW38599   0.675   0.241   2.316 -0.1264 -0.1261 -0.2284
 9047SOL    HW138600   0.613   0.288   2.260  0.4167  1.0495  0.1647
 9047SOL    HW238601   0.738   0.220   2.248 -2.7194 -3.7100 -1.5873
 9048SOL     OW38602   2.327   0.897  11.249 -0.7316 -0.3369 -0.8122
 9048SOL    HW138603   2.311   0.928  11.160  0.6963 -1.0098 -1.2933
 9048SOL    HW238604   2.279   0.969  11.290  1.8643  0.0019  1.5710
 9049SOL     OW38605   3.586   3.003  13.917  0.2152  0.0497  0.0247
 9049SOL    HW138606   3.558   3.014  13.826 -2.2064 -0.8674  0.6718
 9049SOL    HW238607   3.535   2.923  13.931 -0.1812  0.7644  2.6439
 9050SOL     OW38608   1.503   0.685  17.356  0.0652 -0.5671 -0.4377
 9050SOL    HW138609   1.550   0.632  17.421 -1.2438 -1.3827 -0.1548
 9050SOL    HW238610   1.560   0.762  17.354  0.9005 -1.2512 -2.3364
 9051SOL     OW38611   2.104   2.929   7.199 -0.4700  0.6125 -0.0592
 9051SOL    HW138612   2.183   2.952   7.247  0.5505 -0.0829 -1.4058
 9051SOL    HW238613   2.049   3.005   7.219 -0.6923  0.5437 -0.3978
 9052SOL     OW38614   0.224   4.459  15.419  0.6657  0.9383  0.3754
 9052SOL    HW138615   0.262   4.490  15.501 -1.1193  2.9769  0.4203
 9052SOL    HW238616   0.209   4.366  15.437 -1.8330  1.0204 -1.2030
 9053SOL     OW38617   4.660   2.733   4.771 -0.0531 -0.1628  0.1539
 9053SOL    HW138618   4.594   2.728   4.702  0.3795  0.1062 -0.2754
 9053SOL    HW238619   4.660   2.646   4.810 -0.4916 -1.1786 -2.1162
 9054SOL     OW38620   1.573   3.917   2.666 -0.6139  0.0327  0.8972
 9054SOL    HW138621   1.491   3.931   2.617  0.3427 -0.3686 -0.8140
 9054SOL    HW238622   1.554   3.938   2.757 -1.8269  1.3417  0.3458
 9055SOL     OW38623   0.631   3.506   8.499 -0.2602 -0.4875  0.2740
 9055SOL    HW138624   0.637   3.476   8.590 -0.4796  1.1436  0.8288
 9055SOL    HW238625   0.607   3.432   8.444 -0.7008  0.4389 -0.7698
 9056SOL     OW38626   1.962   0.727  12.934 -0.3532  0.2506 -0.2582
 9056SOL    HW138627   1.987   0.640  12.963  0.3693  1.1312  1.8308
 9056SOL    HW238628   1.898   0.708  12.866 -2.0972  2.0035  0.8723
 9057SOL     OW38629   4.229   4.246   7.997 -0.1942 -0.1736  0.4624
 9057SOL    HW138630   4.256   4.338   8.002  0.4003 -0.3115 -0.2972
 9057SOL    HW238631   4.253   4.219   8.086 -0.8826 -1.3209  0.3047
 9058SOL     OW38632   2.815   1.526   3.157 -0.4947 -0.7542 -0.2823
 9058SOL    HW138633   2.725   1.494   3.165 -0.1279 -2.1242 -1.5246
 9058SOL    HW238634   2.799   1.618   3.137  0.8144 -0.3065  0.7695
 9059SOL     OW38635   1.445   2.572   4.690  0.6719  0.0327  0.1414
 9059SOL    HW138636   1.408   2.653   4.655  1.8505  0.7488  0.5703
 9059SOL    HW238637   1.538   2.583   4.672  0.6538  0.9235  0.5888
 9060SOL     OW38638   3.243   3.258   5.247  0.0162 -0.5555 -0.4539
 9060SOL    HW138639   3.308   3.327   5.261 -1.0870  0.7921 -1.9709
 9060SOL    HW238640   3.165   3.313   5.237  1.0495  0.9106 -0.5361
 9061SOL     OW38641   3.656   0.366  13.420  0.0236 -0.4955  0.6117
 9061SOL    HW138642   3.585   0.330  13.474 -0.6977  1.0260  0.7011
 9061SOL    HW238643   3.633   0.319  13.340 -0.1239 -2.4476  1.8088
 9062SOL     OW38644   2.789   1.403   6.208 -0.3623  0.0629  0.3325
 9062SOL    HW138645   2.820   1.456   6.135  0.5251  0.1505  0.7796
 9062SOL    HW238646   2.813   1.458   6.282 -0.4636 -0.2750  0.6176
 9063SOL     OW38647   1.042   0.926   2.452  0.4072 -0.0934 -0.1641
 9063SOL    HW138648   0.986   0.963   2.384 -2.1576 -1.2245  1.3235
 9063SOL    HW238649   0.987   0.947   2.528 -0.0986 -0.3388 -0.4601
 9064SOL     OW38650   4.583   0.237  11.797 -0.4453 -0.1227 -0.0396
 9064SOL    HW138651   4.511   0.293  11.770  0.1048  0.2969 -0.6353
 9064SOL    HW238652   4.557   0.226  11.888  0.7368 -1.4853  0.1501
 9065SOL     OW38653   2.356   4.338  14.051  0.0823  0.7869  0.4680
 9065SOL    HW138654   2.367   4.302  13.963 -1.0139  0.7201  0.3567
 9065SOL    HW238655   2.310   4.418  14.023 -2.7309  0.3390  3.8987
 9066SOL     OW38656   3.591   1.208  13.215 -0.0332  0.6438  0.3629
 9066SOL    HW138657   3.592   1.304  13.216  2.1131  0.6302  1.0131
 9066SOL    HW238658   3.539   1.193  13.136  1.9090 -0.3768 -0.7197
 9067SOL     OW38659   4.707   2.590   7.826 -0.1250 -0.2743 -0.1623
 9067SOL    HW138660   0.014   2.539   7.751 -1.6107  0.4825 -1.3006
 9067SOL    HW238661   0.049   2.659   7.839 -2.6750  1.9624  0.9103
 9068SOL     OW38662   4.719   3.838   6.787 -0.3843 -0.1870 -0.2284
 9068SOL    HW138663   0.042   3.765   6.746  1.2597 -0.5734  2.3770
 9068SOL    HW238664   4.714   3.902   6.716  0.7159  2.6071  2.2278
 9069SOL     OW38665   2.584   0.155   6.913  0.4536  0.4923  0.0332
 9069SOL    HW138666   2.560   0.227   6.971  0.7892  0.3238  0.3760
 9069SOL    HW238667   2.652   0.110   6.962  1.3590  2.2011  0.3420
 9070SOL     OW38668   3.090   0.444  16.492 -0.2749 -0.0847  0.3282
 9070SOL    HW138669   3.002   0.478  16.510  0.6985  2.1631  0.9343
 9070SOL    HW238670   3.088   0.456  16.397  2.5518  2.3341  0.5686
 9071SOL     OW38671   3.809   3.935  13.471 -0.2514 -0.3833 -0.3137
 9071SOL    HW138672   3.745   3.936  13.400 -1.1056 -0.3808  0.4538
 9071SOL    HW238673   3.807   4.024  13.507 -1.1821 -1.1548  1.5216
 9072SOL     OW38674   0.168   0.430  10.052 -0.3637  0.4581  0.2465
 9072SOL    HW138675   0.154   0.411  10.145 -0.1887 -0.4683  0.0854
 9072SOL    HW238676   0.206   0.517  10.067  0.2095  0.2336  0.0756
 9073SOL     OW38677   4.526   0.163   6.339  0.1871  0.0761 -0.5568
 9073SOL    HW138678   4.618   0.186   6.350  0.4686  0.3512 -3.5530
 9073SOL    HW238679   4.483   0.242   6.370 -0.7815 -0.5290 -0.3657
 9074SOL     OW38680   2.875   4.506   6.246 -0.8396 -0.6345  0.4580
 9074SOL    HW138681   2.845   4.436   6.189  2.3778 -1.2830 -0.4105
 9074SOL    HW238682   2.909   4.450   6.316 -1.4384  0.3535  1.5507
 9075SOL     OW38683   1.301   4.628   5.289  0.6191 -0.2736  0.1068
 9075SOL    HW138684   1.217   4.587   5.273 -0.3114  1.9310 -0.6488
 9075SOL    HW238685   1.308   4.694   5.220 -3.2570  1.0890  1.0247
 9076SOL     OW38686   4.383   0.729   9.113  0.3817 -0.2693  0.3019
 9076SOL    HW138687   4.337   0.803   9.073  1.4483  0.2090 -0.0378
 9076SOL    HW238688   4.444   0.777   9.168 -0.6594 -0.6837  1.8280
 9077SOL     OW38689   2.266   0.484  13.262 -0.1588  0.8084 -0.4172
 9077SOL    HW138690   2.242   0.482  13.169 -1.7640  0.6328 -0.0044
 9077SOL    HW238691   2.219   0.560  13.298  0.1153  0.4775  0.6319
 9078SOL     OW38692   3.197   0.239   5.569  0.4409  0.0261 -0.1460
 9078SOL    HW138693   3.143   0.318   5.567  0.1756 -0.1788 -1.0390
 9078SOL    HW238694   3.175   0.202   5.655  0.9340  1.1610  0.4598
 9079SOL     OW38695   0.216   3.620  16.018  0.3312  0.0001  0.3114
 9079SOL    HW138696   0.227   3.559  16.091  0.1594  1.2288  1.3800
 9079SOL    HW238697   0.168   3.699  16.044  1.7619  1.9466 -2.9858
 9080SOL     OW38698   3.014   0.664  17.067 -0.0175  0.4019 -0.1937
 9080SOL    HW138699   3.069   0.725  17.017  1.9557 -1.4372 -0.2639
 9080SOL    HW238700   3.039   0.578  17.036  3.5900  1.0917  0.7886
 9081SOL     OW38701   0.588   0.778  14.184  0.0147  0.1410 -0.7148
 9081SOL    HW138702   0.556   0.688  14.178  1.7557 -0.4956 -0.3778
 9081SOL    HW238703   0.673   0.774  14.139  0.0369 -0.0897 -0.6496
 9082SOL     OW38704   0.550   4.361  15.382  0.3343  0.4881 -0.0484
 9082SOL    HW138705   0.588   4.300  15.447 -1.4186 -0.9611 -0.3907
 9082SOL    HW238706   0.550   4.443  15.431 -1.0270  1.9088 -2.4660
 9083SOL     OW38707   4.556   0.596   2.946 -0.4766 -0.0164  0.8642
 9083SOL    HW138708   4.474   0.578   2.899  1.2526  2.3179 -3.0643
 9083SOL    HW238709   4.581   0.668   2.887 -3.0608 -1.0173 -1.4828
 9084SOL     OW38710   1.247   3.078  14.280 -0.1999  0.3052  0.2492
 9084SOL    HW138711   1.276   3.044  14.364 -0.8847 -0.1319  0.3105
 9084SOL    HW238712   1.160   3.038  14.282  1.4863 -3.4558 -1.6497
 9085SOL     OW38713   0.978   0.987   4.476  0.3483 -0.0280  0.2002
 9085SOL    HW138714   1.042   1.051   4.444 -0.3871  1.3083  1.4171
 9085SOL    HW238715   1.014   0.910   4.432 -1.3821  0.1599 -1.5386
 9086SOL     OW38716   2.662   3.731   4.995  0.0372  0.6311 -0.1674
 9086SOL    HW138717   2.700   3.770   5.074  0.7179  0.8272 -0.5908
 9086SOL    HW238718   2.646   3.646   5.037  0.2524  0.0181 -1.3220
 9087SOL     OW38719   4.521   2.978   4.378 -0.1623 -0.0439 -0.2240
 9087SOL    HW138720   4.434   2.947   4.353 -0.8787  0.6677  1.4042
 9087SOL    HW238721   4.525   3.058   4.326  0.2947  1.0856  1.5650
 9088SOL     OW38722   3.366   3.900   7.862 -0.7338  0.1479 -0.2799
 9088SOL    HW138723   3.445   3.953   7.873  0.0710 -1.3637  1.1404
 9088SOL    HW238724   3.298   3.959   7.829  0.2656  1.1697 -0.5500
 9089SOL     OW38725   4.360   3.308   1.771 -0.8075 -0.7473 -0.5021
 9089SOL    HW138726   4.403   3.335   1.690 -0.9040  0.0127 -0.3044
 9089SOL    HW238727   4.383   3.216   1.776  0.8925 -0.3402 -0.5721
 9090SOL     OW38728   4.301   0.943   4.234 -0.3069  0.5621  0.3348
 9090SOL    HW138729   4.264   1.011   4.178 -0.4325  0.2623  0.0552
 9090SOL    HW238730   4.221   0.896   4.258 -0.4172  0.0936 -0.9665
 9091SOL     OW38731   4.591   2.276  11.163 -0.0094 -0.1052  0.2928
 9091SOL    HW138732   4.547   2.323  11.092 -1.6758  1.1941  2.1702
 9091SOL    HW238733   4.680   2.308  11.150  1.5839 -4.1062  1.4129
 9092SOL     OW38734   0.935   0.718   7.550  0.7439 -0.0213  0.2865
 9092SOL    HW138735   0.930   0.806   7.512 -3.1914  0.8453  2.7552
 9092SOL    HW238736   0.845   0.702   7.580 -0.0799  2.1937 -1.0155
 9093SOL     OW38737   0.560   1.713  13.727 -0.3750 -0.0355  0.0464
 9093SOL    HW138738   0.650   1.684  13.713  0.2763  3.7183 -3.5135
 9093SOL    HW238739   0.581   1.800  13.692 -1.8522  0.0576 -0.6073
 9094SOL     OW38740   3.999   1.334   1.109  0.4153 -0.4177 -0.5195
 9094SOL    HW138741   3.943   1.322   1.033  0.0932 -2.3200  0.0100
 9094SOL    HW238742   4.012   1.246   1.143  2.2204 -0.9522 -2.5907
 9095SOL     OW38743   0.367   2.414   7.143  0.5549  0.1631  0.2578
 9095SOL    HW138744   0.461   2.404   7.131  0.4717  0.6236 -0.7265
 9095SOL    HW238745   0.337   2.341   7.090  0.5440  0.7003 -0.4694
 9096SOL     OW38746   2.014   0.079   7.248 -0.6022 -0.1594  0.0969
 9096SOL    HW138747   1.981   0.014   7.187 -1.0096 -0.6067  0.8025
 9096SOL    HW238748   2.065   0.137   7.190  0.1163 -0.5970  0.2945
 9097SOL     OW38749   1.147   0.969  13.697 -0.2548 -0.0152 -0.5204
 9097SOL    HW138750   1.237   0.938  13.707 -0.3006 -0.2752 -0.8987
 9097SOL    HW238751   1.143   0.977  13.602  1.4407 -1.1507 -0.6879
 9098SOL     OW38752   0.244   4.648  12.672 -0.4376  0.0746  0.5321
 9098SOL    HW138753   0.251   4.672  12.765 -0.3565  2.7082 -0.1596
 9098SOL    HW238754   0.276   4.559  12.658  1.2520  0.6265  0.7885
 9099SOL     OW38755   3.697   1.287   4.417 -0.3274  0.2036  0.4681
 9099SOL    HW138756   3.705   1.378   4.388 -2.0476  0.0808 -0.3819
 9099SOL    HW238757   3.780   1.293   4.465  0.2450 -1.1344 -0.3451
 9100SOL     OW38758   4.048   3.310  10.867 -0.5203  0.1182 -0.5667
 9100SOL    HW138759   4.071   3.329  10.958 -0.6699  1.0130 -0.7079
 9100SOL    HW238760   4.130   3.344  10.831 -0.4261 -1.6510 -1.9948
 9101SOL     OW38761   1.663   2.004   6.208  0.2043 -0.1416  0.1058
 9101SOL    HW138762   1.732   2.036   6.265 -0.8974  0.4686  1.0809
 9101SOL    HW238763   1.677   1.910   6.218 -3.0778 -0.7582 -1.0021
 9102SOL     OW38764   0.770   3.066  12.737 -0.3157 -0.3502  0.0566
 9102SOL    HW138765   0.847   3.113  12.768 -0.1571 -0.3827 -0.2810
 9102SOL    HW238766   0.787   3.086  12.645  1.4419  1.7922  0.8340
 9103SOL     OW38767   1.030   0.716  13.495 -0.0530 -0.4340  0.5035
 9103SOL    HW138768   1.094   0.668  13.443  3.1944  3.0383  1.2874
 9103SOL    HW238769   1.012   0.793  13.442 -0.3361  0.1821  1.4992
 9104SOL     OW38770   0.530   4.293  10.749 -0.5859  0.1429 -0.5583
 9104SOL    HW138771   0.544   4.237  10.825 -0.9445  0.7722 -0.0318
 9104SOL    HW238772   0.568   4.376  10.778  0.0862  0.1268 -1.4081
 9105SOL     OW38773   1.990   1.351   9.261  0.6048 -0.2121 -0.8003
 9105SOL    HW138774   1.988   1.255   9.266  0.6671 -0.2138 -0.8115
 9105SOL    HW238775   2.084   1.369   9.260  0.3761  0.9704 -0.5687
 9106SOL     OW38776   1.252   4.338   4.555 -0.1814  0.2034 -0.6445
 9106SOL    HW138777   1.243   4.377   4.468 -2.1070 -0.6715 -0.8184
 9106SOL    HW238778   1.166   4.339   4.598  1.1447 -1.3655  2.0765
 9107SOL     OW38779   0.329   4.377   5.660 -0.2506  0.0859  0.6506
 9107SOL    HW138780   0.349   4.458   5.612  0.7737  0.5814  1.8985
 9107SOL    HW238781   0.310   4.408   5.749 -0.2488  0.4608  0.5209
 9108SOL     OW38782   3.894   2.296   7.327 -0.0553 -0.6120  0.1855
 9108SOL    HW138783   3.974   2.309   7.378 -0.1486 -1.0058  0.4336
 9108SOL    HW238784   3.825   2.295   7.393 -1.0670  1.6142 -0.8476
 9109SOL     OW38785   2.740   1.764   5.364 -0.0212 -0.2819 -0.2416
 9109SOL    HW138786   2.813   1.702   5.360  2.8175  2.9991  0.6533
 9109SOL    HW238787   2.785   1.847   5.380 -0.3170 -0.5557  2.0751
 9110SOL     OW38788   3.740   0.214   5.029 -0.5664  0.4734  0.7831
 9110SOL    HW138789   3.707   0.125   5.011 -1.5650  0.6683  1.6260
 9110SOL    HW238790   3.673   0.260   4.979  1.7320  1.1341 -1.6829
 9111SOL     OW38791   3.978   3.685   1.622  0.1945 -1.1039  0.0118
 9111SOL    HW138792   3.897   3.729   1.649  0.5083  0.2785 -1.2618
 9111SOL    HW238793   4.004   3.747   1.553 -0.0237  0.2843  1.1669
 9112SOL     OW38794   0.798   3.836   3.038  0.0662  0.0588 -0.4455
 9112SOL    HW138795   0.782   3.779   3.113  2.3562 -1.0026 -0.7637
 9112SOL    HW238796   0.712   3.835   2.994 -0.2891 -0.6700  0.2712
 9113SOL     OW38797   2.198   3.294   0.761 -0.3170  0.6292 -0.0984
 9113SOL    HW138798   2.160   3.311   0.675  0.5398  3.1478  0.0348
 9113SOL    HW238799   2.249   3.215   0.744 -0.1123  0.6608  0.3757
 9114SOL     OW38800   0.664   1.762   2.667  0.0457  0.0307  0.0308
 9114SOL    HW138801   0.694   1.679   2.631 -0.5845  0.2275 -0.9290
 9114SOL    HW238802   0.583   1.731   2.707  0.8391  1.9081  3.1217
 9115SOL     OW38803   0.771   3.855  11.136 -0.8184 -0.0278  0.8888
 9115SOL    HW138804   0.735   3.852  11.048 -2.8925  3.4878  1.6061
 9115SOL    HW238805   0.837   3.925  11.138 -0.9397  0.1242 -0.4102
 9116SOL     OW38806   3.202   2.240   5.511 -0.2731 -0.3811 -0.0270
 9116SOL    HW138807   3.229   2.279   5.595 -3.0212 -0.0423  0.7069
 9116SOL    HW238808   3.252   2.293   5.449  0.7353  0.0572  1.1630
 9117SOL     OW38809   2.176   2.576  14.579 -0.4995  0.3246  0.4879
 9117SOL    HW138810   2.213   2.598  14.494 -1.3625  1.2290  0.3451
 9117SOL    HW238811   2.103   2.520  14.549 -1.5222  0.8816  1.9279
 9118SOL     OW38812   0.986   1.489  13.804  0.9393  0.7301 -0.1450
 9118SOL    HW138813   1.059   1.484  13.865  0.2697  1.5481  0.7222
 9118SOL    HW238814   1.002   1.398  13.779  0.3241  0.2397  1.2763
 9119SOL     OW38815   1.188   0.462   9.891 -0.0705  0.1631 -0.4394
 9119SOL    HW138816   1.281   0.482   9.905 -0.0852 -0.6871  0.8763
 9119SOL    HW238817   1.145   0.547   9.886  1.4688  1.0111  0.6854
 9120SOL     OW38818   4.529   3.380   3.781 -0.0213  0.1698 -0.7116
 9120SOL    HW138819   4.505   3.462   3.739 -1.8651  0.8525  1.6767
 9120SOL    HW238820   4.610   3.365   3.732 -0.1272 -3.5400  0.1993
 9121SOL     OW38821   2.937   1.994  10.096  0.5178 -0.0908 -1.3257
 9121SOL    HW138822   2.972   2.079  10.069  0.2050  0.0531 -1.2876
 9121SOL    HW238823   2.845   2.020  10.089  0.2478 -0.0927  2.1070
 9122SOL     OW38824   0.714   0.363   1.548  0.3059  0.1248 -0.9007
 9122SOL    HW138825   0.743   0.317   1.627 -0.8749  1.3925  0.2504
 9122SOL    HW238826   0.758   0.448   1.543 -0.1403  0.3126 -1.5971
 9123SOL     OW38827   4.522   2.525  11.624  0.4055  0.4419 -0.7173
 9123SOL    HW138828   4.566   2.447  11.658 -0.0679  0.1327 -0.8131
 9123SOL    HW238829   4.512   2.491  11.536  0.7655  0.1325 -0.6363
 9124SOL     OW38830   3.892   2.848   2.593 -0.6133  0.0189  0.4296
 9124SOL    HW138831   3.913   2.894   2.674 -0.3437 -0.1867  0.4786
 9124SOL    HW238832   3.815   2.902   2.576 -1.1882 -1.4382 -1.6856
 9125SOL     OW38833   3.213   3.377  12.268  0.5057  0.2774 -0.0825
 9125SOL    HW138834   3.283   3.441  12.265 -0.9499  1.8363 -0.9545
 9125SOL    HW238835   3.148   3.423  12.215  1.5246  2.4821  0.6136
 9126SOL     OW38836   1.650   3.540   4.875  0.1984  0.0476  0.5758
 9126SOL    HW138837   1.592   3.487   4.929 -1.9355  1.7385 -0.0542
 9126SOL    HW238838   1.593   3.616   4.862  0.3976  0.0425 -0.3859
 9127SOL     OW38839   0.657   3.340   9.071  0.1993  0.2303  0.5037
 9127SOL    HW138840   0.674   3.268   9.132  1.1453  0.3465  0.3663
 9127SOL    HW238841   0.562   3.332   9.060  0.2572 -1.8981  1.3761
 9128SOL     OW38842   1.715   1.427  14.398  0.3596  0.3194  0.0920
 9128SOL    HW138843   1.791   1.370  14.410 -0.2933 -0.4947  0.3801
 9128SOL    HW238844   1.646   1.361  14.406  1.3975 -0.9356 -1.3242
 9129SOL     OW38845   0.673   1.471   4.289  0.5559 -0.1939 -0.5970
 9129SOL    HW138846   0.709   1.521   4.216  0.7388  0.3442 -0.1484
 9129SOL    HW238847   0.614   1.406   4.252 -1.1496  1.3550 -0.6055
 9130SOL     OW38848   0.141   2.290   3.097 -0.1964  0.0445  0.3516
 9130SOL    HW138849   0.168   2.382   3.090  1.0436 -0.2919  0.6489
 9130SOL    HW238850   0.154   2.264   3.005  4.9225 -2.8240  1.8812
 9131SOL     OW38851   1.221   1.969   9.544 -0.2855 -0.2875  0.2740
 9131SOL    HW138852   1.224   2.055   9.586  0.2762 -0.3400  0.3494
 9131SOL    HW238853   1.260   1.915   9.613 -0.5843  0.4555  1.0215
 9132SOL     OW38854   3.648   2.572  11.704  0.4223 -0.3689  0.0214
 9132SOL    HW138855   3.594   2.511  11.653  0.5793 -0.8481  0.4334
 9132SOL    HW238856   3.649   2.530  11.790  0.1325 -0.8659 -0.2128
 9133SOL     OW38857   3.154   3.078   6.128  0.0037 -0.8162  0.3563
 9133SOL    HW138858   3.084   3.017   6.104 -0.5603 -0.3189  0.7522
 9133SOL    HW238859   3.205   3.023   6.188  3.4491  0.5678 -1.2824
 9134SOL     OW38860   2.239   2.900   1.922 -0.2611  0.0901 -0.3592
 9134SOL    HW138861   2.300   2.831   1.949  1.1442  1.1095 -0.8996
 9134SOL    HW238862   2.185   2.906   2.001 -0.3184  2.2397 -0.5598
 9135SOL     OW38863   3.821   2.629   4.954  0.6260  0.0584  0.3714
 9135SOL    HW138864   3.796   2.593   5.039  1.2068 -0.6752  0.2230
 9135SOL    HW238865   3.742   2.611   4.903 -0.8095  0.2909  2.5015
 9136SOL     OW38866   0.289   2.429   6.636 -0.4632  0.0421 -0.1149
 9136SOL    HW138867   0.346   2.496   6.600 -1.1381 -0.2397 -1.7184
 9136SOL    HW238868   0.357   2.386   6.688  0.3208  2.2243  0.6556
 9137SOL     OW38869   1.531   0.389   8.209 -0.0233  0.0266 -0.1604
 9137SOL    HW138870   1.495   0.334   8.279 -1.4316  2.3769  0.9561
 9137SOL    HW238871   1.450   0.433   8.183  0.8096  0.6931 -1.6199
 9138SOL     OW38872   2.702   0.140   5.223 -0.6756  0.6393 -0.1857
 9138SOL    HW138873   2.636   0.177   5.281 -0.3193 -0.5101  0.9621
 9138SOL    HW238874   2.784   0.168   5.264 -1.1412 -0.4604  1.4959
 9139SOL     OW38875   1.373   3.124  17.557  0.1480 -0.0925 -0.2974
 9139SOL    HW138876   1.428   3.201  17.569 -0.8021  0.2015  2.0885
 9139SOL    HW238877   1.347   3.104  17.646 -1.7324 -0.8339 -1.0035
 9140SOL     OW38878   3.902   0.370   5.655 -0.1198 -0.3102 -0.0492
 9140SOL    HW138879   3.875   0.378   5.564 -3.0981 -2.0238  0.7014
 9140SOL    HW238880   3.849   0.296   5.685 -1.4115  0.5578 -0.2276
 9141SOL     OW38881   3.841   0.703   4.720  0.2247  0.1144  0.5167
 9141SOL    HW138882   3.873   0.615   4.699  0.1941 -0.1253  1.4800
 9141SOL    HW238883   3.926   0.747   4.721 -0.1083  0.8983 -4.2463
 9142SOL     OW38884   1.241   1.103  12.305 -0.2050  0.2534 -0.3908
 9142SOL    HW138885   1.233   1.190  12.266 -1.3484  0.1066 -0.4934
 9142SOL    HW238886   1.187   1.111  12.384  0.1270  0.7293 -0.2100
 9143SOL     OW38887   1.320   0.474   4.142  0.7225  0.4463 -1.0761
 9143SOL    HW138888   1.286   0.491   4.230  1.1394  0.1213 -0.8528
 9143SOL    HW238889   1.413   0.475   4.162  0.8927 -2.3179 -1.7459
 9144SOL     OW38890   4.440   3.558   1.328  0.0980 -0.0912  0.0422
 9144SOL    HW138891   4.345   3.561   1.333  0.1158 -0.4043  0.5265
 9144SOL    HW238892   4.443   3.466   1.302 -1.7642 -0.0958 -0.1456
 9145SOL     OW38893   4.051   3.417   5.031  0.5301 -0.0874 -0.1503
 9145SOL    HW138894   4.023   3.342   4.977 -0.7327 -0.4018  0.9642
 9145SOL    HW238895   4.144   3.396   5.036  0.8246  1.2472 -0.1534
 9146SOL     OW38896   1.150   2.257   7.253  0.0211 -0.0822 -0.3058
 9146SOL    HW138897   1.100   2.271   7.334 -1.2447 -1.6117 -0.8079
 9146SOL    HW238898   1.144   2.162   7.237 -2.6877  0.0531 -0.0388
 9147SOL     OW38899   3.578   4.223   6.884  0.1057 -0.4005 -0.2948
 9147SOL    HW138900   3.653   4.209   6.827  0.5909 -0.8898  0.4676
 9147SOL    HW238901   3.530   4.140   6.880  2.4553 -1.6739 -1.7844
 9148SOL     OW38902   1.240   2.515   4.868 -0.1786 -0.3391  0.1742
 9148SOL    HW138903   1.295   2.543   4.941  0.8420  1.6612 -1.3852
 9148SOL    HW238904   1.292   2.538   4.791 -0.4141 -1.1399 -0.2226
 9149SOL     OW38905   4.229   4.127   3.222 -0.1495 -0.5712 -0.0555
 9149SOL    HW138906   4.221   4.055   3.284 -0.3980 -0.0446  0.5140
 9149SOL    HW238907   4.261   4.066   3.154 -0.6009 -3.1269  2.0407
 9150SOL     OW38908   3.621   4.720   1.920 -0.5652 -0.0712  0.4868
 9150SOL    HW138909   3.612   4.695   2.012  0.0861  0.1149  0.6009
 9150SOL    HW238910   3.679   0.072   1.929  0.2907 -0.1677 -4.1267
 9151SOL     OW38911   0.521   2.274   3.950 -0.6017  0.2049 -0.2732
 9151SOL    HW138912   0.480   2.272   4.036 -0.1573  0.2311 -0.0619
 9151SOL    HW238913   0.600   2.221   3.950 -0.3520  0.5919  2.6078
 9152SOL     OW38914   0.040   1.337   1.218  0.5475 -0.1649  0.0258
 9152SOL    HW138915   4.704   1.262   1.221  0.3690 -0.0553 -1.1282
 9152SOL    HW238916   0.055   1.351   1.312  0.4996 -0.4595  0.0783
 9153SOL     OW38917   2.502   0.909   5.757  0.0289  0.2450  0.4793
 9153SOL    HW138918   2.478   1.000   5.770  0.3469  0.2067  1.3592
 9153SOL    HW238919   2.566   0.889   5.826  0.1389  0.1941  0.3623
 9154SOL     OW38920   0.718   2.666  15.309  0.2402  0.2965  0.2017
 9154SOL    HW138921   0.623   2.677  15.321 -0.0533 -1.1344 -0.8088
 9154SOL    HW238922   0.726   2.571  15.309 -2.3605  0.0657 -0.6098
 9155SOL     OW38923   3.928   2.827   6.981  0.3904  0.1586 -0.0492
 9155SOL    HW138924   4.018   2.848   6.956  0.6003  0.2215  0.7519
 9155SOL    HW238925   3.895   2.885   7.050  0.1625 -0.8205  0.6551
 9156SOL     OW38926   4.280   2.165   7.528  0.1138 -0.1317 -0.1720
 9156SOL    HW138927   4.361   2.179   7.478 -0.6068  4.0865 -0.1766
 9156SOL    HW238928   4.305   2.104   7.596 -0.5561  2.0191  2.0086
 9157SOL     OW38929   1.827   4.639   2.822  0.1071  0.1587  0.4205
 9157SOL    HW138930   1.849   4.602   2.907 -0.6632  1.6282  1.2690
 9157SOL    HW238931   1.780   4.717   2.851 -2.9140 -1.0401 -1.1766
 9158SOL     OW38932   3.027   2.996   4.998 -0.1240  0.3535  0.3514
 9158SOL    HW138933   2.957   2.972   5.059  1.7721  0.3752  2.5613
 9158SOL    HW238934   2.978   2.986   4.917 -3.4145 -0.0944  2.3861
 9159SOL     OW38935   3.613   2.185  10.379  0.7555  0.2711 -0.9283
 9159SOL    HW138936   3.529   2.158  10.414  0.7027  2.2791  0.4700
 9159SOL    HW238937   3.617   2.119  10.310 -2.1040 -0.3864 -0.4389
 9160SOL     OW38938   4.089   2.462   6.159 -0.1891 -0.4274  0.3496
 9160SOL    HW138939   4.076   2.458   6.254  3.4214  1.3895  0.9391
 9160SOL    HW238940   4.121   2.372   6.150 -0.7684 -0.4744 -1.1763
 9161SOL     OW38941   2.421   2.688   3.580 -0.8011 -0.5524 -0.1399
 9161SOL    HW138942   2.471   2.742   3.641 -0.5124 -0.0993 -0.7790
 9161SOL    HW238943   2.487   2.619   3.567  0.3789  0.6803 -0.6856
 9162SOL     OW38944   0.200   2.464   0.802  0.2689 -0.1476 -0.4539
 9162SOL    HW138945   0.130   2.478   0.866 -0.5165  0.1565 -1.3713
 9162SOL    HW238946   0.268   2.509   0.851 -0.2709 -1.0353  1.1085
 9163SOL     OW38947   2.534   3.875   6.367 -0.1606  0.2287 -0.5643
 9163SOL    HW138948   2.477   3.811   6.410 -0.1289 -0.2190 -1.1857
 9163SOL    HW238949   2.512   3.962   6.399  0.7456  1.3816 -3.0803
 9164SOL     OW38950   1.388   1.699  10.368 -0.2301 -0.5195 -0.1473
 9164SOL    HW138951   1.465   1.746  10.398 -0.0173 -0.2000 -1.1981
 9164SOL    HW238952   1.324   1.760  10.405 -1.2524  0.0748 -2.9333
 9165SOL     OW38953   4.583   3.696   7.875 -0.3944  0.4488 -0.0632
 9165SOL    HW138954   4.571   3.777   7.825  1.0090  0.7546  0.1015
 9165SOL    HW238955   4.676   3.683   7.858  0.1062  0.3606  2.7768
 9166SOL     OW38956   0.821   4.420   3.974  0.2984 -0.2741  0.2407
 9166SOL    HW138957   0.727   4.409   3.990  0.1595  0.4817 -0.0805
 9166SOL    HW238958   0.811   4.438   3.881  0.6294 -2.0672 -0.1479
 9167SOL     OW38959   0.630   3.558  16.598  0.0947  0.2396 -0.6554
 9167SOL    HW138960   0.607   3.638  16.646 -2.2921  0.4508 -2.1368
 9167SOL    HW238961   0.639   3.503  16.675 -1.3874 -0.7391 -1.1793
 9168SOL     OW38962   2.218   2.270  17.515  0.8210  0.7506 -0.0121
 9168SOL    HW138963   2.245   2.356  17.483  0.5138  0.8703  0.0493
 9168SOL    HW238964   2.157   2.239  17.448  0.4733  1.1518  0.1243
 9169SOL     OW38965   2.930   3.473   8.851  0.3677 -0.1833  0.8657
 9169SOL    HW138966   2.881   3.554   8.842  0.0073 -0.4262  0.6591
 9169SOL    HW238967   2.883   3.433   8.924 -1.8884  1.0629  0.0929
 9170SOL     OW38968   4.401   0.810  16.922  0.0205 -0.0356  0.4312
 9170SOL    HW138969   4.375   0.795  17.013 -0.5527  0.1226  0.2921
 9170SOL    HW238970   4.322   0.853  16.890 -0.9675 -1.3386  1.0980
 9171SOL     OW38971   2.605   3.675   1.314  0.3304  0.2534 -0.8762
 9171SOL    HW138972   2.675   3.628   1.360 -1.9299 -2.1190  0.1538
 9171SOL    HW238973   2.618   3.642   1.226 -2.8195  0.1436 -1.2919
 9172SOL     OW38974   0.848   1.941   9.114  0.1493 -0.3608  0.1911
 9172SOL    HW138975   0.897   1.862   9.136  1.3823  0.7864  1.5679
 9172SOL    HW238976   0.872   1.956   9.023 -0.0223  2.0122  0.5372
 9173SOL     OW38977   0.774   2.624   7.546  0.2467  0.2122 -0.2138
 9173SOL    HW138978   0.822   2.673   7.613 -0.1386 -0.9298  0.8989
 9173SOL    HW238979   0.705   2.680   7.513  0.8966 -0.6171 -2.9575
 9174SOL     OW38980   4.630   1.024   9.562  0.1056  0.0655 -0.0857
 9174SOL    HW138981   4.619   0.947   9.505 -3.2959  1.4318 -1.3097
 9174SOL    HW238982   4.603   0.991   9.648 -1.3843  1.7550  0.0824
 9175SOL     OW38983   2.930   1.558   1.750 -0.2375  0.1554 -0.7612
 9175SOL    HW138984   2.865   1.561   1.679  0.2823 -0.6466 -1.2718
 9175SOL    HW238985   2.887   1.618   1.811 -2.1076 -2.7728  0.8152
 9176SOL     OW38986   2.706   2.686  14.202 -0.9156  0.1293 -0.0961
 9176SOL    HW138987   2.692   2.735  14.121 -1.1964  1.0351  0.4966
 9176SOL    HW238988   2.799   2.701  14.217 -0.9864 -1.0257  1.4651
 9177SOL     OW38989   2.022   1.602  10.207  0.2739  0.2872  0.2791
 9177SOL    HW138990   2.053   1.514  10.227  0.4582  0.2482 -0.1700
 9177SOL    HW238991   2.076   1.616  10.129  0.1354  0.4229  0.2068
 9178SOL     OW38992   3.313   1.821   6.471  0.2973  0.2829  0.0493
 9178SOL    HW138993   3.300   1.802   6.378 -0.0196  1.5375 -0.1592
 9178SOL    HW238994   3.386   1.883   6.475  0.2135  0.3829  0.0213
 9179SOL     OW38995   0.778   3.270   6.135  1.0172  0.0978  0.6459
 9179SOL    HW138996   0.688   3.245   6.118  1.5365 -0.7864 -0.7255
 9179SOL    HW238997   0.773   3.344   6.196  0.8742 -0.6502  1.5381
 9180SOL     OW38998   1.249   1.890   7.144 -0.6009 -0.3591  0.4794
 9180SOL    HW138999   1.229   1.898   7.051 -2.9498  0.7614  1.0586
 9180SOL    HW239000   1.160   1.887   7.179 -0.3881  0.3673  1.0797
 9181SOL     OW39001   2.573   3.079   6.638 -0.0162 -0.1459 -0.3702
 9181SOL    HW139002   2.570   3.039   6.551 -1.7756 -0.0449 -0.3633
 9181SOL    HW239003   2.665   3.075   6.662 -0.3017 -0.8065  0.6217
 9182SOL     OW39004   4.516   4.611   8.967  0.6621  0.2170  0.4739
 9182SOL    HW139005   4.544   4.668   8.895 -1.0212  0.3419 -0.0634
 9182SOL    HW239006   4.549   4.523   8.951  0.3743 -0.0558  1.4163
 9183SOL     OW39007   0.782   3.439  15.296 -0.0078  0.6550 -0.6284
 9183SOL    HW139008   0.833   3.447  15.376  0.9358 -1.9789 -0.9616
 9183SOL    HW239009   0.699   3.432  15.343 -0.0780  0.9713 -0.7090
 9184SOL     OW39010   2.428   0.685   1.021 -0.1008 -0.3787  0.4371
 9184SOL    HW139011   2.427   0.756   0.957 -2.8238  0.8550  1.8874
 9184SOL    HW239012   2.380   0.732   1.089  0.0576  2.1346 -1.1862
 9185SOL     OW39013   0.993   0.886  15.460 -0.1438  0.1385  0.3098
 9185SOL    HW139014   1.068   0.905  15.404 -2.8535 -1.2740 -3.8289
 9185SOL    HW239015   1.014   0.817  15.522 -0.7574  0.5417  0.9690
 9186SOL     OW39016   0.192   1.565   2.139 -0.5914  0.3832  0.1840
 9186SOL    HW139017   0.098   1.580   2.142 -0.3359  1.7947  0.9290
 9186SOL    HW239018   0.219   1.644   2.092  1.8439 -0.9815 -0.7094
 9187SOL     OW39019   0.929   0.989   7.487  0.1533  0.4441 -0.9357
 9187SOL    HW139020   1.011   1.012   7.532  0.1565 -2.5213  0.6389
 9187SOL    HW239021   0.854   1.005   7.544  1.8850 -0.0999  1.5231
 9188SOL     OW39022   1.122   3.726   1.816  0.0663 -0.1066  0.0220
 9188SOL    HW139023   1.182   3.800   1.822 -1.1253  0.6989  1.7689
 9188SOL    HW239024   1.033   3.763   1.815  0.8638  1.8153  0.9248
 9189SOL     OW39025   3.276   2.009   6.702 -0.4013 -0.6317  0.2263
 9189SOL    HW139026   3.368   1.984   6.706 -0.5709 -1.4985 -1.2217
 9189SOL    HW239027   3.234   1.924   6.685 -2.4675  0.3862  0.2407
 9190SOL     OW39028   2.177   2.397  11.221  0.0416 -0.0065  0.1129
 9190SOL    HW139029   2.254   2.384  11.166  1.3817 -0.5567  2.1555
 9190SOL    HW239030   2.207   2.436  11.303 -3.4228  3.3280 -0.1883
 9191SOL     OW39031   3.145   3.988  16.820 -0.2169 -0.0549  0.3893
 9191SOL    HW139032   3.165   3.898  16.847  1.5348  0.7840  1.8699
 9191SOL    HW239033   3.195   3.995  16.739 -0.5638 -2.2290 -0.0202
 9192SOL     OW39034   4.353   0.363  13.461 -0.0762 -0.1507 -0.0119
 9192SOL    HW139035   4.347   0.384  13.368  2.1540 -0.3010 -0.1856
 9192SOL    HW239036   4.440   0.324  13.460 -0.4244 -0.9233 -0.3339
 9193SOL     OW39037   1.615   2.689   3.653 -0.5202 -0.2156 -0.7775
 9193SOL    HW139038   1.664   2.688   3.735  1.8530 -2.7623 -2.2133
 9193SOL    HW239039   1.661   2.628   3.595  1.3759  0.0600  0.4359
 9194SOL     OW39040   3.697   3.837  13.169  0.6550 -0.3842  0.4381
 9194SOL    HW139041   3.780   3.814  13.128  0.2216 -0.3015 -0.4799
 9194SOL    HW239042   3.706   3.930  13.185 -1.8024  0.0044 -0.4267
 9195SOL     OW39043   2.707   0.932   2.780  0.3658 -0.2267  0.1891
 9195SOL    HW139044   2.728   0.856   2.726  0.2526 -1.1001  1.3783
 9195SOL    HW239045   2.792   0.972   2.800  2.1203 -3.0937 -1.6137
 9196SOL     OW39046   2.024   0.334   3.981 -0.1247 -0.0727 -0.2755
 9196SOL    HW139047   1.982   0.364   3.900 -0.7813 -1.4510 -0.4470
 9196SOL    HW239048   2.043   0.413   4.032  2.1843 -0.3188 -0.7856
 9197SOL     OW39049   0.030   2.434  10.716 -0.0782  0.3594  0.0126
 9197SOL    HW139050   0.098   2.387  10.668  0.5598  1.6815 -0.3927
 9197SOL    HW239051   0.008   2.503  10.652 -0.8269 -1.9718 -2.2551
 9198SOL     OW39052   2.628   4.304  10.978  0.3032 -0.6396  0.0272
 9198SOL    HW139053   2.539   4.275  10.996 -0.0677  1.1468  1.0518
 9198SOL    HW239054   2.690   4.234  10.999  1.2801 -0.0629 -0.9576
 9199SOL     OW39055   4.243   3.636   1.745  0.2684  0.6709  0.3012
 9199SOL    HW139056   4.160   3.661   1.704 -0.0664 -1.0178 -0.0569
 9199SOL    HW239057   4.208   3.568   1.802 -1.2545 -0.0491 -1.4912
 9200SOL     OW39058   0.523   3.982   3.538  0.4736 -0.1705 -0.1219
 9200SOL    HW139059   0.547   4.073   3.559  2.7479 -0.7764 -0.0704
 9200SOL    HW239060   0.459   4.002   3.470  1.6946 -0.8765 -1.4927
 9201SOL     OW39061   4.402   3.425  14.979 -0.7041  0.0191 -0.5636
 9201SOL    HW139062   4.370   3.380  15.058  0.5126 -1.0057 -0.6586
 9201SOL    HW239063   4.349   3.504  14.993  1.3631  1.3461 -0.2421
 9202SOL     OW39064   4.206   3.649   7.191  0.1959  0.2771 -0.7366
 9202SOL    HW139065   4.120   3.672   7.227 -0.5549 -0.0553 -2.3439
 9202SOL    HW239066   4.207   3.706   7.114  1.6700  0.8092 -0.3196
 9203SOL     OW39067   1.182   1.263  13.162 -0.4987  1.2412  0.3044
 9203SOL    HW139068   1.146   1.177  13.143  1.2824  0.3990  0.7752
 9203SOL    HW239069   1.247   1.275  13.093 -1.4322 -0.4454 -0.8786
 9204SOL     OW39070   1.868   3.977   4.079 -0.9046 -0.1868  0.3460
 9204SOL    HW139071   1.951   3.935   4.103  0.0024  1.9795  1.0490
 9204SOL    HW239072   1.842   3.924   4.003  0.1849  1.4592 -1.1883
 9205SOL     OW39073   0.764   2.867  10.670  0.1918 -0.0605 -0.6025
 9205SOL    HW139074   0.732   2.916  10.746 -0.2321 -1.3204  0.0237
 9205SOL    HW239075   0.703   2.795  10.680 -1.5188  1.1325 -2.2312
 9206SOL     OW39076   0.349   3.337  11.498 -0.0592  0.6387  0.1037
 9206SOL    HW139077   0.274   3.387  11.466 -1.3396 -1.1693  0.2776
 9206SOL    HW239078   0.372   3.284  11.422  0.3956 -1.5089  1.7376
 9207SOL     OW39079   4.071   2.415   3.232  0.0840  0.6772 -0.8714
 9207SOL    HW139080   4.154   2.394   3.188 -0.6170 -1.3614 -1.2484
 9207SOL    HW239081   4.079   2.338   3.290 -2.3526  1.4446  0.4780
 9208SOL     OW39082   3.570   1.794   9.102 -0.7219  0.0761 -0.1757
 9208SOL    HW139083   3.479   1.819   9.117 -0.7103 -0.6111  0.9915
 9208SOL    HW239084   3.575   1.813   9.008  0.6543  1.3524  0.1397
 9209SOL     OW39085   1.181   1.649   4.513  1.3759  0.3257 -0.6333
 9209SOL    HW139086   1.192   1.577   4.452 -1.4582  0.7616 -1.6499
 9209SOL    HW239087   1.183   1.604   4.598  1.3934 -0.9763 -1.3142
 9210SOL     OW39088   2.442   2.843  15.586 -0.2689  0.2383 -0.2620
 9210SOL    HW139089   2.403   2.770  15.537 -2.9195  1.0788  0.5809
 9210SOL    HW239090   2.367   2.891  15.621 -0.7439 -0.2459 -0.5995
 9211SOL     OW39091   1.041   1.002   3.037 -0.0252  0.3613 -0.4010
 9211SOL    HW139092   1.088   1.084   3.055  1.8164 -0.4119 -1.7208
 9211SOL    HW239093   1.087   0.934   3.087 -1.3005  0.3435  0.7780
 9212SOL     OW39094   2.895   2.007   8.007  0.0178  0.1426 -0.3090
 9212SOL    HW139095   2.940   2.058   7.939 -0.2033 -0.0365 -0.5896
 9212SOL    HW239096   2.813   2.056   8.016 -0.9624 -1.4716 -0.5394
 9213SOL     OW39097   3.029   4.098   8.225 -0.3352 -0.1085  0.3494
 9213SOL    HW139098   2.987   4.094   8.311 -1.5085  0.2870 -0.2121
 9213SOL    HW239099   2.951   4.080   8.173  1.1624  0.9202 -2.2182
 9214SOL     OW39100   2.876   1.720   2.362  0.3650 -0.2251  0.2251
 9214SOL    HW139101   2.962   1.736   2.322  0.0333 -0.2095 -0.4746
 9214SOL    HW239102   2.873   1.783   2.435 -0.0276 -0.2241  0.2065
 9215SOL     OW39103   1.632   0.458   2.039 -0.5167 -0.4845 -0.4592
 9215SOL    HW139104   1.603   0.367   2.044  1.2623 -1.1574 -2.2874
 9215SOL    HW239105   1.717   0.442   1.999 -0.4719  0.7875 -0.8769
 9216SOL     OW39106   0.416   1.920   3.589  0.2158  0.3856  0.0416
 9216SOL    HW139107   0.450   1.915   3.499 -0.7443 -0.1198 -0.2927
 9216SOL    HW239108   0.324   1.940   3.578  0.2272  0.0032 -0.8297
 9217SOL     OW39109   3.956   4.542  10.832  0.6877  0.2236 -0.4863
 9217SOL    HW139110   3.927   4.525  10.921  0.0106  0.3592 -0.6771
 9217SOL    HW239111   3.912   4.626  10.817 -0.4077 -0.2433  0.1409
 9218SOL     OW39112   4.032   1.131   4.185  0.2544 -0.1957  0.2129
 9218SOL    HW139113   3.987   1.130   4.101 -3.0811  0.8884  2.0052
 9218SOL    HW239114   4.112   1.181   4.167 -0.7615  1.0774 -0.6963
 9219SOL     OW39115   4.547   4.075   2.097  0.6125  0.1065 -0.4510
 9219SOL    HW139116   4.553   4.044   2.187  0.3122  1.0837 -0.1013
 9219SOL    HW239117   4.454   4.094   2.101  0.4785 -0.4900 -0.6446
 9220SOL     OW39118   1.885   2.056   4.761 -0.0339 -0.4437  0.1759
 9220SOL    HW139119   1.911   2.123   4.824  1.0079 -0.4678 -0.2450
 9220SOL    HW239120   1.884   1.980   4.820  1.9491 -1.0378 -0.5760
 9221SOL     OW39121   0.779   3.015   0.480  0.2229  0.1906 -0.4436
 9221SOL    HW139122   0.727   2.942   0.446 -0.2293  0.1415  0.3564
 9221SOL    HW239123   0.850   2.963   0.517  0.8277  1.5539  0.2953
 9222SOL     OW39124   1.511   1.777  17.352  0.1091  0.0329  0.4856
 9222SOL    HW139125   1.538   1.698  17.304 -1.4034  1.3123 -2.4550
 9222SOL    HW239126   1.438   1.737  17.399  1.7904 -3.2750  0.2826
 9223SOL     OW39127   3.169   4.141  17.677 -0.1995 -0.5050 -0.0396
 9223SOL    HW139128   3.214   4.130   0.063 -0.7243 -0.2143  0.2854
 9223SOL    HW239129   3.124   4.056  17.679 -0.8283 -0.1690  0.0422
 9224SOL     OW39130   1.757   0.706   5.380  0.1128 -0.1669 -0.0468
 9224SOL    HW139131   1.813   0.700   5.302  0.9112  1.7554  0.3931
 9224SOL    HW239132   1.685   0.660   5.338  0.8236  0.3367 -1.8283
 9225SOL     OW39133   1.371   3.105   3.350  0.2572 -0.0880 -0.6770
 9225SOL    HW139134   1.337   3.143   3.431 -1.6650  1.0733 -2.0101
 9225SOL    HW239135   1.396   3.015   3.371 -0.4710 -0.1685 -0.1622
 9226SOL     OW39136   4.414   1.414   6.769  0.1638  0.6081  0.7769
 9226SOL    HW139137   4.497   1.418   6.818  1.6969 -2.6613 -1.5633
 9226SOL    HW239138   4.437   1.463   6.690  0.3094  2.8469  2.1746
 9227SOL     OW39139   2.355   0.052   2.402 -0.0433  0.1676  0.6206
 9227SOL    HW139140   2.395   4.708   2.347 -0.3078  1.4678 -1.1540
 9227SOL    HW239141   2.339   0.002   2.482 -1.7027 -0.0851  0.1281
 9228SOL     OW39142   1.142   2.368   1.777 -0.2243  0.5793 -0.0903
 9228SOL    HW139143   1.088   2.321   1.840 -0.1670  0.3583 -0.2040
 9228SOL    HW239144   1.073   2.391   1.714 -0.0519  0.5361 -0.2961
 9229SOL     OW39145   4.113   3.724  11.000  0.1338  0.1473  0.0867
 9229SOL    HW139146   4.181   3.772  10.952  1.1308 -0.7869  0.5726
 9229SOL    HW239147   4.132   3.632  10.981 -1.4692 -0.2305  0.3231
 9230SOL     OW39148   1.175   4.692   3.699  0.2876  0.4205  0.2252
 9230SOL    HW139149   1.224   0.038   3.654  1.0605 -1.4642 -1.8673
 9230SOL    HW239150   1.199   4.707   3.790 -1.7107 -0.4511  0.8817
 9231SOL     OW39151   0.240   3.534   5.868 -0.3226 -0.3828 -0.2226
 9231SOL    HW139152   0.191   3.508   5.946 -1.0112 -0.9915 -0.8629
 9231SOL    HW239153   0.226   3.628   5.873  0.2987 -0.4073  1.9265
 9232SOL     OW39154   2.129   2.569   5.428  0.6175  0.3617  0.4203
 9232SOL    HW139155   2.166   2.502   5.371 -2.4324  0.0201 -1.1847
 9232SOL    HW239156   2.111   2.642   5.368  1.9013  0.0135 -0.3790
 9233SOL     OW39157   2.712   3.774   7.553 -0.5430  0.1425  0.4581
 9233SOL    HW139158   2.681   3.775   7.643 -2.6030 -0.6563 -0.2454
 9233SOL    HW239159   2.726   3.682   7.530 -1.7997  0.1682 -0.4321
 9234SOL     OW39160   2.290   0.692   0.267  0.4369  0.4248 -0.5771
 9234SOL    HW139161   2.382   0.681   0.293 -0.3373 -2.1060  1.0175
 9234SOL    HW239162   2.300   0.755   0.196 -0.9912  1.2389 -0.0576
 9235SOL     OW39163   2.843   3.540  14.734 -0.0404  0.2684 -0.0779
 9235SOL    HW139164   2.935   3.541  14.758 -0.1605 -4.2617  0.5246
 9235SOL    HW239165   2.857   3.540  14.640  0.3265  1.4883 -0.0246
 9236SOL     OW39166   1.032   2.714  10.849  0.1449  0.6794 -0.1834
 9236SOL    HW139167   1.094   2.778  10.884  2.6110 -2.1887  0.6989
 9236SOL    HW239168   0.963   2.708  10.914 -0.8992  3.8147 -1.0054
 9237SOL     OW39169   1.741   4.033   4.316  0.4649 -0.1767  0.2308
 9237SOL    HW139170   1.775   4.112   4.358 -0.5596 -0.2114  1.1173
 9237SOL    HW239171   1.772   4.041   4.225 -0.5094  1.5160  0.0505
 9238SOL     OW39172   4.686   2.748  11.574  0.1970  0.6385  0.1193
 9238SOL    HW139173   4.634   2.668  11.589  1.0297  0.0772  0.0034
 9238SOL    HW239174   0.034   2.699  11.535 -1.3688 -3.0314  1.7404
 9239SOL     OW39175   1.515   1.515   1.451 -0.0913  0.1149 -0.1858
 9239SOL    HW139176   1.435   1.471   1.479 -0.9072  1.2747 -0.6977
 9239SOL    HW239177   1.486   1.580   1.388 -0.6084  0.8413  0.8250
 9240SOL     OW39178   2.333   1.546   8.462  0.2262 -0.3956 -0.0119
 9240SOL    HW139179   2.375   1.523   8.545 -3.0093  2.1411  2.3487
 9240SOL    HW239180   2.392   1.508   8.398 -0.5907  0.4814 -1.2787
 9241SOL     OW39181   2.889   0.110   4.348 -0.1551  0.3589  0.3082
 9241SOL    HW139182   2.961   0.158   4.389  0.8529 -0.8922  0.0289
 9241SOL    HW239183   2.853   0.055   4.417 -0.4086  0.0302 -0.0807
 9242SOL     OW39184   2.090   3.338   8.959  0.2755  0.0796 -0.2749
 9242SOL    HW139185   2.012   3.329   9.014 -0.4880  3.0399 -0.8533
 9242SOL    HW239186   2.093   3.244   8.943 -2.5908  0.0937 -1.0185
 9243SOL     OW39187   3.861   2.722  15.583 -0.2287 -0.0181  0.4616
 9243SOL    HW139188   3.831   2.665  15.654  0.0017  1.3047  1.6151
 9243SOL    HW239189   3.926   2.662  15.546 -1.6522 -0.1931 -1.6920
 9244SOL     OW39190   3.648   4.384   1.068  0.6200  0.1425 -0.5429
 9244SOL    HW139191   3.610   4.305   1.030 -1.7995 -0.3833  3.0175
 9244SOL    HW239192   3.721   4.336   1.107 -0.9798 -1.5852  0.2514
 9245SOL     OW39193   1.334   1.733  15.646 -0.3472 -0.0089  0.7528
 9245SOL    HW139194   1.405   1.673  15.625 -0.8547 -1.2413  2.5734
 9245SOL    HW239195   1.261   1.673  15.629  2.3324 -2.5029 -1.8275
 9246SOL     OW39196   2.456   1.743   7.396 -0.7624  0.3882 -1.0045
 9246SOL    HW139197   2.416   1.670   7.349 -0.7152 -0.2552 -0.0425
 9246SOL    HW239198   2.545   1.733   7.363 -0.7660  0.0605 -0.9071
 9247SOL     OW39199   1.501   1.351  14.923  0.2787  0.4114 -0.3168
 9247SOL    HW139200   1.417   1.397  14.917 -0.3087 -0.7147 -0.9246
 9247SOL    HW239201   1.573   1.389  14.874  0.2889 -1.8734 -2.1049
 9248SOL     OW39202   0.556   1.968   9.044  0.8653 -0.1867  0.3881
 9248SOL    HW139203   0.584   1.903   8.980  1.7938 -1.0895  1.7137
 9248SOL    HW239204   0.637   2.001   9.082 -0.1875  0.0419  2.4220
 9249SOL     OW39205   0.287   3.378   3.841  0.3151 -0.1655 -0.0528
 9249SOL    HW139206   0.277   3.391   3.935 -1.3257 -0.7533 -0.1581
 9249SOL    HW239207   0.366   3.324   3.847 -0.0044 -0.7156 -0.7348
 9250SOL     OW39208   3.043   0.622  10.361 -0.1992 -0.1941  0.3646
 9250SOL    HW139209   2.987   0.580  10.295  0.6190 -0.4652 -0.1486
 9250SOL    HW239210   3.053   0.703  10.311 -0.3975 -1.5902 -1.9086
 9251SOL     OW39211   4.499   4.478  17.558  0.2802  0.1570  0.1116
 9251SOL    HW139212   4.512   4.392  17.599 -2.0429 -1.4282 -2.4699
 9251SOL    HW239213   4.472   4.451  17.471 -1.3114  1.8147  0.0920
 9252SOL     OW39214   2.819   2.605   4.575 -0.1453 -0.2701 -0.2750
 9252SOL    HW139215   2.815   2.568   4.486  2.4079  1.8058 -1.2333
 9252SOL    HW239216   2.755   2.676   4.569 -1.2800 -1.1702  1.0333
 9253SOL     OW39217   4.317   0.453   1.837  0.4491 -0.0716  0.3142
 9253SOL    HW139218   4.374   0.459   1.760 -1.0261 -0.1930 -0.7901
 9253SOL    HW239219   4.311   0.358   1.837  0.5386 -0.0743  1.7518
 9254SOL     OW39220   4.586   3.746   1.478  0.0188  0.0895  0.2693
 9254SOL    HW139221   4.664   3.793   1.447 -1.1849  2.6796  1.1832
 9254SOL    HW239222   4.573   3.678   1.412  1.0322  0.0568  0.0970
 9255SOL     OW39223   4.004   4.693   4.164  0.3702  0.4326  0.2194
 9255SOL    HW139224   4.098   4.685   4.177  0.2776  0.9024  1.1465
 9255SOL    HW239225   4.005   4.654   4.076 -0.9089 -0.1306  0.4465
 9256SOL     OW39226   1.468   2.776   7.644  0.1315 -0.2528 -0.1254
 9256SOL    HW139227   1.420   2.808   7.721  1.1329  0.8367  0.0461
 9256SOL    HW239228   1.391   2.769   7.588 -0.4549  1.4935  0.4688
 9257SOL     OW39229   0.523   1.241   4.223 -0.2089 -0.3438 -0.8078
 9257SOL    HW139230   0.602   1.195   4.197  0.7317  0.8037  0.0204
 9257SOL    HW239231   0.496   1.198   4.304  1.8165 -2.8457 -1.4678
 9258SOL     OW39232   4.100   4.595   8.343 -0.1746 -0.0576 -0.5966
 9258SOL    HW139233   4.133   4.612   8.431 -1.0529  0.5121 -0.3771
 9258SOL    HW239234   4.087   4.501   8.357  0.9497 -0.0566  0.4987
 9259SOL     OW39235   4.154   0.042   3.832 -0.2857  0.0548  0.1949
 9259SOL    HW139236   4.111   4.689   3.870 -0.5725  0.5546  0.8789
 9259SOL    HW239237   4.101   0.069   3.757  0.4355 -0.9950 -0.6951
 9260SOL     OW39238   3.827   4.520   2.629  0.2332  0.1253 -0.2487
 9260SOL    HW139239   3.858   4.583   2.564  1.8277  0.1727  0.5647
 9260SOL    HW239240   3.788   4.460   2.566  2.7685 -1.2437 -0.4981
 9261SOL     OW39241   3.218   2.437   7.129  0.1341  0.5463  0.5261
 9261SOL    HW139242   3.281   2.365   7.136 -0.2182 -0.0655 -2.3489
 9261SOL    HW239243   3.272   2.502   7.084  1.4991 -2.3894 -2.1234
 9262SOL     OW39244   0.795   0.671  12.610 -0.0042  0.4682 -0.4052
 9262SOL    HW139245   0.728   0.711  12.554  0.3696  0.6037 -0.7599
 9262SOL    HW239246   0.734   0.647  12.679 -1.5697  1.0470 -1.5932
 9263SOL     OW39247   2.274   3.168   2.486  0.0180  0.4138  0.4483
 9263SOL    HW139248   2.186   3.140   2.461 -0.2672  0.7707  1.0480
 9263SOL    HW239249   2.260   3.262   2.472 -1.1346  0.2475  0.4462
 9264SOL     OW39250   3.196   2.840   2.018 -0.2252 -0.2724  0.6228
 9264SOL    HW139251   3.252   2.874   2.088  0.9905 -1.2369  0.1194
 9264SOL    HW239252   3.166   2.767   2.072  1.7018  0.0673  2.1459
 9265SOL     OW39253   3.956   4.256   9.158 -0.5804  0.3574 -0.6404
 9265SOL    HW139254   3.908   4.265   9.076  0.2972  1.7502 -0.9946
 9265SOL    HW239255   3.914   4.177   9.193 -1.1650  0.9573  0.0205
 9266SOL     OW39256   0.867   3.900   3.636 -0.0931  0.0134 -0.3146
 9266SOL    HW139257   0.842   3.974   3.579 -0.3876  1.3528  1.5597
 9266SOL    HW239258   0.960   3.916   3.649  0.1868 -1.8949 -0.0570
 9267SOL     OW39259   3.545   0.192   2.615  0.5167  0.4318  0.1109
 9267SOL    HW139260   3.548   0.105   2.653 -1.7265  0.4685  0.3577
 9267SOL    HW239261   3.626   0.225   2.655  0.9499  1.0664 -1.2705
 9268SOL     OW39262   0.051   3.184   8.814  0.5581 -0.1072  0.3975
 9268SOL    HW139263   4.710   3.241   8.773 -0.7879 -0.3668  2.1523
 9268SOL    HW239264   0.130   3.199   8.763  0.3220 -1.3661 -0.3263
 9269SOL     OW39265   1.708   1.855  16.159 -0.1695  0.0839  0.3880
 9269SOL    HW139266   1.691   1.812  16.243 -1.1450 -0.8022 -0.2512
 9269SOL    HW239267   1.666   1.939  16.174  0.4659  0.6204 -0.8170
 9270SOL     OW39268   1.905   1.763  15.523 -0.4009  0.0933 -0.3145
 9270SOL    HW139269   1.848   1.688  15.539 -0.1534 -0.1277 -0.4625
 9270SOL    HW239270   1.844   1.832  15.496 -0.1634 -0.3845 -2.1040
 9271SOL     OW39271   0.428   1.765   4.735  0.2798 -0.1222 -0.5577
 9271SOL    HW139272   0.449   1.857   4.721  0.2394 -0.1226 -0.6206
 9271SOL    HW239273   0.475   1.718   4.666 -0.4905  1.4055 -2.1052
 9272SOL     OW39274   3.465   2.851   1.467 -0.2304  0.3009  0.5961
 9272SOL    HW139275   3.512   2.767   1.469 -0.0597  0.3328 -1.9260
 9272SOL    HW239276   3.528   2.903   1.417 -1.6796  1.7208  0.2763
 9273SOL     OW39277   4.445   0.367   4.693  0.3904  0.1472 -0.0502
 9273SOL    HW139278   4.374   0.304   4.705 -2.9536  3.8979 -0.4768
 9273SOL    HW239279   4.444   0.388   4.600 -0.8660 -1.3647 -0.3805
 9274SOL     OW39280   2.112   1.482  17.012  0.7402 -0.4993 -0.6017
 9274SOL    HW139281   2.155   1.406  16.973 -1.4789 -1.6050 -0.8938
 9274SOL    HW239282   2.065   1.519  16.937  2.5348  1.8614 -0.5680
 9275SOL     OW39283   4.700   0.186   6.060 -0.3331  0.6795 -0.5603
 9275SOL    HW139284   4.615   0.167   6.020 -1.1557  0.2992  1.3903
 9275SOL    HW239285   4.682   0.140   6.142  2.4877 -0.1209 -0.3813
 9276SOL     OW39286   3.179   0.480   7.520  0.1088  0.3471 -0.8593
 9276SOL    HW139287   3.248   0.547   7.520 -1.3875  1.8728  0.3277
 9276SOL    HW239288   3.194   0.434   7.603  2.0086  1.0372 -0.8293
 9277SOL     OW39289   0.537   2.269  13.806  0.7078  0.1323  0.4333
 9277SOL    HW139290   0.529   2.351  13.855  1.6072  1.0108 -0.8793
 9277SOL    HW239291   0.619   2.224  13.827  0.7753  0.0860  0.0783
 9278SOL     OW39292   3.498   3.264   2.396 -0.0417  0.6993 -0.0861
 9278SOL    HW139293   3.561   3.243   2.327 -0.1727  1.8173 -0.5596
 9278SOL    HW239294   3.428   3.201   2.378 -0.9463  1.1831  1.6901
 9279SOL     OW39295   3.922   2.362   5.889 -0.6107 -0.4849  0.0652
 9279SOL    HW139296   3.950   2.436   5.943 -1.0080 -0.3088  0.0318
 9279SOL    HW239297   4.006   2.316   5.890  0.0677  0.7225 -1.1420
 9280SOL     OW39298   2.235   4.328   0.385  0.5465 -0.1432 -0.2736
 9280SOL    HW139299   2.271   4.383   0.455  1.6688 -1.8720  0.5226
 9280SOL    HW239300   2.297   4.343   0.314  0.1455  2.1898 -0.1300
 9281SOL     OW39301   2.019   2.775  12.487  0.2360  0.1806 -0.1476
 9281SOL    HW139302   1.967   2.800  12.563 -1.2969 -2.3530 -0.3475
 9281SOL    HW239303   2.041   2.687  12.517 -2.2408 -0.3746  0.0886
 9282SOL     OW39304   1.426   3.292   4.011 -0.1982  0.1424  0.4944
 9282SOL    HW139305   1.343   3.300   4.058 -0.4696 -0.1184  0.0599
 9282SOL    HW239306   1.414   3.209   3.964 -1.5068  0.3256  0.5109
 9283SOL     OW39307   1.059   3.479   0.319  0.1609  0.1945 -0.3858
 9283SOL    HW139308   1.038   3.386   0.318  0.0133  0.2112  1.1802
 9283SOL    HW239309   1.111   3.490   0.399 -0.3972 -0.3797  0.0595
 9284SOL     OW39310   1.403   0.184   1.595  0.8062 -0.4342 -0.4726
 9284SOL    HW139311   1.347   0.116   1.558  0.0996 -0.6186  0.9701
 9284SOL    HW239312   1.463   0.201   1.522 -0.1656 -0.2834 -1.2318
 9285SOL     OW39313   3.767   2.716  17.480  0.3941  0.1354  0.2419
 9285SOL    HW139314   3.847   2.768  17.470  0.9941 -1.0212 -1.1026
 9285SOL    HW239315   3.775   2.714  17.575  1.9999  1.0339  0.1306
 9286SOL     OW39316   1.200   1.906  10.548 -0.1184  0.2309 -0.0018
 9286SOL    HW139317   1.205   1.999  10.528  0.9759  0.4926  1.4972
 9286SOL    HW239318   1.210   1.915  10.643  1.8988 -2.1183  0.0167
 9287SOL     OW39319   3.495   0.523   2.125 -0.6781 -0.2479  0.0604
 9287SOL    HW139320   3.409   0.482   2.131 -1.3203  1.0067 -0.4844
 9287SOL    HW239321   3.534   0.493   2.207 -3.7172  0.0387  1.6323
 9288SOL     OW39322   0.733   4.571   1.096  0.1814 -0.2438 -0.1065
 9288SOL    HW139323   0.729   4.642   1.032  0.9157  0.6222  0.8012
 9288SOL    HW239324   0.669   4.512   1.057  1.0123 -1.0288 -0.2788
 9289SOL     OW39325   0.789   0.494   9.146  0.7260  0.1922 -0.6654
 9289SOL    HW139326   0.749   0.523   9.064 -1.7970 -0.8249  0.1783
 9289SOL    HW239327   0.843   0.420   9.118 -0.3806 -1.2620  1.0274
 9290SOL     OW39328   2.234   0.311   1.941 -0.0708 -0.2039 -0.3190
 9290SOL    HW139329   2.189   0.342   2.019  2.3681  1.2085  0.5268
 9290SOL    HW239330   2.236   0.215   1.945 -0.6974 -0.1661  0.8965
 9291SOL     OW39331   4.426   1.948   5.000  0.1271  0.0238  0.4391
 9291SOL    HW139332   4.508   1.950   5.049  1.9835  0.3621 -2.6507
 9291SOL    HW239333   4.456   1.978   4.914 -2.0068 -1.1309 -0.6859
 9292SOL     OW39334   1.559   1.522   1.111  0.0484  0.1748 -0.8777
 9292SOL    HW139335   1.587   1.590   1.049  0.3311 -0.5569 -1.5503
 9292SOL    HW239336   1.495   1.565   1.168  1.7786  2.8040 -0.9308
 9293SOL     OW39337   2.889   4.113   4.924  0.3638  0.1584 -0.2052
 9293SOL    HW139338   2.939   4.080   4.850 -0.8623  0.0487 -0.9895
 9293SOL    HW239339   2.797   4.114   4.898  0.0149 -2.7507  0.8992
 9294SOL     OW39340   2.378   4.362  17.278  0.3336  0.4127 -0.4613
 9294SOL    HW139341   2.424   4.434  17.234  1.1848  0.8001  1.0584
 9294SOL    HW239342   2.454   4.311  17.307 -0.8899  0.5069  2.9577
 9295SOL     OW39343   2.994   4.372  17.597  0.3187  0.2322 -0.0253
 9295SOL    HW139344   3.019   4.279  17.600 -2.8033 -0.5759  1.5736
 9295SOL    HW239345   2.967   4.380  17.689 -0.1125 -1.7417  0.0269
 9296SOL     OW39346   1.490   4.305   2.880 -0.0483  0.1836  0.6156
 9296SOL    HW139347   1.581   4.276   2.865  0.1448  1.7037 -1.1952
 9296SOL    HW239348   1.492   4.340   2.969 -1.5302  2.4472 -0.2402
 9297SOL     OW39349   0.109   4.674   8.530  0.4756 -0.1856  0.0609
 9297SOL    HW139350   0.087   4.700   8.440  0.9255  1.9955  0.5771
 9297SOL    HW239351   0.166   4.603   8.502 -0.2993 -0.6796 -0.2680
 9298SOL     OW39352   1.833   2.794  13.557  0.0357  0.0008  0.1579
 9298SOL    HW139353   1.806   2.868  13.504 -0.3681 -0.9966 -1.0181
 9298SOL    HW239354   1.762   2.768  13.616  0.6238  0.6092  1.1385
 9299SOL     OW39355   2.930   2.596  10.967 -0.4439  0.7699 -0.2183
 9299SOL    HW139356   2.963   2.567  10.882  0.1693 -1.8577  0.9487
 9299SOL    HW239357   3.000   2.653  10.998  0.2965  0.1405 -0.7305
 9300SOL     OW39358   3.100   3.100   6.649 -0.4033 -0.6760 -0.2829
 9300SOL    HW139359   3.098   3.032   6.581  2.2801 -2.8911  1.8598
 9300SOL    HW239360   3.166   3.064   6.709 -0.4529 -2.2594 -1.1609
 9301SOL     OW39361   4.339   0.517   4.128 -0.3893  0.5255  0.4792
 9301SOL    HW139362   4.355   0.499   4.221  0.9985  0.8604  0.3035
 9301SOL    HW239363   4.367   0.607   4.109  3.2492 -1.3394 -3.0027
 9302SOL     OW39364   0.730   1.370   7.463  0.2500 -0.1408  0.3158
 9302SOL    HW139365   0.700   1.282   7.487 -0.7697 -0.1606 -1.0531
 9302SOL    HW239366   0.780   1.386   7.543 -0.7580 -0.5044  1.0264
 9303SOL     OW39367   0.005   4.343   2.429 -0.2675  0.1607  0.6571
 9303SOL    HW139368   0.045   4.430   2.421 -0.1444 -0.1740 -2.1701
 9303SOL    HW239369   4.684   4.352   2.513 -0.3958 -2.3746  0.8640
 9304SOL     OW39370   1.853   0.530   5.814 -0.2430 -0.0720 -0.0167
 9304SOL    HW139371   1.824   0.501   5.901  0.7048 -2.6460 -0.5654
 9304SOL    HW239372   1.897   0.450   5.786  1.5021  0.1750  1.9565
 9305SOL     OW39373   3.753   3.210  14.085  0.5717 -0.1863  0.0125
 9305SOL    HW139374   3.700   3.283  14.053  1.5901  0.4328 -0.2657
 9305SOL    HW239375   3.710   3.137  14.040 -0.7241  0.3803  0.3483
 9306SOL     OW39376   3.882   0.100  10.802 -0.1731  0.0146 -0.0160
 9306SOL    HW139377   3.851   0.088  10.713 -0.8829 -1.0271  0.3639
 9306SOL    HW239378   3.939   0.177  10.800 -0.0205 -0.0772  0.6601
 9307SOL     OW39379   1.136   4.297   1.975 -0.1229  0.2020  0.6353
 9307SOL    HW139380   1.100   4.210   1.990 -0.4134  0.1610 -0.3106
 9307SOL    HW239381   1.068   4.351   2.016 -1.6251 -0.9751 -0.3175
 9308SOL     OW39382   3.209   1.682   0.679 -0.7383 -0.1160  0.3547
 9308SOL    HW139383   3.192   1.613   0.614  2.0475 -1.6828  1.2693
 9308SOL    HW239384   3.147   1.655   0.747 -0.1954 -0.4421  0.7149
 9309SOL     OW39385   0.382   4.108   8.597  0.3482 -0.1497  0.0412
 9309SOL    HW139386   0.423   4.021   8.602 -0.4054 -0.4409  1.3530
 9309SOL    HW239387   0.295   4.087   8.563  0.4856  0.1071 -0.4606
 9310SOL     OW39388   2.831   2.913   7.831 -0.1783  0.4292  0.0074
 9310SOL    HW139389   2.838   2.818   7.828 -0.1251  0.4495 -0.5498
 9310SOL    HW239390   2.914   2.943   7.867 -0.1621  1.2201 -0.6883
 9311SOL     OW39391   0.570   4.526   2.993  0.4083  0.2308 -0.1741
 9311SOL    HW139392   0.492   4.548   2.942  0.4466  2.2365  0.6035
 9311SOL    HW239393   0.605   4.455   2.940  0.0012 -0.6832  0.7811
 9312SOL     OW39394   3.360   1.527   3.106 -0.1082 -0.0855 -0.0781
 9312SOL    HW139395   3.270   1.538   3.138  0.7216  1.4575  1.7671
 9312SOL    HW239396   3.403   1.609   3.131  1.7701 -0.3168 -2.5699
 9313SOL     OW39397   3.587   2.553   4.783 -0.6389 -0.2833 -0.3802
 9313SOL    HW139398   3.515   2.520   4.837 -1.0865 -0.6360 -1.1879
 9313SOL    HW239399   3.587   2.477   4.724 -1.6996 -1.0063  0.5558
 9314SOL     OW39400   4.666   0.297   9.765  0.7121 -0.6058  0.2298
 9314SOL    HW139401   4.710   0.381   9.780 -0.2893 -0.0239 -0.0641
 9314SOL    HW239402   4.634   0.272   9.851  0.0644 -1.4304 -0.2401
 9315SOL     OW39403   0.236   4.195   4.204  0.4929 -0.4556 -0.1253
 9315SOL    HW139404   0.238   4.268   4.141  0.0895 -0.1318  0.2328
 9315SOL    HW239405   0.148   4.161   4.190  0.1593  0.5170 -0.4400
 9316SOL     OW39406   2.137   1.522   6.923  0.1910  0.1907  0.1504
 9316SOL    HW139407   2.125   1.598   6.980 -0.7453  0.9124 -1.0149
 9316SOL    HW239408   2.141   1.454   6.990 -1.5394 -0.1722 -0.1179
 9317SOL     OW39409   1.501   2.687   4.067  0.7655 -0.0975  0.3645
 9317SOL    HW139410   1.572   2.752   4.070  1.5688 -1.0107  1.1072
 9317SOL    HW239411   1.535   2.610   4.113  0.6581 -1.2836 -1.5454
 9318SOL     OW39412   4.242   3.631   2.168  0.0071  0.1742 -0.3983
 9318SOL    HW139413   4.334   3.646   2.145  0.4426 -2.4402 -0.3655
 9318SOL    HW239414   4.249   3.585   2.251  1.8017 -1.6118 -1.5435
 9319SOL     OW39415   1.057   1.164  16.999 -0.1477  0.0329  0.2053
 9319SOL    HW139416   1.148   1.193  16.992 -0.1714  0.2666  0.8864
 9319SOL    HW239417   1.021   1.252  17.012 -1.2347 -0.7066  2.2215
 9320SOL     OW39418   4.595   3.583   8.323 -0.1849 -0.4237 -0.0976
 9320SOL    HW139419   4.650   3.653   8.289  1.9019 -1.8782  0.2944
 9320SOL    HW239420   4.578   3.632   8.403 -2.7832 -3.1981  1.0281
 9321SOL     OW39421   3.605   0.303   6.531  0.5925 -0.2645 -0.0636
 9321SOL    HW139422   3.642   0.382   6.572  0.0275 -0.9739  1.8328
 9321SOL    HW239423   3.641   0.296   6.443 -0.3436  0.7441 -0.5384
 9322SOL     OW39424   0.048   2.829  11.319  0.1309  0.4282  0.5548
 9322SOL    HW139425   0.030   2.867  11.405  1.3369  1.4465  0.3608
 9322SOL    HW239426   0.136   2.865  11.307  1.4997 -2.9326  0.6146
 9323SOL     OW39427   1.671   2.701  11.088 -0.2164 -0.3494  0.2840
 9323SOL    HW139428   1.698   2.783  11.047 -1.4355 -0.6328 -1.0808
 9323SOL    HW239429   1.621   2.738  11.161  1.5496  0.3078  1.1667
 9324SOL     OW39430   1.479   1.440   2.999  0.3079  0.1537  0.0268
 9324SOL    HW139431   1.506   1.354   2.967  0.8554 -0.0615  1.0603
 9324SOL    HW239432   1.435   1.416   3.080 -0.2743  2.6282  0.4340
 9325SOL     OW39433   0.164   0.578   2.802 -0.0820 -0.5619 -0.2627
 9325SOL    HW139434   0.223   0.607   2.872 -1.8958  0.5335  0.8046
 9325SOL    HW239435   0.101   0.649   2.803  0.5045 -0.0487  1.4413
 9326SOL     OW39436   4.428   1.967  11.272  0.0728 -0.0092  0.0756
 9326SOL    HW139437   4.478   1.909  11.329  1.6319  2.5053  1.2476
 9326SOL    HW239438   4.445   2.052  11.311  0.1694 -0.0312  0.0811
 9327SOL     OW39439   3.873   4.061   6.840  0.3457  0.1967  0.3452
 9327SOL    HW139440   3.817   3.988   6.812  0.0458  0.8157 -0.6559
 9327SOL    HW239441   3.911   4.099   6.761  1.6865 -0.4521  0.6761
 9328SOL     OW39442   0.393   2.803   8.084 -0.0611 -0.1016 -0.6763
 9328SOL    HW139443   0.331   2.730   8.095 -1.5768  1.4949  1.3386
 9328SOL    HW239444   0.335   2.880   8.087  1.4073  1.0156 -1.1118
 9329SOL     OW39445   3.942   1.645   7.654 -0.2757 -0.0916  0.5013
 9329SOL    HW139446   3.996   1.711   7.610 -2.1167  2.2790  1.7723
 9329SOL    HW239447   4.018   1.604   7.693  0.0126 -0.9036 -0.9148
 9330SOL     OW39448   2.134   2.008   4.997  0.3558 -0.1363 -0.5532
 9330SOL    HW139449   2.147   2.071   4.926 -1.5277 -0.3855 -1.1105
 9330SOL    HW239450   2.102   2.067   5.066  1.7990  1.8000 -1.5226
 9331SOL     OW39451   1.569   0.198   5.566  0.1001 -0.2541 -0.0690
 9331SOL    HW139452   1.489   0.157   5.532 -0.5133  0.3307  0.6878
 9331SOL    HW239453   1.639   0.134   5.552  0.2459 -0.6861  2.7002
 9332SOL     OW39454   0.563   4.222   5.149  0.7044  0.1327 -0.2150
 9332SOL    HW139455   0.619   4.297   5.172  1.9159 -0.2659 -1.8943
 9332SOL    HW239456   0.625   4.191   5.084 -0.8758  0.7895 -2.0327
 9333SOL     OW39457   2.494   4.212   3.096  0.4176 -0.2174 -0.0168
 9333SOL    HW139458   2.487   4.272   3.022 -1.6632 -0.4113  0.0062
 9333SOL    HW239459   2.575   4.244   3.135  0.1670  1.3581 -0.7926
 9334SOL     OW39460   0.054   1.094   2.682 -0.2831 -0.2290  0.0363
 9334SOL    HW139461   0.052   1.178   2.727  2.7820 -0.6228  0.8859
 9334SOL    HW239462   0.139   1.102   2.638  0.7374  0.0410  2.0382
 9335SOL     OW39463   0.191   0.928   0.793  0.2605 -0.1251 -0.3812
 9335SOL    HW139464   0.167   0.994   0.858  1.8506  1.2381 -1.1499
 9335SOL    HW239465   0.263   0.963   0.740  2.2452 -1.8117  1.1545
 9336SOL     OW39466   1.011   1.341   2.212 -0.2667  0.4748  0.0605
 9336SOL    HW139467   0.960   1.404   2.161 -0.4902 -0.1066 -0.4224
 9336SOL    HW239468   0.950   1.301   2.273  1.5225 -1.5114  0.5506
 9337SOL     OW39469   1.985   1.614   0.726  0.1760 -0.0220 -0.0081
 9337SOL    HW139470   2.060   1.645   0.675  1.5081 -0.7414  1.5230
 9337SOL    HW239471   1.995   1.519   0.724  0.0950 -0.0827  3.2397
 9338SOL     OW39472   0.155   4.615   6.320  0.0988  0.1808 -0.1392
 9338SOL    HW139473   0.099   4.569   6.383  0.4452 -0.1965 -0.1054
 9338SOL    HW239474   0.242   4.585   6.344 -0.6483 -0.0364  2.3292
 9339SOL     OW39475   1.550   3.341  17.507 -0.2113  0.1729  0.7015
 9339SOL    HW139476   1.480   3.386  17.461  1.0647  0.9115 -0.5202
 9339SOL    HW239477   1.594   3.306  17.430  2.5010  3.6569  0.6559
 9340SOL     OW39478   0.961   0.221  17.523  0.2796 -0.6927  0.1769
 9340SOL    HW139479   1.027   0.154  17.501 -0.1301 -0.7254 -0.9401
 9340SOL    HW239480   1.002   0.303  17.498  1.3233 -0.7743  1.6022
 9341SOL     OW39481   1.262   4.129   5.616 -0.1441  0.1706 -0.3378
 9341SOL    HW139482   1.285   4.052   5.564  0.4042 -1.5286  2.4586
 9341SOL    HW239483   1.338   4.186   5.603  1.5648 -1.8272  0.9035
 9342SOL     OW39484   3.627   0.382  12.245 -0.2176 -0.2915 -0.3849
 9342SOL    HW139485   3.559   0.345  12.188  0.0496 -1.6451  0.1824
 9342SOL    HW239486   3.678   0.302  12.260  2.8932  2.0542  1.3803
 9343SOL     OW39487   1.518   1.849   1.489 -0.1381  0.0721 -0.8805
 9343SOL    HW139488   1.538   1.773   1.544  1.6351  3.4457  3.1270
 9343SOL    HW239489   1.423   1.850   1.488 -0.1297  0.4194 -1.1445
 9344SOL     OW39490   1.075   1.216   8.113 -0.3576 -0.1146 -0.1604
 9344SOL    HW139491   1.007   1.230   8.180 -0.4717 -1.9785  0.1233
 9344SOL    HW239492   1.094   1.305   8.083  2.6666 -0.1741  1.5645
 9345SOL     OW39493   2.108   0.013  11.035 -0.0946 -0.2148  0.0927
 9345SOL    HW139494   2.097   0.005  11.130  0.7744 -3.4726 -0.0920
 9345SOL    HW239495   2.201   0.031  11.025 -0.2897 -0.1244 -1.5081
 9346SOL     OW39496   2.037   2.576  10.340  0.3297  0.0080 -0.0336
 9346SOL    HW139497   2.124   2.541  10.319  0.4415  1.1368 -1.5078
 9346SOL    HW239498   2.044   2.670  10.323  1.2653 -1.0414 -5.4572
 9347SOL     OW39499   4.183   1.635  11.703  0.4735  0.0412  0.0169
 9347SOL    HW139500   4.265   1.681  11.685 -0.2834  0.2717 -2.9445
 9347SOL    HW239501   4.213   1.545  11.688  0.4368  0.0133  0.1118
 9348SOL     OW39502   0.129   3.706   6.281  0.1442  0.1042  0.1323
 9348SOL    HW139503   0.180   3.671   6.354  1.0197 -0.1839 -0.6204
 9348SOL    HW239504   0.129   3.802   6.288  0.0041 -0.0458  2.3016
 9349SOL     OW39505   1.924   2.363  11.062  0.2638 -0.5202 -0.2207
 9349SOL    HW139506   1.972   2.336  10.984  0.4527 -1.9394  0.3936
 9349SOL    HW239507   2.002   2.372  11.117 -0.7498 -0.2209  1.1659
 9350SOL     OW39508   1.190   3.361   4.100  0.1810 -0.1124 -0.1024
 9350SOL    HW139509   1.160   3.390   4.014 -0.0029 -0.6393 -0.2144
 9350SOL    HW239510   1.135   3.288   4.128 -0.8185  0.7814  0.2587
 9351SOL     OW39511   1.429   1.372   5.040 -0.1175  0.1141  0.3909
 9351SOL    HW139512   1.487   1.410   4.974 -1.7702  0.9728 -0.5644
 9351SOL    HW239513   1.336   1.390   5.024 -0.0127 -0.0258 -0.3682
 9352SOL     OW39514   2.038   0.751   4.858 -0.5147 -0.0421 -0.8213
 9352SOL    HW139515   2.127   0.762   4.892 -0.8129 -0.9019  0.2318
 9352SOL    HW239516   2.037   0.784   4.768 -1.6915  0.9183 -0.4693
 9353SOL     OW39517   4.599   3.371  12.751 -0.2272 -0.1756 -0.4118
 9353SOL    HW139518   4.650   3.415  12.819 -1.4616  1.4380 -0.5529
 9353SOL    HW239519   4.653   3.402  12.678  0.9764  0.8261  0.9026
 9354SOL     OW39520   0.332   3.152   2.284  0.5396  0.3000  0.1027
 9354SOL    HW139521   0.308   3.211   2.213  0.2026 -2.2775 -1.9225
 9354SOL    HW239522   0.277   3.079   2.255  3.6899 -1.6005 -1.1013
 9355SOL     OW39523   3.569   2.169   2.880  0.3066 -0.1812 -0.6437
 9355SOL    HW139524   3.547   2.077   2.864  3.7144 -1.0221 -0.5250
 9355SOL    HW239525   3.505   2.194   2.946  0.5429  0.6861 -0.7391
 9356SOL     OW39526   3.821   3.918   1.657  0.2060 -0.1302  0.4887
 9356SOL    HW139527   3.900   3.944   1.703  1.4817 -0.8056 -1.3266
 9356SOL    HW239528   3.809   3.997   1.603 -0.7920 -0.3447  0.4017
 9357SOL     OW39529   3.085   1.378   2.648  0.7058  0.6111  0.3699
 9357SOL    HW139530   3.133   1.297   2.631 -1.1732 -0.4457  0.0612
 9357SOL    HW239531   3.039   1.391   2.565  2.8084 -0.8074 -1.0121
 9358SOL     OW39532   0.787   0.637  10.811 -0.0464  0.2209 -0.1143
 9358SOL    HW139533   0.733   0.651  10.889 -2.3728 -1.2388 -1.4776
 9358SOL    HW239534   0.744   0.554  10.791 -1.3155  1.1053 -1.0240
 9359SOL     OW39535   3.678   3.315   8.565 -0.2422  0.0802 -0.4012
 9359SOL    HW139536   3.677   3.409   8.585  2.9079  0.0849 -0.2372
 9359SOL    HW239537   3.729   3.287   8.641 -1.6133  0.6813  0.7379
 9360SOL     OW39538   2.503   4.592   0.135  0.7359 -0.3215  0.1816
 9360SOL    HW139539   2.474   4.507   0.102  1.1112 -0.1840 -0.4907
 9360SOL    HW239540   2.558   4.562   0.208  0.9646 -2.1952 -0.7659
 9361SOL     OW39541   4.431   2.431   8.295  0.4055  0.7080 -0.2162
 9361SOL    HW139542   4.503   2.378   8.331  0.2239  1.4418  1.2386
 9361SOL    HW239543   4.475   2.516   8.301  0.4495  0.6156  0.9257
 9362SOL     OW39544   4.016   3.801   3.320 -0.2081  0.4185  0.1282
 9362SOL    HW139545   3.970   3.884   3.329  0.1361  0.5857  0.3454
 9362SOL    HW239546   4.099   3.838   3.352  0.2180 -0.6901  0.3130
 9363SOL     OW39547   4.530   3.898  16.220  0.5064  0.5131  0.0714
 9363SOL    HW139548   4.462   3.846  16.178  0.9864  1.0410 -1.3440
 9363SOL    HW239549   4.492   3.937  16.299  2.0444  1.2472  0.4487
 9364SOL     OW39550   2.252   4.151   9.305 -0.2709 -0.4435  0.0021
 9364SOL    HW139551   2.328   4.160   9.363 -0.7459  0.3651  0.5010
 9364SOL    HW239552   2.267   4.066   9.264  3.3805 -0.0527  0.5177
 9365SOL     OW39553   3.857   3.386  15.298  0.0590 -0.1546  0.3514
 9365SOL    HW139554   3.821   3.458  15.350 -1.0019  1.4548 -2.6445
 9365SOL    HW239555   3.779   3.331  15.297 -0.8464  1.1190  0.5701
 9366SOL     OW39556   3.143   1.318   4.253  0.1533 -0.4986 -0.0916
 9366SOL    HW139557   3.126   1.267   4.174 -1.0466  0.2837 -0.3345
 9366SOL    HW239558   3.130   1.410   4.230  1.8961  0.0395  1.0332
 9367SOL     OW39559   2.625   1.713   4.100  0.6868 -0.0281  0.4579
 9367SOL    HW139560   2.594   1.797   4.133 -1.0160 -1.1564  1.8069
 9367SOL    HW239561   2.683   1.749   4.033 -0.1139  0.9455  0.2940
 9368SOL     OW39562   2.147   4.363  11.132  0.0499  0.9454  0.2057
 9368SOL    HW139563   2.089   4.388  11.205  2.7641  3.3042  1.5668
 9368SOL    HW239564   2.074   4.351  11.071 -1.4074  1.8931  1.7569
 9369SOL     OW39565   3.291   0.837   3.775 -0.1881  0.4053 -0.0129
 9369SOL    HW139566   3.282   0.919   3.726  0.7548 -0.5814 -1.8407
 9369SOL    HW239567   3.379   0.811   3.748  0.0057  1.7634 -0.7145
 9370SOL     OW39568   0.083   4.713   6.870  0.0135 -0.5789  0.2211
 9370SOL    HW139569   0.026   0.037   6.810  1.6222 -0.0581 -0.8982
 9370SOL    HW239570   0.131   0.057   6.918  0.8006 -0.1007 -1.2435
 9371SOL     OW39571   3.431   3.985   6.988 -0.2257 -0.0980 -0.0709
 9371SOL    HW139572   3.480   3.937   7.055 -1.6224 -1.1315  0.2109
 9371SOL    HW239573   3.360   4.002   7.050 -0.3856  1.5979 -0.7342
 9372SOL     OW39574   2.489   3.122  10.839 -0.5631 -0.6534  0.5272
 9372SOL    HW139575   2.447   3.177  10.772  1.7569 -2.2646 -2.2622
 9372SOL    HW239576   2.553   3.180  10.880 -0.9007  0.7255 -0.8835
 9373SOL     OW39577   2.931   2.350   3.454  0.2945 -0.4716  0.1209
 9373SOL    HW139578   2.924   2.369   3.360  0.9751  0.3080  0.2322
 9373SOL    HW239579   2.912   2.429   3.504  0.4259 -0.0030 -0.5691
 9374SOL     OW39580   3.776   3.410   6.781  0.2208  0.1992 -0.0002
 9374SOL    HW139581   3.723   3.384   6.706  0.8899  0.9309 -0.7316
 9374SOL    HW239582   3.865   3.406   6.746 -0.6230 -0.0173 -2.1516
 9375SOL     OW39583   4.128   0.282  10.935 -0.0703  0.3279  0.1135
 9375SOL    HW139584   4.168   0.289  10.848 -2.1005 -0.9751 -0.9097
 9375SOL    HW239585   4.133   0.189  10.953 -0.9747  0.0690 -0.9853
 9376SOL     OW39586   3.059   4.699  15.491 -0.4811  0.5016  0.0446
 9376SOL    HW139587   2.979   4.669  15.534 -1.0095 -2.4567 -2.9271
 9376SOL    HW239588   3.115   4.706  15.568  1.1075 -1.3781 -0.9294
 9377SOL     OW39589   3.351   0.642   5.391  0.0951 -0.2488  0.1831
 9377SOL    HW139590   3.422   0.618   5.332  1.1606 -1.4323  1.9400
 9377SOL    HW239591   3.370   0.601   5.476 -0.1668  1.0441  0.8614
 9378SOL     OW39592   4.695   3.500   7.030  0.0376 -0.1812  0.3224
 9378SOL    HW139593   4.633   3.556   6.984  1.9768  0.9981 -0.8262
 9378SOL    HW239594   4.649   3.417   7.015  0.4522  0.1782 -2.9416
 9379SOL     OW39595   4.722   0.399   3.524  0.1070 -0.1224  0.5101
 9379SOL    HW139596   4.633   0.435   3.524  0.1532  0.0012  1.0647
 9379SOL    HW239597   0.060   0.470   3.512  1.0593 -1.1264 -0.5175
 9380SOL     OW39598   4.284   4.185   8.282  0.6011  0.3649 -0.5680
 9380SOL    HW139599   4.333   4.226   8.353  0.5712 -0.4675 -0.0722
 9380SOL    HW239600   4.273   4.096   8.316  0.7744  0.7783  0.5812
 9381SOL     OW39601   1.637   2.028  17.342  0.2014 -0.7328  0.3794
 9381SOL    HW139602   1.674   2.007  17.256  0.7924  0.4775  0.3264
 9381SOL    HW239603   1.619   1.939  17.372  0.5221 -1.0224 -0.3052
 9382SOL     OW39604   2.352   2.120  15.712 -0.3956 -0.0130 -0.1410
 9382SOL    HW139605   2.286   2.050  15.716  2.4646 -2.8188 -1.8798
 9382SOL    HW239606   2.393   2.108  15.798 -3.0439  1.2003  1.2981
 9383SOL     OW39607   0.476   1.160  17.685 -0.1224  0.4177 -0.1201
 9383SOL    HW139608   0.467   1.068   0.014 -1.2241  0.4610 -0.3534
 9383SOL    HW239609   0.570   1.146  17.680 -0.0823 -0.3104  2.9014
 9384SOL     OW39610   3.274   0.890   0.194  0.0652  0.3334 -0.1274
 9384SOL    HW139611   3.362   0.874   0.227 -0.1389 -1.7562 -0.6413
 9384SOL    HW239612   3.292   0.956   0.126  2.1360 -0.6268 -0.4814
 9385SOL     OW39613   2.130   1.516   2.285  0.6818  0.0479 -0.0086
 9385SOL    HW139614   2.224   1.522   2.271  0.4342  1.8357 -0.8473
 9385SOL    HW239615   2.103   1.429   2.255 -0.2975 -0.0138  1.0398
 9386SOL     OW39616   3.056   0.697   3.823 -0.4505  0.4372 -0.3014
 9386SOL    HW139617   3.034   0.737   3.907  1.7398  0.9068  0.0576
 9386SOL    HW239618   3.141   0.736   3.803 -0.6162  0.3857 -1.0949
 9387SOL     OW39619   1.624   1.280   8.772  0.3310  0.8017  0.3552
 9387SOL    HW139620   1.657   1.193   8.747  1.8584  2.1076 -2.1827
 9387SOL    HW239621   1.643   1.328   8.692 -1.4096  0.9104  0.0113
 9388SOL     OW39622   2.557   0.376  10.377 -0.4165  0.3692  0.0486
 9388SOL    HW139623   2.628   0.431  10.411 -0.8435  0.9780 -0.0371
 9388SOL    HW239624   2.541   0.316  10.449  2.2040  0.1509  0.4338
 9389SOL     OW39625   4.507   0.864  14.771 -0.5073  0.2515  0.0085
 9389SOL    HW139626   4.571   0.916  14.818 -0.8429  2.4630 -2.0173
 9389SOL    HW239627   4.490   0.782  14.818  0.4884  0.8178  1.3493
 9390SOL     OW39628   0.460   2.366   3.508 -0.0380  0.3044 -0.4310
 9390SOL    HW139629   0.499   2.448   3.478  1.2293 -0.4730 -0.9144
 9390SOL    HW239630   0.400   2.395   3.576  1.5029  0.8045  0.7085
 9391SOL     OW39631   0.853   1.859  12.607 -0.0104  0.1856 -0.2068
 9391SOL    HW139632   0.839   1.954  12.607 -2.3012 -0.1540 -2.4294
 9391SOL    HW239633   0.939   1.839  12.570  1.2759 -0.7785  3.2888
 9392SOL     OW39634   2.739   1.587   5.925 -0.1172 -0.1773 -0.0748
 9392SOL    HW139635   2.778   1.611   5.841  0.0032  1.6036  0.4778
 9392SOL    HW239636   2.700   1.671   5.951  0.4862  0.2711 -0.6372
 9393SOL     OW39637   3.788   2.580   5.210  0.1242  0.5422  0.1317
 9393SOL    HW139638   3.826   2.529   5.282 -0.8851  1.6817  1.4614
 9393SOL    HW239639   3.732   2.641   5.257 -1.0893 -0.1084 -0.4881
 9394SOL     OW39640   0.061   3.426  12.934 -0.4346 -0.1674 -0.0605
 9394SOL    HW139641   0.141   3.456  12.889 -0.1527  1.1485  1.2964
 9394SOL    HW239642   0.043   3.497  12.996 -0.6026 -1.4223  1.3097
 9395SOL     OW39643   2.996   0.995   5.425 -0.2405  0.0692  0.6008
 9395SOL    HW139644   3.057   0.991   5.352  0.3401 -0.6324  1.1225
 9395SOL    HW239645   3.051   1.060   5.468  0.6573 -1.3383  1.5728
 9396SOL     OW39646   3.131   3.722   9.389 -0.4209 -0.1293 -0.1383
 9396SOL    HW139647   3.105   3.714   9.298 -0.9317 -2.3542  0.2001
 9396SOL    HW239648   3.131   3.630   9.417 -1.2845  0.1265  0.6847
 9397SOL     OW39649   3.550   4.471   5.849 -0.1221 -0.6237 -0.0986
 9397SOL    HW139650   3.456   4.488   5.861  0.1823 -0.2620  1.7279
 9397SOL    HW239651   3.583   4.474   5.939 -1.5189  3.0009  0.2812
 9398SOL     OW39652   0.965   2.353   5.778  0.5435 -0.0563  0.3710
 9398SOL    HW139653   1.040   2.367   5.835 -0.0649  2.8778  0.4369
 9398SOL    HW239654   0.893   2.385   5.831 -0.3370 -0.2645 -0.6833
 9399SOL     OW39655   1.884   3.023   5.962  0.0441 -0.0953  0.0551
 9399SOL    HW139656   1.809   3.071   5.926 -0.1111 -0.4416 -0.0858
 9399SOL    HW239657   1.886   3.065   6.048  0.6460 -0.4864  0.2282
 9400SOL     OW39658   4.533   1.400   0.219  0.9157 -0.4055  0.8472
 9400SOL    HW139659   4.509   1.308   0.232  1.4596 -0.9048 -1.6101
 9400SOL    HW239660   4.621   1.409   0.254  0.8080  0.1263  0.9848
 9401SOL     OW39661   1.705   3.518   3.075  0.5107 -0.0304 -0.3560
 9401SOL    HW139662   1.712   3.444   3.014  1.1085 -1.3960  1.3505
 9401SOL    HW239663   1.639   3.483   3.135  1.2129 -0.7143  0.0208
 9402SOL     OW39664   1.612   4.720   0.681  0.5802 -0.4676  0.7130
 9402SOL    HW139665   1.546   4.660   0.715 -0.8373  0.3557 -0.5772
 9402SOL    HW239666   1.555   0.050   0.626 -0.1786 -0.3689  1.6051
 9403SOL     OW39667   3.591   1.478  14.288 -0.2071  0.0040  0.4931
 9403SOL    HW139668   3.550   1.478  14.375  0.9712 -1.5576  1.0566
 9403SOL    HW239669   3.515   1.505  14.237  0.3286  0.0614 -0.2702
 9404SOL     OW39670   2.446   0.141   8.169 -0.0477  0.6224 -0.2425
 9404SOL    HW139671   2.500   0.206   8.122 -0.5948  1.9117  0.9076
 9404SOL    HW239672   2.508   0.106   8.232 -0.8119 -0.7641 -0.2597
 9405SOL     OW39673   3.773   3.851   2.398  0.5507 -0.6241 -0.1118
 9405SOL    HW139674   3.867   3.832   2.392  0.5640 -0.7716  0.6511
 9405SOL    HW239675   3.772   3.923   2.335  0.9053  0.1251  0.7453
 9406SOL     OW39676   2.887   2.087   6.321  0.0216 -0.3981  0.4015
 9406SOL    HW139677   2.982   2.100   6.315  0.1121 -0.9092  0.7370
 9406SOL    HW239678   2.885   2.004   6.274 -1.6167 -1.3082  2.0659
 9407SOL     OW39679   0.499   2.121  10.785 -0.0878  0.1498  0.3112
 9407SOL    HW139680   0.478   2.214  10.786 -1.4019 -0.1269 -0.8299
 9407SOL    HW239681   0.560   2.115  10.858  0.8054  0.4512 -0.4050
 9408SOL     OW39682   0.510   4.347   8.624 -0.2479  0.4265  0.0919
 9408SOL    HW139683   0.458   4.268   8.607 -1.2505  1.6422 -2.5572
 9408SOL    HW239684   0.496   4.355   8.719  0.0376  0.4971  0.1263
 9409SOL     OW39685   1.131   1.065   9.110 -0.1881 -0.3412 -0.2877
 9409SOL    HW139686   1.071   0.991   9.110  0.0381 -0.5110  1.6189
 9409SOL    HW239687   1.195   1.031   9.048 -0.3759 -0.2938 -0.5074
 9410SOL     OW39688   0.628   0.667  11.053  0.0591  0.7136  0.1084
 9410SOL    HW139689   0.539   0.633  11.059  0.4531 -0.5245 -1.0544
 9410SOL    HW239690   0.635   0.734  11.121  3.0849 -0.1184  0.6374
 9411SOL     OW39691   2.879   3.818   8.632  0.0051 -0.3547  0.0920
 9411SOL    HW139692   2.954   3.760   8.644  0.8285  0.3678 -1.6351
 9411SOL    HW239693   2.805   3.762   8.607  0.7747 -1.4141  0.1711
 9412SOL     OW39694   4.620   2.732   5.556 -0.6265  0.1935 -0.3019
 9412SOL    HW139695   4.525   2.719   5.549 -0.1094 -2.6656 -1.8043
 9412SOL    HW239696   4.621   2.828   5.545 -2.5087  0.1360 -1.0016
 9413SOL     OW39697   1.198   0.857   4.846  0.3667  0.2729  0.7824
 9413SOL    HW139698   1.121   0.889   4.799  1.3322  0.2881 -0.7781
 9413SOL    HW239699   1.206   0.773   4.802 -1.4518  1.3622 -1.6215
 9414SOL     OW39700   0.474   3.075   5.451 -0.3412  0.2296  0.3405
 9414SOL    HW139701   0.474   3.167   5.478  0.4284  0.7908 -1.5612
 9414SOL    HW239702   0.498   3.089   5.359  0.1026 -0.5257  0.3459
 9415SOL     OW39703   0.614   1.219  16.219  0.3775  0.5344  0.2562
 9415SOL    HW139704   0.554   1.293  16.215 -0.2986 -0.0500 -0.3584
 9415SOL    HW239705   0.555   1.146  16.235  0.7392  0.2333  0.2279
 9416SOL     OW39706   4.515   3.030  12.024 -0.1951 -0.8899  0.1797
 9416SOL    HW139707   4.554   3.114  12.048 -0.2852 -0.6179 -0.6148
 9416SOL    HW239708   4.531   2.978  12.103  0.7572 -1.4947 -0.4180
 9417SOL     OW39709   3.063   2.829   6.065  0.7780 -0.0151 -0.2828
 9417SOL    HW139710   3.098   2.747   6.100 -2.6228 -1.3174  0.0516
 9417SOL    HW239711   2.979   2.794   6.036  0.3462  1.6830 -1.0588
 9418SOL     OW39712   1.982   0.357   3.470 -0.4320 -0.5967  0.1670
 9418SOL    HW139713   2.037   0.300   3.416 -0.5277  1.6771 -2.3574
 9418SOL    HW239714   2.025   0.439   3.443 -0.2466 -0.3828  1.1133
 9419SOL     OW39715   0.962   3.748   0.975 -0.0625  0.0298 -0.2420
 9419SOL    HW139716   1.009   3.829   0.995 -1.1539  0.3450  1.0900
 9419SOL    HW239717   1.033   3.692   0.945 -1.3642 -0.7501 -1.8313
 9420SOL     OW39718   1.393   3.159   8.220  0.7182 -0.5543  0.3414
 9420SOL    HW139719   1.473   3.128   8.178  0.3104  0.0998 -0.9216
 9420SOL    HW239720   1.322   3.155   8.156 -1.9243  0.6505  3.1707
 9421SOL     OW39721   3.573   2.813  11.692 -0.2293 -0.0627 -0.3543
 9421SOL    HW139722   3.656   2.855  11.713 -0.4818  0.9066 -1.3056
 9421SOL    HW239723   3.602   2.722  11.698  0.7360  0.2706 -0.0314
 9422SOL     OW39724   2.514   2.197   4.995 -0.0407 -0.1483  0.7652
 9422SOL    HW139725   2.444   2.144   5.032  0.9290 -0.8494  1.5995
 9422SOL    HW239726   2.535   2.138   4.922  1.1763  2.5677 -1.1126
 9423SOL     OW39727   3.612   4.590   6.741 -0.1891  0.4836 -0.1779
 9423SOL    HW139728   3.644   4.644   6.813  1.3000 -1.7695  0.8821
 9423SOL    HW239729   3.640   4.502   6.767  1.9694  0.9476 -0.9427
 9424SOL     OW39730   0.989   3.105   3.194  0.6295 -0.3963 -0.5786
 9424SOL    HW139731   0.939   3.098   3.275 -0.4496 -2.3811 -1.4015
 9424SOL    HW239732   0.951   3.035   3.140  2.7002 -0.5946 -1.7665
 9425SOL     OW39733   1.023   1.107   1.112 -0.2628  0.0890  0.2780
 9425SOL    HW139734   1.079   1.179   1.082  1.0746 -1.0197  0.0733
 9425SOL    HW239735   0.940   1.129   1.071  0.4717  2.5842  0.1642
 9426SOL     OW39736   1.543   2.227   2.186 -0.0773 -0.4728 -0.5769
 9426SOL    HW139737   1.485   2.282   2.134 -0.0415  0.0197 -0.1019
 9426SOL    HW239738   1.487   2.203   2.260 -1.5601 -0.6055 -1.7657
 9427SOL     OW39739   2.125   3.073   8.871 -0.1809  0.0429  0.4168
 9427SOL    HW139740   2.188   3.051   8.803  1.2652  0.1105  1.7188
 9427SOL    HW239741   2.115   2.990   8.919 -1.4448 -1.1998 -2.0017
 9428SOL     OW39742   2.194   0.729   1.168 -0.4018  0.3470 -0.4805
 9428SOL    HW139743   2.181   0.784   1.245 -1.2535  0.7964 -0.9429
 9428SOL    HW239744   2.159   0.645   1.197 -0.8885  0.7121 -0.0009
 9429SOL     OW39745   1.432   0.049   1.253 -0.6748 -0.2159  0.0463
 9429SOL    HW139746   1.445   0.144   1.253  0.6841 -0.4084  1.0633
 9429SOL    HW239747   1.354   0.040   1.307 -0.1041  0.0801  0.9263
 9430SOL     OW39748   1.974   1.433   7.921 -0.6177  0.6287 -0.0733
 9430SOL    HW139749   1.962   1.404   8.011 -0.7919 -0.2112 -0.3699
 9430SOL    HW239750   1.979   1.524   7.952  0.6168  1.2532 -2.1390
 9431SOL     OW39751   3.444   3.852   9.152  0.0477  0.4173 -0.7892
 9431SOL    HW139752   3.537   3.838   9.166  0.0943  0.2813 -1.2305
 9431SOL    HW239753   3.414   3.761   9.145  0.0594  0.3063  0.5475
 9432SOL     OW39754   4.113   4.020   4.473 -0.5539  0.4674  0.2722
 9432SOL    HW139755   4.074   4.107   4.479  2.6086  1.9308 -0.6229
 9432SOL    HW239756   4.039   3.967   4.442  0.6289 -0.5444 -0.8153
 9433SOL     OW39757   4.630   4.605  12.107 -0.3928  0.2730 -0.4772
 9433SOL    HW139758   4.599   4.683  12.153  1.2030 -0.2138  1.4024
 9433SOL    HW239759   4.719   4.625  12.080 -0.9665  3.3450 -0.0438
 9434SOL     OW39760   1.306   3.694   5.936  0.1433  0.0220 -0.3828
 9434SOL    HW139761   1.387   3.695   5.989  0.2189  0.8665 -0.5159
 9434SOL    HW239762   1.310   3.779   5.892  1.6583 -0.3250 -0.9136
 9435SOL     OW39763   0.960   0.040   1.663  0.0342 -0.3265  0.0356
 9435SOL    HW139764   0.948   0.041   1.569 -3.0697 -0.7358  0.4411
 9435SOL    HW239765   1.055   0.047   1.672  0.2018 -0.7775 -1.3990
 9436SOL     OW39766   4.623   3.203   5.096 -0.3262 -0.2318  0.7615
 9436SOL    HW139767   4.624   3.144   5.022  0.2923  0.2535  0.3774
 9436SOL    HW239768   4.718   3.206   5.113 -0.2066  0.4950 -0.0184
 9437SOL     OW39769   1.784   3.546   9.261  0.6768  0.1377 -0.3047
 9437SOL    HW139770   1.723   3.492   9.310 -1.1844  2.1599 -0.3877
 9437SOL    HW239771   1.800   3.483   9.190 -0.5965 -0.2508 -0.2355
 9438SOL     OW39772   4.419   2.672   2.347  0.4267  0.0888 -0.1576
 9438SOL    HW139773   4.432   2.732   2.420  2.2053 -0.6009  0.0868
 9438SOL    HW239774   4.325   2.653   2.344  0.3521  0.6109 -1.0036
 9439SOL     OW39775   4.549   1.069  17.663  0.0369 -0.0997  0.0578
 9439SOL    HW139776   4.529   1.163  17.666 -1.9245 -0.5242  0.5000
 9439SOL    HW239777   4.462   1.032  17.650 -1.0890  2.7506 -0.4815
 9440SOL     OW39778   1.318   2.299   5.648  0.5084  0.3487 -0.6086
 9440SOL    HW139779   1.322   2.300   5.743  1.2366  0.6112 -0.6411
 9440SOL    HW239780   1.389   2.240   5.622 -0.2325  0.2822 -2.5313
 9441SOL     OW39781   1.025   0.162   6.549  0.4853  0.8697  0.0412
 9441SOL    HW139782   1.008   0.072   6.575  1.2326  0.7715  0.1914
 9441SOL    HW239783   1.001   0.219   6.622 -1.2211 -2.3337  1.9455
 9442SOL     OW39784   4.105   1.589   8.178 -0.4406 -0.4013 -0.0341
 9442SOL    HW139785   4.112   1.494   8.177  2.4435 -0.2086  0.5680
 9442SOL    HW239786   4.047   1.594   8.253  1.6835 -2.4819  1.7303
 9443SOL     OW39787   2.198   0.322  14.736 -0.6483 -0.0546  0.1321
 9443SOL    HW139788   2.277   0.299  14.785 -1.6309 -0.0245  1.7306
 9443SOL    HW239789   2.169   0.237  14.703  1.6117 -1.3774  1.5461
 9444SOL     OW39790   3.202   4.039   6.588 -0.2173  0.7876  0.3683
 9444SOL    HW139791   3.170   4.003   6.670 -0.1561 -1.4892 -0.6101
 9444SOL    HW239792   3.252   4.113   6.623  0.1966  0.2847  0.8442
 9445SOL     OW39793   4.169   0.249   6.272  0.0380 -0.2785  0.3873
 9445SOL    HW139794   4.168   0.162   6.313  1.8762 -0.3406  0.3058
 9445SOL    HW239795   4.129   0.305   6.339 -1.3043 -1.0471  0.2302
 9446SOL     OW39796   1.316   1.995   7.413 -0.1746  0.0534  0.8309
 9446SOL    HW139797   1.408   1.996   7.384 -0.4239 -0.4113  0.0447
 9446SOL    HW239798   1.328   1.985   7.507  1.8657 -3.4626  0.1915
 9447SOL     OW39799   0.096   4.303  17.086 -0.0992 -0.4597 -0.0428
 9447SOL    HW139800   0.056   4.347  17.011  2.2071  0.3480 -0.8135
 9447SOL    HW239801   0.046   4.223  17.097 -2.0672  0.3118 -3.3840
 9448SOL     OW39802   1.778   2.798   6.810  0.5900 -0.4590 -0.5623
 9448SOL    HW139803   1.825   2.823   6.890  0.0581 -0.8364 -0.1301
 9448SOL    HW239804   1.693   2.843   6.814  0.8737  0.2055 -2.1033
 9449SOL     OW39805   0.231   0.263   5.529 -0.0896  0.3258  0.3253
 9449SOL    HW139806   0.151   0.257   5.581 -1.1195  2.6140 -0.9981
 9449SOL    HW239807   0.267   0.349   5.550 -2.3285  1.0625  1.1223
 9450SOL     OW39808   2.818   1.003   8.149  0.6596  0.1499 -0.9718
 9450SOL    HW139809   2.856   0.965   8.070  2.6123  1.4481 -0.6573
 9450SOL    HW239810   2.743   1.049   8.110 -1.1410 -1.5947  0.4667
 9451SOL     OW39811   2.433   3.963   9.863 -0.3713  0.2704 -0.0306
 9451SOL    HW139812   2.395   3.983   9.778  0.1500  0.4516 -0.2259
 9451SOL    HW239813   2.423   4.042   9.917  3.8169 -0.5605  2.0172
 9452SOL     OW39814   1.937   3.990   4.821 -0.9323  0.1310  0.2559
 9452SOL    HW139815   2.018   4.023   4.859 -0.4626 -0.3115 -0.3530
 9452SOL    HW239816   1.947   3.900   4.851 -0.6784  0.0979  0.0728
 9453SOL     OW39817   0.855   0.237   7.947 -0.2184 -0.0488  0.6551
 9453SOL    HW139818   0.920   0.247   8.017  0.3965 -1.2254  0.2586
 9453SOL    HW239819   0.819   0.325   7.936 -1.0903 -0.7728 -2.1937
 9454SOL     OW39820   3.571   2.543   3.170 -0.0676  0.1616 -0.1758
 9454SOL    HW139821   3.661   2.573   3.183  0.0409  0.9385 -2.8062
 9454SOL    HW239822   3.567   2.556   3.075  1.6425  0.7130 -0.1857
 9455SOL     OW39823   0.073   2.975   9.521 -0.3769 -0.8319 -0.8604
 9455SOL    HW139824   0.098   3.015   9.605 -0.1218  0.7906 -1.7068
 9455SOL    HW239825   0.000   2.915   9.539 -0.8393 -0.0645 -0.1458
 9456SOL     OW39826   2.115   4.674   5.386 -0.1834  0.1506 -0.3636
 9456SOL    HW139827   2.126   0.008   5.310  0.2860  2.1309  1.1987
 9456SOL    HW239828   2.180   4.710   5.447  0.0864  0.7165 -0.9894
 9457SOL     OW39829   4.214   4.707   8.637  0.1244 -0.5611 -0.6108
 9457SOL    HW139830   4.220   0.021   8.724  0.4238 -1.2219 -0.3449
 9457SOL    HW239831   4.198   0.054   8.575 -3.7510 -0.5683  0.3738
 9458SOL     OW39832   0.436   3.614  15.213  0.8248 -0.7688 -0.0784
 9458SOL    HW139833   0.345   3.597  15.190  1.1619  1.2585 -2.8366
 9458SOL    HW239834   0.425   3.588  15.305 -0.2896 -0.8329 -0.2270
 9459SOL     OW39835   0.416   0.990   3.020  0.1049 -0.0317  0.1843
 9459SOL    HW139836   0.323   0.985   3.042  0.1821  2.0190  0.9011
 9459SOL    HW239837   0.436   1.080   3.046  0.2320 -0.5069  1.7121
 9460SOL     OW39838   3.026   2.151   3.601 -0.1053  0.0694  0.3498
 9460SOL    HW139839   3.086   2.126   3.531  0.2992  1.0473  0.3520
 9460SOL    HW239840   2.998   2.239   3.574  1.3930  0.2976 -0.4392
 9461SOL     OW39841   2.926   1.990  16.777  0.2486  0.4612  0.2625
 9461SOL    HW139842   2.895   1.977  16.866  1.5495 -0.3636  0.6001
 9461SOL    HW239843   2.845   1.971  16.730  1.3292 -1.4958 -0.8024
 9462SOL     OW39844   3.257   2.477   4.045 -0.2015  0.4564 -0.1047
 9462SOL    HW139845   3.317   2.411   4.080  2.2137  1.7652 -1.8658
 9462SOL    HW239846   3.302   2.553   4.079  0.5357 -1.0219  2.1896
 9463SOL     OW39847   3.133   4.044   7.798 -0.3753 -0.0085 -0.0324
 9463SOL    HW139848   3.204   4.070   7.739  0.7154  1.2531  1.8445
 9463SOL    HW239849   3.070   4.116   7.792 -0.2014  0.0254 -1.5774
 9464SOL     OW39850   4.025   1.141  10.436  0.2094 -0.0400  0.8989
 9464SOL    HW139851   3.964   1.120  10.507  1.2265 -1.6849  1.2756
 9464SOL    HW239852   4.086   1.068  10.430  1.3927  1.2169 -2.0742
 9465SOL     OW39853   3.402   0.506   3.841  0.3562  0.1937  0.0733
 9465SOL    HW139854   3.473   0.566   3.861 -1.4291  2.1589  0.5849
 9465SOL    HW239855   3.380   0.540   3.754 -1.0960 -1.5266 -0.2417
 9466SOL     OW39856   2.825   0.474   6.138  0.5479 -0.4308 -0.1736
 9466SOL    HW139857   2.775   0.406   6.184 -1.7572  0.9491 -0.6502
 9466SOL    HW239858   2.772   0.478   6.060 -1.0312 -1.4454  0.8451
 9467SOL     OW39859   0.688   3.891   0.634 -0.1996 -0.1772 -0.2003
 9467SOL    HW139860   0.650   3.955   0.574 -0.1817  2.0551  2.2240
 9467SOL    HW239861   0.781   3.903   0.614  0.2794 -0.1965  2.0261
 9468SOL     OW39862   3.472   3.576   7.217  0.0733  0.2686 -0.4851
 9468SOL    HW139863   3.380   3.555   7.202 -0.2210  0.5967  0.8699
 9468SOL    HW239864   3.515   3.490   7.214 -0.7056 -0.0912 -1.5833
 9469SOL     OW39865   3.287   2.945   6.823 -0.3068  0.0197 -0.5927
 9469SOL    HW139866   3.247   2.874   6.773 -0.8237  0.0386 -0.2084
 9469SOL    HW239867   3.253   2.927   6.911  1.0054 -0.5625 -0.1929
 9470SOL     OW39868   2.780   0.009  14.202 -0.4299  0.2991 -0.5469
 9470SOL    HW139869   2.827   0.068  14.144  2.5784 -1.8934 -0.3104
 9470SOL    HW239870   2.772   4.658  14.143  0.0294  0.6993 -1.1131
 9471SOL     OW39871   4.240   2.395  12.134 -0.5664 -0.4419 -0.3729
 9471SOL    HW139872   4.226   2.486  12.107 -0.8713 -0.0258  1.2024
 9471SOL    HW239873   4.300   2.367  12.065 -1.5056  0.7246 -1.6490
 9472SOL     OW39874   3.481   0.705   7.046  0.4207 -0.1121 -0.5812
 9472SOL    HW139875   3.449   0.664   7.127  1.4332 -0.1148 -0.1808
 9472SOL    HW239876   3.425   0.783   7.044 -1.1085 -1.1773  0.6535
 9473SOL     OW39877   2.815   2.450   4.788 -0.1157 -0.1154  0.3515
 9473SOL    HW139878   2.771   2.509   4.849 -1.0654  1.0233 -1.4286
 9473SOL    HW239879   2.796   2.505   4.712  0.7315  0.8060  0.8112
 9474SOL     OW39880   3.501   3.140  11.693 -0.3892 -0.2920  0.7590
 9474SOL    HW139881   3.534   3.087  11.621 -0.2333  0.4578  0.2806
 9474SOL    HW239882   3.521   3.229  11.666 -1.3238 -0.5281 -0.6959
 9475SOL     OW39883   0.459   2.328   9.261  0.0700 -0.4580  0.6316
 9475SOL    HW139884   0.538   2.278   9.241 -0.3521 -0.5451 -0.8251
 9475SOL    HW239885   0.474   2.419   9.285  0.4052 -0.5129  0.6236
 9476SOL     OW39886   3.264   1.705   1.933  0.0634  0.2652 -0.2654
 9476SOL    HW139887   3.179   1.728   1.897  0.2650 -0.1164 -0.9805
 9476SOL    HW239888   3.295   1.653   1.860 -1.8281 -1.5930  0.2709
 9477SOL     OW39889   1.830   2.744   5.134 -0.9422 -0.2823 -0.3480
 9477SOL    HW139890   1.846   2.704   5.049  5.4713 -0.8761  1.1238
 9477SOL    HW239891   1.916   2.753   5.177 -1.4602 -3.0858  1.2408
 9478SOL     OW39892   0.618   3.486  17.647 -0.0416 -0.3584  0.4566
 9478SOL    HW139893   0.709   3.506  17.665 -0.2814 -0.3397  1.6664
 9478SOL    HW239894   0.614   3.524  17.559  0.7029 -1.3735 -0.0208
 9479SOL     OW39895   3.507   4.562  12.177  0.4199  0.2234  0.3087
 9479SOL    HW139896   3.490   4.502  12.250 -0.7742 -2.1375 -1.9123
 9479SOL    HW239897   3.601   4.572  12.195  0.6572  0.3871 -0.9823
 9480SOL     OW39898   0.369   0.143   5.292 -0.3511 -0.3169  0.6391
 9480SOL    HW139899   0.366   0.159   5.197 -2.3756 -2.3857  0.3581
 9480SOL    HW239900   0.294   0.193   5.324  0.7162  0.8714  1.2832
 9481SOL     OW39901   0.289   3.868   5.248  0.3850  0.5177 -0.4899
 9481SOL    HW139902   0.349   3.915   5.305 -0.0111  1.2882 -0.7056
 9481SOL    HW239903   0.279   3.939   5.185  1.0177  2.2720  1.3995
 9482SOL     OW39904   3.699   2.926   0.550 -0.9616 -0.0834 -0.4003
 9482SOL    HW139905   3.629   2.886   0.602  1.2725  0.3834  3.0140
 9482SOL    HW239906   3.749   2.845   0.536 -0.8828 -0.0997 -0.0345
 9483SOL     OW39907   2.221   0.222   6.947  0.0831  0.0648 -0.2492
 9483SOL    HW139908   2.167   0.293   6.982 -0.6778 -0.2043 -0.8477
 9483SOL    HW239909   2.229   0.249   6.855 -1.6392  1.9621  0.1610
 9484SOL     OW39910   0.031   0.206  17.584  0.0740 -0.1735 -0.4259
 9484SOL    HW139911   4.711   0.123  17.567  2.0057 -1.5858  1.5336
 9484SOL    HW239912   4.686   0.257  17.627  0.9338  1.3582 -0.8655
 9485SOL     OW39913   2.919   0.108  12.735 -0.3624 -1.1398  0.3878
 9485SOL    HW139914   2.843   0.101  12.793 -1.3094  1.3822 -0.5258
 9485SOL    HW239915   2.883   0.162  12.664  1.6869 -1.1380 -0.6664
 9486SOL     OW39916   4.666   3.759   6.048  0.1055 -0.6641 -0.1180
 9486SOL    HW139917   4.660   3.835   6.105  1.7567 -1.2688  0.8728
 9486SOL    HW239918   4.667   3.686   6.110  0.4523  0.2467  0.9360
 9487SOL     OW39919   1.357   3.568   4.534  0.1441 -0.0920 -0.5384
 9487SOL    HW139920   1.317   3.551   4.619 -1.1543 -1.3091 -1.3737
 9487SOL    HW239921   1.337   3.660   4.522 -1.4803 -0.3681  0.0534
 9488SOL     OW39922   3.542   4.049   2.355  0.2990 -0.6706  0.3045
 9488SOL    HW139923   3.486   4.004   2.419  0.3887  1.7369  2.0849
 9488SOL    HW239924   3.475   4.081   2.294 -0.7188  2.0867  2.8562
 9489SOL     OW39925   0.217   1.454   1.446 -0.6011 -0.6162 -0.1880
 9489SOL    HW139926   0.272   1.525   1.481 -1.0674 -0.8196  0.9599
 9489SOL    HW239927   0.131   1.492   1.466 -0.0107 -0.6798  2.4906
 9490SOL     OW39928   0.924   1.322   0.933 -0.5583  0.3782 -0.3253
 9490SOL    HW139929   0.902   1.359   0.847 -0.5391  0.4623 -0.2933
 9490SOL    HW239930   0.851   1.262   0.947 -1.4917  1.3299 -1.1554
 9491SOL     OW39931   2.475   3.282   3.817 -0.5372 -0.5458 -0.4351
 9491SOL    HW139932   2.464   3.210   3.755  0.8228 -0.2492 -1.0367
 9491SOL    HW239933   2.387   3.293   3.851 -1.2024 -0.0752 -2.2847
 9492SOL     OW39934   1.840   0.807   8.579  0.5789  0.0330 -0.1349
 9492SOL    HW139935   1.854   0.758   8.660  0.9551  3.6714  2.0224
 9492SOL    HW239936   1.863   0.732   8.524 -0.9255  0.3108 -1.1386
 9493SOL     OW39937   1.652   0.744   2.811  0.6225  0.2716 -0.0983
 9493SOL    HW139938   1.700   0.809   2.760 -0.2392 -0.5982 -2.0308
 9493SOL    HW239939   1.582   0.732   2.747  1.4917 -0.0570 -0.9942
 9494SOL     OW39940   1.569   4.617  13.529 -0.0998 -0.5748  0.4310
 9494SOL    HW139941   1.618   4.627  13.447 -2.7176  0.8628 -0.9623
 9494SOL    HW239942   1.629   4.654  13.594 -1.3245 -0.0566  1.2629
 9495SOL     OW39943   0.823   4.451   6.868 -0.0331 -0.1686 -0.0384
 9495SOL    HW139944   0.848   4.542   6.876 -0.8678 -0.0513  1.3080
 9495SOL    HW239945   0.733   4.454   6.837 -0.2814 -3.2010  0.3464
 9496SOL     OW39946   3.063   1.580  10.241  0.8056 -0.8046 -0.0045
 9496SOL    HW139947   3.147   1.541  10.215  1.1206 -1.9168  2.6586
 9496SOL    HW239948   3.085   1.626  10.322  1.7653  0.1685 -0.8197
 9497SOL     OW39949   1.027   4.098   5.228  0.0527 -0.3287 -0.0284
 9497SOL    HW139950   1.114   4.125   5.199  0.3658 -1.9334 -0.5811
 9497SOL    HW239951   1.005   4.181   5.272  1.7871  0.4323 -0.6199
 9498SOL     OW39952   3.930   0.059   3.663  0.3532 -0.4698  0.5368
 9498SOL    HW139953   3.876   4.717   3.706  1.5251 -0.5613  1.8761
 9498SOL    HW239954   3.946   0.023   3.576  0.1002  3.4318 -1.1531
 9499SOL     OW39955   3.813   4.220   1.584 -0.0144  0.3196 -0.8215
 9499SOL    HW139956   3.738   4.245   1.530 -0.1604 -0.2321 -0.8727
 9499SOL    HW239957   3.877   4.286   1.557 -0.8570  1.1976 -0.6255
 9500SOL     OW39958   2.648   0.731  17.615  0.3044  0.1752 -0.1254
 9500SOL    HW139959   2.617   0.762  17.530 -1.6027  0.0387  0.5048
 9500SOL    HW239960   2.614   0.642  17.604 -0.0095  0.4755 -1.5148
 9501SOL     OW39961   3.997   2.179  10.784  0.4725 -0.3196 -0.8784
 9501SOL    HW139962   4.045   2.096  10.783  1.8767  0.4750 -0.1889
 9501SOL    HW239963   3.904   2.158  10.786  0.4421 -0.2930 -1.7891
 9502SOL     OW39964   0.800   3.027   2.684 -0.4741 -0.3785 -0.4150
 9502SOL    HW139965   0.802   2.936   2.716  1.4970 -0.2355 -0.1571
 9502SOL    HW239966   0.713   3.041   2.647 -1.6757 -0.2839  2.4175
 9503SOL     OW39967   3.081   1.613   7.237  0.9951 -0.0875 -0.2795
 9503SOL    HW139968   3.170   1.601   7.206  1.1358 -0.9589  0.4396
 9503SOL    HW239969   3.030   1.623   7.157 -1.3540  1.1775  1.3744
 9504SOL     OW39970   1.271   1.360   0.172 -0.4474  0.8126  0.5817
 9504SOL    HW139971   1.332   1.344   0.101 -2.2207  0.0831 -0.7698
 9504SOL    HW239972   1.318   1.312   0.240 -1.0028  0.2423  0.5706
 9505SOL     OW39973   0.694   0.963   5.152  0.1308  0.6901  0.0417
 9505SOL    HW139974   0.612   0.971   5.104  0.2199  1.4227  0.0168
 9505SOL    HW239975   0.662   0.916   5.230  0.4792 -1.7180 -1.2625
 9506SOL     OW39976   1.275   2.720   6.930  0.1346  0.4766  0.2501
 9506SOL    HW139977   1.239   2.754   7.013 -0.7283 -2.7096  1.1931
 9506SOL    HW239978   1.235   2.786   6.874  1.0710  0.1671 -0.7786
 9507SOL     OW39979   3.681   3.073   3.345  0.1792  0.3160  0.1350
 9507SOL    HW139980   3.623   3.132   3.296 -2.1147 -0.7217  1.5757
 9507SOL    HW239981   3.766   3.106   3.314 -0.3621  0.9102 -0.7448
 9508SOL     OW39982   0.627   4.580   8.508 -0.0472 -0.0871  0.1319
 9508SOL    HW139983   0.596   4.492   8.530 -0.5672  0.0214 -0.1576
 9508SOL    HW239984   0.689   4.600   8.578  1.2254  0.0754 -1.0460
 9509SOL     OW39985   3.327   3.747  14.846  0.5195  0.2688 -0.1040
 9509SOL    HW139986   3.268   3.821  14.832 -0.8533 -0.8865 -0.3826
 9509SOL    HW239987   3.363   3.770  14.931  0.7399 -1.5042  0.2935
 9510SOL     OW39988   0.336   1.429   4.160  0.1383  0.3030 -0.0628
 9510SOL    HW139989   0.379   1.344   4.169  1.5119  1.1545  1.4111
 9510SOL    HW239990   0.279   1.413   4.236 -0.3053 -1.1590 -0.7166
 9511SOL     OW39991   3.541   3.607  14.487  0.0064  0.5853  0.0885
 9511SOL    HW139992   3.633   3.597  14.461  0.5362  0.9057  1.7953
 9511SOL    HW239993   3.511   3.541  14.425  0.5660 -0.3244  0.7848
 9512SOL     OW39994   2.878   1.522   7.070  0.3230  0.3306 -0.3362
 9512SOL    HW139995   2.875   1.453   7.004  1.3945  2.0812 -2.2442
 9512SOL    HW239996   2.824   1.589   7.029  1.2751  2.6410  2.1843
 9513SOL     OW39997   1.410   4.533   0.495 -0.0351 -0.0746 -0.1674
 9513SOL    HW139998   1.384   4.486   0.575  1.4664  1.5990  1.3228
 9513SOL    HW239999   1.340   4.513   0.433 -0.4505 -2.1049  0.9634
 9514SOL     OW40000   3.376   0.448  13.591 -0.2468  0.2668 -0.0811
 9514SOL    HW140001   3.328   0.383  13.540 -2.4567  2.4966 -0.8381
 9514SOL    HW240002   3.446   0.386  13.614  0.8639  0.5690 -2.6949
 9515SOL     OW40003   0.630   0.323   6.665 -0.0820  0.3273  0.3055
 9515SOL    HW140004   0.582   0.333   6.582  1.1380  1.1877 -0.2923
 9515SOL    HW240005   0.645   0.411   6.697  1.5350  0.2590 -0.2510
 9516SOL     OW40006   0.888   4.039   6.220  0.0649 -0.1985 -0.2922
 9516SOL    HW140007   0.878   3.945   6.205 -0.2457 -0.2969  0.5140
 9516SOL    HW240008   0.886   4.059   6.314  2.2452  0.1937 -0.3185
 9517SOL     OW40009   3.814   1.054  12.319 -0.2961  0.2959 -0.0861
 9517SOL    HW140010   3.800   1.132  12.372 -0.4710  0.7406 -0.7976
 9517SOL    HW240011   3.725   1.019  12.312 -0.2618  0.1693  0.0821
 9518SOL     OW40012   0.040   0.621   8.984  0.2505  0.2064  0.2367
 9518SOL    HW140013   4.668   0.619   8.989  0.1377  1.2319 -1.3796
 9518SOL    HW240014   0.067   0.556   9.049  2.5218  0.1337 -0.7962
 9519SOL     OW40015   1.132   3.196  16.418  0.1690  0.1191 -0.2624
 9519SOL    HW140016   1.124   3.223  16.509 -0.9375  0.8887 -0.5836
 9519SOL    HW240017   1.227   3.211  16.413  0.6322 -3.2117 -1.5374
 9520SOL     OW40018   2.630   4.149  11.507 -0.0277  0.1390  0.6385
 9520SOL    HW140019   2.573   4.195  11.567  1.2052  2.5145 -0.0227
 9520SOL    HW240020   2.587   4.071  11.472 -2.6726  1.2206  1.4884
 9521SOL     OW40021   3.471   2.778   3.582 -0.7748 -0.3906  0.2152
 9521SOL    HW140022   3.565   2.776   3.596 -0.4684  0.3816 -1.8944
 9521SOL    HW240023   3.452   2.690   3.548  1.3198 -1.5981  2.1863
 9522SOL     OW40024   3.343   1.727   7.450 -0.4699 -0.3296  0.0657
 9522SOL    HW140025   3.318   1.779   7.526  1.2897  1.9854 -0.9712
 9522SOL    HW240026   3.434   1.702   7.461 -0.6847 -0.4320  1.6435
 9523SOL     OW40027   0.035   0.620  17.537 -0.2799  0.1892 -0.1075
 9523SOL    HW140028   4.688   0.591  17.594 -0.1841  0.7116  0.2733
 9523SOL    HW240029   0.013   0.712  17.535 -2.3534 -0.2562  2.7116
 9524SOL     OW40030   3.217   3.309   4.654  1.0323 -0.6174 -0.8432
 9524SOL    HW140031   3.190   3.220   4.678  2.5250 -1.3895 -2.0221
 9524SOL    HW240032   3.266   3.336   4.731 -1.5462  1.8117 -0.0455
 9525SOL     OW40033   2.130   0.427   0.413  0.0818  0.9113 -0.3677
 9525SOL    HW140034   2.069   0.355   0.398  1.9469 -0.6419 -0.3738
 9525SOL    HW240035   2.200   0.365   0.433 -0.5793  0.2935  0.0486
 9526SOL     OW40036   2.251   0.317   8.296  0.2476  0.7888  0.7919
 9526SOL    HW140037   2.289   0.332   8.382  1.4442  1.8725  0.0677
 9526SOL    HW240038   2.313   0.263   8.247 -2.5879 -2.0690  0.3349
 9527SOL     OW40039   4.005   2.032  16.942 -0.1497 -0.3756 -0.2927
 9527SOL    HW140040   4.029   2.040  17.034 -1.6901  1.6653 -0.0772
 9527SOL    HW240041   3.925   1.979  16.947  0.5422 -1.5180 -1.2969
 9528SOL     OW40042   2.247   1.102   9.641 -0.1685  0.0330  0.0148
 9528SOL    HW140043   2.286   1.031   9.590  1.5895 -0.7358  2.4492
 9528SOL    HW240044   2.171   1.120   9.585  0.0298  2.8822  0.6570
 9529SOL     OW40045   2.863   3.997   7.596  0.5535 -0.4650  0.1558
 9529SOL    HW140046   2.837   3.905   7.588  1.3324 -0.8350  2.0435
 9529SOL    HW240047   2.835   4.032   7.511  2.3999  3.5363  1.2189
 9530SOL     OW40048   2.423   1.008   1.199  0.3434 -0.3855 -0.4909
 9530SOL    HW140049   2.386   0.966   1.277 -0.2426 -2.0206 -1.6565
 9530SOL    HW240050   2.514   1.002   1.226 -0.3909  2.1995  2.5607
 9531SOL     OW40051   2.480   1.428   0.627  0.0076  0.4208  0.0642
 9531SOL    HW140052   2.467   1.393   0.539 -2.1896 -1.2592  1.0388
 9531SOL    HW240053   2.546   1.372   0.667 -0.1904 -0.1796 -0.4519
 9532SOL     OW40054   3.790   2.664   1.623  0.1623 -0.4798 -0.3324
 9532SOL    HW140055   3.874   2.635   1.588  0.3059  0.5032 -0.8189
 9532SOL    HW240056   3.732   2.668   1.547 -1.3599  1.1962  0.9170
 9533SOL     OW40057   2.291   3.032   1.402  0.1665 -0.3939  0.0408
 9533SOL    HW140058   2.335   3.113   1.427 -0.2132 -0.8513  2.1867
 9533SOL    HW240059   2.274   2.996   1.489 -0.7443  0.8394  0.3754
 9534SOL     OW40060   2.362   1.043   5.040 -0.2600  0.4093 -0.0948
 9534SOL    HW140061   2.411   1.108   4.990 -0.0770  1.2334  1.1817
 9534SOL    HW240062   2.385   1.076   5.126  2.4451 -1.5132 -0.0992
 9535SOL     OW40063   0.655   3.510   1.905 -0.2403 -0.0789 -0.3487
 9535SOL    HW140064   0.701   3.515   1.989  0.3908  1.3161 -0.7773
 9535SOL    HW240065   0.591   3.580   1.916  2.1295  1.8346  1.2262
 9536SOL     OW40066   3.205   3.610   2.096 -0.0617 -0.1522 -0.0173
 9536SOL    HW140067   3.289   3.643   2.128 -0.0595 -0.6402  0.4867
 9536SOL    HW240068   3.232   3.547   2.029  1.4444 -0.0955  0.5428
 9537SOL     OW40069   3.784   0.684  17.553  0.3824  0.0575  0.1759
 9537SOL    HW140070   3.786   0.599  17.510  0.3262  0.0152  0.2563
 9537SOL    HW240071   3.704   0.669  17.603  0.2972  0.7109  0.2424
 9538SOL     OW40072   2.288   1.082  13.041  0.4028  0.0233  0.1047
 9538SOL    HW140073   2.209   1.049  12.998  0.5459 -0.2882  0.0816
 9538SOL    HW240074   2.263   1.161  13.088  0.9068  0.3872 -0.2394
 9539SOL     OW40075   3.543   2.124   7.523 -0.2349  0.2084  0.0196
 9539SOL    HW140076   3.530   2.101   7.431  1.3895  0.8269 -0.3655
 9539SOL    HW240077   3.552   2.036   7.560 -2.8978  0.2185  0.6843
 9540SOL     OW40078   4.409   0.937   8.335  0.3015 -0.6168  0.3411
 9540SOL    HW140079   4.472   0.916   8.266  0.5514  0.8609  0.1244
 9540SOL    HW240080   4.362   1.007   8.290 -1.5792 -1.9176  0.2786
 9541SOL     OW40081   0.904   0.729   3.152  0.1372 -0.4036  0.5304
 9541SOL    HW140082   0.973   0.792   3.131 -1.4145  0.9731 -0.4029
 9541SOL    HW240083   0.929   0.652   3.100  0.3100 -0.5991  0.8977
 9542SOL     OW40084   3.798   2.561  14.860 -0.5786  0.1081 -0.7884
 9542SOL    HW140085   3.828   2.646  14.892  0.4165 -1.6729  2.9286
 9542SOL    HW240086   3.703   2.577  14.862 -0.5517  0.5181 -2.9749
 9543SOL     OW40087   1.218   3.394   2.107 -0.5249 -0.1923  0.3606
 9543SOL    HW140088   1.163   3.318   2.128  0.5100 -0.6089  1.5684
 9543SOL    HW240089   1.275   3.395   2.184 -0.3988 -3.0235  0.2953
 9544SOL     OW40090   4.300   3.401   6.253 -0.0315  0.3407 -0.5033
 9544SOL    HW140091   4.361   3.369   6.188 -0.2834  1.4874 -1.3023
 9544SOL    HW240092   4.298   3.496   6.242  0.4261  0.2320 -1.4351
 9545SOL     OW40093   4.029   0.806   5.652  0.3137  0.5122 -0.8415
 9545SOL    HW140094   4.102   0.865   5.672  0.4807 -0.3881  1.1362
 9545SOL    HW240095   4.071   0.720   5.648 -0.2058  0.2963 -1.8233
 9546SOL     OW40096   0.969   3.801   4.496  0.1982 -0.3855  0.4546
 9546SOL    HW140097   0.894   3.792   4.436 -2.0532  2.5427  2.8261
 9546SOL    HW240098   0.981   3.707   4.512 -0.0603 -0.7239 -1.3946
 9547SOL     OW40099   2.536   3.164   5.944  0.1400 -0.0981  0.1639
 9547SOL    HW140100   2.537   3.253   5.980  2.5001  0.4030 -1.1300
 9547SOL    HW240101   2.581   3.186   5.862 -0.5844 -0.3659 -0.2996
 9548SOL     OW40102   3.733   4.033   3.964  0.9103 -0.1331  0.4611
 9548SOL    HW140103   3.825   4.049   3.945  0.8407  1.7634  1.6895
 9548SOL    HW240104   3.740   3.941   3.942 -0.4505  0.2467 -1.5077
 9549SOL     OW40105   3.865   3.508   6.038 -0.0194 -0.1439  0.3610
 9549SOL    HW140106   3.924   3.433   6.027  1.0657  0.9635 -1.4732
 9549SOL    HW240107   3.905   3.570   6.099 -1.0688 -0.7862  1.6806
 9550SOL     OW40108   0.064   3.496   8.565  0.2508 -0.3893  0.2239
 9550SOL    HW140109   0.152   3.493   8.603 -0.8430 -2.2067  2.6792
 9550SOL    HW240110   0.080   3.569   8.506 -2.7301  0.9419  1.0842
 9551SOL     OW40111   0.181   1.671   4.822 -0.0251  0.1530 -0.3779
 9551SOL    HW140112   0.135   1.751   4.848  1.3384  1.0826 -0.8422
 9551SOL    HW240113   0.263   1.711   4.794 -0.0227  0.9777  0.8281
 9552SOL     OW40114   1.875   1.219   3.447 -0.1816 -0.4898  0.4544
 9552SOL    HW140115   1.868   1.125   3.429  0.0059  0.1667 -3.0401
 9552SOL    HW240116   1.963   1.241   3.417 -0.6033  0.9125  0.2292
 9553SOL     OW40117   3.851   2.660  14.465 -0.4620 -0.1497 -0.4912
 9553SOL    HW140118   3.908   2.588  14.492 -0.0917  0.0397 -0.7672
 9553SOL    HW240119   3.920   2.724  14.445 -1.7193  1.1142 -0.7901
 9554SOL     OW40120   0.247   3.159   7.885 -0.0078 -0.0410  0.1210
 9554SOL    HW140121   0.172   3.216   7.869 -0.4694 -0.3548  1.1534
 9554SOL    HW240122   0.215   3.111   7.961 -2.9449 -1.2475 -1.8886
 9555SOL     OW40123   1.395   1.424  17.119  0.5847 -0.6538 -0.3277
 9555SOL    HW140124   1.476   1.448  17.164 -1.1189  0.9883  1.8678
 9555SOL    HW240125   1.378   1.506  17.072  0.1445  0.2328  1.3773
 9556SOL     OW40126   0.947   3.221   7.151  0.2517 -0.2207  0.1365
 9556SOL    HW140127   0.969   3.129   7.164  2.3338  0.3940  0.9684
 9556SOL    HW240128   1.028   3.271   7.162 -1.2303  2.2901 -0.1488
 9557SOL     OW40129   3.524   2.383  12.311 -0.3829  0.0417 -0.1170
 9557SOL    HW140130   3.506   2.334  12.231  1.7910 -1.8832  0.5706
 9557SOL    HW240131   3.444   2.434  12.303 -1.9089 -2.3462 -0.1220
 9558SOL     OW40132   4.677   1.601   0.937 -0.2566  0.2928 -0.6433
 9558SOL    HW140133   0.037   1.557   0.946 -1.5089 -2.1992 -0.9365
 9558SOL    HW240134   4.606   1.537   0.925 -0.8042  0.9437 -0.8562
 9559SOL     OW40135   2.858   0.200  12.480 -0.3112 -0.1682  0.6728
 9559SOL    HW140136   2.768   0.233  12.471  0.2976  1.2878 -0.0607
 9559SOL    HW240137   2.915   0.264  12.439 -0.3046 -1.4110 -1.2517
 9560SOL     OW40138   1.805   1.274   4.507  0.0520  0.2377  0.3385
 9560SOL    HW140139   1.731   1.216   4.492 -0.5347  1.0148  0.2129
 9560SOL    HW240140   1.789   1.272   4.601 -0.9097  0.2539  0.1697
 9561SOL     OW40141   3.581   4.296   9.833 -0.0924 -0.1353  0.8304
 9561SOL    HW140142   3.492   4.263   9.824 -0.0268  0.1085 -0.8428
 9561SOL    HW240143   3.635   4.221   9.858 -1.1292 -1.5275 -1.0806
 9562SOL     OW40144   1.245   0.001   1.496  0.1063  0.1743 -0.2984
 9562SOL    HW140145   1.161   4.714   1.452 -0.4980 -0.8507  1.0826
 9562SOL    HW240146   1.265   4.641   1.538 -1.9698 -0.0936  0.1847
 9563SOL     OW40147   2.130   2.436   6.640 -0.0966 -0.8115  0.1632
 9563SOL    HW140148   2.068   2.481   6.697  0.3494 -0.5042  0.3962
 9563SOL    HW240149   2.096   2.452   6.552 -2.6106  0.3488  1.3511
 9564SOL     OW40150   0.302   2.406   6.228  0.4513  0.2833 -0.0193
 9564SOL    HW140151   0.208   2.404   6.243  0.5575  0.1201  0.6252
 9564SOL    HW240152   0.310   2.332   6.168 -0.7332  0.3297 -0.2217
 9565SOL     OW40153   1.718   2.296  12.171 -0.2495  0.6944  0.8253
 9565SOL    HW140154   1.780   2.364  12.197 -0.3154  0.8394  0.5998
 9565SOL    HW240155   1.684   2.331  12.089 -1.9925 -1.4116  0.6620
   4.72397   4.72397  17.69754
