Membrane in water
40155
    1TCq1    O1    1   0.984   0.455  10.819  0.1926 -0.0942  0.3135
    1TCq1    C1    2   0.897   0.423  10.923  0.2394 -0.7466 -0.0143
    1TCq1    O2    3   0.814   0.506  10.957 -0.1519 -0.4275  0.3547
    1TCq1    C2    4   0.982   0.355  11.020  1.2450  0.0152 -0.0031
    1TCq1    C3    5   1.051   0.252  10.977 -0.4321  0.4514 -0.1270
    1TCq1    C4    6   1.162   0.216  11.045 -0.1274 -0.2621 -0.2568
    1TCq1    C5    7   1.201   0.285  11.152  0.3584  0.1838  0.1579
    1TCq1    C6    8   1.120   0.388  11.199 -0.3600 -0.0481  0.3890
    1TCq1    C7    9   1.014   0.430  11.129  0.2654  0.1755  0.0952
    1TCq1    C8   10   1.149   0.451  11.331  0.4444  0.0513  0.1673
    1TCq1    O4   11   1.104   0.564  11.340 -0.4441 -0.1123  0.0935
    1TCq1    C9   12   1.253   0.119  10.979  0.8608 -0.3608  0.6882
    1TCq1    O5   13   1.358   0.094  11.037  0.2126  0.3440  0.6552
    1TCq1    O6   14   1.227   0.080  10.860 -0.3109  0.4710  0.5525
    1TCq1    H1   15   1.063   0.398  10.807 -1.0085 -1.5198 -0.8737
    1TCq1    H2   16   1.034   0.196  10.885  0.6939  1.5061 -0.9834
    1TCq1    H3   17   1.299   0.260  11.191  0.3126  1.2131  0.8992
    1TCq1    H4   18   0.959   0.513  11.171  1.6516  0.6163  1.0108
    2MPD2     C   19   1.406   0.484  11.769 -0.3026 -0.1075 -0.0337
    2MPD2    C1   20   1.325   0.574  11.702  0.6116 -0.1335 -0.2762
    2MPD2    C2   21   1.284   0.545  11.573  0.5890 -0.1285  0.3704
    2MPD2    C3   22   1.315   0.419  11.521 -0.5137  0.5247  0.1725
    2MPD2    C4   23   1.390   0.325  11.594  0.2519 -0.0094 -0.2873
    2MPD2    C5   24   1.436   0.364  11.712  0.0110  0.2934 -0.6355
    2MPD2     H   25   1.222   0.613  11.516 -1.0900  0.6961  3.2273
    2MPD2    H1   26   1.399   0.222  11.560  0.2323 -0.2519  0.4295
    2MPD2    H2   27   1.447   0.501  11.868 -2.9530  1.5571  0.7942
    2MPD2    H3   28   1.499   0.287  11.756 -1.3724  0.4037  1.5918
    2MPD2     N   29   1.254   0.379  11.400  0.5227  0.1030  0.2026
    2MPD2    H5   30   1.279   0.289  11.359  0.2313 -0.5130  1.3567
    2MPD2    N1   31   1.291   0.702  11.755  0.0290 -0.7260  0.0663
    2MPD2    H7   32   1.242   0.767  11.695 -0.5840 -0.3233  1.0029
    3TCq1    O1   33   0.919   2.790  11.813  0.7188  0.3721  0.2694
    3TCq1    C1   34   1.038   2.780  11.744  0.2245  0.0157  0.9162
    3TCq1    O2   35   1.144   2.827  11.786 -0.1365 -0.0306 -0.7674
    3TCq1    C2   36   1.006   2.747  11.610 -0.2574  0.0287  0.4873
    3TCq1    C3   37   0.915   2.645  11.587 -0.0923  0.4045 -0.4008
    3TCq1    C4   38   0.892   2.599  11.462  0.3258 -0.7205  0.1363
    3TCq1    C5   39   0.965   2.654  11.362 -0.1117  0.1948  0.1877
    3TCq1    C6   40   1.045   2.766  11.383 -0.9284 -0.2977  0.1840
    3TCq1    C7   41   1.068   2.811  11.504 -0.0635  0.5092  0.1274
    3TCq1    C8   42   1.072   2.846  11.267 -0.3531 -0.1714  1.3909
    3TCq1    O4   43   1.083   2.782  11.163 -0.1107  0.1527 -0.3200
    3TCq1    C9   44   0.797   2.491  11.438  0.2931  0.2391 -0.0197
    3TCq1    O5   45   0.796   2.448  11.315  0.4620 -0.7091 -0.4114
    3TCq1    O6   46   0.727   2.457  11.539  0.3242 -0.3762 -0.1924
    3TCq1    H1   47   0.844   2.762  11.757  2.2758 -1.2357 -0.9847
    3TCq1    H2   48   0.874   2.597  11.675  0.1892 -1.3990 -1.2731
    3TCq1    H3   49   0.956   2.615  11.262  0.4296  1.1493 -0.2391
    3TCq1    H4   50   1.131   2.898  11.516  0.6226  0.1891 -1.2011
    4MPD2     C   51   1.052   3.285  11.007 -0.9679  0.5769  0.6981
    4MPD2    C1   52   0.986   3.296  11.123 -0.0936  0.0572 -0.0529
    4MPD2    C2   53   0.985   3.194  11.219  1.7135 -0.0859 -0.4509
    4MPD2    C3   54   1.052   3.078  11.195  0.6750  0.0586 -0.0552
    4MPD2    C4   55   1.115   3.057  11.076  0.2285  0.9976  0.1670
    4MPD2    C5   56   1.126   3.170  10.989  0.0609  0.1120 -0.6585
    4MPD2     H   57   0.908   3.196  11.295  0.2924  0.9431 -1.9041
    4MPD2    H1   58   1.183   2.974  11.060  0.0288  1.3697 -2.5515
    4MPD2    H2   59   1.037   3.344  10.917  1.1161 -0.0567 -0.0549
    4MPD2    H3   60   1.187   3.161  10.900  1.7456  0.1255  0.4980
    4MPD2     N   61   1.043   2.980  11.293  0.2949 -0.3300  0.1121
    4MPD2    H5   62   1.013   3.007  11.386 -0.1578 -2.0321  0.4671
    4MPD2    N1   63   0.912   3.416  11.146  0.3868 -0.5942  0.3591
    4MPD2    H7   64   0.868   3.424  11.236  0.8116 -0.9017  0.5947
    5TCq1    O1   65   0.361   3.676  10.752 -0.2424 -0.1957 -0.2204
    5TCq1    C1   66   0.484   3.676  10.815  0.0383  0.4216 -0.4384
    5TCq1    O2   67   0.547   3.576  10.849 -0.6533 -0.0468 -0.2768
    5TCq1    C2   68   0.552   3.798  10.772  0.4733  0.8131  0.2373
    5TCq1    C3   69   0.491   3.920  10.789 -0.2415  0.7275  0.1603
    5TCq1    C4   70   0.566   4.029  10.763  0.4765  0.0230 -0.2714
    5TCq1    C5   71   0.697   4.023  10.730  1.0609 -0.3318 -1.3204
    5TCq1    C6   72   0.741   3.899  10.707 -0.1890  0.7071 -0.4893
    5TCq1    C7   73   0.676   3.785  10.723 -0.7682 -0.0454 -0.0187
    5TCq1    C8   74   0.883   3.875  10.674  0.3313 -0.0507  0.2981
    5TCq1    O4   75   0.908   3.789  10.596  0.3106 -0.1083 -0.1523
    5TCq1    C9   76   0.513   4.154  10.819  0.3936  1.0032  0.4086
    5TCq1    O5   77   0.599   4.242  10.832  0.4125 -0.1265 -0.2234
    5TCq1    O6   78   0.407   4.148  10.892  0.4851  0.7423  0.1125
    5TCq1    H1   79   0.344   3.764  10.712 -1.0004 -0.0336  0.4516
    5TCq1    H2   80   0.388   3.930  10.823 -0.2587  2.3216 -0.3711
    5TCq1    H3   81   0.759   4.112  10.727  1.3500 -0.4624  1.0104
    5TCq1    H4   82   0.727   3.692  10.704 -1.1247  0.0695 -1.5896
    6MPD2     C   83   1.166   4.012  10.852 -0.2761  0.1552 -0.2703
    6MPD2    C1   84   1.096   3.929  10.769 -0.0635 -0.0667  0.1763
    6MPD2    C2   85   1.166   3.824  10.714 -0.3595 -0.1989 -0.5934
    6MPD2    C3   86   1.296   3.797  10.745  0.0487  1.4173 -0.1768
    6MPD2    C4   87   1.366   3.885  10.831  0.5006  0.0517 -0.1158
    6MPD2    C5   88   1.292   3.988  10.876  0.4950  0.1962 -0.3355
    6MPD2     H   89   1.121   3.760  10.639  0.4073  0.0538 -1.2701
    6MPD2    H1   90   1.471   3.882  10.859  0.2185 -3.0359  0.6109
    6MPD2    H2   91   1.116   4.100  10.890  0.3877 -0.3633  1.8099
    6MPD2    H3   92   1.343   4.060  10.939  1.7025 -0.6872 -0.3055
    6MPD2     N   93   1.358   3.686  10.685 -0.1888  0.5394  0.2394
    6MPD2    H5   94   1.303   3.621  10.630 -0.1671 -0.4777  1.4105
    6MPD2    N1   95   0.964   3.955  10.746  0.0777  0.1378  0.4942
    6MPD2    H7   96   0.923   4.028  10.803 -0.1269  0.5760 -0.2083
    7TCq1    O1   97   3.785   3.383  12.688  0.6166 -0.4256 -0.3598
    7TCq1    C1   98   3.683   3.314  12.739  0.8527 -0.7649 -0.0634
    7TCq1    O2   99   3.665   3.192  12.721 -0.0403 -0.0492 -0.0510
    7TCq1    C2  100   3.594   3.403  12.815 -0.3442 -0.5955 -0.5970
    7TCq1    C3  101   3.587   3.538  12.783  1.0836 -0.2413  0.1344
    7TCq1    C4  102   3.531   3.625  12.871  0.9461  0.1801 -0.1585
    7TCq1    C5  103   3.483   3.581  12.991 -1.0805 -0.0039  0.3156
    7TCq1    C6  104   3.495   3.447  13.020  0.2092 -0.7894 -0.1627
    7TCq1    C7  105   3.540   3.359  12.931  0.7532 -0.2915  0.0747
    7TCq1    C8  106   3.466   3.388  13.152  0.1057 -0.7348 -0.2372
    7TCq1    O4  107   3.433   3.269  13.161  0.3377 -0.0062  0.5572
    7TCq1    C9  108   3.494   3.755  12.820 -1.3191 -0.9655  0.0650
    7TCq1    O5  109   3.430   3.825  12.908 -0.1183 -0.1404  0.2485
    7TCq1    O6  110   3.564   3.796  12.724 -0.4165 -0.6259 -0.0174
    7TCq1    H1  111   3.793   3.466  12.740 -3.0779 -0.5596  0.4536
    7TCq1    H2  112   3.624   3.577  12.689 -2.1759  0.7541 -0.7316
    7TCq1    H3  113   3.435   3.652  13.056 -1.6868  0.5658 -0.7524
    7TCq1    H4  114   3.569   3.257  12.953  1.1000 -0.1882  0.0977
    8MPD2     C  115   3.396   3.437  13.654 -0.6825 -0.0429  0.1074
    8MPD2    C1  116   3.410   3.326  13.579  0.3915  0.1133 -0.7525
    8MPD2    C2  117   3.439   3.337  13.446  0.4622 -0.0574  0.4736
    8MPD2    C3  118   3.470   3.462  13.388 -0.4328 -0.7608 -0.5860
    8MPD2    C4  119   3.469   3.573  13.463  0.2200  1.0470 -0.2153
    8MPD2    C5  120   3.426   3.565  13.599  0.2671 -0.0126  0.2162
    8MPD2     H  121   3.454   3.247  13.388 -2.2164 -2.3173  3.2860
    8MPD2    H1  122   3.488   3.669  13.415  1.5389  0.6891 -0.4008
    8MPD2    H2  123   3.349   3.426  13.751 -2.3057  0.6017 -0.5977
    8MPD2    H3  124   3.419   3.652  13.663  2.5922  0.2052  0.1681
    8MPD2     N  125   3.497   3.479  13.248 -0.0270 -0.2304 -0.2525
    8MPD2    H5  126   3.529   3.567  13.207 -1.5755 -0.5251 -2.0783
    8MPD2    N1  127   3.382   3.201  13.649 -0.4051  0.4450 -0.2961
    8MPD2    H7  128   3.365   3.215  13.748  1.1860  0.4028 -0.0118
    9TCq1    O1  129   1.472   2.868  10.306 -0.1429 -0.1115 -0.1355
    9TCq1    C1  130   1.520   2.842  10.425  0.1238  0.1337 -0.3797
    9TCq1    O2  131   1.605   2.909  10.480 -0.0085 -0.1979 -0.2432
    9TCq1    C2  132   1.482   2.707  10.450  0.0625 -0.1180  0.0256
    9TCq1    C3  133   1.365   2.651  10.409  0.0121 -0.6335  0.3782
    9TCq1    C4  134   1.340   2.518  10.442 -0.3633 -0.0667  0.5141
    9TCq1    C5  135   1.437   2.430  10.494  0.6424  0.0919  0.6728
    9TCq1    C6  136   1.560   2.493  10.525  0.3153 -0.4013  0.2857
    9TCq1    C7  137   1.586   2.630  10.502 -0.2161  0.0231  0.4796
    9TCq1    C8  138   1.659   2.420  10.604  0.1834  0.1555  0.2962
    9TCq1    O4  139   1.772   2.469  10.586 -0.1591 -0.2982  0.2753
    9TCq1    C9  140   1.200   2.477  10.423  0.4520 -0.0802  0.1425
    9TCq1    O5  141   1.173   2.371  10.480  0.0433  0.0457 -0.3227
    9TCq1    O6  142   1.118   2.538  10.353 -0.3996 -0.6948 -0.3416
    9TCq1    H1  143   1.403   2.811  10.266  0.4660 -1.6759  1.0682
    9TCq1    H2  144   1.284   2.721  10.389 -0.8838 -1.6212  0.5145
    9TCq1    H3  145   1.416   2.324  10.508 -0.2935  0.0328 -1.2105
    9TCq1    H4  146   1.688   2.666  10.503 -0.1430 -0.1626 -2.1402
   10MPD2     C  147   1.827   2.224  10.744  1.3639 -0.3679  0.0467
   10MPD2    C1  148   1.688   2.243  10.768  0.6337  0.1141 -1.2114
   10MPD2    C2  149   1.621   2.164  10.864 -0.0599 -0.4348  0.0641
   10MPD2    C3  150   1.695   2.073  10.942  0.2424 -0.4084  0.0277
   10MPD2    C4  151   1.830   2.052  10.906  0.7676  0.0794 -0.6928
   10MPD2    C5  152   1.894   2.127  10.815 -0.5130  0.0007  0.0434
   10MPD2     H  153   1.515   2.184  10.874  0.1594  0.3118  0.9489
   10MPD2    H1  154   1.883   1.974  10.959  0.8481  0.0033 -0.8845
   10MPD2    H2  155   1.876   2.278  10.663 -2.4058  3.1941  0.1639
   10MPD2    H3  156   2.000   2.110  10.803 -0.7133 -2.2295  1.2614
   10MPD2     N  157   1.634   1.989  11.039  0.0202 -0.6599 -0.0482
   10MPD2    H5  158   1.688   1.911  11.076 -0.4760 -1.0270 -0.0990
   10MPD2    N1  159   1.608   2.325  10.693  0.1580 -0.3479 -0.1628
   10MPD2    H7  160   1.507   2.313  10.697  0.2376 -0.3071  1.7114
   11TCq1    O1  161   2.192   2.413  13.967 -0.9565 -0.0858  0.2228
   11TCq1    C1  162   2.085   2.469  14.015 -0.1559  0.8834 -0.2964
   11TCq1    O2  163   1.974   2.459  13.965 -0.3102 -0.2819  0.0662
   11TCq1    C2  164   2.097   2.447  14.159  0.6685 -0.1520 -0.1619
   11TCq1    C3  165   2.214   2.460  14.228  0.2801 -0.3119 -0.0201
   11TCq1    C4  166   2.215   2.464  14.364  0.8736 -0.7152  0.9607
   11TCq1    C5  167   2.102   2.421  14.438 -0.3884 -0.5099 -0.2494
   11TCq1    C6  168   1.989   2.396  14.369  0.2850 -0.3296 -0.3775
   11TCq1    C7  169   1.988   2.413  14.230  0.9061  0.0153  0.0741
   11TCq1    C8  170   1.876   2.342  14.434  0.2602 -0.8060  0.1494
   11TCq1    O4  171   1.861   2.378  14.548  0.8218  0.1096  0.5571
   11TCq1    C9  172   2.338   2.487  14.436  0.1251 -0.5536 -0.2792
   11TCq1    O5  173   2.320   2.517  14.560  0.6597  0.0254  0.2745
   11TCq1    O6  174   2.443   2.462  14.377 -0.2865 -0.2774 -0.3119
   11TCq1    H1  175   2.266   2.396  14.029 -2.4400 -1.2728  1.6477
   11TCq1    H2  176   2.300   2.494  14.172 -1.0156 -0.4710 -2.1049
   11TCq1    H3  177   2.114   2.422  14.546  0.2338  0.0785 -0.3223
   11TCq1    H4  178   1.899   2.402  14.170  1.4884  0.4474 -0.8779
   12MPD2     C  179   1.607   2.235  14.504 -0.0238 -1.3130  0.6330
   12MPD2    C1  180   1.679   2.208  14.391 -0.5027  0.0420  0.9628
   12MPD2    C2  181   1.620   2.130  14.292  0.3858 -0.1316 -0.0221
   12MPD2    C3  182   1.495   2.065  14.317  0.9393  0.3463 -0.3522
   12MPD2    C4  183   1.428   2.095  14.428 -0.3556 -0.4327 -0.1405
   12MPD2    C5  184   1.481   2.182  14.520  0.2877 -0.2428  0.7301
   12MPD2     H  185   1.674   2.112  14.200  0.8115  2.2458 -0.2474
   12MPD2    H1  186   1.340   2.038  14.456 -0.3127  0.9813  2.8354
   12MPD2    H2  187   1.656   2.294  14.581  0.5525 -0.0680 -0.6964
   12MPD2    H3  188   1.409   2.197  14.601 -1.0252  1.0450 -0.6645
   12MPD2     N  189   1.448   1.985  14.217  0.1671  0.3093  0.2167
   12MPD2    H5  190   1.367   1.929  14.246 -1.8413  2.2922 -1.5652
   12MPD2    N1  191   1.804   2.263  14.352  0.1291  0.5580 -0.0735
   12MPD2    H7  192   1.844   2.257  14.259 -0.1193 -1.3323 -0.0476
   13TCq1    O1  193   1.473   1.511  10.853  0.2568 -0.0927  0.7085
   13TCq1    C1  194   1.523   1.624  10.799  0.5348 -0.0819 -0.5218
   13TCq1    O2  195   1.645   1.645  10.782 -0.1366  0.2192  0.2470
   13TCq1    C2  196   1.425   1.727  10.787 -0.9894 -0.1025  0.0063
   13TCq1    C3  197   1.462   1.830  10.706  0.3335 -0.5447  0.3867
   13TCq1    C4  198   1.384   1.946  10.711 -0.4402 -0.5063  0.1912
   13TCq1    C5  199   1.274   1.954  10.795 -0.5434  0.4858  0.2477
   13TCq1    C6  200   1.255   1.861  10.884  0.9424  0.0919  0.1021
   13TCq1    C7  201   1.334   1.744  10.887 -0.3356  0.5626  0.2831
   13TCq1    C8  202   1.141   1.861  10.971 -0.9353  0.0178 -0.3952
   13TCq1    O4  203   1.139   1.771  11.047  0.2922 -0.5352 -0.9486
   13TCq1    C9  204   1.433   2.058  10.631 -0.4525  0.7882  0.4445
   13TCq1    O5  205   1.505   2.021  10.530  0.0411  0.1163 -0.0231
   13TCq1    O6  206   1.357   2.157  10.639  0.4878  0.5720 -0.4920
   13TCq1    H1  207   1.379   1.491  10.831  0.4954  0.9269 -1.2143
   13TCq1    H2  208   1.543   1.810  10.637  2.7151  1.7005  2.5312
   13TCq1    H3  209   1.207   2.040  10.798  0.4794  1.2337  1.8732
   13TCq1    H4  210   1.322   1.663  10.959 -0.8738 -0.4466 -0.9332
   14MPD2     C  211   0.834   2.055  11.005  0.2370 -0.2630 -0.4676
   14MPD2    C1  212   0.951   1.994  11.045 -0.0766  0.2914  0.9197
   14MPD2    C2  213   0.968   1.961  11.176 -0.1113  0.4007 -0.5246
   14MPD2    C3  214   0.876   2.000  11.272  0.2731 -0.3307 -0.4915
   14MPD2    C4  215   0.756   2.054  11.232 -0.1054 -0.2901 -0.4726
   14MPD2    C5  216   0.740   2.081  11.099  0.5131  0.9556  0.7404
   14MPD2     H  217   1.054   1.903  11.206 -0.1234  0.9455  0.5700
   14MPD2    H1  218   0.680   2.080  11.305 -0.4423  0.6166 -1.1382
   14MPD2    H2  219   0.818   2.063  10.898  2.7576 -2.4842 -1.0271
   14MPD2    H3  220   0.643   2.113  11.061  0.6324  2.6061  1.8500
   14MPD2     N  221   0.919   1.976  11.404 -0.2543 -0.5323 -0.0784
   14MPD2    H5  222   1.012   1.936  11.415  0.1497  0.1440 -1.0630
   14MPD2    N1  223   1.045   1.955  10.948 -0.5431  0.2709 -0.2421
   14MPD2    H7  224   1.050   1.996  10.855  1.9681  0.5815  0.0254
   15TCq1    O1  225   3.622   1.327   1.514  0.1076  0.1344  0.1659
   15TCq1    C1  226   3.674   1.390   1.404  0.6434  0.4223 -0.3548
   15TCq1    O2  227   3.789   1.435   1.391 -0.3010 -0.0431 -0.4464
   15TCq1    C2  228   3.590   1.351   1.286  0.4248  0.7767 -0.2094
   15TCq1    C3  229   3.460   1.341   1.308 -0.5588 -0.3130  0.1221
   15TCq1    C4  230   3.371   1.275   1.223 -0.2126 -0.3858 -0.2506
   15TCq1    C5  231   3.420   1.223   1.107  0.3562  0.1351  0.2890
   15TCq1    C6  232   3.557   1.237   1.085  0.3422  0.2203 -0.4324
   15TCq1    C7  233   3.645   1.298   1.177 -0.6742 -0.0507  0.6423
   15TCq1    C8  234   3.625   1.145   0.998 -0.6299 -0.0575  0.2816
   15TCq1    O4  235   3.748   1.131   1.017  0.2345  0.0856  0.7574
   15TCq1    C9  236   3.232   1.273   1.264  0.7179  0.0162 -0.2738
   15TCq1    O5  237   3.208   1.285   1.388  0.5463 -0.5935 -0.4430
   15TCq1    O6  238   3.141   1.281   1.173 -0.4625  0.6679 -0.5455
   15TCq1    H1  239   3.533   1.287   1.503  0.2868  0.0530 -0.9947
   15TCq1    H2  240   3.426   1.409   1.386  2.1316  1.1702  0.0094
   15TCq1    H3  241   3.353   1.164   1.046 -2.1872  1.5810  1.6968
   15TCq1    H4  242   3.752   1.307   1.164 -0.7073  0.2071  0.5368
   16MPD2     C  243   3.491   0.933   0.735 -0.5861 -0.6637  0.4917
   16MPD2    C1  244   3.586   0.981   0.818 -0.4464  0.1208 -0.5195
   16MPD2    C2  245   3.710   0.930   0.817  0.1958  0.1610 -0.0667
   16MPD2    C3  246   3.748   0.830   0.730  0.0184 -0.2070 -0.4913
   16MPD2    C4  247   3.658   0.789   0.633 -0.2225  0.0524 -0.2397
   16MPD2    C5  248   3.534   0.836   0.643 -0.4001  0.2482 -0.0007
   16MPD2     H  249   3.787   0.966   0.885  2.7690 -2.6230 -1.4970
   16MPD2    H1  250   3.687   0.716   0.558  1.7147 -0.3694  0.9381
   16MPD2    H2  251   3.389   0.971   0.737 -0.3077  0.0119  1.9032
   16MPD2    H3  252   3.465   0.798   0.569  0.0109 -0.3549 -0.0707
   16MPD2     N  253   3.883   0.782   0.734 -0.0210 -0.2691 -1.0271
   16MPD2    H5  254   3.949   0.834   0.791  1.0751 -2.1774 -0.5473
   16MPD2    N1  255   3.539   1.080   0.906  0.3237  0.4859  0.3197
   16MPD2    H7  256   3.441   1.104   0.902 -0.3567 -1.9823  1.9344
   17TCq1    O1  257   0.496   2.034  10.334  0.4565  0.2329  0.2843
   17TCq1    C1  258   0.602   1.969  10.293  0.2073 -0.1265  0.1368
   17TCq1    O2  259   0.608   1.885  10.207 -0.1861 -0.3707  0.0064
   17TCq1    C2  260   0.660   1.933  10.425  1.4498  0.6571 -0.3614
   17TCq1    C3  261   0.745   2.019  10.475 -0.1165  0.1378 -0.7962
   17TCq1    C4  262   0.821   1.984  10.585  0.4534 -0.1128 -0.2036
   17TCq1    C5  263   0.805   1.859  10.641 -0.6188 -0.2964 -0.6923
   17TCq1    C6  264   0.730   1.765  10.576 -0.4055  0.4973  0.1089
   17TCq1    C7  265   0.658   1.799  10.463  0.4234  0.1704 -0.2466
   17TCq1    C8  266   0.776   1.626  10.577 -0.9551  0.3187  0.7684
   17TCq1    O4  267   0.694   1.537  10.558  0.1549 -0.4463  0.1576
   17TCq1    C9  268   0.910   2.080  10.647 -0.0006  0.5278  0.0421
   17TCq1    O5  269   1.020   2.038  10.688 -0.0679 -0.1226 -0.8258
   17TCq1    O6  270   0.901   2.195  10.598 -0.0941 -0.2774 -0.1863
   17TCq1    H1  271   0.506   2.073  10.423  2.2190  0.8289 -0.1706
   17TCq1    H2  272   0.749   2.112  10.421 -0.0667  1.8293  2.1551
   17TCq1    H3  273   0.857   1.815  10.725  0.3760  0.6702 -0.8139
   17TCq1    H4  274   0.592   1.728  10.415  0.6906 -0.6177  0.5424
   18MPD2     C  275   0.931   1.372  10.589 -0.1402  0.2815  0.3058
   18MPD2    C1  276   0.988   1.491  10.556  0.1518 -0.2027  0.0309
   18MPD2    C2  277   1.120   1.501  10.527  0.0975 -0.0116 -0.7402
   18MPD2    C3  278   1.200   1.386  10.511 -0.2140  0.0336 -0.9757
   18MPD2    C4  279   1.146   1.267  10.532  0.0409  0.3519  0.0475
   18MPD2    C5  280   1.020   1.261  10.580  0.4504 -0.4876  0.6052
   18MPD2     H  281   1.161   1.601  10.522  1.8401 -0.7271 -0.6306
   18MPD2    H1  282   1.205   1.177  10.535  0.9337  0.9713  1.1202
   18MPD2    H2  283   0.831   1.357  10.628 -0.1300 -0.4821  0.0556
   18MPD2    H3  284   0.987   1.162  10.610 -2.4495  0.2293 -0.2584
   18MPD2     N  285   1.347   1.401  10.489 -0.2485  0.5187  0.5205
   18MPD2    H5  286   1.404   1.319  10.473  0.7030  1.2502  0.1763
   18MPD2    N1  287   0.918   1.610  10.582 -0.0690 -0.1644 -0.3572
   18MPD2    H7  288   0.974   1.695  10.585 -0.8959  0.4268 -1.5831
   19TMC2    C1  289   2.409   2.166  14.495 -0.4529 -0.3823  0.2902
   19TMC2    C2  290   2.442   2.233  14.610  0.2701 -0.3336 -0.3589
   19TMC2    C3  291   2.347   2.241  14.714 -0.1180  0.0709 -0.5982
   19TMC2    C4  292   2.292   2.104  14.483  0.4348 -0.8311 -0.2791
   19TMC2    C5  293   2.204   2.118  14.579  1.1932  0.0155 -0.1315
   19TMC2    C6  294   2.219   2.190  14.696  0.8428  0.1090 -0.4045
   19TMC2     C  295   2.505   2.140  14.398  0.2554  0.7147 -0.5458
   19TMC2     O  296   2.467   2.072  14.304  0.4130  0.2622 -0.3607
   19TMC2     H  297   2.533   2.288  14.632 -0.8330  2.0809 -1.9320
   19TMC2    H1  298   2.263   2.062  14.387  2.9187  1.3355 -2.0174
   19TMC2    H2  299   2.133   2.221  14.754  2.4931  0.3908  1.9069
   19TMC2    C7  300   2.081   2.031  14.565 -0.2054  0.2791  1.1450
   19TMC2    C8  301   2.365   2.320  14.835  0.8132  0.0327 -0.7722
   19TMC2    O1  302   1.988   2.064  14.633  0.2937  0.3044 -0.3050
   19TMC2    O2  303   2.336   2.277  14.948  0.8393 -0.3301  0.3007
   19TMC2    O5  304   2.355   2.457  14.808 -0.2953 -0.0475  0.1197
   19TMC2    H5  305   2.360   2.476  14.712 -2.0018  2.6638  0.5381
   20MPD2     C  306   2.743   2.077  14.239 -0.4790 -0.1668 -0.2648
   20MPD2    C1  307   2.752   2.117  14.369  0.9968 -0.8722  0.0661
   20MPD2    C2  308   2.871   2.119  14.439 -0.3273 -0.5256 -0.3334
   20MPD2    C3  309   2.988   2.084  14.384 -0.2288 -0.3517  1.0409
   20MPD2    C4  310   2.987   2.055  14.252 -0.1097  0.1181 -0.1943
   20MPD2    C5  311   2.868   2.044  14.184 -0.1343  0.3590  0.2755
   20MPD2     H  312   2.873   2.157  14.540  1.1421 -1.1422 -0.1323
   20MPD2    H1  313   3.078   2.038  14.196 -1.1409 -0.8826 -1.5595
   20MPD2    H2  314   2.658   2.090  14.173 -1.4303 -1.3606  0.7425
   20MPD2    H3  315   2.874   2.006  14.083 -0.3607 -4.0751  1.9261
   20MPD2     N  316   3.110   2.078  14.465  0.1049 -0.5341  0.6380
   20MPD2    H5  317   3.179   2.014  14.425  0.6519  1.3001 -1.3681
   20MPD2    N1  318   2.638   2.147  14.445  0.3998 -0.0410  0.0486
   20MPD2    H7  319   2.658   2.175  14.541  1.1428  0.0233 -0.1242
   21MPD2     C  320   0.668   2.249  14.265 -0.0060  0.1219 -0.1147
   21MPD2    C1  321   0.653   2.125  14.307  0.7734  0.0526 -0.0144
   21MPD2    C2  322   0.580   2.104  14.419 -0.3997 -0.4620  0.0102
   21MPD2    C3  323   0.508   2.202  14.477 -0.3808 -0.3447  0.5112
   21MPD2    C4  324   0.528   2.334  14.437 -0.3032  0.1026  0.2434
   21MPD2    C5  325   0.609   2.351  14.330  0.9131  0.6514  0.4894
   21MPD2     H  326   0.563   1.999  14.441 -0.8982 -0.1613  1.0548
   21MPD2    H1  327   0.475   2.420  14.476 -0.6351  0.3721 -0.8142
   21MPD2    H2  328   0.721   2.269  14.172  1.3477 -1.8526  0.2249
   21MPD2    H3  329   0.639   2.451  14.304  1.2192  0.7740  1.3076
   21MPD2     N  330   0.425   2.188  14.590 -0.4289 -0.2120 -0.1411
   21MPD2    H5  331   0.391   2.273  14.634  0.4803  1.0607 -1.9327
   21MPD2    N1  332   0.705   2.007  14.240 -0.4533 -0.0886 -1.0670
   21MPD2    H7  333   0.681   1.918  14.283  1.6821 -0.3619 -0.4370
   22TCq2    C1  334   0.402   2.073  14.656  1.1130  0.1833 -0.5208
   22TCq2    O2  335   0.452   1.961  14.643 -0.2814 -0.5403  0.5362
   22TCq2    C2  336   0.336   2.082  14.784  0.1432 -0.3372  0.1853
   22TCq2    C3  337   0.322   1.970  14.866  0.1597 -0.5229  0.3147
   22TCq2    C4  338   0.272   1.985  14.998  0.0483 -0.1113 -0.7913
   22TCq2    C5  339   0.242   2.111  15.042 -0.2451  0.4479 -0.3393
   22TCq2    C6  340   0.235   2.212  14.950 -0.3576  0.3354 -0.2799
   22TCq2    C7  341   0.275   2.202  14.821 -0.8675  0.2235 -0.6335
   22TCq2    C8  342   0.154   2.330  14.987  0.6550  0.4420  0.2303
   22TCq2    O4  343   0.151   2.359  15.106  0.3871  0.2658 -0.8456
   22TCq2    C9  344   0.263   1.875  15.097  0.1592  0.4108  0.1295
   22TCq2    O5  345   0.214   1.901  15.214 -0.3872 -0.2626  0.1520
   22TCq2    O6  346   0.322   1.770  15.071  0.0280 -0.0899  0.0701
   22TCq2    H2  347   0.362   1.872  14.847 -1.5832 -1.1406 -0.1459
   22TCq2    H3  348   0.221   2.131  15.146  0.5270 -1.7120  0.2157
   22TCq2    H4  349   0.280   2.289  14.757 -0.9799 -0.5198 -1.6575
   23MPD2     C  350   2.263   3.420  14.902 -1.2782  0.6323  0.6018
   23MPD2    C1  351   2.150   3.369  14.951 -1.1153  0.5781  0.6109
   23MPD2    C2  352   2.026   3.394  14.881  0.0658  0.0864  0.1056
   23MPD2    C3  353   2.024   3.472  14.763  0.3546 -0.2907  0.2770
   23MPD2    C4  354   2.143   3.535  14.726  0.0719 -0.1463  0.0784
   23MPD2    C5  355   2.257   3.506  14.793  0.6584  0.6655  0.2121
   23MPD2     H  356   1.931   3.361  14.921  1.5965 -2.6224  1.5252
   23MPD2    H1  357   2.152   3.590  14.633 -0.2765 -0.6615 -0.2607
   23MPD2    H2  358   2.356   3.417  14.958 -1.1904 -0.1188  0.4081
   23MPD2    H3  359   2.354   3.547  14.766  0.7977 -0.6287 -1.2339
   23MPD2     N  360   1.910   3.498  14.687 -0.9906  0.7682  0.6764
   23MPD2    H5  361   1.921   3.562  14.608  0.2889 -2.5155 -1.8153
   23MPD2    N1  362   2.151   3.297  15.065 -0.2596  0.0838  0.2370
   23MPD2    H7  363   2.059   3.278  15.103 -0.8909 -2.2505 -2.4910
   24TCq2    C1  364   1.790   3.436  14.703  0.3629  0.6284  0.3764
   24TCq2    O2  365   1.764   3.340  14.775  0.3640  0.7491  0.1428
   24TCq2    C2  366   1.687   3.473  14.604  0.1518 -0.3927  0.2440
   24TCq2    C3  367   1.640   3.602  14.589  0.0287 -0.3662 -0.0311
   24TCq2    C4  368   1.511   3.620  14.545  0.0404  0.0357 -0.5701
   24TCq2    C5  369   1.434   3.516  14.515  0.3619 -0.0736 -0.2091
   24TCq2    C6  370   1.486   3.388  14.524 -0.4918  0.1911 -0.2063
   24TCq2    C7  371   1.617   3.368  14.560  0.2343 -0.7749 -0.0264
   24TCq2    C8  372   1.440   3.288  14.435 -0.4181 -0.7817 -0.5212
   24TCq2    O4  373   1.518   3.203  14.401 -0.4028  0.0927 -0.1279
   24TCq2    C9  374   1.468   3.754  14.520  0.7419  0.3828 -0.1362
   24TCq2    O5  375   1.347   3.777  14.528 -0.6040  0.0576  0.2444
   24TCq2    O6  376   1.561   3.830  14.486  0.3870  0.7334  0.0177
   24TCq2    H2  377   1.701   3.679  14.636 -0.4281  0.2412 -0.4254
   24TCq2    H3  378   1.332   3.532  14.480  0.7005  1.2625 -0.5625
   24TCq2    H4  379   1.668   3.274  14.575  0.1859 -0.8421 -0.2774
   25TMC2    C1  380   1.132   0.241  11.878  0.3859  0.8621  0.7439
   25TMC2    C2  381   1.231   0.223  11.969  0.5378  1.0089 -0.1068
   25TMC2    C3  382   1.253   0.322  12.061  0.0157  0.1500  0.5592
   25TMC2    C4  383   1.067   0.367  11.876 -0.1876 -0.0607 -0.7673
   25TMC2    C5  384   1.087   0.460  11.969  0.2812  0.4403  0.2322
   25TMC2    C6  385   1.177   0.439  12.061  0.8269  0.5425 -0.0205
   25TMC2     C  386   1.129   0.168  11.758 -0.3439 -0.6359 -0.4395
   25TMC2     O  387   1.228   0.098  11.746 -0.0515  0.6008  0.0996
   25TMC2     H  388   1.279   0.127  11.983 -3.3765 -0.7135  1.3924
   25TMC2    H1  389   0.987   0.375  11.804 -1.1939 -0.0053  0.3433
   25TMC2    H2  390   1.198   0.517  12.133  0.8150  1.9393 -1.5469
   25TMC2    C7  391   1.022   0.588  11.975  0.7515  0.0367 -0.1257
   25TMC2    C8  392   1.374   0.320  12.146 -0.1507 -0.5976 -0.0746
   25TMC2    O1  393   1.011   0.637  12.085 -0.0118  0.2613 -0.0524
   25TMC2    O2  394   1.443   0.226  12.176 -0.1886  0.6412  1.2408
   25TMC2    O5  395   1.430   0.443  12.130 -0.5080  0.3994  0.0985
   25TMC2    H5  396   1.379   0.509  12.078 -1.0036  1.0092  1.3569
   26MPD2     C  397   0.967   4.704  11.311 -0.0788  0.3815 -0.1955
   26MPD2    C1  398   0.860   0.039  11.371  0.5467  0.9806 -0.5236
   26MPD2    C2  399   0.868   0.086  11.504 -0.0166 -0.1557 -0.4408
   26MPD2    C3  400   0.994   0.088  11.564  0.2583  0.4043  0.2615
   26MPD2    C4  401   1.099   0.029  11.495 -0.0904  0.0777  0.1313
   26MPD2    C5  402   1.088   4.712  11.369  0.4890  0.1467  0.4734
   26MPD2     H  403   0.781   0.115  11.561 -0.4853 -1.4132 -0.5203
   26MPD2    H1  404   1.193   0.004  11.544  0.2638 -0.4870 -0.8453
   26MPD2    H2  405   0.968   4.677  11.206 -0.4513  3.0713 -0.8824
   26MPD2    H3  406   1.172   4.662  11.321 -0.9618 -0.5105 -1.3757
   26MPD2     N  407   1.011   0.147  11.693  0.2322  0.4169 -0.0670
   26MPD2    H5  408   0.932   0.200  11.727 -0.0380 -1.3578  2.1226
   26MPD2    N1  409   0.735   0.041  11.303 -0.2776  0.0586  0.3996
   26MPD2    H7  410   0.742   0.006  11.209  1.5308  2.7541 -0.4761
   27TMC2    C1  411   4.712   2.979  11.975  0.1803 -0.0259  0.6560
   27TMC2    C2  412   4.680   3.032  11.857 -0.0650 -0.3828 -0.2613
   27TMC2    C3  413   4.679   3.168  11.844  0.3270 -0.1525 -0.2415
   27TMC2    C4  414   0.006   3.061  12.084 -0.4521  0.0639  0.0348
   27TMC2    C5  415   4.723   3.197  12.076  0.0692  0.4382  0.0092
   27TMC2    C6  416   4.701   3.254  11.952 -0.0383  0.0527  0.7476
   27TMC2     C  417   4.655   2.848  12.000  0.5829  0.3876 -0.2754
   27TMC2     O  418   4.631   2.766  11.911 -0.1205  0.4018  0.3601
   27TMC2     H  419   4.662   2.973  11.768 -3.0972  2.2717 -1.4249
   27TMC2    H1  420   0.055   3.025  12.173 -2.5631  2.7057  2.2382
   27TMC2    H2  421   4.707   3.362  11.942 -0.2923 -0.1095 -1.1378
   27TMC2    C7  422   4.674   3.254  12.200 -0.3724  0.1451  0.6297
   27TMC2    C8  423   4.650   3.224  11.714  0.0948 -0.4958 -0.6405
   27TMC2    O1  424   4.631   3.171  12.279  0.0931 -0.2127 -0.2609
   27TMC2    O2  425   4.690   3.179  11.602 -0.3209  0.1078 -0.1588
   27TMC2    O5  426   4.566   3.327  11.730 -0.6049 -0.1184  0.6984
   27TMC2    H5  427   4.509   3.328  11.809  1.0227 -2.2608  1.8983
   28MPD2     C  428   4.346   2.572  12.305  0.4413  0.7274 -0.0591
   28MPD2    C1  429   4.353   2.700  12.348 -0.2144  1.4793 -0.0288
   28MPD2    C2  430   4.443   2.783  12.291  0.2824 -0.3238  0.0148
   28MPD2    C3  431   4.515   2.748  12.179 -0.0101  0.2717 -0.0167
   28MPD2    C4  432   4.511   2.619  12.143  0.1630 -0.1165 -0.1105
   28MPD2    C5  433   4.432   2.533  12.207 -0.2320  0.0814  0.0821
   28MPD2     H  434   4.447   2.884  12.330 -1.0865 -0.3982  0.3297
   28MPD2    H1  435   4.563   2.586  12.055  0.8757 -1.1330  0.6962
   28MPD2    H2  436   4.279   2.501  12.351  1.4215 -0.1610  0.0165
   28MPD2    H3  437   4.443   2.427  12.184 -0.0422  0.3488 -1.0668
   28MPD2     N  438   4.601   2.846  12.128  0.1155  0.7556  0.3187
   28MPD2    H5  439   4.612   2.934  12.178 -1.6695  0.1193  1.8397
   28MPD2    N1  440   4.255   2.732  12.446 -0.0152 -0.3314 -0.8323
   28MPD2    H7  441   4.193   2.660  12.481 -0.4763 -1.0567 -3.1576
   29MPD2     C  442   3.731   0.216  13.919 -0.4248  0.0816 -0.0937
   29MPD2    C1  443   3.815   0.165  14.010 -0.1432  0.2778 -0.4218
   29MPD2    C2  444   3.862   0.246  14.107 -0.1438 -0.2762 -0.6372
   29MPD2    C3  445   3.814   0.378  14.128  0.1283 -0.9111 -0.6178
   29MPD2    C4  446   3.735   0.428  14.034 -0.1385 -0.2558  0.4849
   29MPD2    C5  447   3.697   0.346  13.939  0.4573 -0.5545  0.0761
   29MPD2     H  448   3.927   0.197  14.179 -0.0274  0.5776 -0.1715
   29MPD2    H1  449   3.695   0.528  14.049 -0.1259  0.1377 -2.1882
   29MPD2    H2  450   3.686   0.161  13.838 -0.5182  0.5498 -0.3613
   29MPD2    H3  451   3.625   0.386  13.869 -0.1067 -0.7500  0.5497
   29MPD2     N  452   3.840   0.453  14.241 -0.2067 -0.3608  0.2596
   29MPD2    H5  453   3.824   0.552  14.222  2.4572 -0.0659 -0.5245
   29MPD2    N1  454   3.865   0.031  14.010 -0.0642  0.4990 -0.0463
   29MPD2    H7  455   3.936   0.002  14.076 -0.5527  2.0888  1.1845
   30TCq2    C1  456   3.891   0.410  14.359 -0.4009 -0.5119 -1.0408
   30TCq2    O2  457   3.919   0.298  14.388 -0.2626 -0.1107 -0.3199
   30TCq2    C2  458   3.948   0.520  14.440 -0.1704 -1.3363  0.6224
   30TCq2    C3  459   3.973   0.489  14.568  0.0324 -0.1492  0.2030
   30TCq2    C4  460   3.982   0.587  14.664 -0.6767 -0.2244  0.1602
   30TCq2    C5  461   3.967   0.717  14.637  0.1290  0.7824  0.1249
   30TCq2    C6  462   3.939   0.748  14.509  0.2995 -0.6973 -0.1843
   30TCq2    C7  463   3.926   0.653  14.412 -0.2787  0.0456 -0.2794
   30TCq2    C8  464   3.885   0.878  14.478  0.2775 -0.0746 -0.7503
   30TCq2    O4  465   3.792   0.885  14.402  0.6585 -0.0312  0.6460
   30TCq2    C9  466   4.003   0.528  14.796 -0.0668  0.0438  0.1394
   30TCq2    O5  467   4.046   0.407  14.806 -0.1372  0.0587 -0.2150
   30TCq2    O6  468   4.000   0.614  14.889  0.3142  0.1036  0.1071
   30TCq2    H2  469   3.985   0.383  14.587  2.5247  0.1383  0.2397
   30TCq2    H3  470   3.958   0.787  14.720  1.7616 -0.1970  1.1209
   30TCq2    H4  471   3.901   0.687  14.312  0.9098  1.7441  0.0068
   31MPD2     C  472   1.912   3.963  14.778 -0.3602 -0.9365  0.2362
   31MPD2    C1  473   1.777   4.000  14.759  0.0748  0.5345 -0.0599
   31MPD2    C2  474   1.680   3.911  14.801  0.2772 -0.2903  0.2072
   31MPD2    C3  475   1.709   3.791  14.866  0.2931 -0.5548  0.5440
   31MPD2    C4  476   1.843   3.756  14.876 -0.1048  0.6640  0.1322
   31MPD2    C5  477   1.937   3.844  14.822 -0.3613 -0.0210  0.1610
   31MPD2     H  478   1.576   3.937  14.792  0.5380  1.1519  1.3356
   31MPD2    H1  479   1.871   3.662  14.922  1.4341  1.8175  1.5675
   31MPD2    H2  480   1.989   4.021  14.730 -0.6225 -1.4268 -0.7980
   31MPD2    H3  481   2.034   3.798  14.831 -0.7432 -1.0545 -0.9640
   31MPD2     N  482   1.615   3.709  14.930  0.0640 -0.2603  0.8613
   31MPD2    H5  483   1.651   3.639  14.994 -1.1991 -0.6219  1.1797
   31MPD2    N1  484   1.751   4.129  14.703 -0.5996 -0.7897  1.1157
   31MPD2    H7  485   1.830   4.189  14.681 -0.5716 -1.0816  0.4139
   32TCq2    C1  486   1.478   3.734  14.934  0.1707 -0.2820 -0.3962
   32TCq2    O2  487   1.413   3.793  14.850  0.5592 -0.7103 -0.0524
   32TCq2    C2  488   1.423   3.669  15.054 -0.1083 -0.0580 -0.8548
   32TCq2    C3  489   1.288   3.687  15.065 -0.4707 -0.9780 -0.2240
   32TCq2    C4  490   1.223   3.639  15.181 -0.2531 -0.3743  0.3824
   32TCq2    C5  491   1.296   3.594  15.293 -0.3779 -0.2387 -0.0255
   32TCq2    C6  492   1.433   3.602  15.280  0.2837  0.3859 -0.2941
   32TCq2    C7  493   1.502   3.637  15.167  0.0359  0.5783  0.1862
   32TCq2    C8  494   1.506   3.576  15.403 -0.0747 -0.3592 -0.2473
   32TCq2    O4  495   1.629   3.581  15.395  0.7583  0.3143 -0.1341
   32TCq2    C9  496   1.083   3.658  15.205  0.9313  0.1705 -0.0547
   32TCq2    O5  497   1.040   3.657  15.321 -0.0601 -0.3341 -0.3516
   32TCq2    O6  498   1.010   3.686  15.104 -0.2365 -0.3500  0.0879
   32TCq2    H2  499   1.220   3.724  14.989  0.1275  2.1407  0.7617
   32TCq2    H3  500   1.245   3.546  15.375 -0.3593  0.6944  0.5274
   32TCq2    H4  501   1.609   3.651  15.174  0.2431 -0.4811 -0.9472
   33MPD2     C  502   2.196   1.750  10.300  0.4658 -0.1307  0.6698
   33MPD2    C1  503   2.064   1.756  10.262  0.3609  0.3161 -0.1435
   33MPD2    C2  504   2.030   1.839  10.163 -0.6350  0.3440 -0.5085
   33MPD2    C3  505   2.122   1.920  10.102 -0.4388 -0.4954  0.2030
   33MPD2    C4  506   2.255   1.918  10.139  0.5606 -0.6312 -0.0171
   33MPD2    C5  507   2.287   1.834  10.243  0.6350  0.3524 -0.4803
   33MPD2     H  508   1.934   1.843  10.113 -1.7593 -0.3604  1.5743
   33MPD2    H1  509   2.323   1.991  10.095 -0.8137 -0.1278 -1.3224
   33MPD2    H2  510   2.232   1.700  10.389 -0.2854  0.9535  1.5748
   33MPD2    H3  511   2.387   1.814  10.280  1.3864  2.5581 -1.3557
   33MPD2     N  512   2.082   2.015   9.999  0.4816  0.1334  0.0884
   33MPD2    H5  513   2.156   2.068   9.953 -0.9471 -0.4693 -2.8929
   33MPD2    N1  514   1.975   1.681  10.346  0.1806  0.2507 -0.2735
   33MPD2    H7  515   2.016   1.623  10.418 -0.0031  0.1912 -0.2178
   34TCq2    C1  516   1.963   2.018   9.935  0.4572  0.5397  0.4048
   34TCq2    O2  517   1.858   1.965   9.967 -0.0158  0.5722 -0.4218
   34TCq2    C2  518   1.952   2.128   9.842 -0.0710 -0.1783 -0.4757
   34TCq2    C3  519   1.844   2.141   9.758 -0.1191  0.4501  0.0148
   34TCq2    C4  520   1.856   2.217   9.642  0.5159  0.0540  0.2598
   34TCq2    C5  521   1.958   2.302   9.623 -0.2197 -0.1910 -0.3426
   34TCq2    C6  522   2.050   2.312   9.722 -0.2011 -0.2490 -0.2098
   34TCq2    C7  523   2.043   2.232   9.838 -0.9505 -0.0511  0.4235
   34TCq2    C8  524   2.141   2.423   9.699  0.5049 -0.1722  0.5907
   34TCq2    O4  525   2.124   2.499   9.602 -0.5322  0.0803  0.0392
   34TCq2    C9  526   1.763   2.196   9.537  0.5297  0.1865  0.0942
   34TCq2    O5  527   1.691   2.095   9.547 -0.0669  0.2298  0.2717
   34TCq2    O6  528   1.787   2.252   9.424  0.0765 -0.0053 -0.1579
   34TCq2    H2  529   1.767   2.066   9.772 -0.0002  0.3212 -0.0141
   34TCq2    H3  530   1.950   2.355   9.529 -0.2808  2.5310  1.2020
   34TCq2    H4  531   2.111   2.249   9.921  0.0666 -4.0994  0.4208
   35MPD2     C  532   3.841   3.186  11.589  0.1333 -0.4978  0.3996
   35MPD2    C1  533   3.742   3.139  11.680 -0.5566 -0.0527 -0.2486
   35MPD2    C2  534   3.622   3.098  11.621  0.0662 -0.4643 -0.3995
   35MPD2    C3  535   3.592   3.116  11.486 -0.9293 -0.3901  0.0117
   35MPD2    C4  536   3.699   3.160  11.406  0.0766 -0.0570 -0.3480
   35MPD2    C5  537   3.812   3.200  11.458  0.5999  1.0613 -0.1143
   35MPD2     H  538   3.546   3.077  11.695  0.5441 -2.1583 -0.3916
   35MPD2    H1  539   3.683   3.188  11.303  0.5015 -1.3957 -0.7770
   35MPD2    H2  540   3.939   3.221  11.618  0.1543 -1.0592  1.0105
   35MPD2    H3  541   3.892   3.241  11.398 -0.7820  1.7261 -1.4838
   35MPD2     N  542   3.457   3.100  11.449 -0.3276 -0.3011 -0.1160
   35MPD2    H5  543   3.392   3.051  11.509 -0.1867 -0.2775  0.0563
   35MPD2    N1  544   3.766   3.129  11.818 -0.0426  0.1955 -0.0390
   35MPD2    H7  545   3.697   3.078  11.871  0.2483  1.3441  1.4658
   36TCq2    C1  546   3.408   3.124  11.324  0.1243 -0.2097  0.0074
   36TCq2    O2  547   3.464   3.149  11.218 -0.1116  0.3609 -0.0945
   36TCq2    C2  548   3.271   3.075  11.303  0.0558 -0.1556 -0.0367
   36TCq2    C3  549   3.222   3.049  11.176 -0.7643 -0.7099 -0.2434
   36TCq2    C4  550   3.111   2.979  11.159 -0.3960 -0.1793  0.4425
   36TCq2    C5  551   3.040   2.925  11.261  0.8493  0.3635 -0.1694
   36TCq2    C6  552   3.076   2.963  11.389 -0.1607  0.3840  0.4458
   36TCq2    C7  553   3.191   3.039  11.410  0.1567 -0.7288 -0.0292
   36TCq2    C8  554   3.008   2.899  11.503  0.0571  0.1021 -0.4139
   36TCq2    O4  555   2.961   2.788  11.483  0.1849 -0.1367  0.8749
   36TCq2    C9  556   3.078   2.935  11.027  0.1075 -0.0574  0.3450
   36TCq2    O5  557   3.157   2.954  10.932 -0.6146  0.0564  0.4346
   36TCq2    O6  558   2.974   2.867  11.015 -0.1966 -0.0136 -0.4977
   36TCq2    H2  559   3.280   3.076  11.088 -1.5123 -3.0602 -1.4407
   36TCq2    H3  560   2.956   2.857  11.247  1.2707  0.3373 -2.5524
   36TCq2    H4  561   3.213   3.047  11.516  0.9148 -1.9776 -0.0856
   37TMC2    C1  562   1.232   3.542  11.337 -0.0596 -0.1995 -0.4669
   37TMC2    C2  563   1.256   3.546  11.201  0.5501  0.3213 -0.1759
   37TMC2    C3  564   1.380   3.494  11.164  0.0378  0.1349 -0.5467
   37TMC2    C4  565   1.331   3.503  11.433  0.1378 -0.7820  0.6405
   37TMC2    C5  566   1.448   3.464  11.389  0.0520  0.9780  0.4323
   37TMC2    C6  567   1.474   3.460  11.249  0.2179 -0.5533  0.1558
   37TMC2     C  568   1.106   3.591  11.378  0.3255  0.1494 -0.6631
   37TMC2     O  569   1.053   3.678  11.307 -0.2826  0.1547 -0.6895
   37TMC2     H  570   1.176   3.569  11.132  0.5460 -0.2238 -0.3509
   37TMC2    H1  571   1.307   3.509  11.539  2.1533 -0.2589  1.0677
   37TMC2    H2  572   1.568   3.425  11.208  0.8281  0.3310  0.8043
   37TMC2    C7  573   1.538   3.406  11.489 -0.1809  0.1715  0.0784
   37TMC2    C8  574   1.414   3.501  11.029 -0.3557 -0.2510 -0.3219
   37TMC2    O1  575   1.529   3.458  11.600  0.2267  0.5289  0.4402
   37TMC2    O2  576   1.527   3.480  10.992 -0.3838 -0.2867 -0.0949
   37TMC2    O5  577   1.298   3.469  10.963  0.5882 -0.3024  0.4500
   37TMC2    H5  578   1.222   3.473  11.024  0.3481 -0.2621  0.1481
   38MPD2     C  579   0.750   3.620  11.745 -0.0085 -0.5409 -0.2923
   38MPD2    C1  580   0.826   3.507  11.768  0.4558 -0.5858  0.7475
   38MPD2    C2  581   0.929   3.483  11.681 -0.1822 -0.1582  0.4261
   38MPD2    C3  582   0.958   3.565  11.577 -0.1215 -0.4803 -0.0149
   38MPD2    C4  583   0.875   3.668  11.545 -0.0679  0.3543  0.2159
   38MPD2    C5  584   0.773   3.698  11.637 -0.8930  0.1922 -0.1643
   38MPD2     H  585   0.989   3.395  11.701  1.5395  1.2011  1.2971
   38MPD2    H1  586   0.893   3.733  11.460  1.0011 -1.0878 -0.6641
   38MPD2    H2  587   0.672   3.654  11.812 -0.3750  0.3581 -1.1727
   38MPD2    H3  588   0.711   3.784  11.615  0.5063  0.5628 -2.6787
   38MPD2     N  589   1.075   3.535  11.497  0.4283 -0.2241 -0.2036
   38MPD2    H5  590   1.126   3.454  11.531 -0.5997 -0.7720  0.0038
   38MPD2    N1  591   0.800   3.418  11.875 -0.5869 -0.3064  0.4684
   38MPD2    H7  592   0.868   3.343  11.886  0.1738  0.2790 -0.2577
   39MPD2     C  593   3.918   4.655   0.751 -0.3675 -0.5788 -0.0856
   39MPD2    C1  594   3.849   0.009   0.850 -0.5326  0.5750  0.0084
   39MPD2    C2  595   3.724   4.687   0.891 -0.4573 -0.5352 -0.3359
   39MPD2    C3  596   3.673   4.571   0.840  1.0830 -0.0993  0.0852
   39MPD2    C4  597   3.733   4.496   0.741  0.0297  0.0529 -0.3705
   39MPD2    C5  598   3.857   4.539   0.708 -0.6713 -0.3559  0.3258
   39MPD2     H  599   3.674   0.021   0.967  2.5333 -1.8037  2.6278
   39MPD2    H1  600   3.695   4.397   0.718 -0.7914  0.9229 -2.7248
   39MPD2    H2  601   4.019   4.681   0.720  0.6348 -0.9524  2.8280
   39MPD2    H3  602   3.910   4.478   0.636 -1.2955 -2.2977  1.5233
   39MPD2     N  603   3.543   4.525   0.872  0.3471  0.1980  0.3279
   39MPD2    H5  604   3.508   4.455   0.807  3.0188 -1.1438  0.3109
   39MPD2    N1  605   3.907   0.129   0.904  0.7681 -0.3156  0.5564
   39MPD2    H7  606   4.001   0.150   0.871 -0.0120 -0.8868 -2.0375
   40TCq2    C1  607   3.842   0.228   0.980  0.2728 -0.0962  0.5729
   40TCq2    O2  608   3.726   0.241   1.011  0.3081  0.3692 -0.3676
   40TCq2    C2  609   3.920   0.336   1.025 -0.5555  0.0796  0.9589
   40TCq2    C3  610   3.859   0.463   1.041  0.3625  0.7721  0.0333
   40TCq2    C4  611   3.932   0.563   1.095 -0.0151 -0.2900 -0.5372
   40TCq2    C5  612   4.068   0.548   1.130  0.1093  0.1953 -0.1683
   40TCq2    C6  613   4.118   0.420   1.123  0.3994 -0.4416  0.6615
   40TCq2    C7  614   4.049   0.311   1.066  0.6908  0.0849 -0.1425
   40TCq2    C8  615   4.253   0.388   1.158 -0.3832  0.5287 -0.6121
   40TCq2    O4  616   4.293   0.276   1.122  0.3243  0.1153  0.5865
   40TCq2    C9  617   3.859   0.692   1.134 -0.8095  0.3920 -0.0240
   40TCq2    O5  618   3.739   0.703   1.100  0.1737  0.6312 -0.2122
   40TCq2    O6  619   3.925   0.793   1.174 -0.3334  0.0289  0.2859
   40TCq2    H2  620   3.755   0.481   1.013  0.4005 -0.3062 -0.7832
   40TCq2    H3  621   4.121   0.634   1.168  0.7184 -0.7198  1.0637
   40TCq2    H4  622   4.092   0.212   1.065  0.3268 -0.0903  1.7533
   41TMC2    C1  623   2.687   3.154  13.649 -0.5925  0.9615  0.8780
   41TMC2    C2  624   2.694   3.293  13.660  1.3337 -0.1794 -0.0894
   41TMC2    C3  625   2.696   3.364  13.544  0.1517 -0.1721  0.0163
   41TMC2    C4  626   2.676   3.093  13.526  0.2266 -0.2053  0.3767
   41TMC2    C5  627   2.682   3.175  13.419  0.1920 -0.6833  0.2718
   41TMC2    C6  628   2.676   3.308  13.423 -0.8333  0.8086  0.4671
   41TMC2     C  629   2.617   3.075  13.753 -0.0843 -0.2624  0.3595
   41TMC2     O  630   2.543   2.984  13.715 -0.6187 -0.4093  0.4655
   41TMC2     H  631   2.691   3.350  13.752  0.1938 -0.7434  0.2314
   41TMC2    H1  632   2.671   2.986  13.510  0.5255 -0.3676  1.3611
   41TMC2    H2  633   2.670   3.370  13.335 -0.9993  0.3814  0.1777
   41TMC2    C7  634   2.587   3.125  13.316  0.0015 -0.1649 -0.1818
   41TMC2    C8  635   2.750   3.500  13.535  0.4022  0.0404  0.7919
   41TMC2    O1  636   2.481   3.079  13.360 -0.5816 -0.3180 -0.0932
   41TMC2    O2  637   2.745   3.573  13.437  0.2891  0.2874  0.6051
   41TMC2    O5  638   2.852   3.505  13.621 -0.0814  0.2211 -0.7436
   41TMC2    H5  639   2.835   3.446  13.698  1.3962  0.0535 -0.5343
   42MPD2     C  640   2.554   2.958  14.011  0.1326 -0.3649 -0.3116
   42MPD2    C1  641   2.612   3.081  14.001  0.0824  0.2765  0.8215
   42MPD2    C2  642   2.637   3.155  14.116 -0.2781 -0.1292 -0.7234
   42MPD2    C3  643   2.580   3.107  14.237  0.2466 -0.8736  0.7926
   42MPD2    C4  644   2.537   2.979  14.239 -0.1285 -0.0201  0.1313
   42MPD2    C5  645   2.530   2.900  14.131  0.2774 -0.2879 -0.0259
   42MPD2     H  646   2.687   3.251  14.113  1.4333 -1.0034 -0.4697
   42MPD2    H1  647   2.529   2.919  14.329  0.1365 -0.3068 -0.0347
   42MPD2    H2  648   2.520   2.898  13.927 -3.5767 -0.7271  1.4826
   42MPD2    H3  649   2.499   2.798  14.155  0.1860  0.0588  1.3319
   42MPD2     N  650   2.564   3.181  14.360 -0.1732 -0.4722  0.1584
   42MPD2    H5  651   2.509   3.145  14.438 -0.4702 -1.3372 -0.4589
   42MPD2    N1  652   2.647   3.134  13.874 -0.4296 -0.1592  0.7217
   42MPD2    H7  653   2.716   3.208  13.874 -0.2667 -0.3067 -0.2865
   43MPD2     C  654   0.299   1.714   0.623  0.2208 -0.0957  0.0436
   43MPD2    C1  655   0.257   1.594   0.676 -0.3525 -0.3598  0.3263
   43MPD2    C2  656   0.138   1.600   0.748 -0.3438  0.0805 -0.1765
   43MPD2    C3  657   0.073   1.725   0.780  0.1458 -0.2969 -0.3445
   43MPD2    C4  658   0.136   1.839   0.741 -0.6448  0.4126  0.2880
   43MPD2    C5  659   0.246   1.833   0.654  0.1792 -0.0942 -0.4266
   43MPD2     H  660   0.095   1.507   0.783 -0.7571  0.0156 -0.8457
   43MPD2    H1  661   0.079   1.931   0.750  0.2505  1.0279 -0.3018
   43MPD2    H2  662   0.393   1.719   0.568  1.5539  2.5606  2.5529
   43MPD2    H3  663   0.296   1.924   0.622 -0.7040  1.7415  3.4548
   43MPD2     N  664   4.676   1.730   0.856 -0.0522 -0.4861 -0.2272
   43MPD2    H5  665   4.642   1.822   0.884 -2.8319 -1.8110  0.7412
   43MPD2    N1  666   0.311   1.471   0.651 -0.1322  0.3074  0.4460
   43MPD2    H7  667   0.258   1.389   0.678 -1.0875  0.8782  0.3088
   44TCq2    C1  668   4.368   1.874   1.237  0.7591  0.3369  0.3430
   44TCq2    O2  669   4.452   1.965   1.230 -0.0812  0.2909 -0.5842
   44TCq2    C2  670   4.384   1.756   1.154  0.4677 -0.3527 -0.4139
   44TCq2    C3  671   4.316   1.643   1.193 -0.9682 -0.2267 -0.3219
   44TCq2    C4  672   4.327   1.535   1.112  0.1476  0.1607  0.2059
   44TCq2    C5  673   4.412   1.531   1.006 -0.2238 -0.1257 -0.2831
   44TCq2    C6  674   4.484   1.642   0.968 -0.0079  0.1194  0.0474
   44TCq2    C7  675   4.470   1.754   1.049  0.1080 -0.6276  0.9223
   44TCq2    C8  676   4.595   1.625   0.881 -0.2968 -0.1296 -0.2303
   44TCq2    O4  677   4.596   1.512   0.831 -0.5278 -0.5973 -0.0389
   44TCq2    C9  678   4.244   1.417   1.129  0.2917  0.6885 -0.4046
   44TCq2    O5  679   4.272   1.303   1.082  0.4623  0.0856 -0.0550
   44TCq2    O6  680   4.159   1.421   1.226  0.0228 -0.1915  0.0194
   44TCq2    H2  681   4.253   1.632   1.280  1.0400 -1.4412  0.9745
   44TCq2    H3  682   4.398   1.441   0.948 -0.3037 -1.0405  1.1518
   44TCq2    H4  683   4.512   1.847   1.013 -1.1931 -1.1877 -2.0662
   45TMC2    C1  684   0.372   4.151   9.537 -0.1419 -0.4909  0.2529
   45TMC2    C2  685   0.240   4.179   9.493 -0.3332 -0.0376 -0.0276
   45TMC2    C3  686   0.203   4.314   9.479  0.8534 -0.2241 -0.3157
   45TMC2    C4  687   0.464   4.246   9.549 -0.0490 -0.1582 -0.7802
   45TMC2    C5  688   0.415   4.376   9.543 -0.1494  0.2861 -0.0413
   45TMC2    C6  689   0.287   4.417   9.505  0.8967  0.0144  0.3344
   45TMC2     C  690   0.408   4.013   9.582 -0.3620 -0.3420 -0.3964
   45TMC2     O  691   0.504   3.995   9.656  0.3023 -0.5282 -0.6383
   45TMC2     H  692   0.161   4.106   9.498  1.1685 -1.5513  1.7353
   45TMC2    H1  693   0.567   4.221   9.575 -0.0512 -0.4165 -1.0209
   45TMC2    H2  694   0.254   4.517   9.478  2.7341  0.0274 -1.8787
   45TMC2    C7  695   0.519   4.475   9.561 -0.2862  0.4891 -0.4762
   45TMC2    C8  696   0.065   4.349   9.482 -0.1388 -0.7850  0.7125
   45TMC2    O1  697   0.491   4.589   9.523 -0.0773  0.1183  0.2338
   45TMC2    O2  698   4.710   4.304   9.558  0.1349 -0.3826  0.3717
   45TMC2    O5  699   0.043   4.409   9.357 -0.0921 -0.0967  0.7338
   45TMC2    H5  700   0.129   4.422   9.311 -0.8987 -0.0228 -0.7857
   46MPD2     C  701   0.404   3.726   9.645  0.3075 -0.6808 -0.6246
   46MPD2    C1  702   0.306   3.795   9.571 -0.2933 -0.2532  0.6089
   46MPD2    C2  703   0.186   3.735   9.540  0.2830  0.0042 -0.2011
   46MPD2    C3  704   0.163   3.604   9.573  0.3696  0.1258 -0.1488
   46MPD2    C4  705   0.256   3.537   9.640 -0.1092  0.5885  0.6696
   46MPD2    C5  706   0.380   3.597   9.669  0.0366  0.0327  1.0093
   46MPD2     H  707   0.107   3.792   9.492  0.7690  1.6505  0.9640
   46MPD2    H1  708   0.246   3.431   9.662  3.4437 -0.3566 -2.1489
   46MPD2    H2  709   0.488   3.774   9.693 -2.5831  0.4508  3.3111
   46MPD2    H3  710   0.460   3.544   9.719  1.0311  0.6993  0.1253
   46MPD2     N  711   0.030   3.561   9.537 -0.3002 -0.1493 -0.1673
   46MPD2    H5  712   4.692   3.633   9.504  0.1599  1.1517  1.7880
   46MPD2    N1  713   0.311   3.932   9.540 -0.9070  0.1213  0.7439
   46MPD2    H7  714   0.245   3.966   9.471  0.5735  0.0825 -0.6906
   47TMC2    C1  715   2.119   4.604   9.149 -0.4399 -0.3488 -0.5571
   47TMC2    C2  716   2.137   4.566   9.017  0.4141 -0.2832  0.4623
   47TMC2    C3  717   2.057   4.625   8.927  0.0916  0.2718 -0.1450
   47TMC2    C4  718   2.020   4.688   9.193 -0.7226  0.1776  0.6336
   47TMC2    C5  719   1.939   0.010   9.091 -0.5161  0.2278  0.4333
   47TMC2    C6  720   1.956   4.711   8.958  0.3177  0.2410  0.2052
   47TMC2     C  721   2.210   4.556   9.246 -0.1676 -0.0877 -0.5866
   47TMC2     O  722   2.258   4.441   9.231 -0.1415  0.1927 -0.0928
   47TMC2     H  723   2.227   4.510   8.992 -0.6687 -2.1913  0.8060
   47TMC2    H1  724   2.021   0.006   9.292 -2.0451  0.4578  0.5215
   47TMC2    H2  725   1.899   0.038   8.883 -0.0487  2.1395  1.8048
   47TMC2    C7  726   1.830   0.097   9.130  0.3862  0.0893 -0.2919
   47TMC2    C8  727   2.103   4.645   8.790 -0.1839  0.0795  0.4563
   47TMC2    O1  728   1.798   0.181   9.046  0.0094  0.3058 -0.2882
   47TMC2    O2  729   2.223   4.637   8.758 -0.6165 -0.4181 -0.0458
   47TMC2    O5  730   2.002   4.599   8.710  0.1273 -0.0328 -0.1953
   47TMC2    H5  731   1.910   4.606   8.742  0.1368  2.6622 -0.7302
   48MPD2     C  732   2.381   0.040   9.491 -0.3076 -0.0633 -0.1276
   48MPD2    C1  733   2.361   4.656   9.412 -0.3230 -0.0080  0.5728
   48MPD2    C2  734   2.440   4.550   9.435  0.2903  0.7505  0.2539
   48MPD2    C3  735   2.551   4.551   9.520  0.4761 -0.0435 -0.7554
   48MPD2    C4  736   2.579   4.669   9.587  0.0898  0.0920 -0.2939
   48MPD2    C5  737   2.488   0.048   9.575 -0.0467  0.5134  1.0216
   48MPD2     H  738   2.428   4.457   9.380 -1.9147  1.0621  0.2307
   48MPD2    H1  739   2.668   4.686   9.646  0.1696  0.4421 -0.5153
   48MPD2    H2  740   2.310   0.122   9.493 -1.3710 -1.0084  0.6368
   48MPD2    H3  741   2.511   0.143   9.622  1.4195  0.4461  0.4485
   48MPD2     N  742   2.639   4.439   9.516 -0.1849  0.1138  0.8190
   48MPD2    H5  743   2.622   4.365   9.449 -1.8913  1.0180  0.2288
   48MPD2    N1  744   2.252   4.662   9.327  0.0030  0.4440 -0.2556
   48MPD2    H7  745   2.209   0.028   9.316  1.3692  0.9221 -1.5780
   49MPD2     C  746   0.259   1.631   9.996 -0.2864 -0.6372  0.0491
   49MPD2    C1  747   0.242   1.545  10.107 -0.3295  0.1327 -0.1339
   49MPD2    C2  748   0.268   1.584  10.237 -0.1664 -0.8457 -0.0254
   49MPD2    C3  749   0.300   1.721  10.262  0.0659  0.3006  0.7659
   49MPD2    C4  750   0.316   1.800  10.154 -0.1670 -0.0225  0.2266
   49MPD2    C5  751   0.300   1.753  10.029 -0.3548 -0.4509  0.2147
   49MPD2     H  752   0.254   1.504  10.309  0.4558 -0.1090  0.8954
   49MPD2    H1  753   0.352   1.902  10.164 -1.0228  0.3141 -0.0415
   49MPD2    H2  754   0.222   1.605   9.897  1.1975 -2.0108 -0.1658
   49MPD2    H3  755   0.317   1.826   9.950 -0.3644  2.0263  2.4870
   49MPD2     N  756   0.306   1.775  10.397  0.3608  0.2570  0.1951
   49MPD2    H5  757   0.325   1.874  10.410 -0.3665  0.2333  1.5106
   49MPD2    N1  758   0.208   1.409  10.087  0.2190  0.2708  0.8246
   49MPD2    H7  759   0.229   1.346  10.164 -0.1635 -0.6933  0.1324
   50TCq2    C1  760   0.158   1.352   9.974 -0.5119  0.0732 -0.4304
   50TCq2    O2  761   0.095   1.407   9.882  0.8450  0.2288 -0.1576
   50TCq2    C2  762   0.148   1.205   9.978  0.3447  0.0820 -0.0711
   50TCq2    C3  763   0.075   1.134   9.882  0.4654 -0.5706 -0.1116
   50TCq2    C4  764   0.072   0.999   9.881  0.3332  0.6209  0.1055
   50TCq2    C5  765   0.159   0.938   9.963 -0.5022 -0.2358  0.3239
   50TCq2    C6  766   0.237   1.008  10.051 -0.0982  0.2690  0.0269
   50TCq2    C7  767   0.234   1.142  10.068  0.0168  0.1181  0.7348
   50TCq2    C8  768   0.301   0.926  10.151  0.0728  0.1084 -0.1597
   50TCq2    O4  769   0.287   0.802  10.137  0.2448  0.0990  0.0445
   50TCq2    C9  770   4.720   0.920   9.789 -0.3981 -0.6204 -0.2075
   50TCq2    O5  771   4.642   0.984   9.715 -0.4654  0.2369 -0.5100
   50TCq2    O6  772   4.716   0.794   9.801  0.3562  0.3634  0.3101
   50TCq2    H2  773   0.007   1.187   9.816 -1.0442 -1.4161  0.7876
   50TCq2    H3  774   0.160   0.830   9.952  1.4860 -0.2856  1.0483
   50TCq2    H4  775   0.309   1.196  10.124  1.3257  0.2264 -1.1141
   51MPD2     C  776   0.904   3.306   1.633 -0.6621 -0.1833  0.2093
   51MPD2    C1  777   0.967   3.405   1.560 -0.3929  0.0989 -0.2894
   51MPD2    C2  778   1.073   3.479   1.611 -0.4163 -0.4578 -0.1430
   51MPD2    C3  779   1.114   3.458   1.740  0.2295 -0.3520  0.7043
   51MPD2    C4  780   1.052   3.360   1.815  0.0060  0.3082  0.5846
   51MPD2    C5  781   0.954   3.280   1.753  0.2112  0.1641  0.1547
   51MPD2     H  782   1.135   3.544   1.551  0.7426 -0.7656  0.7063
   51MPD2    H1  783   1.072   3.357   1.922  1.1812  1.0517  0.3956
   51MPD2    H2  784   0.826   3.245   1.589 -1.7207  1.4052 -0.1182
   51MPD2    H3  785   0.896   3.214   1.816 -1.3982  1.3216 -0.1128
   51MPD2     N  786   1.228   3.518   1.792  0.0255  0.3301 -0.5436
   51MPD2    H5  787   1.272   3.474   1.872  0.6533  2.4197  0.2656
   51MPD2    N1  788   0.938   3.430   1.425 -0.4389 -0.3931  0.2861
   51MPD2    H7  789   0.982   3.511   1.381  0.6061 -0.6555  0.8701
   52TCq2    C1  790   1.292   3.623   1.735 -0.1933  0.3449 -0.5063
   52TCq2    O2  791   1.248   3.717   1.661 -0.1324 -0.0456 -0.1067
   52TCq2    C2  792   1.425   3.644   1.781  0.6348 -0.5110 -0.2255
   52TCq2    C3  793   1.492   3.544   1.840  0.1958  0.0592 -0.2349
   52TCq2    C4  794   1.625   3.555   1.861  0.5184  0.6337  0.2076
   52TCq2    C5  795   1.691   3.669   1.833 -0.1498 -0.1491  0.3599
   52TCq2    C6  796   1.626   3.764   1.765 -0.3347  0.0712  0.0448
   52TCq2    C7  797   1.488   3.757   1.738  0.8375  0.3543 -0.4344
   52TCq2    C8  798   1.699   3.872   1.709 -0.8250 -0.3488 -0.6792
   52TCq2    O4  799   1.808   3.898   1.762 -0.7866  0.0447  0.2847
   52TCq2    C9  800   1.694   3.458   1.945 -0.0752 -0.6175 -0.1103
   52TCq2    O5  801   1.814   3.486   1.972  0.1558  0.2162 -0.1661
   52TCq2    O6  802   1.625   3.356   1.976  0.4653  0.2596 -0.1684
   52TCq2    H2  803   1.442   3.461   1.888 -1.0855 -0.0434 -1.7314
   52TCq2    H3  804   1.795   3.687   1.860 -0.3376  2.9082 -0.9439
   52TCq2    H4  805   1.437   3.841   1.692 -1.5172 -1.2740 -0.7850
   53TMC2    C1  806   1.877   3.115  12.069  0.1161 -0.7200 -0.0084
   53TMC2    C2  807   1.950   3.033  12.157 -0.5815  0.0042 -0.2421
   53TMC2    C3  808   1.909   3.029  12.288  0.0251 -0.1063 -0.1544
   53TMC2    C4  809   1.773   3.186  12.113  0.1510 -0.8750  0.2693
   53TMC2    C5  810   1.740   3.184  12.240  0.0227 -0.2557 -0.6535
   53TMC2    C6  811   1.806   3.107  12.334  0.3676 -0.0768  0.2549
   53TMC2     C  812   1.894   3.079  11.928 -0.0702 -0.7536  0.6401
   53TMC2     O  813   1.978   2.995  11.902 -0.0035 -0.1008 -0.6295
   53TMC2     H  814   2.035   2.973  12.126 -0.9912 -1.6173  1.7899
   53TMC2    H1  815   1.709   3.240  12.045 -2.2344  0.6336  3.7138
   53TMC2    H2  816   1.779   3.128  12.437  2.9828 -0.2770  0.9706
   53TMC2    C7  817   1.599   3.224  12.270 -0.7844 -0.2308  0.5926
   53TMC2    C8  818   1.960   2.921  12.360 -0.1288  0.0462  0.1389
   53TMC2    O1  819   1.553   3.297  12.182  0.3741 -0.0210  0.4659
   53TMC2    O2  820   2.066   2.867  12.335  0.1620  0.1240  0.1862
   53TMC2    O5  821   1.925   2.955  12.486  0.0695 -0.3282  0.2764
   53TMC2    H5  822   1.834   2.984  12.506  0.0229 -0.9102  0.9101
   54MPD2     C  823   1.873   3.046  11.632 -0.7219  0.0885 -0.3664
   54MPD2    C1  824   1.818   3.151  11.707 -0.0341 -0.2178 -0.4354
   54MPD2    C2  825   1.733   3.238  11.644 -0.1944 -0.2540  0.8116
   54MPD2    C3  826   1.700   3.219  11.509 -0.5126 -0.2478 -0.1242
   54MPD2    C4  827   1.760   3.122  11.438 -0.0662  0.6090  0.1537
   54MPD2    C5  828   1.847   3.035  11.498  0.1197  0.2580 -0.0615
   54MPD2     H  829   1.684   3.312  11.706 -0.7639 -0.3543  0.4773
   54MPD2    H1  830   1.735   3.116  11.333  0.8564  0.3964 -0.0522
   54MPD2    H2  831   1.945   2.979  11.677 -1.1126 -0.2423 -0.2320
   54MPD2    H3  832   1.887   2.960  11.431  2.4531 -0.5101  2.2063
   54MPD2     N  833   1.611   3.298  11.437 -0.8267 -0.3896  0.2825
   54MPD2    H5  834   1.601   3.284  11.337 -1.2871 -1.7928  0.5265
   54MPD2    N1  835   1.835   3.165  11.847  0.2553  0.3326  0.1512
   54MPD2    H7  836   1.779   3.240  11.886 -2.1981 -0.2930 -2.1209
   55MPD2     C  837   2.467   0.813   0.380  0.3808  0.2120 -0.1882
   55MPD2    C1  838   2.356   0.766   0.452  0.0279 -0.1288  0.5867
   55MPD2    C2  839   2.234   0.824   0.433  0.3350  1.4667  0.5499
   55MPD2    C3  840   2.213   0.934   0.357  0.6686  0.3699 -0.6950
   55MPD2    C4  841   2.322   0.977   0.274 -0.1667  0.0163 -0.6520
   55MPD2    C5  842   2.445   0.909   0.285  0.8816  0.3556  1.1979
   55MPD2     H  843   2.146   0.780   0.478 -1.1460  1.5502 -2.2944
   55MPD2    H1  844   2.297   1.055   0.203  0.9983 -1.7871 -3.0448
   55MPD2    H2  845   2.564   0.767   0.379 -0.3966 -1.4169  0.1122
   55MPD2    H3  846   2.521   0.949   0.219  0.6897 -1.6783 -0.2566
   55MPD2     N  847   2.081   0.983   0.362 -0.1478 -0.2688 -0.1382
   55MPD2    H5  848   2.016   0.920   0.407 -0.3200  0.1161  0.1447
   55MPD2    N1  849   2.384   0.652   0.531 -0.5236 -0.5418  0.3225
   55MPD2    H7  850   2.480   0.619   0.538 -1.0837 -2.5387 -1.1315
   56TCq2    C1  851   2.290   0.582   0.603 -0.0870 -0.0920  0.2690
   56TCq2    O2  852   2.167   0.590   0.601  0.2114 -0.3000  0.1609
   56TCq2    C2  853   2.346   0.487   0.702 -0.3860 -0.5788 -0.0259
   56TCq2    C3  854   2.484   0.498   0.734  0.5831 -0.3864  0.0390
   56TCq2    C4  855   2.537   0.397   0.812 -0.4993  0.2960  0.2167
   56TCq2    C5  856   2.457   0.305   0.879  0.5667  0.1056 -0.3458
   56TCq2    C6  857   2.320   0.301   0.850  0.1669  0.0513  0.2696
   56TCq2    C7  858   2.267   0.386   0.757  0.1992 -0.4321 -0.3957
   56TCq2    C8  859   2.252   0.166   0.858  0.2398 -0.7337  0.1590
   56TCq2    O4  860   2.315   0.063   0.871  0.3424 -0.1155  0.3160
   56TCq2    C9  861   2.681   0.408   0.848 -0.0016  0.3939 -0.1790
   56TCq2    O5  862   2.737   0.516   0.819  0.2140 -0.2760  0.4624
   56TCq2    O6  863   2.724   0.320   0.933 -0.2015 -0.0772  0.2493
   56TCq2    H2  864   2.539   0.587   0.707 -0.2417 -0.5241 -2.1349
   56TCq2    H3  865   2.495   0.225   0.942  1.9740  0.2458 -1.0226
   56TCq2    H4  866   2.162   0.380   0.730  0.2093  0.7898 -0.7209
   57TMC2    C1  867   1.274   2.334  13.612  0.3130  0.4671  0.6248
   57TMC2    C2  868   1.299   2.466  13.632 -0.2099  0.7776  0.3433
   57TMC2    C3  869   1.394   2.536  13.572  0.1233  0.1589 -0.2006
   57TMC2    C4  870   1.347   2.263  13.515  1.1949 -0.0555 -0.4523
   57TMC2    C5  871   1.455   2.335  13.463  0.0276 -0.2133  0.3233
   57TMC2    C6  872   1.485   2.467  13.491 -0.5750 -0.4719  0.0699
   57TMC2     C  873   1.160   2.277  13.686  0.1643  0.6634 -0.1047
   57TMC2     O  874   1.127   2.320  13.793 -0.2862 -0.3215 -0.2432
   57TMC2     H  875   1.241   2.514  13.710 -2.3264 -0.0794 -0.7199
   57TMC2    H1  876   1.329   2.162  13.480 -2.3469  0.3877  0.0958
   57TMC2    H2  877   1.563   2.523  13.440 -0.2440 -0.5742  0.4728
   57TMC2    C7  878   1.558   2.267  13.389  0.2117  0.3768 -0.4700
   57TMC2    C8  879   1.410   2.680  13.604  0.9028  0.0619 -0.1148
   57TMC2    O1  880   1.644   2.338  13.337 -0.2374  0.0749  0.4065
   57TMC2    O2  881   1.319   2.739  13.657  0.0689  0.7061 -0.0609
   57TMC2    O5  882   1.526   2.740  13.572  0.0083  0.0623  0.0510
   57TMC2    H5  883   1.600   2.680  13.550 -0.1952  0.8810 -2.9297
   58MPD2     C  884   0.714   2.039  13.725 -0.7335  0.0101  0.1851
   58MPD2    C1  885   0.759   2.155  13.779 -0.3677  0.1954 -0.2515
   58MPD2    C2  886   0.880   2.206  13.742 -0.1427 -0.3089 -0.6754
   58MPD2    C3  887   0.961   2.138  13.649  0.0321 -0.6583  0.0896
   58MPD2    C4  888   0.910   2.021  13.590  0.2227 -0.3398  0.3737
   58MPD2    C5  889   0.793   1.972  13.634 -0.1059 -0.5619  0.7603
   58MPD2     H  890   0.906   2.310  13.759  0.5278 -0.8158  1.4224
   58MPD2    H1  891   0.959   1.971  13.507 -0.8179  1.4631 -1.3169
   58MPD2    H2  892   0.622   1.995  13.761 -0.5245 -1.9489 -1.6621
   58MPD2    H3  893   0.768   1.876  13.591  0.2915 -0.2505 -0.1672
   58MPD2     N  894   1.094   2.179  13.614  0.3816 -0.0349 -0.3613
   58MPD2    H5  895   1.141   2.145  13.531 -0.3503 -0.5207 -0.5703
   58MPD2    N1  896   0.684   2.224  13.871 -0.0412 -0.5416  0.1286
   58MPD2    H7  897   0.731   2.309  13.898  2.6894 -1.9575 -0.2430
   59MPD2     C  898   3.764   2.394  13.234 -0.0854 -0.3922 -0.7661
   59MPD2    C1  899   3.872   2.399  13.142  0.4177  0.1714 -0.3075
   59MPD2    C2  900   3.992   2.453  13.183 -0.1398 -0.3771 -0.3261
   59MPD2    C3  901   4.001   2.516  13.307  1.3471 -0.1107 -0.4064
   59MPD2    C4  902   3.892   2.507  13.392 -0.1139 -0.8058  0.2727
   59MPD2    C5  903   3.772   2.452  13.359 -0.3799  0.4598 -0.2053
   59MPD2     H  904   4.073   2.454  13.111 -0.0103  0.3800 -0.1755
   59MPD2    H1  905   3.898   2.543  13.494  0.1435  0.6794 -0.2749
   59MPD2    H2  906   3.664   2.362  13.207 -1.0459  0.9910  1.1499
   59MPD2    H3  907   3.688   2.461  13.427 -0.7481 -0.5359 -0.5254
   59MPD2     N  908   4.110   2.581  13.351  1.0233  0.1340  0.6130
   59MPD2    H5  909   4.122   2.606  13.449 -2.1033  2.1118  0.4581
   59MPD2    N1  910   3.853   2.332  13.023 -0.3099  0.1670  0.1986
   59MPD2    H7  911   3.767   2.277  13.024 -0.8144  0.9919  1.7412
   60TCq2    C1  912   3.933   2.329  12.912 -0.2595  0.3886 -0.0420
   60TCq2    O2  913   4.024   2.401  12.885 -0.5064  0.2603 -0.3246
   60TCq2    C2  914   3.881   2.243  12.807  0.2159  0.3152  0.4050
   60TCq2    C3  915   3.789   2.147  12.835  0.2653 -0.4401  0.1304
   60TCq2    C4  916   3.731   2.085  12.731  0.4109  0.3123  0.0096
   60TCq2    C5  917   3.760   2.114  12.599 -1.1615  0.0297  0.2183
   60TCq2    C6  918   3.856   2.207  12.578 -0.1627 -0.5630 -0.5918
   60TCq2    C7  919   3.918   2.267  12.681  0.0345  0.1827 -0.1012
   60TCq2    C8  920   3.889   2.237  12.436  0.0127  0.0143 -0.4743
   60TCq2    O4  921   3.859   2.159  12.349  0.0573  0.2674  0.1610
   60TCq2    C9  922   3.646   1.982  12.763  0.4544 -0.4683 -0.3613
   60TCq2    O5  923   3.578   1.990  12.873 -0.2368  0.0781 -0.2512
   60TCq2    O6  924   3.646   1.880  12.693  0.7185 -0.8213  0.7035
   60TCq2    H2  925   3.758   2.119  12.935 -1.3104  3.1977  0.6517
   60TCq2    H3  926   3.720   2.048  12.523  0.2090  0.2706 -0.7096
   60TCq2    H4  927   3.989   2.347  12.661  1.5678 -0.5791  2.4140
   61MPD2     C  928   2.927   3.562  14.425 -0.1667  0.3520  0.7182
   61MPD2    C1  929   3.020   3.633  14.494  0.1951 -0.1406  0.1959
   61MPD2    C2  930   3.072   3.754  14.453 -1.3476  0.4213  0.3273
   61MPD2    C3  931   3.036   3.800  14.336 -0.3213  0.2135  0.5693
   61MPD2    C4  932   2.942   3.726  14.260 -0.3817 -0.1250 -0.3035
   61MPD2    C5  933   2.894   3.604  14.299 -0.0032 -0.4798 -0.2181
   61MPD2     H  934   3.135   3.815  14.516 -0.3404  1.1766 -1.4302
   61MPD2    H1  935   2.911   3.767  14.165 -2.5938  0.9531  0.8992
   61MPD2    H2  936   2.885   3.475  14.475 -1.3263 -1.0477 -2.7101
   61MPD2    H3  937   2.829   3.547  14.234 -3.2583  2.1051  0.8032
   61MPD2     N  938   3.053   3.929  14.294  0.6909 -0.2710  0.4849
   61MPD2    H5  939   2.985   3.963  14.227  0.3626 -1.0298  0.4305
   61MPD2    N1  940   3.041   3.603  14.633  0.7729 -0.4875  0.5568
   61MPD2    H7  941   3.103   3.660  14.690  1.4272  1.3195 -1.9150
   62TCq2    C1  942   2.991   3.506  14.703  0.1708  0.2943 -0.3889
   62TCq2    O2  943   2.966   3.393  14.671  0.7574 -0.1268  0.1050
   62TCq2    C2  944   2.997   3.545  14.848 -0.0051  0.0747 -0.3175
   62TCq2    C3  945   2.962   3.449  14.940  0.2761  0.3664  0.0989
   62TCq2    C4  946   2.946   3.490  15.071  0.9698 -0.0260 -0.2595
   62TCq2    C5  947   2.951   3.618  15.109  0.2544  0.1121 -0.4084
   62TCq2    C6  948   2.979   3.712  15.013 -0.7186 -0.5191  0.7388
   62TCq2    C7  949   3.006   3.677  14.885  0.5709 -0.2192  0.6984
   62TCq2    C8  950   2.971   3.853  15.049 -0.5987 -0.5932  0.1947
   62TCq2    O4  951   3.035   3.921  14.966 -0.2063  0.0269 -0.4039
   62TCq2    C9  952   2.918   3.389  15.166  0.2024  0.3020  0.6296
   62TCq2    O5  953   2.911   3.269  15.125 -0.4894  0.0686  0.7444
   62TCq2    O6  954   2.947   3.416  15.284  0.2155 -0.3122  0.2775
   62TCq2    H2  955   2.950   3.344  14.918 -1.2034  0.4781  0.3906
   62TCq2    H3  956   2.937   3.648  15.212 -0.5816  2.3141 -1.1797
   62TCq2    H4  957   3.035   3.752  14.811  1.6529 -2.3787 -1.0581
   63TMC2    C1  958   2.650   3.556  10.893  0.7871 -0.4994  0.5018
   63TMC2    C2  959   2.675   3.560  11.028 -0.3581 -0.6611 -0.1055
   63TMC2    C3  960   2.770   3.647  11.072  0.0730 -0.6390 -0.9911
   63TMC2    C4  961   2.695   3.649  10.806  0.6079 -0.2393 -0.2488
   63TMC2    C5  962   2.785   3.739  10.858 -0.2843 -0.3359  0.5607
   63TMC2    C6  963   2.821   3.744  10.989  0.9222  0.2378 -0.0705
   63TMC2     C  964   2.541   3.460  10.856 -0.1454 -0.2469  0.5495
   63TMC2     O  965   2.461   3.419  10.940  0.1627  0.3785 -0.4607
   63TMC2     H  966   2.637   3.485  11.097 -2.4401  0.8213  0.3416
   63TMC2    H1  967   2.666   3.648  10.701 -0.4305  0.0308  0.0420
   63TMC2    H2  968   2.894   3.812  11.032  0.5290  0.4975  0.1855
   63TMC2    C7  969   2.819   3.855  10.780  0.2127  0.3430  0.4323
   63TMC2    C8  970   2.796   3.674  11.211  0.0751  0.2191 -0.5140
   63TMC2    O1  971   2.743   3.882  10.684  0.2362 -0.3451  0.0722
   63TMC2    O2  972   2.910   3.689  11.254  0.0625  0.2148  0.6789
   63TMC2    O5  973   2.686   3.646  11.280 -0.5259  0.3867 -0.2844
   63TMC2    H5  974   2.605   3.621  11.230 -1.2031  2.7115 -0.3395
   64MPD2     C  975   2.320   3.147  10.506 -0.2103  0.1583 -0.6460
   64MPD2    C1  976   2.454   3.164  10.490  0.1139  0.5441 -0.1531
   64MPD2    C2  977   2.533   3.254  10.559  0.0405  0.1554  0.3753
   64MPD2    C3  978   2.473   3.331  10.658  0.1212  0.0590 -0.3379
   64MPD2    C4  979   2.340   3.317  10.680 -1.0346 -0.3367 -0.2032
   64MPD2    C5  980   2.268   3.227  10.601  0.5154 -0.2994 -0.4817
   64MPD2     H  981   2.637   3.268  10.531 -0.0485  3.5220  1.7636
   64MPD2    H1  982   2.284   3.371  10.755 -0.9336  0.1873 -0.5037
   64MPD2    H2  983   2.260   3.075  10.452 -0.1908  0.1013 -0.5916
   64MPD2    H3  984   2.161   3.213  10.600  0.7025 -1.6248 -1.1865
   64MPD2     N  985   2.563   3.414  10.733  0.3590  0.1602  0.5064
   64MPD2    H5  986   2.652   3.433  10.688 -1.4964  1.0230 -2.8100
   64MPD2    N1  987   2.532   3.071  10.420 -0.0537 -0.0337 -0.4845
   64MPD2    H7  988   2.631   3.093  10.425  0.2954 -1.3194 -1.6757
   65MPD2     C  989   3.605   3.095  16.096 -0.0340  0.8617  0.2579
   65MPD2    C1  990   3.652   3.071  15.965  0.7133 -0.4670 -0.2552
   65MPD2    C2  991   3.703   2.948  15.940  0.0029  0.0210  0.3044
   65MPD2    C3  992   3.698   2.842  16.030  0.3038  0.2043 -0.1558
   65MPD2    C4  993   3.645   2.862  16.153 -0.0858 -0.6815  0.3423
   65MPD2    C5  994   3.602   2.993  16.181 -0.8317 -0.1836 -0.5308
   65MPD2     H  995   3.739   2.939  15.838  0.0661  0.5855  0.2788
   65MPD2    H1  996   3.651   2.785  16.229  0.7475 -0.7799  0.1851
   65MPD2    H2  997   3.573   3.191  16.135  0.4789  1.3499 -0.5285
   65MPD2    H3  998   3.574   3.020  16.283 -0.5040 -2.3916  0.1573
   65MPD2     N  999   3.734   2.711  15.990  0.2145 -0.0154  0.1015
   65MPD2    H5 1000   3.711   2.639  16.058  2.6691  0.1920  1.1584
   65MPD2    N1 1001   3.663   3.162  15.860  0.3158  0.1810 -0.2248
   65MPD2    H7 1002   3.711   3.132  15.775  1.4973 -0.7384  0.7660
   66TCq2    C1 1003   3.622   3.290  15.872  1.0795 -0.5588  0.4419
   66TCq2    O2 1004   3.561   3.337  15.967 -0.4098  0.3840 -0.4930
   66TCq2    C2 1005   3.674   3.378  15.768 -0.5646 -0.2243 -0.1945
   66TCq2    C3 1006   3.754   3.322  15.675 -0.2900 -0.6704 -0.1754
   66TCq2    C4 1007   3.793   3.405  15.572  0.5843 -0.7705  0.1040
   66TCq2    C5 1008   3.750   3.534  15.563 -1.0106  0.1239  0.1667
   66TCq2    C6 1009   3.670   3.593  15.661 -0.8010 -0.2484  0.9471
   66TCq2    C7 1010   3.628   3.511  15.755  1.1010 -0.2582 -0.1308
   66TCq2    C8 1011   3.597   3.711  15.621 -0.3002 -0.2019  0.7471
   66TCq2    O4 1012   3.606   3.738  15.499 -0.3549 -0.1863  0.0418
   66TCq2    C9 1013   3.890   3.359  15.472  0.2617 -0.3126 -0.7199
   66TCq2    O5 1014   3.958   3.441  15.412  0.2090  0.1802  0.0501
   66TCq2    O6 1015   3.914   3.234  15.475  0.2941 -0.6061 -0.4231
   66TCq2    H2 1016   3.802   3.224  15.676  0.5819 -0.2492 -2.6228
   66TCq2    H3 1017   3.791   3.601  15.488  2.0817 -0.2291  1.5209
   66TCq2    H4 1018   3.558   3.540  15.832 -0.6100  0.2075 -1.8760
   67MPD2     C 1019   3.703   2.573  14.285 -0.1422  0.4028  0.5851
   67MPD2    C1 1020   3.634   2.668  14.358 -0.1150  0.0773  0.1760
   67MPD2    C2 1021   3.509   2.707  14.324 -0.2960  0.2843  0.4510
   67MPD2    C3 1022   3.449   2.645  14.214 -0.0909  0.5196 -0.0759
   67MPD2    C4 1023   3.518   2.560  14.129  0.3087 -0.1047 -0.0171
   67MPD2    C5 1024   3.641   2.519  14.176 -0.0780 -0.4612 -0.3524
   67MPD2     H 1025   3.456   2.765  14.398  1.8535  0.9709  1.4426
   67MPD2    H1 1026   3.483   2.509  14.040  3.5798 -2.6393  0.1815
   67MPD2    H2 1027   3.807   2.557  14.312  0.2610 -1.5265 -2.1249
   67MPD2    H3 1028   3.691   2.455  14.104  1.8526  0.8987 -0.2347
   67MPD2     N 1029   3.318   2.680  14.178  0.6121 -0.2757  0.7302
   67MPD2    H5 1030   3.283   2.643  14.090 -0.5688  0.6545  0.8140
   67MPD2    N1 1031   3.685   2.726  14.476 -0.2200  0.6773  0.2060
   67MPD2    H7 1032   3.630   2.794  14.529 -2.6293  0.2178 -1.7567
   68TCq2    C1 1033   3.804   2.689  14.540 -0.2199  0.6937 -0.3566
   68TCq2    O2 1034   3.897   2.622  14.499 -0.3310 -0.5222 -1.0392
   68TCq2    C2 1035   3.816   2.761  14.665  0.1987 -0.0302  0.3370
   68TCq2    C3 1036   3.733   2.869  14.692  0.9789 -0.1864 -0.4721
   68TCq2    C4 1037   3.744   2.926  14.817 -0.0430  0.4530 -0.8957
   68TCq2    C5 1038   3.826   2.876  14.917 -0.1335  0.9093 -0.3789
   68TCq2    C6 1039   3.914   2.775  14.882  0.1788  0.2304  1.0768
   68TCq2    C7 1040   3.909   2.720  14.759 -0.4686 -0.1688  0.7671
   68TCq2    C8 1041   4.031   2.741  14.964  0.1971 -0.3175 -0.6329
   68TCq2    O4 1042   4.133   2.703  14.903  0.5087  0.4373  0.5064
   68TCq2    C9 1043   3.670   3.054  14.831  0.2638 -0.3322  0.2560
   68TCq2    O5 1044   3.652   3.121  14.726 -0.0657 -0.1336  0.4433
   68TCq2    O6 1045   3.649   3.098  14.948 -0.2723  0.5028  0.7103
   68TCq2    H2 1046   3.662   2.916  14.625 -1.1285  0.3614  2.1404
   68TCq2    H3 1047   3.827   2.939  15.005 -2.3969  0.5410 -0.1064
   68TCq2    H4 1048   3.979   2.642  14.730 -3.4311 -2.3974 -0.4041
   69TMC2    C1 1049   1.151   4.105  12.177 -0.6191 -0.4884  0.0377
   69TMC2    C2 1050   1.023   4.101  12.123  0.4226 -0.3440 -0.5091
   69TMC2    C3 1051   1.004   4.130  11.992  0.1786 -0.7860 -0.2351
   69TMC2    C4 1052   1.261   4.143  12.102  0.6629  0.4032 -0.0873
   69TMC2    C5 1053   1.234   4.193  11.978 -0.3897  0.3876 -0.1257
   69TMC2    C6 1054   1.107   4.182  11.914 -0.2548  1.0863  0.8818
   69TMC2     C 1055   1.169   4.060  12.315 -0.2065  0.6421 -0.4571
   69TMC2     O 1056   1.073   4.004  12.364 -0.1925 -0.5089  0.2315
   69TMC2     H 1057   0.937   4.063  12.178  0.4237  1.6918  0.8970
   69TMC2    H1 1058   1.363   4.139  12.137  0.2948  0.8043  1.0374
   69TMC2    H2 1059   1.096   4.198  11.808 -0.5865 -0.7864  0.6333
   69TMC2    C7 1060   1.339   4.162  11.889  0.0628 -0.0868 -0.0448
   69TMC2    C8 1061   0.874   4.190  11.959 -0.4694  0.3142  0.0401
   69TMC2    O1 1062   1.433   4.096  11.929  0.3235 -0.0548  0.3466
   69TMC2    O2 1063   0.859   4.284  11.878 -0.5796 -0.3264 -0.0401
   69TMC2    O5 1064   0.784   4.092  11.978 -0.2623  0.2089  0.2511
   69TMC2    H5 1065   0.829   4.014  12.017  1.2517  1.1438  0.3529
   70MPD2     C 1066   1.458   4.087  12.532  0.0843 -0.1796 -0.5252
   70MPD2    C1 1067   1.338   4.030  12.486 -0.3717 -0.1045  0.2883
   70MPD2    C2 1068   1.293   3.906  12.537  0.1274  1.0873  0.6232
   70MPD2    C3 1069   1.356   3.857  12.653 -0.0256  0.3362  0.0076
   70MPD2    C4 1070   1.465   3.926  12.703  0.4145  0.0288  0.0919
   70MPD2    C5 1071   1.520   4.031  12.644  0.6638 -0.5504  0.7882
   70MPD2     H 1072   1.209   3.853  12.495  2.3370 -0.9137 -1.2991
   70MPD2    H1 1073   1.514   3.896  12.795  1.7592 -2.8760 -1.5753
   70MPD2    H2 1074   1.513   4.165  12.480  1.1921 -1.3642 -1.1207
   70MPD2    H3 1075   1.613   4.074  12.680  0.9551 -2.0196  1.7814
   70MPD2     N 1076   1.311   3.746  12.727  0.7939  0.7766  0.1714
   70MPD2    H5 1077   1.367   3.701  12.799 -0.1334  1.5639  1.3903
   70MPD2    N1 1078   1.290   4.092  12.370  0.1253 -0.1279  0.2234
   70MPD2    H7 1079   1.348   4.163  12.327 -0.7543  0.2679 -0.3185
   71TMC2    C1 1080   3.394   3.828   1.591 -0.2732 -0.0899  0.0168
   71TMC2    C2 1081   3.334   3.868   1.706 -0.0533 -0.5663 -0.5310
   71TMC2    C3 1082   3.209   3.816   1.723  0.4890 -0.7874 -0.4412
   71TMC2    C4 1083   3.340   3.737   1.501  0.1374 -0.0211 -0.3530
   71TMC2    C5 1084   3.219   3.679   1.538  0.2061 -0.0846  0.1054
   71TMC2    C6 1085   3.153   3.715   1.655 -0.6211 -0.8245  0.1843
   71TMC2     C 1086   3.514   3.895   1.543 -0.0161  0.2310 -0.5476
   71TMC2     O 1087   3.561   3.853   1.436 -0.3235  0.4726 -0.1798
   71TMC2     H 1088   3.353   3.952   1.772  2.7195 -2.2272  0.7359
   71TMC2    H1 1089   3.382   3.712   1.404 -0.2303 -0.0939 -0.4911
   71TMC2    H2 1090   3.070   3.654   1.690 -2.0868 -0.1754 -2.1456
   71TMC2    C7 1091   3.153   3.604   1.436 -0.7151  0.0485 -0.3429
   71TMC2    C8 1092   3.147   3.822   1.853  0.1845  0.2067 -0.8321
   71TMC2    O1 1093   3.222   3.548   1.350 -0.3182  0.5030  0.3394
   71TMC2    O2 1094   3.209   3.819   1.961  0.4580 -0.1067 -0.3363
   71TMC2    O5 1095   3.015   3.843   1.835  0.8141  0.4708  0.1861
   71TMC2    H5 1096   2.996   3.869   1.742  0.1242 -0.5385  0.0467
   72MPD2     C 1097   3.912   4.221   1.579  0.5597  0.3507 -0.2388
   72MPD2    C1 1098   3.850   4.164   1.473  0.5060 -0.1097 -0.3711
   72MPD2    C2 1099   3.746   4.079   1.477 -0.3108 -0.2131 -1.2759
   72MPD2    C3 1100   3.687   4.053   1.608  0.2389  0.5766  0.2643
   72MPD2    C4 1101   3.746   4.125   1.714  0.6308 -0.1844  0.1825
   72MPD2    C5 1102   3.854   4.214   1.701  0.0606 -0.3607 -0.0224
   72MPD2     H 1103   3.709   4.026   1.390  0.3404  1.7273 -2.7193
   72MPD2    H1 1104   3.709   4.095   1.812  2.2925 -4.8649 -0.6744
   72MPD2    H2 1105   4.003   4.277   1.562  1.3381  0.2393  3.5505
   72MPD2    H3 1106   3.906   4.259   1.784 -1.9367  0.7266  0.6358
   72MPD2     N 1107   3.575   3.967   1.641  0.1051  0.5451 -0.6545
   72MPD2    H5 1108   3.540   3.955   1.735 -0.6789  2.1078 -0.7501
   72MPD2    N1 1109   3.903   4.189   1.342  0.3021  0.5311  0.7587
   72MPD2    H7 1110   3.844   4.145   1.272  2.0354 -1.5318  0.6271
   73TMC2    C1 1111   2.830   1.139  14.475  0.0241 -0.2102  0.1202
   73TMC2    C2 1112   2.852   1.202  14.598  0.4190 -0.0842 -0.0286
   73TMC2    C3 1113   2.931   1.147  14.695  0.4935  0.0940  0.4980
   73TMC2    C4 1114   2.880   1.013  14.463 -0.8725 -0.0436 -0.0178
   73TMC2    C5 1115   2.961   0.961  14.554 -0.3048  1.6127 -0.1666
   73TMC2    C6 1116   2.982   1.020  14.674 -0.0641 -0.4280 -0.1954
   73TMC2     C 1117   2.854   1.215  14.354  0.8913  0.1059  0.4336
   73TMC2     O 1118   2.915   1.161  14.262 -0.4442 -0.1245 -0.0321
   73TMC2     H 1119   2.820   1.305  14.614  2.1308  0.1203  2.0423
   73TMC2    H1 1120   2.872   0.963  14.367  2.0877 -0.3280 -0.1258
   73TMC2    H2 1121   3.055   0.970  14.737  1.2479 -0.1983 -1.5483
   73TMC2    C7 1122   3.086   0.909  14.494  0.7226  0.1947  0.4576
   73TMC2    C8 1123   2.958   1.223  14.811  0.6988  0.0613  0.0992
   73TMC2    O1 1124   3.155   0.836  14.565 -0.7164 -0.2671 -0.1973
   73TMC2    O2 1125   2.893   1.328  14.827  0.6502 -0.7927 -0.1190
   73TMC2    O5 1126   3.091   1.213  14.840 -0.3083 -0.3386 -0.3359
   73TMC2    H5 1127   3.139   1.130  14.819 -0.4984 -1.1258  2.3005
   74MPD2     C 1128   2.893   1.680  14.141 -0.2652  0.2273 -1.1236
   74MPD2    C1 1129   2.963   1.560  14.127  0.0020 -0.2268 -0.1294
   74MPD2    C2 1130   2.941   1.448  14.208 -0.2800 -0.0494  0.5296
   74MPD2    C3 1131   2.836   1.452  14.289  0.4863 -0.2992 -0.2591
   74MPD2    C4 1132   2.766   1.566  14.310  0.2355 -0.3140  0.0321
   74MPD2    C5 1133   2.792   1.677  14.235  0.1112 -0.0968 -0.1360
   74MPD2     H 1134   3.008   1.364  14.193  0.4149  0.6308 -0.2086
   74MPD2    H1 1135   2.691   1.583  14.388  0.4975 -1.7611  0.5976
   74MPD2    H2 1136   2.924   1.772  14.093  2.4584 -0.0235  0.0902
   74MPD2    H3 1137   2.734   1.767  14.251  0.6081  0.4904 -1.6285
   74MPD2     N 1138   2.799   1.340  14.365  0.0858 -0.9251  0.1798
   74MPD2    H5 1139   2.736   1.368  14.439 -1.1963 -0.0744 -1.2458
   74MPD2    N1 1140   3.060   1.536  14.029 -0.3342 -0.0621 -0.0743
   74MPD2    H7 1141   3.104   1.445  14.032  1.4059  0.8237  1.0302
   75TCq2    C1 1142   3.223   2.721  14.265 -0.3655 -1.0561 -0.5987
   75TCq2    O2 1143   3.222   2.708  14.387 -0.4454  0.0948 -0.2360
   75TCq2    C2 1144   3.088   2.737  14.199  1.2076  0.3929  0.3446
   75TCq2    C3 1145   2.987   2.723  14.293  0.0175  0.1164 -0.8093
   75TCq2    C4 1146   2.858   2.712  14.244  0.5002 -0.4808 -0.3923
   75TCq2    C5 1147   2.836   2.720  14.110  0.2270 -0.4617  1.1048
   75TCq2    C6 1148   2.932   2.745  14.018 -0.0806  0.4581  0.3479
   75TCq2    C7 1149   3.064   2.762  14.061  0.1128 -0.4147 -0.3679
   75TCq2    C8 1150   2.893   2.800  13.887  0.8387 -0.0476 -0.2465
   75TCq2    O4 1151   2.801   2.749  13.827  0.0041  0.3988 -0.0371
   75TCq2    C9 1152   2.746   2.690  14.330 -0.2705 -0.2891 -0.2156
   75TCq2    O5 1153   2.644   2.639  14.286  0.2636  0.3088 -0.4081
   75TCq2    O6 1154   2.767   2.711  14.454 -0.2813 -0.2886 -0.2439
   75TCq2    H2 1155   3.000   2.714  14.401 -3.1687 -1.3179 -0.5208
   75TCq2    H3 1156   2.732   2.717  14.081  0.7744  2.1547 -1.1056
   75TCq2    H4 1157   3.143   2.780  13.989  1.7266  1.7262  1.9487
   76MPD2     C 1158   2.131   3.356  11.938  0.3152  0.3226  0.4016
   76MPD2    C1 1159   2.133   3.340  11.797  0.2307  0.3027 -0.1748
   76MPD2    C2 1160   2.221   3.253  11.735 -0.0059  0.7129 -0.5497
   76MPD2    C3 1161   2.319   3.190  11.806  0.0287 -0.5542  0.8528
   76MPD2    C4 1162   2.310   3.195  11.945 -0.4014  0.4780 -0.0281
   76MPD2    C5 1163   2.219   3.279  12.008  0.3606  0.0406  0.2565
   76MPD2     H 1164   2.219   3.234  11.628  0.1382 -2.4667 -0.0024
   76MPD2    H1 1165   2.379   3.134  12.001 -2.4199 -0.8199  1.0634
   76MPD2    H2 1166   2.077   3.440  11.980  0.2513  0.6387 -0.3039
   76MPD2    H3 1167   2.212   3.287  12.116  4.5655  0.4084  0.5237
   76MPD2     N 1168   2.418   3.101  11.748  0.0497 -0.2840  0.2659
   76MPD2    H5 1169   2.468   3.043  11.814 -1.2938 -0.5460  1.0563
   76MPD2    N1 1170   2.044   3.401  11.711  0.0571  0.5285 -0.0871
   76MPD2    H7 1171   2.051   3.393  11.610 -1.1257 -4.0761  0.2158
   77TCq2    C1 1172   2.429   3.079  11.613  0.3697  0.0881  0.4564
   77TCq2    O2 1173   2.383   3.143  11.522  0.1958  0.3634  0.1447
   77TCq2    C2 1174   2.497   2.957  11.580 -0.4231  0.3214 -0.0627
   77TCq2    C3 1175   2.555   2.942  11.455 -0.3207  0.2786 -0.3253
   77TCq2    C4 1176   2.634   2.840  11.429  0.2990  0.3467 -0.1365
   77TCq2    C5 1177   2.642   2.731  11.516 -0.6879  0.1404  0.2794
   77TCq2    C6 1178   2.577   2.744  11.637 -0.5211 -0.3992 -0.2040
   77TCq2    C7 1179   2.508   2.852  11.671 -0.2414  0.6416 -0.0780
   77TCq2    C8 1180   2.577   2.618  11.721 -0.3204  0.3060  0.7400
   77TCq2    O4 1181   2.591   2.514  11.666  0.1812 -0.2083  0.5696
   77TCq2    C9 1182   2.697   2.833  11.295  0.6426  0.1380  0.0885
   77TCq2    O5 1183   2.751   2.728  11.262  0.2947 -0.3176  0.0477
   77TCq2    O6 1184   2.700   2.944  11.228  0.3388  0.4122 -0.6090
   77TCq2    H2 1185   2.560   3.034  11.396  1.3600  0.6381  0.3963
   77TCq2    H3 1186   2.705   2.644  11.503  0.6619  1.7210 -3.8442
   77TCq2    H4 1187   2.442   2.848  11.757 -0.7922  0.2872 -0.5220
   78MPD1     C 1188   1.708   2.990   1.421  1.0679  0.1811 -0.0424
   78MPD1    C1 1189   1.794   3.088   1.375 -0.5200  0.1693  0.6017
   78MPD1    C2 1190   1.924   3.050   1.354  0.0870 -0.0305  0.0774
   78MPD1    C3 1191   1.972   2.931   1.394 -0.6754 -0.4734  0.7823
   78MPD1    C4 1192   1.888   2.838   1.448 -0.0712  0.1176 -0.1494
   78MPD1    C5 1193   1.750   2.863   1.454 -0.8780 -0.0653 -0.4814
   78MPD1     H 1194   1.979   3.118   1.289  0.4347  2.1873  2.7014
   78MPD1    H1 1195   1.926   2.744   1.484  0.2133  0.9236  1.6485
   78MPD1    H2 1196   1.610   3.024   1.453 -0.5146 -2.6703 -1.9013
   78MPD1    H3 1197   1.691   2.777   1.483  1.3053 -2.5321 -3.3158
   78MPD1     N 1198   2.110   2.899   1.381 -0.0255  0.1315  0.7084
   78MPD1    H5 1199   2.139   2.810   1.419 -2.3240 -0.7399  0.4432
   78MPD1    N1 1200   1.752   3.212   1.335 -0.2786  0.1291  0.8687
   78MPD1    H6 1201   1.705   3.245   1.419 -1.7217  0.6639 -0.1639
   78MPD1    H7 1202   1.826   3.282   1.326  0.9337 -0.8160  3.5504
   79TCq2    C1 1203   2.203   2.979   1.331  0.3405  0.3058  0.1856
   79TCq2    O2 1204   2.190   3.056   1.237  0.1477 -0.1409 -0.1771
   79TCq2    C2 1205   2.337   2.949   1.363  0.3933 -0.0696 -0.0508
   79TCq2    C3 1206   2.361   2.912   1.493  0.2753 -0.4287  0.3425
   79TCq2    C4 1207   2.488   2.898   1.543 -0.6600  0.3106 -0.5699
   79TCq2    C5 1208   2.597   2.937   1.463 -1.0109  0.0123  0.7547
   79TCq2    C6 1209   2.571   2.976   1.339 -0.0284  0.4937  0.1467
   79TCq2    C7 1210   2.438   2.997   1.285  0.3492  0.5383  0.1755
   79TCq2    C8 1211   2.685   3.014   1.261  0.5520  0.1048 -0.1569
   79TCq2    O4 1212   2.795   3.007   1.312 -0.1443  0.1610  0.9734
   79TCq2    C9 1213   2.509   2.849   1.681 -0.2628 -0.3780 -0.6887
   79TCq2    O5 1214   2.408   2.809   1.744 -0.1240 -0.4001  0.3036
   79TCq2    O6 1215   2.623   2.874   1.734 -0.4608  0.3583  0.4952
   79TCq2    H2 1216   2.281   2.896   1.564 -0.2715 -0.6968 -0.3325
   79TCq2    H3 1217   2.696   2.926   1.505 -0.2457  1.6108 -0.6626
   79TCq2    H4 1218   2.419   3.019   1.180  0.7953 -2.4299 -0.5404
   80MPD2     C 1219   1.448   2.856  12.291  0.3745 -0.4595 -0.2322
   80MPD2    C1 1220   1.410   2.898  12.167 -0.3784 -0.4000  0.1911
   80MPD2    C2 1221   1.285   2.958  12.159  0.4497 -0.1295  0.5004
   80MPD2    C3 1222   1.199   2.991  12.267  0.1412 -1.1847  0.5401
   80MPD2    C4 1223   1.236   2.940  12.387 -0.3914 -0.0970 -1.0392
   80MPD2    C5 1224   1.362   2.876  12.399  0.0541 -0.6230 -0.4835
   80MPD2     H 1225   1.260   2.995  12.060  0.3552  0.6970  0.8303
   80MPD2    H1 1226   1.190   2.959  12.483 -0.2372 -0.1947 -0.9455
   80MPD2    H2 1227   1.538   2.799  12.310  0.8736  0.3843 -0.1050
   80MPD2    H3 1228   1.388   2.844  12.499 -0.3692 -0.0390 -0.1859
   80MPD2     N 1229   1.072   3.067  12.260 -0.0294  0.8037 -0.4472
   80MPD2    H5 1230   1.017   3.077  12.344  0.6586 -0.3828  0.1527
   80MPD2    N1 1231   1.485   2.867  12.053 -0.2730 -0.7590  0.1402
   80MPD2    H7 1232   1.450   2.896  11.962 -2.6156 -1.2835  0.8569
   81TCq2    C1 1233   1.601   2.797  12.054  0.0189 -0.4927  0.7990
   81TCq2    O2 1234   1.688   2.779  12.143  0.1667 -0.7309 -0.2993
   81TCq2    C2 1235   1.616   2.732  11.926  0.4192  0.3546  0.3015
   81TCq2    C3 1236   1.732   2.727  11.866 -0.6275 -0.2039  0.7874
   81TCq2    C4 1237   1.736   2.672  11.742  0.4866  0.0163  0.1509
   81TCq2    C5 1238   1.639   2.599  11.683  0.1899 -0.1040 -0.2868
   81TCq2    C6 1239   1.517   2.604  11.755 -0.9220  0.8782  0.5621
   81TCq2    C7 1240   1.502   2.669  11.879 -0.0699  0.0119 -0.3589
   81TCq2    C8 1241   1.404   2.521  11.718 -0.1575  0.1631  0.6755
   81TCq2    O4 1242   1.370   2.528  11.599  0.3902  0.0855  0.3780
   81TCq2    C9 1243   1.865   2.669  11.674  0.0150  0.0736  0.7932
   81TCq2    O5 1244   1.958   2.746  11.714  0.2448 -0.7761 -0.1547
   81TCq2    O6 1245   1.868   2.599  11.566 -0.1875 -0.0084 -0.6026
   81TCq2    H2 1246   1.812   2.793  11.895 -1.1511  0.7522  0.0675
   81TCq2    H3 1247   1.643   2.556  11.584  3.0352  0.5897 -0.4729
   81TCq2    H4 1248   1.408   2.684  11.931  0.2785  1.3842 -0.1300
   82MPD2     C 1249   4.281   2.480  11.428 -0.0589 -0.4590  0.6968
   82MPD2    C1 1250   4.269   2.420  11.300  0.3181  0.0019  0.3704
   82MPD2    C2 1251   4.330   2.300  11.282 -0.2682  0.5786 -0.2057
   82MPD2    C3 1252   4.398   2.232  11.385 -0.4508 -0.1962  0.1457
   82MPD2    C4 1253   4.400   2.290  11.509  0.1517 -0.9309  0.1744
   82MPD2    C5 1254   4.347   2.415  11.530  0.1533 -0.5452 -0.1550
   82MPD2     H 1255   4.323   2.241  11.191 -1.7708  0.9758 -0.3621
   82MPD2    H1 1256   4.442   2.223  11.583  1.7659 -1.8007 -1.5170
   82MPD2    H2 1257   4.240   2.576  11.457 -0.3735 -0.5410  0.5235
   82MPD2    H3 1258   4.343   2.458  11.630 -1.7737 -1.7800  0.3111
   82MPD2     N 1259   4.448   2.101  11.383 -0.1968  0.2573  0.1446
   82MPD2    H5 1260   4.489   2.062  11.467  2.2457  1.5821 -0.4246
   82MPD2    N1 1261   4.183   2.481  11.207 -0.1006 -0.0869  0.3029
   82MPD2    H7 1262   4.118   2.546  11.251 -2.2481 -1.4309 -0.8670
   83TCq2    C1 1263   4.445   2.013  11.278  0.7056  0.4078 -0.5018
   83TCq2    O2 1264   4.385   2.012  11.170 -0.0674 -0.0564 -0.1552
   83TCq2    C2 1265   4.515   1.892  11.311  0.2301  0.1937 -0.1173
   83TCq2    C3 1266   4.637   1.909  11.372  0.5851 -0.5737  0.5104
   83TCq2    C4 1267   4.693   1.808  11.454  0.0180  0.3800 -0.6495
   83TCq2    C5 1268   4.628   1.692  11.463  0.0736 -0.5501 -0.2074
   83TCq2    C6 1269   4.504   1.675  11.401  0.2595  0.3593 -0.1116
   83TCq2    C7 1270   4.443   1.781  11.331 -0.2133 -0.1514 -0.1711
   83TCq2    C8 1271   4.426   1.553  11.414 -0.4557 -0.5121  0.0712
   83TCq2    O4 1272   4.312   1.560  11.375  0.1529 -0.0994 -0.0414
   83TCq2    C9 1273   0.089   1.824  11.534 -0.1658 -0.4215 -0.2931
   83TCq2    O5 1274   0.093   1.755  11.638 -0.5291  0.6814 -0.4873
   83TCq2    O6 1275   0.166   1.922  11.508 -0.6777 -0.7500 -0.2291
   83TCq2    H2 1276   4.696   1.998  11.359 -1.2421  0.4782 -0.5094
   83TCq2    H3 1277   4.681   1.620  11.525 -0.3641 -1.5792 -1.0327
   83TCq2    H4 1278   4.357   1.772  11.266 -1.8062  0.1493  1.8978
   84TCq2    C1 1279   0.288   1.710  10.514  0.1858 -0.0316 -0.4076
   84TCq2    O2 1280   0.261   1.593  10.533 -0.5082 -0.4626  0.1068
   84TCq2    C2 1281   0.319   1.800  10.626  0.4828 -0.4431  0.0058
   84TCq2    C3 1282   0.362   1.926  10.602  0.2774 -1.0437  0.1054
   84TCq2    C4 1283   0.431   1.994  10.698 -0.1611  0.4251  0.4941
   84TCq2    C5 1284   0.461   1.933  10.820 -0.4027 -0.2875 -0.8219
   84TCq2    C6 1285   0.410   1.804  10.839 -0.0741 -0.5328  0.7910
   84TCq2    C7 1286   0.344   1.732  10.743  0.0039  0.1727 -0.2577
   84TCq2    C8 1287   0.405   1.755  10.977 -0.4346 -0.0757 -0.2120
   84TCq2    O4 1288   0.455   1.829  11.056 -0.2498 -0.1882  0.1133
   84TCq2    C9 1289   0.479   2.128  10.676  0.2189 -0.6715 -0.3529
   84TCq2    O5 1290   0.512   2.159  10.559  0.3738 -0.0022  0.8027
   84TCq2    O6 1291   0.520   2.189  10.776  0.1585  0.4371  0.5109
   84TCq2    H2 1292   0.347   1.994  10.518  0.4454  1.1818  1.8731
   84TCq2    H3 1293   0.518   1.982  10.899 -0.5835  1.4357 -1.7465
   84TCq2    H4 1294   0.300   1.635  10.760 -0.7023  0.1669 -2.1102
   85MPD2     C 1295   0.924   3.991  16.064 -0.2910 -0.3799 -1.0743
   85MPD2    C1 1296   0.980   3.922  15.961 -0.2440  0.3352  0.0316
   85MPD2    C2 1297   1.009   4.001  15.849 -0.2372 -0.0501 -0.4809
   85MPD2    C3 1298   1.016   4.149  15.853 -0.0408 -0.4244  0.1408
   85MPD2    C4 1299   0.981   4.198  15.974 -0.4217  0.5784 -0.4300
   85MPD2    C5 1300   0.920   4.128  16.066 -0.8726  0.2107 -0.2535
   85MPD2     H 1301   1.049   3.954  15.759 -1.7323 -0.6601 -0.8196
   85MPD2    H1 1302   0.980   4.305  15.993  0.5726  0.0496  2.5594
   85MPD2    H2 1303   0.867   3.943  16.143  0.8151 -0.5468 -0.3796
   85MPD2    H3 1304   0.865   4.170  16.150 -1.0926 -0.6209  0.0219
   85MPD2     N 1305   1.076   4.242  15.765 -1.0320  0.6365 -0.9890
   85MPD2    H5 1306   1.056   4.339  15.789 -0.9377 -0.2145  2.4513
   85MPD2    N1 1307   0.963   3.785  15.949 -0.1915 -0.9230 -0.0572
   85MPD2    H7 1308   0.965   3.753  15.853  0.8964 -2.2325  0.4101
   86TCq2    C1 1309   1.168   4.201  15.674 -0.2886  0.4467 -0.5177
   86TCq2    O2 1310   1.206   4.084  15.659 -0.2298  0.1369 -0.3070
   86TCq2    C2 1311   1.244   4.305  15.614 -0.2545 -0.0275 -0.2351
   86TCq2    C3 1312   1.195   4.431  15.597  0.0151 -0.3564  0.5913
   86TCq2    C4 1313   1.278   4.518  15.540  0.4230  0.4464  0.6339
   86TCq2    C5 1314   1.402   4.486  15.483 -0.1126 -0.2081  0.5863
   86TCq2    C6 1315   1.449   4.359  15.509  0.0743  0.5399  0.9569
   86TCq2    C7 1316   1.377   4.274  15.584 -0.0649 -0.1260 -0.2310
   86TCq2    C8 1317   1.573   4.314  15.447 -0.4668 -0.2784 -0.8696
   86TCq2    O4 1318   1.621   4.219  15.504  0.0329 -1.0169  0.2828
   86TCq2    C9 1319   1.239   4.654  15.544  0.3144  0.0800  0.8955
   86TCq2    O5 1320   1.324   0.016  15.505  0.4837 -0.3083 -0.0356
   86TCq2    O6 1321   1.136   4.682  15.611  0.5075  0.0144 -0.0268
   86TCq2    H2 1322   1.094   4.461  15.621 -0.1281  1.4537 -2.3570
   86TCq2    H3 1323   1.461   4.563  15.436  0.4832 -0.9781  0.0762
   86TCq2    H4 1324   1.418   4.177  15.611 -0.8546 -0.2748  0.4228
   87MPD2     C 1325   2.507   2.821   0.935 -0.4115  0.1622 -0.1386
   87MPD2    C1 1326   2.606   2.853   0.847  0.0424 -0.0886 -0.1342
   87MPD2    C2 1327   2.582   2.952   0.758 -0.1371  0.4832 -0.8553
   87MPD2    C3 1328   2.458   3.016   0.747  0.1771  0.1927  0.6204
   87MPD2    C4 1329   2.360   2.973   0.832 -0.2159 -0.0482 -0.5846
   87MPD2    C5 1330   2.384   2.874   0.924  0.5214 -0.5188  0.4473
   87MPD2     H 1331   2.662   2.988   0.695  1.8735  0.7549  1.8325
   87MPD2    H1 1332   2.265   3.026   0.835 -1.0608 -1.4079 -2.9979
   87MPD2    H2 1333   2.524   2.747   1.012 -2.8649 -0.7404 -0.4410
   87MPD2    H3 1334   2.312   2.850   1.000  1.7502  1.0636  2.1115
   87MPD2     N 1335   2.436   3.117   0.656 -0.2673  0.0712  0.3561
   87MPD2    H5 1336   2.517   3.142   0.601 -1.3223  0.1995 -1.1387
   87MPD2    N1 1337   2.728   2.785   0.869  0.0838  0.0092 -0.4620
   87MPD2    H7 1338   2.729   2.738   0.959  1.2823  1.5242  0.3161
   88TCq2    C1 1339   2.847   2.795   0.793 -0.2008  0.2986  0.2427
   88TCq2    O2 1340   2.845   2.843   0.682  1.1109  0.2753 -0.5284
   88TCq2    C2 1341   2.959   2.730   0.854  1.0417  0.1347  0.2166
   88TCq2    C3 1342   2.959   2.704   0.985  0.1876 -1.1468 -0.4123
   88TCq2    C4 1343   3.048   2.610   1.030  0.2287 -0.6745  0.0230
   88TCq2    C5 1344   3.120   2.532   0.949 -0.2303  0.2878  0.3413
   88TCq2    C6 1345   3.107   2.555   0.812 -0.0197 -0.0390 -0.8044
   88TCq2    C7 1346   3.036   2.662   0.756 -0.1561 -0.3434  0.5354
   88TCq2    C8 1347   3.200   2.488   0.721 -0.2302 -0.0997 -0.1215
   88TCq2    O4 1348   3.242   2.557   0.629 -0.7414  0.6307 -0.0806
   88TCq2    C9 1349   3.044   2.582   1.170  0.5540  0.5045  0.3663
   88TCq2    O5 1350   2.969   2.654   1.240 -0.0924  0.4094  0.0493
   88TCq2    O6 1351   3.091   2.467   1.208 -0.1626 -0.0490  0.0495
   88TCq2    H2 1352   2.888   2.756   1.049 -0.0583 -1.7462 -0.1952
   88TCq2    H3 1353   3.181   2.456   0.996 -0.7756 -1.5944 -2.0165
   88TCq2    H4 1354   3.006   2.673   0.652  2.4200  0.3979 -0.1298
   89MPD2     C 1355   4.530   0.368   1.275 -1.1929 -0.5571  0.0514
   89MPD2    C1 1356   4.459   0.488   1.248  0.3928 -0.6243  0.0979
   89MPD2    C2 1357   4.515   0.601   1.304 -0.5870 -0.0575 -0.1443
   89MPD2    C3 1358   4.633   0.601   1.381 -0.5986 -0.1632  0.1613
   89MPD2    C4 1359   4.696   0.483   1.412 -0.0568  0.3812  0.8966
   89MPD2    C5 1360   4.639   0.369   1.363 -0.5476  1.2156  0.0677
   89MPD2     H 1361   4.466   0.693   1.274 -0.6090 -0.3070 -0.8833
   89MPD2    H1 1362   0.067   0.482   1.462  0.8837 -0.6870 -0.9315
   89MPD2    H2 1363   4.508   0.271   1.231 -0.9007 -0.8669  0.5901
   89MPD2    H3 1364   4.698   0.280   1.379  0.4465  1.4620 -2.1020
   89MPD2     N 1365   4.681   0.728   1.417 -0.1051  0.7676 -0.2807
   89MPD2    H5 1366   4.623   0.804   1.381 -0.8084  1.7951  3.0461
   89MPD2    N1 1367   4.333   0.499   1.184  0.7076  0.1408 -0.0421
   89MPD2    H7 1368   4.295   0.593   1.187  0.3543 -0.0539  1.6879
   90TCq2    C1 1369   0.064   0.754   1.493 -0.1821 -0.7238 -0.1533
   90TCq2    O2 1370   0.132   0.675   1.559  0.0982  0.4393  0.2127
   90TCq2    C2 1371   0.097   0.893   1.500 -0.0676 -0.1609 -0.9505
   90TCq2    C3 1372   0.197   0.928   1.590  0.1540  0.0091 -0.0283
   90TCq2    C4 1373   0.240   1.054   1.597  0.4700  0.7700  0.1956
   90TCq2    C5 1374   0.189   1.151   1.523 -0.2220 -0.7943  0.1567
   90TCq2    C6 1375   0.097   1.114   1.428  0.0793  0.0402 -0.1831
   90TCq2    C7 1376   0.048   0.988   1.416  0.0006 -0.2235 -0.1624
   90TCq2    C8 1377   0.050   1.219   1.337  0.0042  0.1788 -0.2806
   90TCq2    O4 1378   4.659   1.243   1.324 -0.2385  0.8466  0.2170
   90TCq2    C9 1379   0.345   1.081   1.696 -0.2246  0.1319 -0.0139
   90TCq2    O5 1380   0.400   0.986   1.758  0.4027  0.8642  0.3019
   90TCq2    O6 1381   0.403   1.189   1.672 -0.6866 -0.4050 -0.0447
   90TCq2    H2 1382   0.236   0.855   1.660  2.8867  1.3143 -0.1972
   90TCq2    H3 1383   0.209   1.256   1.545 -1.3737 -0.4126 -0.6022
   90TCq2    H4 1384   4.703   0.965   1.337 -1.7865  2.4566  0.6723
   91TMC2    C1 1385   1.885   0.284  16.523 -0.0784 -0.3341 -0.4183
   91TMC2    C2 1386   1.901   0.232  16.405 -0.0922  0.0194 -0.3089
   91TMC2    C3 1387   1.791   0.238  16.321  0.8999  0.5088 -0.3807
   91TMC2    C4 1388   1.769   0.354  16.569 -0.6361 -0.5680  0.5035
   91TMC2    C5 1389   1.668   0.373  16.476 -0.2797  0.6035 -0.2925
   91TMC2    C6 1390   1.687   0.322  16.349 -0.1698  0.1654  0.0965
   91TMC2     C 1391   2.000   0.307  16.608  0.7463  0.1808  0.8653
   91TMC2     O 1392   1.978   0.302  16.725  0.5646  0.3100 -0.7019
   91TMC2     H 1393   1.994   0.182  16.383 -1.4433 -2.5734 -0.1150
   91TMC2    H1 1394   1.763   0.393  16.670  0.7121 -1.8980  1.0955
   91TMC2    H2 1395   1.608   0.342  16.278  1.3151 -0.2259 -1.6642
   91TMC2    C7 1396   1.537   0.375  16.541  0.0608 -0.5873  0.3383
   91TMC2    C8 1397   1.835   0.213  16.184  1.4679  0.0478 -0.6295
   91TMC2    O1 1398   1.532   0.373  16.662 -0.0932 -0.3061 -0.7490
   91TMC2    O2 1399   1.931   0.270  16.128 -0.5607 -0.3196  0.2785
   91TMC2    O5 1400   1.718   0.182  16.130 -0.6298  0.1302  0.1798
   91TMC2    H5 1401   1.662   0.131  16.192  1.1872 -0.8647  1.0103
   92MPD2     C 1402   2.262   0.313  16.728 -0.2289 -0.4081 -0.0434
   92MPD2    C1 1403   2.235   0.360  16.601  0.1656 -1.0081 -0.0517
   92MPD2    C2 1404   2.336   0.420  16.525 -0.1271  0.3450 -0.2959
   92MPD2    C3 1405   2.454   0.437  16.583 -0.0556  0.0752 -0.4299
   92MPD2    C4 1406   2.483   0.392  16.713 -0.4568  0.2085 -0.2266
   92MPD2    C5 1407   2.384   0.332  16.784  0.3070 -0.0692 -0.4896
   92MPD2     H 1408   2.319   0.458  16.425 -0.8500  1.0565  0.0947
   92MPD2    H1 1409   2.572   0.392  16.776 -0.2076  3.1462 -0.5673
   92MPD2    H2 1410   2.191   0.258  16.790 -1.8840  0.5073 -1.1333
   92MPD2    H3 1411   2.405   0.279  16.877 -3.0667 -0.5918 -0.0219
   92MPD2     N 1412   2.554   0.486  16.493 -0.4249  0.2136 -0.5499
   92MPD2    H5 1413   2.522   0.498  16.397  1.0910 -0.0668 -1.0806
   92MPD2    N1 1414   2.109   0.351  16.543 -0.0066 -0.0383  0.5992
   92MPD2    H7 1415   2.091   0.381  16.448  4.0235 -0.5652 -0.3473
   93MPD2     C 1416   3.163   0.329  13.314 -0.5415 -0.3047 -0.5221
   93MPD2    C1 1417   3.138   0.466  13.337  0.3123 -0.0505 -0.5558
   93MPD2    C2 1418   3.012   0.513  13.357  0.0503  0.2282 -0.6298
   93MPD2    C3 1419   2.907   0.422  13.371 -0.7364  0.1249  0.1842
   93MPD2    C4 1420   2.927   0.293  13.334  1.0219  0.3367  0.2211
   93MPD2    C5 1421   3.054   0.247  13.318 -0.3026  0.5015  0.1004
   93MPD2     H 1422   3.003   0.611  13.404 -1.5901 -0.7823  1.1468
   93MPD2    H1 1423   2.841   0.227  13.338  0.7004  0.7229 -0.3599
   93MPD2    H2 1424   3.260   0.292  13.284  0.4435  0.2843  1.9634
   93MPD2    H3 1425   3.077   0.142  13.305 -3.6485 -0.4429  1.7049
   93MPD2     N 1426   2.777   0.478  13.410 -0.5264 -0.3763 -0.5945
   93MPD2    H5 1427   2.707   0.410  13.436  0.0195 -0.1252  1.5439
   93MPD2    N1 1428   3.238   0.563  13.359 -0.5755  0.1903  0.4618
   93MPD2    H7 1429   3.212   0.661  13.359 -1.9035 -0.1552  0.6141
   94TCq2    C1 1430   3.369   0.529  13.381  0.6200 -0.4143  0.0918
   94TCq2    O2 1431   3.426   0.423  13.389 -0.1445 -0.9349  0.0582
   94TCq2    C2 1432   3.456   0.650  13.396 -0.6776  0.0537  0.2926
   94TCq2    C3 1433   3.413   0.765  13.343 -0.4918  0.4065  0.5958
   94TCq2    C4 1434   3.452   0.878  13.415 -0.5599 -0.2261  0.1817
   94TCq2    C5 1435   3.542   0.876  13.518 -0.1371 -0.2864  0.2112
   94TCq2    C6 1436   3.593   0.754  13.560  0.3172  0.3057 -0.6015
   94TCq2    C7 1437   3.546   0.636  13.496  0.1201 -0.4773 -0.3860
   94TCq2    C8 1438   3.687   0.742  13.673 -0.4955 -0.1813  0.4494
   94TCq2    O4 1439   3.769   0.649  13.679 -0.0370 -0.7314  0.1928
   94TCq2    C9 1440   3.408   1.008  13.361  0.3112  0.1552 -0.1258
   94TCq2    O5 1441   3.325   1.008  13.270 -0.3242 -0.1563 -1.1358
   94TCq2    O6 1442   3.451   1.111  13.424 -0.0908 -0.0774 -0.9754
   94TCq2    H2 1443   3.346   0.768  13.257 -2.0401  1.3301  1.8313
   94TCq2    H3 1444   3.571   0.969  13.565  3.9808 -0.8662 -1.2505
   94TCq2    H4 1445   3.564   0.536  13.535  1.3799  0.2969  1.0294
   95TMC2    C1 1446   2.999   2.330  16.254 -0.1423 -0.0871  1.2934
   95TMC2    C2 1447   2.939   2.256  16.358 -0.9046  0.0444  0.2696
   95TMC2    C3 1448   2.808   2.290  16.383 -0.0478 -0.3996 -0.5528
   95TMC2    C4 1449   2.937   2.430  16.184  0.3022  0.4530 -0.0076
   95TMC2    C5 1450   2.811   2.469  16.228  0.5368  0.1224  0.4016
   95TMC2    C6 1451   2.741   2.397  16.326  0.0404  0.5032 -0.4332
   95TMC2     C 1452   3.121   2.291  16.198 -0.1570 -0.1983 -0.2307
   95TMC2     O 1453   3.143   2.332  16.084 -0.4824  0.2404 -0.4408
   95TMC2     H 1454   2.988   2.175  16.410  1.3245  1.9282  1.0757
   95TMC2    H1 1455   2.997   2.506  16.136  1.9637 -1.4025 -0.8684
   95TMC2    H2 1456   2.641   2.432  16.349 -1.3345 -1.5554 -3.3227
   95TMC2    C7 1457   2.738   2.553  16.140  0.0333  0.7694  0.1852
   95TMC2    C8 1458   2.749   2.241  16.509 -0.8026 -0.0599 -0.0678
   95TMC2    O1 1459   2.624   2.583  16.184 -0.2944  0.1867 -0.2306
   95TMC2    O2 1460   2.687   2.318  16.580  0.4184 -0.0816 -0.5579
   95TMC2    O5 1461   2.770   2.107  16.520 -0.3832  0.3572  0.1492
   95TMC2    H5 1462   2.784   2.064  16.433  2.7504  1.8644 -0.0595
   96MPD2     C 1463   3.604   2.112  16.236 -0.2136 -0.3300 -0.0425
   96MPD2    C1 1464   3.549   2.201  16.144 -0.3491  0.4382  0.5764
   96MPD2    C2 1465   3.418   2.239  16.147 -0.0854  0.8053 -0.0101
   96MPD2    C3 1466   3.341   2.194  16.260  0.3273 -1.0354 -0.6052
   96MPD2    C4 1467   3.408   2.121  16.354 -0.0412  0.3825  0.0948
   96MPD2    C5 1468   3.535   2.079  16.346  0.3651 -0.2712  0.2091
   96MPD2     H 1469   3.371   2.300  16.072  0.6442 -0.0528 -1.1570
   96MPD2    H1 1470   3.355   2.089  16.443  0.2102  0.4904  0.2862
   96MPD2    H2 1471   3.705   2.080  16.217  0.0397 -0.2121  1.1314
   96MPD2    H3 1472   3.587   2.020  16.420  2.1595 -0.5782 -1.3085
   96MPD2     N 1473   3.206   2.231  16.292  0.5903 -0.3360  0.3099
   96MPD2    H5 1474   3.182   2.226  16.390  2.7482 -1.4674  0.7576
   96MPD2    N1 1475   3.632   2.241  16.039  0.0682  0.3640  0.2099
   96MPD2    H7 1476   3.727   2.207  16.050  0.0056  0.8015  2.1376
   97MPD2     C 1477   0.219   3.990   0.727 -0.1759 -0.1450  0.0769
   97MPD2    C1 1478   0.171   4.115   0.687  0.7790 -0.2551 -0.4782
   97MPD2    C2 1479   0.206   4.161   0.561  0.2787  0.1047  0.0909
   97MPD2    C3 1480   0.293   4.091   0.485  0.3402  0.4793 -0.4706
   97MPD2    C4 1481   0.354   3.977   0.534 -0.3299 -0.2560  0.4686
   97MPD2    C5 1482   0.307   3.921   0.652 -0.0674  0.9809 -0.2551
   97MPD2     H 1483   0.162   4.252   0.522  1.7364  1.0660  0.7202
   97MPD2    H1 1484   0.439   3.935   0.481  0.6389  0.5112  1.4189
   97MPD2    H2 1485   0.201   3.948   0.825 -0.5236 -0.7452 -0.2494
   97MPD2    H3 1486   0.351   3.826   0.680 -0.0581  1.0590 -0.0115
   97MPD2     N 1487   0.325   4.125   0.354  0.2135  0.3582 -0.3030
   97MPD2    H5 1488   0.375   4.063   0.291  0.3626 -0.2815  0.4373
   97MPD2    N1 1489   0.097   4.187   0.781  0.8539  0.5626  0.0969
   97MPD2    H7 1490   0.083   4.156   0.876  2.7440 -1.1417 -0.1818
   98TCq2    C1 1491   0.315   4.256   0.307 -0.1340 -0.2477 -0.4329
   98TCq2    O2 1492   0.280   4.355   0.363 -0.7610 -0.5037  0.0017
   98TCq2    C2 1493   0.387   4.270   0.178  0.0289 -0.3399  0.7629
   98TCq2    C3 1494   0.405   4.168   0.092  0.2270 -0.6708  0.2883
   98TCq2    C4 1495   0.469   4.202  17.679  0.0585 -0.0473 -0.5831
   98TCq2    C5 1496   0.536   4.318  17.656  0.2970  0.5160 -0.9844
   98TCq2    C6 1497   0.513   4.422   0.041  0.5940  0.1698  0.3282
   98TCq2    C7 1498   0.436   4.398   0.153  0.0235  0.5659 -0.3858
   98TCq2    C8 1499   0.592   4.545   0.026 -0.3432 -0.2354 -0.0129
   98TCq2    O4 1500   0.711   4.542  17.692 -0.6321  0.0711 -0.2389
   98TCq2    C9 1501   0.484   4.089  17.586 -0.2094 -0.3228 -0.0343
   98TCq2    O5 1502   0.559   4.108  17.489  0.8581 -0.4374  0.4697
   98TCq2    O6 1503   0.433   3.980  17.617  0.8016 -0.0536 -0.1534
   98TCq2    H2 1504   0.348   4.076   0.103 -0.8269 -0.0459  0.0195
   98TCq2    H3 1505   0.594   4.315  17.565  2.1251 -1.5430  0.2246
   98TCq2    H4 1506   0.412   4.478   0.222 -0.0291  0.5590 -0.3965
   99MPD2     C 1507   4.144   2.151   1.606 -0.8517  0.2262  0.2046
   99MPD2    C1 1508   4.087   2.023   1.607  0.6733 -0.5034  0.2863
   99MPD2    C2 1509   4.109   1.937   1.501 -0.4279 -0.0126 -0.0486
   99MPD2    C3 1510   4.214   1.969   1.412  0.0957  0.3492 -0.1853
   99MPD2    C4 1511   4.283   2.092   1.417 -0.2578  0.1415  0.5526
   99MPD2    C5 1512   4.241   2.180   1.511 -0.4364 -0.0673  0.0027
   99MPD2     H 1513   4.069   1.837   1.503  0.6021 -0.4530 -1.3392
   99MPD2    H1 1514   4.360   2.118   1.346  0.5975  0.4790  1.5968
   99MPD2    H2 1515   4.124   2.224   1.683 -3.6525  1.0384 -1.3096
   99MPD2    H3 1516   4.291   2.276   1.508 -0.4829 -0.0652 -0.6870
   99MPD2     N 1517   4.258   1.871   1.319  0.6966 -0.3051 -0.1728
   99MPD2    H5 1518   4.202   1.787   1.309 -0.6831  0.6451 -0.5614
   99MPD2    N1 1519   3.992   1.983   1.702 -0.0841 -0.0928  0.0265
   99MPD2    H7 1520   3.946   1.894   1.686 -1.1550  0.8180 -1.9037
  100TCq2    C1 1521   3.954   2.062   1.808 -0.0184  0.3887  0.6511
  100TCq2    O2 1522   4.006   2.159   1.856  0.2200 -0.2370 -0.5015
  100TCq2    C2 1523   3.828   2.014   1.871  0.4561 -0.3382  0.6857
  100TCq2    C3 1524   3.781   2.079   1.982 -0.3258 -0.3167  0.1765
  100TCq2    C4 1525   3.651   2.061   2.033 -0.0391  0.4431 -0.2885
  100TCq2    C5 1526   3.569   1.967   1.974 -0.4292  0.4405  0.3726
  100TCq2    C6 1527   3.617   1.907   1.862  0.2827  0.2964  0.1832
  100TCq2    C7 1528   3.740   1.933   1.805  0.1433  0.0851 -0.8435
  100TCq2    C8 1529   3.525   1.836   1.774 -0.0661  0.3441  0.0438
  100TCq2    O4 1530   3.565   1.785   1.666 -0.0379 -0.0119 -0.2298
  100TCq2    C9 1531   3.614   2.125   2.161 -0.1952  0.9415  0.2543
  100TCq2    O5 1532   3.690   2.202   2.220  0.0044 -0.4326  0.2666
  100TCq2    O6 1533   3.497   2.094   2.199 -0.3107  0.5172  0.4173
  100TCq2    H2 1534   3.842   2.147   2.042  0.0458  1.4918 -2.2574
  100TCq2    H3 1535   3.477   1.944   2.026  0.6740 -1.2187  1.5820
  100TCq2    H4 1536   3.767   1.873   1.719 -1.4242 -0.3342 -1.0399
  101MPD2     C 1537   0.177   3.274  13.088 -0.1190 -0.1665 -0.2762
  101MPD2    C1 1538   0.067   3.341  13.144 -0.0141 -0.3488 -0.4967
  101MPD2    C2 1539   4.690   3.271  13.194 -0.1597  0.0270 -0.1007
  101MPD2    C3 1540   4.695   3.129  13.204 -0.1817 -0.2601 -0.3508
  101MPD2    C4 1541   0.089   3.068  13.173 -0.1223 -0.2311 -0.6491
  101MPD2    C5 1542   0.188   3.136  13.111 -0.1584  0.3494 -0.0681
  101MPD2     H 1543   4.596   3.319  13.220 -0.0068 -0.2171  0.9005
  101MPD2    H1 1544   0.097   2.960  13.182  0.1256 -0.0310  1.6724
  101MPD2    H2 1545   0.260   3.327  13.043 -1.3219 -0.1655 -2.5299
  101MPD2    H3 1546   0.281   3.085  13.087 -0.4226 -0.2594  0.2146
  101MPD2     N 1547   4.590   3.054  13.262 -0.4647 -0.0477 -0.3439
  101MPD2    H5 1548   4.516   3.115  13.295 -2.9737 -3.0196 -0.4849
  101MPD2    N1 1549   0.054   3.467  13.080 -0.0028 -0.1019  0.0232
  101MPD2    H7 1550   0.135   3.497  13.027 -0.8298  0.0272 -1.1744
  102TCq2    C1 1551   0.150   3.753  12.715 -0.1485  0.3873  0.2773
  102TCq2    O2 1552   0.232   3.662  12.721 -0.2232 -0.2500  0.8890
  102TCq2    C2 1553   0.071   3.772  12.832  1.1628 -0.1879 -0.0852
  102TCq2    C3 1554   0.037   3.902  12.865  0.3947  0.2184 -0.1413
  102TCq2    C4 1555   4.681   3.913  12.976  0.8358  0.3986 -0.1020
  102TCq2    C5 1556   4.646   3.805  13.055 -0.1353 -0.0022  0.9050
  102TCq2    C6 1557   4.693   3.683  13.018  0.8029 -0.1567  0.3491
  102TCq2    C7 1558   0.047   3.661  12.910  0.5829  0.2252  0.0392
  102TCq2    C8 1559   4.676   3.564  13.098  0.3550  0.7208 -0.5846
  102TCq2    O4 1560   4.586   3.572  13.180 -0.1245  0.6019  0.2893
  102TCq2    C9 1561   4.616   4.043  12.999 -0.4190 -0.0460 -0.0435
  102TCq2    O5 1562   4.522   4.041  13.085 -0.5555 -0.0680  0.4554
  102TCq2    O6 1563   4.640   4.134  12.919  0.6630 -0.2306  0.0094
  102TCq2    H2 1564   0.049   3.995  12.812 -0.0834 -0.3202 -1.2118
  102TCq2    H3 1565   4.587   3.817  13.146  0.9306  2.1546  1.2920
  102TCq2    H4 1566   0.063   3.565  12.862 -1.0144  0.1561 -0.3642
  103TMC2    C1 1567   2.822   2.681  12.457  0.0225 -0.6718 -0.0426
  103TMC2    C2 1568   2.943   2.615  12.460  0.2459 -0.8403  0.1901
  103TMC2    C3 1569   3.027   2.668  12.554 -0.2833  0.3779  0.2318
  103TMC2    C4 1570   2.791   2.786  12.542  0.5986 -0.0052 -0.9913
  103TMC2    C5 1571   2.880   2.829  12.636  0.2787  0.4706  0.1224
  103TMC2    C6 1572   2.994   2.762  12.645  0.2245  0.5645  0.1192
  103TMC2     C 1573   2.741   2.662  12.346 -0.5129 -0.2755  0.7609
  103TMC2     O 1574   2.668   2.754  12.317  0.6793  1.0085 -0.1880
  103TMC2     H 1575   2.987   2.557  12.380  0.6804 -0.8760  0.4570
  103TMC2    H1 1576   2.697   2.839  12.534  0.6185  0.4924  1.9165
  103TMC2    H2 1577   3.071   2.774  12.720  3.1748  0.0058 -2.7931
  103TMC2    C7 1578   2.837   2.901  12.755  0.6634  0.0230  0.0601
  103TMC2    C8 1579   3.151   2.601  12.566  0.7767 -0.7026 -0.4621
  103TMC2    O1 1580   2.924   2.947  12.824 -0.0794 -0.1561  0.6685
  103TMC2    O2 1581   3.176   2.482  12.539 -0.3052  0.0578  0.1992
  103TMC2    O5 1582   3.238   2.702  12.556  0.2052 -0.7569  0.2169
  103TMC2    H5 1583   3.197   2.791  12.549  1.4897 -0.1922 -0.1022
  104MPD2     C 1584   2.656   2.371  12.159 -0.6557  0.1364 -0.3192
  104MPD2    C1 1585   2.680   2.504  12.172 -0.3537 -0.0965  0.6771
  104MPD2    C2 1586   2.650   2.587  12.073 -0.0413  0.3165  0.2965
  104MPD2    C3 1587   2.591   2.549  11.957 -0.3085 -0.2927  0.5011
  104MPD2    C4 1588   2.555   2.416  11.939 -0.4023  0.1469  0.1041
  104MPD2    C5 1589   2.586   2.331  12.042 -0.0833  0.4485  0.2810
  104MPD2     H 1590   2.686   2.689  12.083  1.4355 -0.2462  0.8019
  104MPD2    H1 1591   2.501   2.375  11.855  0.6122 -0.8462 -0.0532
  104MPD2    H2 1592   2.676   2.299  12.237 -4.8233  1.7629  2.2782
  104MPD2    H3 1593   2.548   2.230  12.036  2.1742 -0.3690 -0.1213
  104MPD2     N 1594   2.583   2.645  11.856  0.1726  0.3092 -0.0730
  104MPD2    H5 1595   2.599   2.742  11.880  3.0115 -0.0086 -0.7691
  104MPD2    N1 1596   2.745   2.540  12.296  0.1397 -0.3824  0.1092
  104MPD2    H7 1597   2.783   2.463  12.350 -0.5505 -0.3000  0.7088
  105MPD2     C 1598   4.623   2.305   0.064 -0.1000 -0.1336  0.1617
  105MPD2    C1 1599   4.541   2.377  17.680  0.1269 -0.1939 -0.2873
  105MPD2    C2 1600   4.407   2.396  17.700 -0.5705  0.4820 -0.1177
  105MPD2    C3 1601   4.343   2.323   0.094 -0.1549  0.3696  0.1070
  105MPD2    C4 1602   4.422   2.242   0.175 -0.4020  0.4678 -0.1269
  105MPD2    C5 1603   4.560   2.236   0.159 -0.3009 -0.1635  0.1817
  105MPD2     H 1604   4.352   2.458  17.630 -0.4837 -0.1286 -0.7313
  105MPD2    H1 1605   4.388   2.193   0.266 -2.2144 -0.0200 -1.0467
  105MPD2    H2 1606   0.003   2.287   0.042  0.0593  1.0920 -0.0830
  105MPD2    H3 1607   4.616   2.171   0.226  0.0534 -0.6371 -0.5683
  105MPD2     N 1608   4.204   2.342   0.115 -0.3948 -0.3881 -0.5992
  105MPD2    H5 1609   4.157   2.410   0.056 -0.9100  0.1991  0.4832
  105MPD2    N1 1610   4.588   2.442  17.565  0.6310 -0.5568  0.3046
  105MPD2    H7 1611   4.514   2.475  17.503  0.1568 -0.6120  0.8474
  106TCq2    C1 1612   4.130   2.268   0.207 -1.0923  0.8998  0.1022
  106TCq2    O2 1613   4.171   2.192   0.292  0.2578 -0.2214 -0.7240
  106TCq2    C2 1614   3.999   2.321   0.222 -0.5030 -0.0974  0.4190
  106TCq2    C3 1615   3.964   2.452   0.183 -0.3089 -0.4785 -0.7978
  106TCq2    C4 1616   3.845   2.497   0.220 -0.8042  0.1377 -0.0268
  106TCq2    C5 1617   3.759   2.424   0.300 -1.0329  0.7187 -0.5906
  106TCq2    C6 1618   3.801   2.301   0.343 -0.0681 -0.4920 -0.2053
  106TCq2    C7 1619   3.924   2.249   0.310 -1.0787 -0.0344 -0.4085
  106TCq2    C8 1620   3.721   2.209   0.435 -0.0834 -0.2349  0.4237
  106TCq2    O4 1621   3.771   2.106   0.474 -0.3199  0.3783  0.1473
  106TCq2    C9 1622   3.812   2.630   0.194  0.1945 -0.3352 -0.2412
  106TCq2    O5 1623   3.900   2.697   0.134 -0.7252 -0.7342 -0.0352
  106TCq2    O6 1624   3.706   2.681   0.245  0.2678  0.0529 -0.4126
  106TCq2    H2 1625   4.028   2.518   0.125 -1.3518 -0.5904 -2.0638
  106TCq2    H3 1626   3.662   2.462   0.329 -2.2111 -1.1592 -2.0862
  106TCq2    H4 1627   3.944   2.145   0.332  1.9226  0.7431  0.4599
  107TMC2    C1 1628   0.335   1.927  11.846  0.6742 -0.4240 -0.4322
  107TMC2    C2 1629   0.387   2.032  11.780  0.0061 -0.0420 -0.4618
  107TMC2    C3 1630   0.433   2.004  11.660  0.9353 -0.5894 -0.1108
  107TMC2    C4 1631   0.331   1.799  11.794  0.0450 -0.2039 -0.7564
  107TMC2    C5 1632   0.393   1.778  11.673  0.3850  0.8715  0.1786
  107TMC2    C6 1633   0.453   1.878  11.608 -0.3650  0.3968 -0.4354
  107TMC2     C 1634   0.244   1.946  11.951 -0.4088 -0.9115  0.4706
  107TMC2     O 1635   0.237   1.855  12.031 -0.2590 -0.1781  0.3291
  107TMC2     H 1636   0.382   2.137  11.806 -0.0475 -0.4565  1.1939
  107TMC2    H1 1637   0.276   1.717  11.839 -0.4398 -0.1069 -1.1787
  107TMC2    H2 1638   0.522   1.861  11.526 -1.3366 -2.2504 -0.7023
  107TMC2    C7 1639   0.384   1.651  11.594  0.1929 -0.1830  0.5492
  107TMC2    C8 1640   0.433   2.114  11.562  0.4729 -0.4711  0.2506
  107TMC2    O1 1641   0.379   1.548  11.660 -0.3550  0.0242 -0.0689
  107TMC2    O2 1642   0.500   2.213  11.582  0.7862 -0.2779  0.3382
  107TMC2    O5 1643   0.392   2.060  11.440 -0.0825  0.8132 -0.1070
  107TMC2    H5 1644   0.312   2.004  11.452 -0.7057  1.8818  0.7256
  108MPD2     C 1645   0.090   2.267  12.048  0.3033  0.9823 -0.4687
  108MPD2    C1 1646   0.107   2.133  12.055  0.3064  0.4040 -0.2579
  108MPD2    C2 1647   0.059   2.066  12.161 -0.3051 -0.2164 -0.5086
  108MPD2    C3 1648   4.721   2.136  12.260 -0.0088  1.1424  0.0450
  108MPD2    C4 1649   4.692   2.273  12.250  0.6711 -0.4569  0.3169
  108MPD2    C5 1650   0.006   2.338  12.136  0.1132  0.3915 -0.4513
  108MPD2     H 1651   0.085   1.960  12.161 -0.4339 -0.2456 -0.8989
  108MPD2    H1 1652   4.635   2.322  12.328 -2.2757 -1.9302 -0.9331
  108MPD2    H2 1653   0.146   2.333  11.983  1.4894  2.4989  2.1026
  108MPD2    H3 1654   4.704   2.442  12.118  0.6113  0.4209 -1.0554
  108MPD2     N 1655   4.657   2.066  12.365 -0.4942  0.5588 -0.6920
  108MPD2    H5 1656   4.590   2.116  12.422 -0.9533  0.3118 -1.0072
  108MPD2    N1 1657   0.189   2.074  11.956 -0.2544 -0.4213 -0.5916
  108MPD2    H7 1658   0.219   2.128  11.876  1.5072  1.4774  1.3656
  109MPD2     C 1659   3.493   3.391   1.633 -0.3775 -0.0676  0.4478
  109MPD2    C1 1660   3.559   3.428   1.516 -0.7610  0.2959  0.6446
  109MPD2    C2 1661   3.643   3.530   1.523 -1.2938 -0.3426 -0.4278
  109MPD2    C3 1662   3.672   3.593   1.640  0.1506  0.0725  0.5115
  109MPD2    C4 1663   3.621   3.542   1.760  0.2213  0.3507 -0.0930
  109MPD2    C5 1664   3.532   3.441   1.751 -0.0078 -0.3233 -0.1949
  109MPD2     H 1665   3.672   3.584   1.434  0.2557  0.4174  0.5212
  109MPD2    H1 1666   3.653   3.561   1.862  0.5668  1.2847 -0.3759
  109MPD2    H2 1667   3.415   3.319   1.608 -0.5341  0.1598  0.2789
  109MPD2    H3 1668   3.473   3.410   1.837  0.7077 -0.1331  0.3658
  109MPD2     N 1669   3.779   3.690   1.645  1.0068  0.2784  0.1349
  109MPD2    H5 1670   3.830   3.702   1.558  2.2390 -1.5320  0.5995
  109MPD2    N1 1671   3.505   3.377   1.392 -0.5181  0.1565  0.4134
  109MPD2    H7 1672   3.424   3.315   1.387 -1.0321  0.7549  1.3927
  110TCq2    C1 1673   3.830   3.745   1.760  0.1370 -0.2091  0.1184
  110TCq2    O2 1674   3.797   3.729   1.876 -0.4179 -0.0792 -0.6402
  110TCq2    C2 1675   3.938   3.840   1.750  0.4283  0.4122 -0.2044
  110TCq2    C3 1676   4.002   3.878   1.871 -0.1644 -0.1782  0.4276
  110TCq2    C4 1677   4.116   3.953   1.855 -0.4981  0.0017 -0.3748
  110TCq2    C5 1678   4.171   3.995   1.732 -0.3061 -0.4378 -0.1260
  110TCq2    C6 1679   4.106   3.952   1.620 -0.6711  0.2962  0.4777
  110TCq2    C7 1680   3.988   3.885   1.631 -0.1143 -0.2759 -0.3599
  110TCq2    C8 1681   4.166   3.990   1.495 -0.6668 -0.1652 -0.2309
  110TCq2    O4 1682   4.270   4.058   1.503 -0.8245  0.6285  0.0346
  110TCq2    C9 1683   4.181   4.001   1.975  0.2567 -0.4499  0.6453
  110TCq2    O5 1684   4.286   4.068   1.952  0.3764  0.2887  0.2847
  110TCq2    O6 1685   4.118   3.990   2.080 -0.1145 -0.6041 -0.9116
  110TCq2    H2 1686   3.967   3.844   1.967 -1.2243 -1.1558 -0.3064
  110TCq2    H3 1687   4.266   4.047   1.733 -0.9428  0.7368 -1.1377
  110TCq2    H4 1688   3.931   3.847   1.547  0.5745 -0.1614 -0.8700
  111TMC2    C1 1689   0.905   4.296  11.350 -0.5200  0.0497 -0.3078
  111TMC2    C2 1690   1.018   4.321  11.280 -0.1041 -0.3333  0.5812
  111TMC2    C3 1691   1.131   4.250  11.308  0.7576  0.3450 -0.1436
  111TMC2    C4 1692   0.903   4.183  11.429 -0.4199  0.2763 -0.5293
  111TMC2    C5 1693   1.014   4.099  11.444 -0.5744  0.4640  0.3984
  111TMC2    C6 1694   1.127   4.133  11.386  0.1128  0.2339  0.2072
  111TMC2     C 1695   0.782   4.335  11.283 -0.7559  0.5652 -0.3920
  111TMC2     O 1696   0.786   4.357  11.163  0.3442  0.3633 -0.3125
  111TMC2     H 1697   1.012   4.404  11.211 -0.5533 -0.1323  0.8623
  111TMC2    H1 1698   0.809   4.147  11.469  0.4865 -0.2808  1.0857
  111TMC2    H2 1699   1.224   4.097  11.420  0.3616  0.6636 -0.0424
  111TMC2    C7 1700   1.027   4.025  11.567 -0.3692 -0.0167 -0.0157
  111TMC2    C8 1701   1.241   4.273  11.220  0.3194 -0.2473 -0.2999
  111TMC2    O1 1702   0.933   4.043  11.643  0.0459 -0.1485 -0.1451
  111TMC2    O2 1703   1.263   4.387  11.175  0.4139 -0.0852 -0.4146
  111TMC2    O5 1704   1.253   4.154  11.155  0.1140  0.2844  0.6645
  111TMC2    H5 1705   1.203   4.078  11.192  1.5061 -0.9625  0.0001
  112MPD2     C 1706   0.282   4.457  11.317 -0.1068  0.2153 -0.5918
  112MPD2    C1 1707   0.361   4.444  11.203 -0.8124  0.1052  0.8286
  112MPD2    C2 1708   0.498   4.418  11.217 -1.1914  1.0938 -0.5538
  112MPD2    C3 1709   0.553   4.411  11.344 -0.1358 -0.0806  0.9560
  112MPD2    C4 1710   0.481   4.432  11.455  0.0698  0.3193  0.1807
  112MPD2    C5 1711   0.344   4.454  11.439  0.1679  0.7035 -0.4897
  112MPD2     H 1712   0.556   4.399  11.128 -2.2867  1.2799 -1.2994
  112MPD2    H1 1713   0.534   4.441  11.549  0.4981 -0.7010  0.0407
  112MPD2    H2 1714   0.175   4.474  11.321  0.0499  0.6586  1.9350
  112MPD2    H3 1715   0.281   4.486  11.521  0.0799  2.9113 -1.4306
  112MPD2     N 1716   0.686   4.372  11.376 -0.0182  0.6525  0.1374
  112MPD2    H5 1717   0.709   4.353  11.473 -0.7066  0.7684  0.3256
  112MPD2    N1 1718   0.312   4.454  11.072 -0.5947 -0.0332  0.5107
  112MPD2    H7 1719   0.381   4.463  10.998 -1.3180  0.1207 -0.1444
  113MPD2     C 1720   2.932   1.954   0.704  0.1225  0.6899 -0.1345
  113MPD2    C1 1721   2.800   1.990   0.724 -0.8527 -0.2834 -0.3997
  113MPD2    C2 1722   2.702   1.896   0.687 -0.1835  0.2373  1.7109
  113MPD2    C3 1723   2.735   1.770   0.633  0.2357  0.6162  0.7104
  113MPD2    C4 1724   2.869   1.741   0.617  0.2871  0.5206  0.5998
  113MPD2    C5 1725   2.963   1.831   0.650 -0.3078 -0.5596  0.0119
  113MPD2     H 1726   2.597   1.918   0.694 -0.6701 -1.3807 -0.4565
  113MPD2    H1 1727   2.900   1.642   0.587 -0.6094  0.2805  0.4536
  113MPD2    H2 1728   3.019   2.015   0.727  0.1778 -0.0707  1.6638
  113MPD2    H3 1729   3.069   1.814   0.639 -0.2173 -0.1085  0.1654
  113MPD2     N 1730   2.646   1.673   0.585 -0.0160 -0.7841  0.5386
  113MPD2    H5 1731   2.682   1.582   0.559  1.5071 -0.2324  0.7394
  113MPD2    N1 1732   2.756   2.119   0.765 -0.1863  0.4569  0.5530
  113MPD2    H7 1733   2.660   2.147   0.783  0.1312  2.4905 -0.9463
  114TCq2    C1 1734   2.507   1.687   0.585 -0.0169 -0.3748  0.7443
  114TCq2    O2 1735   2.443   1.786   0.610  0.1348 -1.0254  0.2877
  114TCq2    C2 1736   2.454   1.583   0.501 -0.5067 -0.9633 -0.1617
  114TCq2    C3 1737   2.369   1.621   0.413 -0.3558  0.6439  0.6289
  114TCq2    C4 1738   2.341   1.539   0.307  0.5047  0.3611 -0.3154
  114TCq2    C5 1739   2.378   1.407   0.312 -1.1504 -0.0817 -0.5390
  114TCq2    C6 1740   2.457   1.368   0.423 -0.3707 -0.3517  0.1937
  114TCq2    C7 1741   2.506   1.460   0.510 -0.2399  0.2033  0.5994
  114TCq2    C8 1742   2.526   1.241   0.413 -0.4967 -0.8540 -0.2906
  114TCq2    O4 1743   2.562   1.194   0.307  0.1101  0.4867 -0.0491
  114TCq2    C9 1744   2.257   1.589   0.195 -0.6324 -0.6456  0.6687
  114TCq2    O5 1745   2.201   1.699   0.210 -0.4172  0.3123 -0.3660
  114TCq2    O6 1746   2.262   1.511   0.093  0.0573  0.2563 -0.5133
  114TCq2    H2 1747   2.332   1.723   0.406 -0.4520  0.7989  3.3607
  114TCq2    H3 1748   2.336   1.337   0.240 -0.2255 -2.1497  0.9309
  114TCq2    H4 1749   2.570   1.432   0.593  0.0357 -0.1490  0.2690
  115TMC2    C1 1750   3.604   4.324  17.676 -0.5036 -0.8406 -0.3511
  115TMC2    C2 1751   3.731   4.370   0.001  0.1909 -1.0141 -0.3792
  115TMC2    C3 1752   3.749   4.504  17.670 -0.1918 -0.0868  0.2153
  115TMC2    C4 1753   3.519   4.385  17.583  0.5682  0.2272  0.6038
  115TMC2    C5 1754   3.546   4.515  17.540 -0.1145 -0.2755  0.2254
  115TMC2    C6 1755   3.660   4.572  17.588  0.2379 -0.0380 -0.2009
  115TMC2     C 1756   3.587   4.180  17.679 -0.5680 -0.3997 -0.1120
  115TMC2     O 1757   3.477   4.138  17.645  0.3902 -0.3584 -0.1126
  115TMC2     H 1758   3.803   4.333   0.073 -0.8560 -1.5994  0.3581
  115TMC2    H1 1759   3.424   4.339  17.557  0.9991  0.9767 -2.3349
  115TMC2    H2 1760   3.675   4.678  17.570 -0.1663  0.2346  1.1196
  115TMC2    C7 1761   3.469   4.569  17.430  0.0435  0.2061 -0.2275
  115TMC2    C8 1762   3.779   4.581   0.080  0.0080  0.2836 -0.2123
  115TMC2    O1 1763   3.348   4.540  17.430  0.1659  0.0643 -0.1109
  115TMC2    O2 1764   3.857   4.547   0.167  0.3684  0.1012  0.2487
  115TMC2    O5 1765   3.660   4.643   0.112 -0.2425  0.0934 -0.1896
  115TMC2    H5 1766   3.595   4.673   0.044 -1.8170 -0.7161  0.9671
  116MPD2     C 1767   3.792   3.713  17.679  0.2145  0.2944 -0.3228
  116MPD2    C1 1768   3.657   3.748  17.670  0.0268  0.2105 -0.0169
  116MPD2    C2 1769   3.625   3.882  17.685 -0.1508 -0.3849 -0.1629
  116MPD2    C3 1770   3.727   3.977   0.005  0.2244  1.2488  0.2347
  116MPD2    C4 1771   3.855   3.935   0.019  0.1598  0.3104 -0.1490
  116MPD2    C5 1772   3.886   3.800   0.007 -0.1695  0.8163 -0.6816
  116MPD2     H 1773   3.522   3.916  17.678  0.1377  0.1639 -1.9234
  116MPD2    H1 1774   3.925   4.017   0.028  0.5331  0.0901 -1.0667
  116MPD2    H2 1775   3.812   3.608  17.663 -0.4255 -0.1582  1.9312
  116MPD2    H3 1776   3.992   3.777   0.018 -0.4342 -0.3763 -0.7080
  116MPD2     N 1777   3.709   4.116   0.004  0.0919  0.0534  0.0022
  116MPD2    H5 1778   3.792   4.175   0.005 -0.3504  0.6566  1.7728
  116MPD2    N1 1779   3.565   3.653  17.610 -0.1077 -0.6972  0.7149
  116MPD2    H7 1780   3.594   3.557  17.590 -1.2170 -1.3004  1.9805
  117TMC2    C1 1781   1.836   1.076  14.332  0.0540  0.3266  0.8124
  117TMC2    C2 1782   1.927   0.987  14.378 -0.2983  0.2087  0.5425
  117TMC2    C3 1783   2.046   1.038  14.424 -0.3949 -0.3674  0.4202
  117TMC2    C4 1784   1.833   1.207  14.379 -0.3824 -0.0823  0.2851
  117TMC2    C5 1785   1.952   1.250  14.437 -0.2244  0.6995 -0.5198
  117TMC2    C6 1786   2.062   1.169  14.445 -0.0881  0.4852 -0.1038
  117TMC2     C 1787   1.757   1.042  14.214 -0.0984 -0.6027 -0.3129
  117TMC2     O 1788   1.776   0.935  14.156 -0.3384  0.3579 -0.2567
  117TMC2     H 1789   1.919   0.881  14.355 -0.9341 -0.3256  3.2732
  117TMC2    H1 1790   1.748   1.274  14.377 -0.7647 -0.5205  2.1144
  117TMC2    H2 1791   2.157   1.206  14.484  0.6972  0.3197 -1.8597
  117TMC2    C7 1792   1.988   1.391  14.459  0.3441 -0.5011 -0.3649
  117TMC2    C8 1793   2.128   0.938  14.503  0.2786 -0.4882  0.1643
  117TMC2    O1 1794   2.109   1.422  14.470 -0.0338 -0.1263  0.1107
  117TMC2    O2 1795   2.163   0.966  14.617  0.2581 -0.0403  0.1746
  117TMC2    O5 1796   2.115   0.808  14.452 -0.2249 -0.0589  0.6319
  117TMC2    H5 1797   2.094   0.819  14.357 -0.5701  1.4904  0.8845
  118MPD2     C 1798   1.770   1.665  14.423  0.1875 -0.3628 -0.8355
  118MPD2    C1 1799   1.894   1.614  14.429  1.1575 -0.4761  0.7152
  118MPD2    C2 1800   2.001   1.692  14.438  0.6582 -0.2156 -0.1424
  118MPD2    C3 1801   1.984   1.826  14.470  0.5283  0.3004  0.1957
  118MPD2    C4 1802   1.855   1.882  14.469 -0.4091 -0.0822  0.3525
  118MPD2    C5 1803   1.752   1.795  14.443  0.5996  0.9888 -0.1876
  118MPD2     H 1804   2.100   1.652  14.456 -0.4038 -3.0602 -0.6736
  118MPD2    H1 1805   1.829   1.984  14.494  3.8486  1.3709 -1.2503
  118MPD2    H2 1806   1.679   1.608  14.431  0.5406 -1.1122 -2.0431
  118MPD2    H3 1807   1.656   1.844  14.433 -0.1940 -0.7398 -1.0518
  118MPD2     N 1808   2.096   1.914  14.494  0.0293 -0.4613  0.4230
  118MPD2    H5 1809   2.192   1.883  14.486 -0.5056 -2.4663  1.9322
  118MPD2    N1 1810   1.883   1.473  14.435  0.2776  0.3405 -0.3718
  118MPD2    H7 1811   1.793   1.429  14.419  1.3356 -2.3692  1.0471
  119MPD2     C 1812   0.801   2.628  13.754 -0.2223 -0.3368 -0.1579
  119MPD2    C1 1813   0.671   2.634  13.800  0.1025  0.7120  0.3008
  119MPD2    C2 1814   0.563   2.590  13.715 -0.3246  0.3386  0.5574
  119MPD2    C3 1815   0.602   2.505  13.609 -0.2469  0.2907 -0.2788
  119MPD2    C4 1816   0.733   2.501  13.568  0.3274 -0.3280  0.2290
  119MPD2    C5 1817   0.834   2.567  13.639  0.1164  0.1409  0.0518
  119MPD2     H 1818   0.460   2.609  13.740 -0.0046  1.7229  0.8341
  119MPD2    H1 1819   0.764   2.448  13.479 -0.9715 -0.4328 -0.1679
  119MPD2    H2 1820   0.876   2.675  13.818  1.2096 -1.8619 -0.6930
  119MPD2    H3 1821   0.939   2.556  13.613  0.2747 -0.2911  0.8624
  119MPD2     N 1822   0.502   2.445  13.526 -0.0908  0.8798  0.7010
  119MPD2    H5 1823   0.537   2.385  13.453  0.2639  1.3323  0.4929
  119MPD2    N1 1824   0.644   2.700  13.922 -0.1589 -0.3996 -0.2371
  119MPD2    H7 1825   0.698   2.782  13.946  0.1187 -0.9646  1.1048
  120TCq2    C1 1826   0.378   2.419  13.579 -0.0225  0.6439 -0.0033
  120TCq2    O2 1827   0.326   2.446  13.686  0.1660 -0.0874  0.2203
  120TCq2    C2 1828   0.301   2.323  13.495  0.0545 -0.4790  0.4700
  120TCq2    C3 1829   0.333   2.310  13.363 -0.6781 -0.0505  0.1707
  120TCq2    C4 1830   0.255   2.230  13.282  0.2535 -1.0765 -0.7255
  120TCq2    C5 1831   0.137   2.171  13.323 -0.4393 -0.2257 -0.0594
  120TCq2    C6 1832   0.109   2.188  13.460 -0.0340  0.1320 -0.0896
  120TCq2    C7 1833   0.187   2.264  13.546  0.6296 -0.1027 -0.0585
  120TCq2    C8 1834   4.688   2.171  13.495 -0.0843  0.2128 -0.0575
  120TCq2    O4 1835   4.612   2.189  13.401 -0.1267  0.1406  0.2182
  120TCq2    C9 1836   0.295   2.216  13.147  0.3790  0.3169 -0.7464
  120TCq2    O5 1837   0.401   2.264  13.098  0.5129 -0.3182 -0.3699
  120TCq2    O6 1838   0.210   2.159  13.075 -0.2345  0.0061  0.3080
  120TCq2    H2 1839   0.413   2.362  13.311  1.7338 -1.5845  2.3811
  120TCq2    H3 1840   0.078   2.104  13.262  0.5649 -1.2360  0.0937
  120TCq2    H4 1841   0.156   2.269  13.650  1.0871 -2.5409  0.1888
  121TMC2    C1 1842   1.980   4.173  14.271 -0.2029 -0.1518  0.4871
  121TMC2    C2 1843   1.988   4.061  14.352  0.1540  0.2385  0.3639
  121TMC2    C3 1844   1.880   3.981  14.357  0.1243  0.1941 -0.6741
  121TMC2    C4 1845   1.867   4.203  14.197  0.6623 -0.1879 -0.3875
  121TMC2    C5 1846   1.758   4.119  14.200  0.8629  0.1938 -0.0883
  121TMC2    C6 1847   1.769   4.013  14.276 -0.0922  0.5846  0.3151
  121TMC2     C 1848   2.104   4.235  14.241 -0.6675  0.5136 -0.0321
  121TMC2     O 1849   2.194   4.191  14.311 -0.3281 -0.0159  0.1773
  121TMC2     H 1850   2.081   4.032  14.401  0.2080 -0.3807 -0.1148
  121TMC2    H1 1851   1.852   4.296  14.144  0.8469 -0.0869 -0.2627
  121TMC2    H2 1852   1.682   3.948  14.283 -0.2997  0.7710 -0.5403
  121TMC2    C7 1853   1.663   4.130  14.087 -0.1624 -0.3384  0.6001
  121TMC2    C8 1854   1.888   3.853  14.431  0.5008  0.2112 -0.2974
  121TMC2    O1 1855   1.701   4.191  13.988 -0.0935  0.2006  0.3791
  121TMC2    O2 1856   2.000   3.811  14.464  0.2216  0.4601 -1.0505
  121TMC2    O5 1857   1.791   3.776  14.374 -0.0609  0.2150 -0.3903
  121TMC2    H5 1858   1.703   3.802  14.408 -1.6990 -2.4086 -2.5876
  122MPD2     C 1859   2.315   4.397  14.139  0.0492  0.0734 -0.2040
  122MPD2    C1 1860   2.214   4.359  14.057  0.8327 -0.0312  0.5358
  122MPD2    C2 1861   2.212   4.386  13.920 -0.4443  0.3397  0.5527
  122MPD2    C3 1862   2.325   4.445  13.867 -0.7672 -0.6629  0.5296
  122MPD2    C4 1863   2.432   4.470  13.948  0.6960 -0.3941  0.5557
  122MPD2    C5 1864   2.426   4.443  14.083  0.6688  0.6477 -0.1341
  122MPD2     H 1865   2.130   4.353  13.856  0.1250  1.1816 -0.6041
  122MPD2    H1 1866   2.533   4.492  13.915  1.2374 -0.1380  2.3769
  122MPD2    H2 1867   2.308   4.386  14.247 -0.7831 -0.5082 -0.3094
  122MPD2    H3 1868   2.519   4.442  14.139 -1.3657 -3.7104  3.2308
  122MPD2     N 1869   2.339   4.473  13.728 -0.1982  0.2013  0.6798
  122MPD2    H5 1870   2.423   4.516  13.691 -0.5448  1.8041  1.7773
  122MPD2    N1 1871   2.105   4.288  14.110 -0.3997 -0.7182  0.3933
  122MPD2    H7 1872   2.017   4.277  14.061  0.1318 -2.1906 -0.2301
  123MPD2     C 1873   0.056   2.631   9.997  0.2176 -0.5581  0.2590
  123MPD2    C1 1874   0.077   2.740   9.915 -0.6058 -0.5547 -0.8443
  123MPD2    C2 1875   0.198   2.819   9.938 -0.1487  0.0010 -0.4583
  123MPD2    C3 1876   0.293   2.775  10.027  0.4414  0.8431  0.0029
  123MPD2    C4 1877   0.273   2.661  10.102 -0.1918  0.2687 -0.6762
  123MPD2    C5 1878   0.160   2.590  10.082  0.0343 -0.1088  0.0124
  123MPD2     H 1879   0.224   2.897   9.867 -0.1154  0.9492  0.5890
  123MPD2    H1 1880   0.341   2.607  10.168  1.6372  3.6568  0.1763
  123MPD2    H2 1881   4.693   2.570   9.983  0.5990 -1.6460  2.6271
  123MPD2    H3 1882   0.149   2.489  10.119  1.2510  0.3550  1.6278
  123MPD2     N 1883   0.410   2.859  10.033  0.5292  0.9524  0.3502
  123MPD2    H5 1884   0.433   2.928   9.962  1.1271  1.9517  1.5062
  123MPD2    N1 1885   4.699   2.763   9.810  0.0587 -0.0545 -0.3931
  123MPD2    H7 1886   4.633   2.686   9.799 -0.0415 -0.0069 -0.1080
  124TCq2    C1 1887   0.520   2.854  10.120 -0.3942  0.4001  0.1130
  124TCq2    O2 1888   0.533   2.785  10.220  0.4370 -0.3024  0.3578
  124TCq2    C2 1889   0.620   2.941  10.060 -0.1203  0.3323  0.3601
  124TCq2    C3 1890   0.742   2.885  10.093 -0.3763 -0.1860  0.0496
  124TCq2    C4 1891   0.850   2.896  10.015  0.1322  0.5578  0.3959
  124TCq2    C5 1892   0.847   2.964   9.898 -0.0684 -0.5045  1.1332
  124TCq2    C6 1893   0.723   3.011   9.859 -0.2315 -0.0487  0.2418
  124TCq2    C7 1894   0.605   3.004   9.941 -0.8910 -0.3978  0.4822
  124TCq2    C8 1895   0.720   3.058   9.717 -0.2215  0.3875  0.0449
  124TCq2    O4 1896   0.803   3.146   9.703  0.4476 -0.6495  0.2225
  124TCq2    C9 1897   0.969   2.826  10.058 -0.3360  0.4813  1.0452
  124TCq2    O5 1898   1.068   2.823   9.979  0.1683 -0.2806 -0.4247
  124TCq2    O6 1899   0.957   2.725  10.133  0.4377  0.4923  0.0196
  124TCq2    H2 1900   0.768   2.834  10.186 -2.6710 -0.9129  0.2858
  124TCq2    H3 1901   0.934   2.967   9.833 -0.7959  1.3139  0.2375
  124TCq2    H4 1902   0.519   3.044   9.890  2.0420  1.3033 -3.1936
  125TMC2    C1 1903   1.064   0.691   9.128 -0.1610  0.2668  0.1997
  125TMC2    C2 1904   1.142   0.771   9.052 -0.2504  0.0654 -0.0227
  125TMC2    C3 1905   1.274   0.761   9.070 -0.3092  0.0207 -0.2838
  125TMC2    C4 1906   1.107   0.589   9.206 -0.4858  0.2394  0.2623
  125TMC2    C5 1907   1.245   0.579   9.223 -0.4083  0.7023 -0.4199
  125TMC2    C6 1908   1.328   0.664   9.149 -0.2716 -0.5991 -0.3937
  125TMC2     C 1909   0.929   0.709   9.091 -0.2943 -0.0962 -0.8893
  125TMC2     O 1910   0.903   0.792   9.003  0.2754  0.4835  0.1288
  125TMC2     H 1911   1.109   0.859   8.998  3.9377  1.6173  0.0139
  125TMC2    H1 1912   1.043   0.532   9.272 -1.3803 -0.0954 -0.8966
  125TMC2    H2 1913   1.434   0.669   9.171  0.0368 -0.5300 -1.9313
  125TMC2    C7 1914   1.284   0.458   9.290  0.3514 -0.1361  0.5139
  125TMC2    C8 1915   1.359   0.863   9.018 -0.2650 -0.1952  0.0889
  125TMC2    O1 1916   1.199   0.411   9.363  0.5101  0.2474  0.7128
  125TMC2    O2 1917   1.320   0.971   8.983 -0.8949 -0.0702 -0.4161
  125TMC2    O5 1918   1.438   0.777   8.959 -0.0640 -0.3623  0.2377
  125TMC2    H5 1919   1.428   0.681   8.976 -0.4899 -0.4590 -0.5565
  126MPD1     C 1920   0.427   0.647   9.176  1.2461  0.1381 -0.5343
  126MPD1    C1 1921   0.496   0.572   9.277 -0.1656  0.1623 -0.6504
  126MPD1    C2 1922   0.629   0.561   9.258 -0.5294 -0.2341  0.5703
  126MPD1    C3 1923   0.699   0.651   9.182  0.6977  0.3517 -0.3543
  126MPD1    C4 1924   0.630   0.735   9.101 -0.3421 -0.3746 -0.7087
  126MPD1    C5 1925   0.493   0.737   9.099 -0.6687 -0.6832  0.2066
  126MPD1     H 1926   0.681   0.488   9.318 -0.6170  0.2037  1.1816
  126MPD1    H1 1927   0.697   0.794   9.041  1.4625 -2.6256 -0.9131
  126MPD1    H2 1928   0.320   0.653   9.168  1.3149 -0.1711 -1.6624
  126MPD1    H3 1929   0.450   0.806   9.028  2.3120 -0.8647 -1.8000
  126MPD1     N 1930   0.838   0.640   9.173 -0.7135 -0.2014  0.0671
  126MPD1    H5 1931   0.874   0.575   9.242 -0.5624  0.4850  0.6371
  126MPD1    N1 1932   0.425   0.483   9.357  0.1962  0.0027 -0.4928
  126MPD1    H6 1933   0.481   0.442   9.432  0.3871  1.1352 -0.0097
  126MPD1    H7 1934   0.330   0.512   9.377 -0.0491 -0.6161 -0.7839
  127MPD2     C 1935   2.707   3.562   9.116  0.2650 -0.8329  0.4661
  127MPD2    C1 1936   2.733   3.527   9.245 -0.0424 -0.0223  0.8003
  127MPD2    C2 1937   2.776   3.626   9.334 -0.1648 -0.6903  0.0175
  127MPD2    C3 1938   2.769   3.759   9.301  0.1646 -0.0719  0.2334
  127MPD2    C4 1939   2.736   3.795   9.168 -0.1035  0.8433 -0.0082
  127MPD2    C5 1940   2.699   3.695   9.085  0.3511 -0.1627 -0.8965
  127MPD2     H 1941   2.808   3.603   9.435  1.5792  0.6148 -0.2322
  127MPD2    H1 1942   2.717   3.896   9.134 -1.4541  0.7081  0.3278
  127MPD2    H2 1943   2.689   3.474   9.054  0.5897  2.3796 -4.1959
  127MPD2    H3 1944   2.688   3.726   8.981 -1.1437  1.5383 -0.2317
  127MPD2     N 1945   2.793   3.853   9.403  0.3288  0.5057  0.1915
  127MPD2    H5 1946   2.837   3.813   9.485  0.4017 -0.8274 -0.5130
  127MPD2    N1 1947   2.714   3.389   9.277  0.3104  0.2260 -0.4553
  127MPD2    H7 1948   2.693   3.329   9.198 -0.1399 -0.5263  0.2397
  128TCq2    C1 1949   2.727   3.329   9.394 -0.8890 -0.2492 -0.5261
  128TCq2    O2 1950   2.747   3.379   9.506 -0.0202 -0.1305  0.9719
  128TCq2    C2 1951   2.686   3.197   9.397 -0.4074 -0.5047 -0.9447
  128TCq2    C3 1952   2.662   3.130   9.278  0.3558 -0.2059 -0.1878
  128TCq2    C4 1953   2.586   3.018   9.281 -0.3426  0.0668 -0.1127
  128TCq2    C5 1954   2.555   2.961   9.401  0.3923 -0.2202  0.4334
  128TCq2    C6 1955   2.590   3.021   9.519  0.0576  0.1270 -0.8987
  128TCq2    C7 1956   2.658   3.138   9.520  0.1125  0.6629  0.7607
  128TCq2    C8 1957   2.558   2.948   9.649  0.2906 -0.1445  0.3581
  128TCq2    O4 1958   2.581   3.015   9.748 -0.2780  0.2701  0.1157
  128TCq2    C9 1959   2.574   2.943   9.165 -0.0347  0.5442  0.5417
  128TCq2    O5 1960   2.549   3.001   9.056 -0.1326 -0.0330  0.5043
  128TCq2    O6 1961   2.568   2.823   9.186  0.3786  0.6623  0.0073
  128TCq2    H2 1962   2.712   3.161   9.187 -0.0543  1.7513  0.2352
  128TCq2    H3 1963   2.493   2.873   9.397 -0.9655  0.8091 -0.9728
  128TCq2    H4 1964   2.702   3.179   9.610  1.2920 -0.1139  0.5421
  129MPD2     C 1965   0.148   3.605   0.820  0.2905 -0.0664 -0.0127
  129MPD2    C1 1966   0.156   3.588   0.958 -0.0138  0.2725 -0.1704
  129MPD2    C2 1967   0.287   3.556   1.008 -0.0319  0.6121  0.6342
  129MPD2    C3 1968   0.397   3.533   0.926 -0.2107  0.6501  0.6605
  129MPD2    C4 1969   0.378   3.552   0.784  0.6162  0.6769  0.7764
  129MPD2    C5 1970   0.256   3.588   0.735  0.4607 -0.3564 -0.3723
  129MPD2     H 1971   0.296   3.536   1.114 -1.6505 -1.9953  0.2780
  129MPD2    H1 1972   0.464   3.529   0.721 -0.9589 -0.1814 -1.0356
  129MPD2    H2 1973   0.056   3.615   0.763 -0.2847 -1.2994  0.7027
  129MPD2    H3 1974   0.236   3.589   0.629  0.4320  0.4690 -0.3589
  129MPD2     N 1975   0.519   3.481   0.978 -0.5264 -0.4992 -0.1905
  129MPD2    H5 1976   0.517   3.453   1.076  0.6878  2.0611  0.5665
  129MPD2    N1 1977   0.047   3.619   1.049 -0.4352  0.5816  0.0935
  129MPD2    H7 1978   0.074   3.646   1.143  0.7020 -0.5716  0.0923
  130TCq2    C1 1979   4.641   3.624   1.016 -0.0534 -0.7711 -0.5118
  130TCq2    O2 1980   4.579   3.590   0.918 -0.0152 -0.0159  0.3643
  130TCq2    C2 1981   4.569   3.696   1.124 -0.2078  0.2205 -0.1966
  130TCq2    C3 1982   4.634   3.798   1.182  0.5075 -0.6254 -0.3124
  130TCq2    C4 1983   4.575   3.863   1.289  0.0899 -0.0806 -1.3389
  130TCq2    C5 1984   4.455   3.821   1.347  0.6642 -0.4294 -0.2936
  130TCq2    C6 1985   4.389   3.719   1.273 -0.3400 -0.3095  0.2880
  130TCq2    C7 1986   4.445   3.660   1.162  0.0911 -0.7647  1.0228
  130TCq2    C8 1987   4.301   3.632   1.351 -1.0584  0.4036 -0.4445
  130TCq2    O4 1988   4.257   3.531   1.305  0.6133  0.1187 -0.0655
  130TCq2    C9 1989   4.640   3.975   1.338 -0.4579 -0.0410 -0.9746
  130TCq2    O5 1990   4.591   4.026   1.445 -0.1393  0.1046 -0.0595
  130TCq2    O6 1991   0.030   3.991   1.293  0.4900 -0.3430 -0.2723
  130TCq2    H2 1992   0.003   3.829   1.138  0.0813  0.6558 -0.3215
  130TCq2    H3 1993   4.414   3.878   1.429 -2.3377  2.4298 -3.7565
  130TCq2    H4 1994   4.399   3.576   1.111 -0.2709  0.9826 -1.5452
  131MPD2     C 1995   0.032   3.498   9.128  0.2084  0.1236  0.4093
  131MPD2    C1 1996   0.122   3.429   9.210  0.0827 -0.5736 -0.6520
  131MPD2    C2 1997   0.086   3.319   9.275 -0.6544  0.4043  0.4106
  131MPD2    C3 1998   4.679   3.271   9.261  0.4361 -0.5706 -0.6180
  131MPD2    C4 1999   4.584   3.347   9.194 -0.3019 -0.9798 -0.1121
  131MPD2    C5 2000   4.630   3.453   9.123 -0.4535  0.0681  0.0417
  131MPD2     H 2001   0.156   3.275   9.346  0.0106 -0.1432 -0.5931
  131MPD2    H1 2002   4.487   3.312   9.158 -2.0099  1.0786  2.5534
  131MPD2    H2 2003   0.049   3.585   9.066  0.7631  1.5476  2.5511
  131MPD2    H3 2004   4.557   3.506   9.064 -1.8577 -0.3704  1.3700
  131MPD2     N 2005   4.645   3.148   9.329 -0.1621 -0.1224 -1.0169
  131MPD2    H5 2006   4.724   3.109   9.380 -2.5981 -3.4642  0.2051
  131MPD2    N1 2007   0.250   3.493   9.213 -0.2299  0.4685  0.1025
  131MPD2    H7 2008   0.252   3.591   9.187 -0.9358  0.6087  0.5704
  132TCq2    C1 2009   0.537   3.884   9.253 -0.7323  0.1482 -0.4230
  132TCq2    O2 2010   0.431   3.919   9.208  0.2479  0.5555 -0.0147
  132TCq2    C2 2011   0.560   3.747   9.268 -0.8225 -0.2064 -0.7351
  132TCq2    C3 2012   0.683   3.696   9.283 -0.6045 -0.0829  0.2142
  132TCq2    C4 2013   0.701   3.560   9.278 -0.0787 -0.4665 -0.4807
  132TCq2    C5 2014   0.591   3.485   9.276 -0.1189 -0.3736 -0.2153
  132TCq2    C6 2015   0.465   3.538   9.281 -0.5470 -0.5092 -0.0626
  132TCq2    C7 2016   0.445   3.673   9.268  0.3728  0.1433  0.2825
  132TCq2    C8 2017   0.359   3.443   9.276  0.1672  0.6409  0.5870
  132TCq2    O4 2018   0.384   3.323   9.298  0.4554 -0.0326 -0.3082
  132TCq2    C9 2019   0.830   3.505   9.292  1.1551 -0.3479 -0.3740
  132TCq2    O5 2020   0.934   3.574   9.278  0.2893 -0.9404  0.6360
  132TCq2    O6 2021   0.825   3.381   9.285 -0.1431  0.2339 -0.2909
  132TCq2    H2 2022   0.773   3.756   9.275  0.4820 -1.8610 -1.0113
  132TCq2    H3 2023   0.611   3.378   9.283  0.4504 -0.2777 -0.3743
  132TCq2    H4 2024   0.346   3.717   9.271  0.2386 -0.0558 -1.1001
  133MPD2     C 2025   4.216   3.956   8.988  0.4067 -0.1237  0.5095
  133MPD2    C1 2026   4.133   3.878   9.058  0.1896 -0.1687  0.3871
  133MPD2    C2 2027   4.184   3.775   9.140 -0.3143 -0.3246  0.9467
  133MPD2    C3 2028   4.318   3.756   9.157  0.8823 -0.0751 -0.0955
  133MPD2    C4 2029   4.403   3.834   9.079 -0.6305  0.0295 -0.0997
  133MPD2    C5 2030   4.346   3.935   9.000 -0.4975  1.0001 -0.3506
  133MPD2     H 2031   4.118   3.727   9.212 -2.0196 -3.6661 -2.8115
  133MPD2    H1 2032   4.511   3.833   9.070 -0.7059 -0.4600 -1.0084
  133MPD2    H2 2033   4.174   4.033   8.924  0.1126 -0.0974  0.7332
  133MPD2    H3 2034   4.418   3.993   8.943  2.1850 -2.1628 -0.1531
  133MPD2     N 2035   4.369   3.667   9.255 -0.7670  0.1034 -0.0009
  133MPD2    H5 2036   4.467   3.680   9.277 -0.4328 -2.7120  0.1243
  133MPD2    N1 2037   3.995   3.920   9.057 -0.3728 -0.0958  0.3486
  133MPD2    H7 2038   3.973   4.006   9.009  2.9576  0.4217 -0.2696
  134TCq2    C1 2039   3.894   3.846   9.110  0.0012  0.0037  0.6521
  134TCq2    O2 2040   3.900   3.729   9.143 -0.2629  0.2768  0.2991
  134TCq2    C2 2041   3.767   3.916   9.099  0.0721 -0.6382 -0.5990
  134TCq2    C3 2042   3.647   3.848   9.082  0.2909 -0.0876 -0.6912
  134TCq2    C4 2043   3.531   3.912   9.113  0.4961  0.1583 -0.4430
  134TCq2    C5 2044   3.520   4.041   9.154  0.2093 -0.5640 -0.1171
  134TCq2    C6 2045   3.639   4.101   9.187  0.0165 -0.0777  0.8573
  134TCq2    C7 2046   3.761   4.047   9.149 -0.0210  0.4115 -0.3136
  134TCq2    C8 2047   3.642   4.243   9.227 -0.0270  0.4043  0.1987
  134TCq2    O4 2048   3.743   4.288   9.282 -0.4816  0.0126 -0.4887
  134TCq2    C9 2049   3.408   3.837   9.106  0.1586 -0.6521 -0.0308
  134TCq2    O5 2050   3.300   3.902   9.102  0.1534 -0.2348  0.9103
  134TCq2    O6 2051   3.412   3.713   9.094 -0.5342 -0.1935  0.0155
  134TCq2    H2 2052   3.641   3.745   9.050 -2.1910 -0.5536  1.2416
  134TCq2    H3 2053   3.427   4.066   9.205  0.3713 -1.3108  0.5504
  134TCq2    H4 2054   3.852   4.100   9.174  2.2299 -2.9682 -1.2649
  135MPD2     C 2055   1.760   0.405   9.519 -0.4773 -0.3775  0.3999
  135MPD2    C1 2056   1.845   0.299   9.529  0.2193 -0.0832 -0.1283
  135MPD2    C2 2057   1.948   0.289   9.438 -0.2546 -0.2351  0.7009
  135MPD2    C3 2058   1.979   0.407   9.362  0.3376  0.8536  0.0133
  135MPD2    C4 2059   1.901   0.522   9.360  0.1220  0.9802  0.3120
  135MPD2    C5 2060   1.790   0.509   9.443 -0.0865 -0.3412 -0.5060
  135MPD2     H 2061   2.020   0.208   9.449 -0.0123 -0.2993 -1.3916
  135MPD2    H1 2062   1.914   0.610   9.297  1.8796  0.9003  0.5511
  135MPD2    H2 2063   1.665   0.419   9.569 -0.0756  1.4094  0.6709
  135MPD2    H3 2064   1.720   0.592   9.447  1.1589  0.6786  0.2397
  135MPD2     N 2065   2.096   0.420   9.287  0.7012  0.4304  0.2775
  135MPD2    H5 2066   2.113   0.504   9.233  0.4838  0.1494 -0.2312
  135MPD2    N1 2067   1.840   0.201   9.626 -0.0791 -0.7120 -0.6717
  135MPD2    H7 2068   1.904   0.124   9.609 -0.1334 -0.7516 -0.6958
  136TCq2    C1 2069   1.777   0.209   9.749  0.0865 -0.5425  0.5738
  136TCq2    O2 2070   1.711   0.304   9.787  0.0010  0.0360 -0.4215
  136TCq2    C2 2071   1.822   0.094   9.830 -0.5856  0.0799 -0.6610
  136TCq2    C3 2072   1.856   4.700   9.774  0.1245  0.4139 -0.4505
  136TCq2    C4 2073   1.884   4.601   9.861  0.0473  0.4013  0.1627
  136TCq2    C5 2074   1.885   4.620   9.994 -0.5526  0.0601  0.1704
  136TCq2    C6 2075   1.845   0.014  10.046  0.0392  0.7666  0.0638
  136TCq2    C7 2076   1.816   0.119   9.965 -0.4858 -0.2600  0.4328
  136TCq2    C8 2077   1.843   0.031  10.191 -0.2383 -0.7842  0.1649
  136TCq2    O4 2078   1.838   0.143  10.245  0.2607  0.0176 -0.7932
  136TCq2    C9 2079   1.896   4.471   9.805 -0.2774 -0.1401  0.1728
  136TCq2    O5 2080   1.859   4.450   9.687  0.7873 -0.1217  0.2151
  136TCq2    O6 2081   1.896   4.377   9.890  0.3842  0.2416 -0.3453
  136TCq2    H2 2082   1.863   4.673   9.669 -0.2158 -2.4489  0.2511
  136TCq2    H3 2083   1.914   4.533  10.053 -1.5765 -0.5759 -0.2590
  136TCq2    H4 2084   1.766   0.205  10.005 -0.5252 -0.6178  1.1504
  137MPD2     C 2085   1.959   3.544   9.077 -0.0518 -0.2553 -0.1668
  137MPD2    C1 2086   1.965   3.674   9.111  0.9604 -0.9165  0.5849
  137MPD2    C2 2087   2.001   3.704   9.240  0.0631 -0.5361 -0.0939
  137MPD2    C3 2088   2.015   3.605   9.336  0.2106  0.2289 -0.2823
  137MPD2    C4 2089   2.010   3.468   9.299 -0.1684 -0.1874  0.7193
  137MPD2    C5 2090   1.986   3.446   9.168 -0.3935 -0.6347  0.5233
  137MPD2     H 2091   2.023   3.805   9.274  1.2505 -0.7551 -0.1901
  137MPD2    H1 2092   2.017   3.377   9.358  0.4629  0.2600  1.3381
  137MPD2    H2 2093   1.944   3.514   8.974  1.7957 -1.5687 -0.0676
  137MPD2    H3 2094   1.983   3.343   9.136  2.3271 -0.6390  0.3180
  137MPD2     N 2095   2.046   3.654   9.464  0.0042 -0.2781 -0.0702
  137MPD2    H5 2096   2.039   3.755   9.474 -0.7367 -0.2758 -0.6477
  137MPD2    N1 2097   1.941   3.781   9.022  0.2411 -0.0477 -0.1509
  137MPD2    H7 2098   1.946   3.758   8.924 -1.4829 -0.6517 -0.1029
  138TCq2    C1 2099   1.880   3.900   9.062 -0.3200  0.0856 -0.3244
  138TCq2    O2 2100   1.829   3.929   9.168  0.4761  0.1262  0.3845
  138TCq2    C2 2101   1.894   4.010   8.964 -0.1700 -0.0589  0.3906
  138TCq2    C3 2102   2.004   4.004   8.882  0.2782 -0.5875  0.0310
  138TCq2    C4 2103   2.020   4.109   8.801  0.2494  0.0890  0.1806
  138TCq2    C5 2104   1.950   4.224   8.811 -0.2079  0.1960  0.7371
  138TCq2    C6 2105   1.860   4.237   8.918 -0.3520  0.3396 -0.5568
  138TCq2    C7 2106   1.817   4.126   8.983  0.9721  0.3185 -0.0801
  138TCq2    C8 2107   1.774   4.351   8.917  0.0120  0.3505 -0.7030
  138TCq2    O4 2108   1.777   4.414   8.811  0.6221 -0.4270 -0.4097
  138TCq2    C9 2109   2.135   4.108   8.708 -0.7722 -0.3506  0.3935
  138TCq2    O5 2110   2.138   4.182   8.606  0.0822 -0.1280  0.5427
  138TCq2    O6 2111   2.218   4.015   8.729  0.2233 -0.1327 -0.3613
  138TCq2    H2 2112   2.068   3.917   8.877  1.1583  0.1005 -0.6856
  138TCq2    H3 2113   1.975   4.307   8.746 -2.0987  0.4413  0.3099
  138TCq2    H4 2114   1.735   4.128   9.054  0.2549 -0.1718 -0.8882
  139TMC2    C1 2115   1.850   2.100  13.703  0.2471  0.6666 -0.0509
  139TMC2    C2 2116   1.936   2.145  13.615 -0.4801 -0.6503 -0.2667
  139TMC2    C3 2117   1.916   2.264  13.562  0.3845 -0.0077 -0.5666
  139TMC2    C4 2118   1.755   2.185  13.761  0.5178  0.0680 -0.0320
  139TMC2    C5 2119   1.745   2.310  13.713  0.2128  0.0653 -0.0496
  139TMC2    C6 2120   1.822   2.348  13.602  0.5507  0.2444  0.5340
  139TMC2     C 2121   1.910   1.992  13.787 -0.8997 -0.1995 -0.0910
  139TMC2     O 2122   2.032   1.974  13.767 -0.3741 -0.0008 -0.0484
  139TMC2     H 2123   2.011   2.087  13.563 -0.9324 -1.9255  0.5121
  139TMC2    H1 2124   1.685   2.147  13.835 -0.2242  2.1533  0.3580
  139TMC2    H2 2125   1.824   2.452  13.571  0.8611 -0.7488 -2.8460
  139TMC2    C7 2126   1.675   2.412  13.789 -0.2661  0.3209  0.4860
  139TMC2    C8 2127   1.999   2.288  13.441  0.0465 -0.1424  0.1692
  139TMC2    O1 2128   1.668   2.522  13.744 -0.2846 -0.0361  0.7773
  139TMC2    O2 2129   2.114   2.253  13.429  0.3003 -0.9429 -0.1713
  139TMC2    O5 2130   1.923   2.356  13.349 -0.4387  0.1250  0.2278
  139TMC2    H5 2131   1.828   2.372  13.365  0.0333  1.7118  1.5292
  140MPD2     C 2132   1.749   1.718  13.959  0.9677 -0.1478 -0.8761
  140MPD2    C1 2133   1.853   1.799  13.930 -0.3572  0.9044  0.1963
  140MPD2    C2 2134   1.984   1.779  13.985  0.1268  0.5248  0.1401
  140MPD2    C3 2135   2.007   1.660  14.053  0.6312 -0.4900  0.6065
  140MPD2    C4 2136   1.909   1.571  14.060 -0.0953 -0.2222  0.2706
  140MPD2    C5 2137   1.779   1.605  14.040 -0.4442 -0.5097  0.1147
  140MPD2     H 2138   2.061   1.854  13.972 -0.5233  1.0156 -0.8926
  140MPD2    H1 2139   1.918   1.469  14.095  0.9420 -0.9325 -2.0757
  140MPD2    H2 2140   1.652   1.722  13.912 -0.0680 -2.7636  0.9972
  140MPD2    H3 2141   1.704   1.529  14.059 -2.1337  1.1907  0.3418
  140MPD2     N 2142   2.142   1.633  14.097 -0.4724  0.4943 -0.6915
  140MPD2    H5 2143   2.210   1.706  14.081 -1.0918  0.6547 -2.5251
  140MPD2    N1 2144   1.823   1.907  13.846  0.0379 -0.7781  0.0428
  140MPD2    H7 2145   1.727   1.934  13.826 -0.0656 -0.9523  0.2989
  141TCq2    C1 2146   2.615   3.302  14.391  0.2072 -0.2023 -0.3103
  141TCq2    O2 2147   2.656   3.390  14.314 -0.1426 -0.5604 -0.2055
  141TCq2    C2 2148   2.646   3.305  14.537 -0.1849  0.4525  0.0880
  141TCq2    C3 2149   2.664   3.185  14.608 -0.5511 -0.3566 -0.2848
  141TCq2    C4 2150   2.656   3.186  14.743 -0.2432  0.2695  0.3968
  141TCq2    C5 2151   2.644   3.303  14.807  1.1408 -0.7316 -0.7013
  141TCq2    C6 2152   2.635   3.418  14.737 -0.2820 -1.1471 -1.3968
  141TCq2    C7 2153   2.634   3.422  14.599  0.0486  0.4913 -0.3103
  141TCq2    C8 2154   2.637   3.546  14.816  0.3422  0.3861  0.8897
  141TCq2    O4 2155   2.581   3.540  14.927  0.3684  0.6435  0.0023
  141TCq2    C9 2156   2.655   3.065  14.820  0.2818 -0.5903  0.0655
  141TCq2    O5 2157   2.680   3.082  14.943  0.2100 -0.0860  0.3811
  141TCq2    O6 2158   2.665   2.960  14.747 -0.1252 -0.2224  0.1161
  141TCq2    H2 2159   2.680   3.090  14.558 -0.8323 -1.4689  1.7291
  141TCq2    H3 2160   2.643   3.307  14.915 -1.2802 -0.1002 -0.7421
  141TCq2    H4 2161   2.609   3.506  14.535  1.1033  1.1292  0.1102
  142MPD2     C 2162   0.015   1.987  10.442 -0.2458  0.6770 -0.0449
  142MPD2    C1 2163   0.033   1.976  10.304 -0.9200 -0.5252 -0.6850
  142MPD2    C2 2164   0.117   2.068  10.239 -0.6393 -0.1131  0.8748
  142MPD2    C3 2165   0.188   2.162  10.316  0.0798 -0.1021  0.2776
  142MPD2    C4 2166   0.169   2.177  10.448  0.4175 -0.3720  0.1547
  142MPD2    C5 2167   0.085   2.087  10.507  0.1285  0.2696  0.3299
  142MPD2     H 2168   0.123   2.059  10.131 -0.9628 -0.4787  0.8896
  142MPD2    H1 2169   0.218   2.255  10.506  0.1469 -0.1106  0.0308
  142MPD2    H2 2170   4.689   1.911  10.500 -0.2992  0.2781 -0.6230
  142MPD2    H3 2171   0.071   2.108  10.612  1.0598 -2.7440  1.0615
  142MPD2     N 2172   0.270   2.260  10.269 -0.1204 -0.4604  0.6908
  142MPD2    H5 2173   0.312   2.324  10.336  0.9540  0.0048 -0.4332
  142MPD2    N1 2174   4.697   1.872  10.233  0.4359 -0.1144  0.4573
  142MPD2    H7 2175   4.653   1.801  10.291  1.6711 -1.0453  0.2395
  143TCq2    C1 2176   0.317   2.276  10.131  0.5793  0.0778 -0.1416
  143TCq2    O2 2177   0.267   2.236  10.027  0.7988 -0.3999 -0.2250
  143TCq2    C2 2178   0.440   2.352  10.117  0.1164  0.2079  0.3999
  143TCq2    C3 2179   0.535   2.357  10.213  0.4844  0.0811 -1.0139
  143TCq2    C4 2180   0.653   2.417  10.189  0.4593  0.1456  1.1748
  143TCq2    C5 2181   0.678   2.488  10.075 -0.0932 -0.4755 -0.9749
  143TCq2    C6 2182   0.578   2.478   9.976  0.2314 -0.0680  0.4754
  143TCq2    C7 2183   0.462   2.403   9.991 -0.0426 -0.6346 -0.0787
  143TCq2    C8 2184   0.611   2.557   9.856 -0.6439  0.6424  0.6819
  143TCq2    O4 2185   0.716   2.624   9.864  0.5460  0.0464 -0.3881
  143TCq2    C9 2186   0.757   2.408  10.283 -0.6230 -0.1416  0.5100
  143TCq2    O5 2187   0.865   2.463  10.257  0.2189  0.4358  0.0979
  143TCq2    O6 2188   0.734   2.342  10.385 -0.4143 -0.4718  0.2794
  143TCq2    H2 2189   0.518   2.318  10.312  0.7143 -0.7105 -1.2904
  143TCq2    H3 2190   0.769   2.547  10.061  0.5333 -1.0238  0.7860
  143TCq2    H4 2191   0.392   2.393   9.909  1.8783 -1.2207 -1.6333
  144MPD2     C 2192   2.947   1.035   0.238 -1.1340  0.4885  0.7419
  144MPD2    C1 2193   3.030   0.985   0.147 -0.2330  0.0763 -0.3699
  144MPD2    C2 2194   3.158   0.961   0.181 -0.0743 -0.3392 -0.4100
  144MPD2    C3 2195   3.216   1.002   0.303 -0.3691  0.1443  0.5503
  144MPD2    C4 2196   3.127   1.060   0.387  0.2341 -0.5083  0.1274
  144MPD2    C5 2197   2.994   1.072   0.361 -0.1814 -0.4021 -0.3158
  144MPD2     H 2198   3.218   0.915   0.103  0.5988  1.5616 -1.0057
  144MPD2    H1 2199   3.156   1.097   0.484  0.2539 -0.3915  0.0771
  144MPD2    H2 2200   2.841   1.043   0.222 -1.0322 -1.5210 -0.9623
  144MPD2    H3 2201   2.933   1.117   0.439  0.4791  1.0053 -0.6159
  144MPD2     N 2202   3.354   0.998   0.339  0.3201 -0.4601  0.7509
  144MPD2    H5 2203   3.387   1.042   0.425  1.6820 -0.4479  0.2156
  144MPD2    N1 2204   2.983   0.937   0.024  0.1992  0.4869 -0.0223
  144MPD2    H7 2205   3.052   0.917  17.655  0.4863 -1.5277  0.7841
  145TCq2    C1 2206   3.454   0.970   0.245  0.1989 -0.2075  0.4612
  145TCq2    O2 2207   3.447   0.908   0.141  0.5356 -0.1685 -0.1096
  145TCq2    C2 2208   3.589   0.988   0.303  0.0544 -0.4068  0.5361
  145TCq2    C3 2209   3.680   0.901   0.255  0.6215 -0.3066 -0.6713
  145TCq2    C4 2210   3.806   0.908   0.303 -0.2509 -1.2797 -0.3269
  145TCq2    C5 2211   3.847   0.999   0.395  0.1026  0.4257 -0.4603
  145TCq2    C6 2212   3.747   1.085   0.445  0.7970  0.1713  0.1151
  145TCq2    C7 2213   3.616   1.087   0.396  0.3925  0.1341  0.3379
  145TCq2    C8 2214   3.796   1.182   0.538 -0.2847  0.7741  0.0562
  145TCq2    O4 2215   3.918   1.211   0.538  0.0305 -0.4634 -0.1971
  145TCq2    C9 2216   3.894   0.802   0.273 -0.0732  0.2689  0.1961
  145TCq2    O5 2217   4.010   0.818   0.321  0.3427 -0.3759  0.4585
  145TCq2    O6 2218   3.863   0.706   0.197  0.3221 -0.8595 -0.0723
  145TCq2    H2 2219   3.656   0.821   0.186  1.2615  2.0648 -3.6205
  145TCq2    H3 2220   3.944   0.990   0.442  0.3840  1.5622 -0.8357
  145TCq2    H4 2221   3.558   1.177   0.415 -0.8409 -0.2071 -1.8491
  146TMC2    C1 2222   0.010   4.635  12.807  0.3791 -0.9253 -0.3710
  146TMC2    C2 2223   4.640   4.712  12.744  0.0064  0.3471  0.3742
  146TMC2    C3 2224   4.623   4.691  12.613 -0.9988  0.2289 -0.2425
  146TMC2    C4 2225   0.075   4.536  12.747  0.4892  0.7521 -0.0119
  146TMC2    C5 2226   0.067   4.534  12.608  0.7233  0.3808  0.5659
  146TMC2    C6 2227   4.699   4.603  12.539  0.2839  0.4857 -0.0700
  146TMC2     C 2228   0.004   4.645  12.955 -0.2790  0.2272  0.5873
  146TMC2     O 2229   4.666   0.019  12.990 -0.4456  0.0573 -0.2498
  146TMC2     H 2230   4.574   0.057  12.792 -1.4821 -0.3333 -0.6846
  146TMC2    H1 2231   0.157   4.487  12.799  1.0284  1.3578 -0.2784
  146TMC2    H2 2232   4.672   4.571  12.439 -0.7204 -0.2886  0.4482
  146TMC2    C7 2233   0.152   4.455  12.532  0.2610 -0.2553  0.5206
  146TMC2    C8 2234   4.530   0.049  12.540 -0.8831 -0.1176 -0.7299
  146TMC2    O1 2235   0.155   4.484  12.411  0.1033  0.1488 -0.2571
  146TMC2    O2 2236   4.553   0.087  12.427  0.3005  0.3482 -0.5046
  146TMC2    O5 2237   4.409   0.055  12.604 -0.3911  0.2279 -0.2105
  146TMC2    H5 2238   4.414   0.021  12.696 -1.2313  3.1876  0.9211
  147MPD2     C 2239   0.513   4.089  12.519  0.1314 -0.9505 -0.6584
  147MPD2    C1 2240   0.441   4.076  12.642 -0.1283  0.4815  0.7772
  147MPD2    C2 2241   0.341   4.164  12.654 -0.2953 -0.4786 -0.2639
  147MPD2    C3 2242   0.308   4.262  12.567  0.0028  0.7800 -0.0925
  147MPD2    C4 2243   0.395   4.285  12.457 -0.2785 -0.4909 -0.0714
  147MPD2    C5 2244   0.499   4.197  12.438  0.4383 -1.3529 -0.5518
  147MPD2     H 2245   0.286   4.163  12.748  2.6780 -0.7052  1.4762
  147MPD2    H1 2246   0.372   4.359  12.382 -2.6552  1.0352  2.1571
  147MPD2    H2 2247   0.571   4.004  12.482  0.5785 -1.4118  1.1241
  147MPD2    H3 2248   0.558   4.194  12.347  4.2178 -0.3918  1.8942
  147MPD2     N 2249   0.202   4.353  12.603 -0.1133 -0.0376 -0.0527
  147MPD2    H5 2250   0.181   4.334  12.700 -0.1171 -0.6123 -0.1662
  147MPD2    N1 2251   0.468   3.973  12.736  0.4382  0.3652  0.2483
  147MPD2    H7 2252   0.549   3.923  12.703 -0.6420 -0.6871 -0.8124
  148MPD2     C 2253   0.133   2.390  11.325 -0.6011 -0.1832 -0.3258
  148MPD2    C1 2254   0.150   2.510  11.254 -0.4772  0.6467 -0.1512
  148MPD2    C2 2255   0.063   2.549  11.154 -0.5327  0.1047  0.0008
  148MPD2    C3 2256   4.681   2.466  11.130  0.6083 -0.0365  0.1661
  148MPD2    C4 2257   4.662   2.349  11.200 -0.0295 -0.6240  0.1429
  148MPD2    C5 2258   0.023   2.313  11.300  0.4076  0.1489  0.6047
  148MPD2     H 2259   0.075   2.645  11.105  2.1058  0.1374  0.7294
  148MPD2    H1 2260   4.569   2.296  11.183 -0.0539 -0.4373 -0.3226
  148MPD2    H2 2261   0.193   2.354  11.407 -2.6613 -2.0800  0.3353
  148MPD2    H3 2262   4.720   2.229  11.363 -0.9373 -0.3635 -0.6766
  148MPD2     N 2263   4.588   2.491  11.021 -0.4657  0.3843  0.1444
  148MPD2    H5 2264   4.516   2.420  11.009  0.3726 -0.5508  0.5560
  148MPD2    N1 2265   0.260   2.602  11.278  0.2990 -0.7821 -0.5330
  148MPD2    H7 2266   0.258   2.691  11.229 -1.6007 -0.6010 -0.0963
  149TCq2    C1 2267   0.350   2.594  11.385  0.3415 -0.2298 -0.1907
  149TCq2    O2 2268   0.351   2.519  11.483  0.1252  0.1446 -0.6393
  149TCq2    C2 2269   0.454   2.699  11.393  0.3786  0.1603 -0.9462
  149TCq2    C3 2270   0.497   2.737  11.517 -0.0783 -0.1197 -0.1372
  149TCq2    C4 2271   0.592   2.837  11.519  0.1205 -1.2761  0.2615
  149TCq2    C5 2272   0.660   2.881  11.408 -0.1914 -0.0550  0.2318
  149TCq2    C6 2273   0.622   2.823  11.291  0.4829 -0.7176  0.0877
  149TCq2    C7 2274   0.518   2.734  11.275 -0.4157 -0.4660  0.2216
  149TCq2    C8 2275   0.702   2.848  11.175  0.2699  0.4761 -0.0055
  149TCq2    O4 2276   0.738   2.753  11.110  0.0378  0.5980  0.0448
  149TCq2    C9 2277   0.665   2.857  11.644 -0.3444 -0.4815  0.3549
  149TCq2    O5 2278   0.748   2.951  11.659  0.5031  0.0147 -0.2278
  149TCq2    O6 2279   0.668   2.758  11.725  0.2277 -0.4591  0.0413
  149TCq2    H2 2280   0.469   2.693  11.612 -1.2518 -0.7217 -0.7560
  149TCq2    H3 2281   0.742   2.951  11.409 -0.1214 -0.1664  1.7725
  149TCq2    H4 2282   0.487   2.703  11.176  1.4696 -1.4657 -0.0414
  150MPD2     C 2283   1.789   1.739  11.820 -0.4299  0.2157  0.2340
  150MPD2    C1 2284   1.807   1.832  11.727 -0.2890  0.4796 -0.4618
  150MPD2    C2 2285   1.893   1.934  11.739  1.1109  0.2042  0.3761
  150MPD2    C3 2286   1.962   1.944  11.855 -0.1023 -0.2583 -0.3381
  150MPD2    C4 2287   1.948   1.841  11.950 -0.3831  0.4895  0.7441
  150MPD2    C5 2288   1.862   1.738  11.940  0.3226 -0.3676  0.1949
  150MPD2     H 2289   1.919   1.990  11.650 -0.3998 -0.6547 -0.6187
  150MPD2    H1 2290   2.013   1.838  12.037  0.5984 -1.7658 -0.0646
  150MPD2    H2 2291   1.710   1.665  11.814  0.1991 -0.4171 -0.1671
  150MPD2    H3 2292   1.855   1.671  12.025  0.5129 -0.6004  0.0248
  150MPD2     N 2293   2.052   2.055  11.867 -0.4615 -0.6967  0.1740
  150MPD2    H5 2294   2.048   2.118  11.788  2.4569 -1.7565 -0.7817
  150MPD2    N1 2295   1.723   1.816  11.618 -0.1183  0.4835  0.6232
  150MPD2    H7 2296   1.647   1.749  11.623  1.6195 -1.4377  1.5363
  151TCq2    C1 2297   2.135   2.088  11.976 -0.1070  0.0472  0.0893
  151TCq2    O2 2298   2.131   2.034  12.083 -0.0039  0.3658 -0.6719
  151TCq2    C2 2299   2.199   2.224  11.978  0.1182 -0.1409 -0.4273
  151TCq2    C3 2300   2.188   2.302  11.865 -0.0744  0.2171 -0.4908
  151TCq2    C4 2301   2.211   2.442  11.875 -0.2868  0.4956 -0.2833
  151TCq2    C5 2302   2.213   2.499  11.997 -0.3372  0.8689 -0.1554
  151TCq2    C6 2303   2.231   2.419  12.104  0.6828  0.1124  0.6428
  151TCq2    C7 2304   2.223   2.281  12.096 -0.7443 -0.0330 -0.1877
  151TCq2    C8 2305   2.218   2.477  12.235 -0.2401  0.0722 -0.0360
  151TCq2    O4 2306   2.159   2.583  12.243  0.6221 -0.9511 -0.8195
  151TCq2    C9 2307   2.202   2.528  11.757 -0.3139 -0.5617  0.1685
  151TCq2    O5 2308   2.200   2.652  11.772  0.5101 -0.1402 -0.1782
  151TCq2    O6 2309   2.214   2.477  11.645 -0.3685 -0.1449 -1.0140
  151TCq2    H2 2310   2.174   2.253  11.769  1.1488 -1.5121  0.2133
  151TCq2    H3 2311   2.230   2.605  12.009 -0.1991  0.6567  1.5207
  151TCq2    H4 2312   2.230   2.216  12.183 -1.6761 -2.7305 -2.1130
  152MPD2     C 2313   1.503   2.171  12.960  0.1246 -0.0487  0.2938
  152MPD2    C1 2314   1.533   2.214  12.832  0.0512  0.4660  0.1039
  152MPD2    C2 2315   1.436   2.219  12.739  0.5273  0.2646  0.4618
  152MPD2    C3 2316   1.299   2.184  12.769 -0.4753  0.1621 -0.1107
  152MPD2    C4 2317   1.276   2.136  12.894 -0.1798  0.5042  0.1686
  152MPD2    C5 2318   1.379   2.117  12.985  0.4912  0.1425  0.1758
  152MPD2     H 2319   1.456   2.272  12.647 -1.3391 -2.2656 -1.3978
  152MPD2    H1 2320   1.174   2.110  12.922 -0.9197  3.3928  0.1754
  152MPD2    H2 2321   1.578   2.163  13.038  0.7129  0.6528 -0.2089
  152MPD2    H3 2322   1.359   2.093  13.089  1.9721 -0.2542  0.3668
  152MPD2     N 2323   1.203   2.198  12.674  0.3962 -0.0973 -0.0769
  152MPD2    H5 2324   1.227   2.234  12.582 -0.4882 -0.8187 -0.5903
  152MPD2    N1 2325   1.665   2.257  12.799 -0.3473  0.1395  0.0150
  152MPD2    H7 2326   1.726   2.257  12.880  0.4661  3.3940 -0.6183
  153TCq2    C1 2327   1.727   2.264  12.676 -0.0952  0.1464 -0.5079
  153TCq2    O2 2328   1.680   2.216  12.573  0.5157  0.4817  0.3071
  153TCq2    C2 2329   1.866   2.295  12.682  0.3459  1.5779 -0.3464
  153TCq2    C3 2330   1.959   2.230  12.610  0.3211  0.4010 -0.8267
  153TCq2    C4 2331   2.090   2.230  12.647  1.0926  0.0277  0.1737
  153TCq2    C5 2332   2.125   2.287  12.763 -0.3068  0.5462  0.1109
  153TCq2    C6 2333   2.030   2.353  12.840  0.7986 -0.1599  0.3918
  153TCq2    C7 2334   1.905   2.365  12.797 -0.9719  0.2113 -0.2428
  153TCq2    C8 2335   2.068   2.415  12.965 -0.0505  0.6919  0.3488
  153TCq2    O4 2336   1.976   2.456  13.036 -0.2045  0.0056  0.2716
  153TCq2    C9 2337   2.192   2.154  12.580  0.3107  0.4847 -0.5859
  153TCq2    O5 2338   2.177   2.105  12.463  0.1300 -0.1920  0.1098
  153TCq2    O6 2339   2.276   2.097  12.657  0.1018 -0.1759 -0.0998
  153TCq2    H2 2340   1.926   2.185  12.517  3.1351 -0.1877 -1.5591
  153TCq2    H3 2341   2.225   2.266  12.799 -0.6553 -0.9823  0.1895
  153TCq2    H4 2342   1.832   2.428  12.847  1.4388  1.5153  1.6729
  154MPD2     C 2343   2.790   1.863  17.338 -0.5115 -0.5878 -0.8079
  154MPD2    C1 2344   2.806   1.889  17.474  0.1064  0.3102 -0.0074
  154MPD2    C2 2345   2.728   1.990  17.533  0.1608 -0.0894 -0.0046
  154MPD2    C3 2346   2.636   2.054  17.456 -0.6298 -0.6898  0.5966
  154MPD2    C4 2347   2.629   2.030  17.324  0.1466 -0.4825 -0.1738
  154MPD2    C5 2348   2.707   1.937  17.266  0.2215  0.1063 -0.8485
  154MPD2     H 2349   2.751   2.012  17.637  0.1428 -2.5445  0.5047
  154MPD2    H1 2350   2.563   2.082  17.256  1.0028  1.6343  0.6288
  154MPD2    H2 2351   2.860   1.794  17.293 -0.0362 -1.3612  1.0875
  154MPD2    H3 2352   2.696   1.914  17.161  2.1613 -2.1927 -0.5272
  154MPD2     N 2353   2.560   2.155  17.510 -0.3561 -0.0431  0.0926
  154MPD2    H5 2354   2.558   2.160  17.611 -0.9927  0.9700  0.0316
  154MPD2    N1 2355   2.916   1.825  17.538 -0.4593 -0.3540 -0.5875
  154MPD2    H7 2356   2.962   1.745  17.497  0.9202 -1.0376  2.2651
  155TCq2    C1 2357   2.982   1.863  17.659 -0.3913  0.2860  0.1105
  155TCq2    O2 2358   2.954   1.955   0.029  0.5386  0.4591  0.2514
  155TCq2    C2 2359   3.100   1.787  17.675 -0.3259 -0.1461  0.0321
  155TCq2    C3 2360   3.136   1.686  17.583  0.4182  0.1459 -0.5356
  155TCq2    C4 2361   3.265   1.641  17.584 -0.3485 -0.1383 -0.2872
  155TCq2    C5 2362   3.356   1.688  17.675 -0.5111 -0.1051 -0.3992
  155TCq2    C6 2363   3.312   1.777   0.068 -0.3821  0.6897 -0.0642
  155TCq2    C7 2364   3.182   1.826   0.071  0.6089 -0.1416  0.2995
  155TCq2    C8 2365   3.396   1.808   0.181  0.0772 -0.3276 -0.4853
  155TCq2    O4 2366   3.344   1.861   0.278 -0.1152 -0.1735  0.0098
  155TCq2    C9 2367   3.298   1.547  17.481  0.4699  0.1316 -0.1492
  155TCq2    O5 2368   3.426   1.533  17.458  0.4214  0.0597  0.1449
  155TCq2    O6 2369   3.215   1.488  17.412 -0.4048 -0.2013 -0.3425
  155TCq2    H2 2370   3.068   1.634  17.516  0.1516 -0.6951  0.3999
  155TCq2    H3 2371   3.456   1.649  17.661 -0.3164 -0.1868  1.2513
  155TCq2    H4 2372   3.146   1.904   0.137 -0.1747  1.4804 -2.0615
  156MPD2     C 2373   2.668   4.478  11.996  0.2851  0.0574  0.0073
  156MPD2    C1 2374   2.544   4.478  11.929  0.2743  0.2173  0.1739
  156MPD2    C2 2375   2.433   4.532  11.990  0.5113  0.4418  0.1969
  156MPD2    C3 2376   2.436   4.584  12.119  0.7196 -0.0930 -0.4337
  156MPD2    C4 2377   2.555   4.577  12.188  0.3424  0.2807  0.8994
  156MPD2    C5 2378   2.672   4.524  12.129  0.4131 -0.0185  0.4308
  156MPD2     H 2379   2.336   4.525  11.942  1.4716 -0.6943 -1.5739
  156MPD2    H1 2380   2.573   4.612  12.289 -0.4269  0.9652  0.7980
  156MPD2    H2 2381   2.756   4.438  11.948  0.5155 -0.3055  0.7379
  156MPD2    H3 2382   2.764   4.523  12.187  0.6803  1.1453  0.0356
  156MPD2     N 2383   2.312   4.628  12.183  0.0671 -0.3943 -0.5563
  156MPD2    H5 2384   2.230   4.636  12.123 -1.8567 -0.6417  2.0268
  156MPD2    N1 2385   2.543   4.425  11.793  0.0693  0.5226  0.4104
  156MPD2    H7 2386   2.611   4.352  11.774 -1.2462 -1.1604  2.1166
  157TCq2    C1 2387   2.435   4.418  11.714  0.6706 -0.4877  0.2067
  157TCq2    O2 2388   2.335   4.494  11.710 -0.3116 -0.0348  0.1019
  157TCq2    C2 2389   2.439   4.321  11.611  0.3309 -0.2718  0.2573
  157TCq2    C3 2390   2.474   4.186  11.642  0.0173  0.1538 -0.0567
  157TCq2    C4 2391   2.413   4.092  11.561  0.2627 -0.0989  0.6394
  157TCq2    C5 2392   2.329   4.127  11.460  0.2235 -1.0252 -0.0656
  157TCq2    C6 2393   2.309   4.253  11.428  0.1147  0.3720  0.0059
  157TCq2    C7 2394   2.354   4.347  11.512 -0.3610 -0.3596 -1.1639
  157TCq2    C8 2395   2.173   4.279  11.381  0.3804  0.2171 -0.0675
  157TCq2    O4 2396   2.119   4.206  11.301 -0.2239  0.2594 -0.0666
  157TCq2    C9 2397   2.409   3.954  11.609  0.4694  0.4761 -0.4259
  157TCq2    O5 2398   2.300   3.897  11.600  0.3634 -0.4500 -0.1300
  157TCq2    O6 2399   2.489   3.929  11.702 -0.0829 -0.1225  0.1462
  157TCq2    H2 2400   2.525   4.161  11.734  3.8146 -1.2856 -2.5640
  157TCq2    H3 2401   2.272   4.046  11.414  0.6590 -2.8266  2.5648
  157TCq2    H4 2402   2.349   4.451  11.479  0.4126 -0.0564 -0.3274
  158TMC2    C1 2403   2.003   3.627  13.056 -0.2245  0.1546 -0.0339
  158TMC2    C2 2404   1.998   3.675  12.926 -0.2083  0.0083 -0.4199
  158TMC2    C3 2405   1.874   3.686  12.859  0.4556  0.3084  0.4589
  158TMC2    C4 2406   1.894   3.593  13.126  0.5028 -0.1315 -0.4320
  158TMC2    C5 2407   1.772   3.605  13.062 -0.7161 -0.0595  0.0523
  158TMC2    C6 2408   1.761   3.644  12.929  1.0211 -0.2970 -0.0944
  158TMC2     C 2409   2.118   3.681  13.118 -0.2109  0.3520  0.3269
  158TMC2     O 2410   2.142   3.798  13.092  0.4700  0.3158 -0.4481
  158TMC2     H 2411   2.093   3.707  12.885  0.2710  0.3314  0.9510
  158TMC2    H1 2412   1.913   3.563  13.229  2.5283  0.1620 -0.7196
  158TMC2    H2 2413   1.663   3.648  12.882  1.3394  1.4603 -0.5909
  158TMC2    C7 2414   1.650   3.587  13.150 -0.5404 -0.2730 -0.3987
  158TMC2    C8 2415   1.845   3.826  12.824 -0.0148  1.3557 -0.2852
  158TMC2    O1 2416   1.549   3.597  13.083 -0.1933 -0.0954  0.3622
  158TMC2    O2 2417   1.766   3.896  12.882 -0.5284  0.4604  0.1041
  158TMC2    O5 2418   1.944   3.873  12.745 -0.1633 -0.1199 -0.2009
  158TMC2    H5 2419   1.997   3.799  12.706 -1.0017 -1.5408  1.3434
  159MPD2     C 2420   2.414   3.705  13.535  0.0289  0.1723  0.6712
  159MPD2    C1 2421   2.348   3.588  13.535  0.5873  0.2279 -0.0014
  159MPD2    C2 2422   2.266   3.559  13.428 -0.5397 -0.2560 -0.5446
  159MPD2    C3 2423   2.256   3.646  13.320 -0.3154 -0.5636  0.1182
  159MPD2    C4 2424   2.334   3.760  13.320 -0.3620 -0.1669 -0.3260
  159MPD2    C5 2425   2.412   3.787  13.428 -0.1175 -0.5999  0.1222
  159MPD2     H 2426   2.202   3.472  13.430 -0.8101 -0.0395 -0.0582
  159MPD2    H1 2427   2.337   3.824  13.232  0.4479 -1.9235 -1.5837
  159MPD2    H2 2428   2.480   3.724  13.619  2.5669  1.9363 -1.7263
  159MPD2    H3 2429   2.484   3.868  13.427 -1.8678  0.9609  0.2374
  159MPD2     N 2430   2.171   3.602  13.217 -0.3225 -0.1660  0.4418
  159MPD2    H5 2431   2.126   3.513  13.235  0.7220 -0.6180  0.8470
  159MPD2    N1 2432   2.343   3.516  13.654 -0.0575 -0.1680 -0.3967
  159MPD2    H7 2433   2.388   3.560  13.733 -2.4055 -1.1809  1.4953
  160TMC2    C1 2434   1.519   0.836   1.225  0.3174 -0.1328 -0.2120
  160TMC2    C2 2435   1.529   0.721   1.303  0.5318 -1.0798  0.1705
  160TMC2    C3 2436   1.637   0.635   1.288 -0.2511  0.3252 -0.3381
  160TMC2    C4 2437   1.610   0.862   1.122  0.3704  0.1322 -0.5345
  160TMC2    C5 2438   1.704   0.765   1.092 -0.1139 -0.8731  0.0440
  160TMC2    C6 2439   1.725   0.662   1.181  0.1019  0.2223  0.4767
  160TMC2     C 2440   1.388   0.896   1.227 -0.3103  0.3936  0.3719
  160TMC2     O 2441   1.303   0.824   1.279  0.5976 -0.0247 -0.1137
  160TMC2     H 2442   1.450   0.691   1.371  2.0714  0.3381  2.5919
  160TMC2    H1 2443   1.588   0.947   1.058 -0.1671  0.9771  0.7776
  160TMC2    H2 2444   1.793   0.581   1.157 -1.1577 -0.2522 -1.5029
  160TMC2    C7 2445   1.795   0.767   0.976 -0.1444  0.4492  0.5525
  160TMC2    C8 2446   1.610   0.497   1.330 -0.0838 -0.4266 -0.3957
  160TMC2    O1 2447   1.834   0.661   0.937 -0.3580 -0.5014 -0.1091
  160TMC2    O2 2448   1.503   0.463   1.370  0.0780  0.1471  0.5480
  160TMC2    O5 2449   1.727   0.459   1.383 -0.1348  0.3522  0.1543
  160TMC2    H5 2450   1.798   0.525   1.366 -1.2129  1.4197 -0.1604
  161MPD2     C 2451   1.135   1.051   1.196 -0.8053 -0.2945  0.2119
  161MPD2    C1 2452   1.258   1.104   1.175  0.2129 -1.0556 -0.3149
  161MPD2    C2 2453   1.274   1.239   1.147 -0.2770 -0.2649  0.7006
  161MPD2    C3 2454   1.157   1.319   1.143 -0.4892  0.5693 -0.4627
  161MPD2    C4 2455   1.028   1.265   1.161 -0.7114 -0.0025  0.1205
  161MPD2    C5 2456   1.021   1.129   1.186  0.6614 -0.4203 -0.8134
  161MPD2     H 2457   1.378   1.270   1.134 -0.9665  1.8081  0.1785
  161MPD2    H1 2458   0.938   1.324   1.149 -1.4895 -0.8726  1.6494
  161MPD2    H2 2459   1.117   0.945   1.211 -2.1947 -0.0189  0.5125
  161MPD2    H3 2460   0.923   1.084   1.202  1.8370 -2.0247  1.8567
  161MPD2     N 2461   1.161   1.458   1.111 -0.0204 -0.0969 -0.3453
  161MPD2    H5 2462   1.068   1.499   1.112  0.0650  0.0385  2.4257
  161MPD2    N1 2463   1.373   1.024   1.181  0.0206 -0.4863  0.1303
  161MPD2    H7 2464   1.461   1.068   1.158 -0.3921 -0.1885 -0.8623
  162TMC2    C1 2465   3.781   2.930   0.521 -0.2769 -0.8553  0.2785
  162TMC2    C2 2466   3.722   2.942   0.399 -0.6347 -0.5043  0.1341
  162TMC2    C3 2467   3.589   2.960   0.401  0.1058  0.6151  0.0409
  162TMC2    C4 2468   3.708   2.931   0.639 -0.2957 -0.0987 -0.4323
  162TMC2    C5 2469   3.575   2.953   0.628  0.1461  0.0142 -0.5529
  162TMC2    C6 2470   3.513   2.964   0.509  1.0487  0.0967 -0.3791
  162TMC2     C 2471   3.927   2.916   0.525 -1.0124  0.0286  0.3014
  162TMC2     O 2472   3.976   2.900   0.414 -0.6260  0.5341  0.7338
  162TMC2     H 2473   3.784   2.932   0.311 -1.0861 -0.5982 -0.1696
  162TMC2    H1 2474   3.749   2.896   0.733  0.0433  1.8968  0.1621
  162TMC2    H2 2475   3.406   2.968   0.492  1.1531 -1.8769 -1.5485
  162TMC2    C7 2476   3.483   2.934   0.742 -0.0626 -0.0672 -0.2955
  162TMC2    C8 2477   3.522   2.985   0.279  0.2630  0.4841  0.1805
  162TMC2    O1 2478   3.364   2.907   0.718 -0.2297 -0.3466 -0.0818
  162TMC2    O2 2479   3.433   3.061   0.261  0.5503  0.1893  0.9418
  162TMC2    O5 2480   3.572   2.905   0.180 -0.4658 -0.4891  0.2724
  162TMC2    H5 2481   3.627   2.834   0.220  2.3036  1.7812  0.4463
  163MPD2     C 2482   4.361   2.745   0.715  0.7333  0.8884  0.1844
  163MPD2    C1 2483   4.337   2.836   0.614 -0.2139  0.4434 -0.6971
  163MPD2    C2 2484   4.212   2.896   0.601  0.5748 -0.6122 -0.2814
  163MPD2    C3 2485   4.110   2.856   0.684 -0.3106  0.1341  0.4793
  163MPD2    C4 2486   4.135   2.783   0.798 -0.2049  0.6613  0.7996
  163MPD2    C5 2487   4.260   2.725   0.811  0.1721  0.2436 -0.6496
  163MPD2     H 2488   4.189   2.970   0.524  1.7502  1.8388  1.7338
  163MPD2    H1 2489   4.056   2.742   0.862  0.9522  0.8005  2.3142
  163MPD2    H2 2490   4.459   2.701   0.728  1.3167  1.1885 -3.2934
  163MPD2    H3 2491   4.278   2.663   0.898 -2.5199  0.3501 -0.0219
  163MPD2     N 2492   3.981   2.896   0.657  0.5498 -0.6837  0.4693
  163MPD2    H5 2493   3.917   2.876   0.733 -1.5454 -1.5418 -1.5161
  163MPD2    N1 2494   4.449   2.877   0.539 -0.6652  0.1281 -0.0620
  163MPD2    H7 2495   4.531   2.819   0.554 -1.2664 -0.0887  2.3029
  164TCq2    C1 2496   0.912   3.529  11.064 -0.5481 -0.0565  0.0291
  164TCq2    O2 2497   0.980   3.561  10.962 -0.2915  0.0176  0.0765
  164TCq2    C2 2498   0.811   3.622  11.114  0.9386 -0.0924  0.0398
  164TCq2    C3 2499   0.821   3.746  11.060  0.1288 -0.3151 -0.0282
  164TCq2    C4 2500   0.741   3.847  11.113 -0.1053  0.1224  0.3573
  164TCq2    C5 2501   0.653   3.821  11.207  0.0373 -0.2044 -0.0866
  164TCq2    C6 2502   0.638   3.689  11.251  0.2949  0.8638 -0.0323
  164TCq2    C7 2503   0.722   3.584  11.208 -0.2855  0.3715 -0.0271
  164TCq2    C8 2504   0.524   3.652  11.340 -0.3683 -0.0429 -0.5307
  164TCq2    O4 2505   0.425   3.730  11.336  0.1770 -0.1073 -0.2075
  164TCq2    C9 2506   0.747   3.982  11.065  0.4141 -0.6321  0.3869
  164TCq2    O5 2507   0.849   4.028  11.011  0.4863 -0.6658  0.6322
  164TCq2    O6 2508   0.646   4.057  11.081  0.2219  0.0018 -0.2297
  164TCq2    H2 2509   0.890   3.769  10.980 -0.0360  1.0539  0.2320
  164TCq2    H3 2510   0.587   3.902  11.237  0.4157  0.2333 -0.4433
  164TCq2    H4 2511   0.703   3.479  11.228  0.6431  0.0859 -0.6273
  165MPD2     C 2512   1.628   4.060   1.403  0.6574 -0.2149  0.0057
  165MPD2    C1 2513   1.701   4.021   1.510 -0.1320  0.3613 -0.1223
  165MPD2    C2 2514   1.820   4.092   1.538  0.2085 -0.4245  0.2224
  165MPD2    C3 2515   1.861   4.204   1.465  0.0018  0.1545 -0.5398
  165MPD2    C4 2516   1.780   4.246   1.360 -0.7001 -0.0441 -0.0425
  165MPD2    C5 2517   1.660   4.180   1.332  0.1319  0.5142 -0.1017
  165MPD2     H 2518   1.864   4.074   1.636  0.1336  1.1342  0.5489
  165MPD2    H1 2519   1.797   4.341   1.310  0.0456 -0.6602 -0.9524
  165MPD2    H2 2520   1.533   4.012   1.382  0.5999  0.8426 -2.1804
  165MPD2    H3 2521   1.578   4.219   1.273  1.7209  3.0351 -0.6130
  165MPD2     N 2522   1.979   4.284   1.477  0.1245 -0.1193  0.6602
  165MPD2    H5 2523   2.003   4.348   1.402 -0.8543  0.1561  0.5919
  165MPD2    N1 2524   1.646   3.916   1.588  0.3620  0.6532 -0.1444
  165MPD2    H7 2525   1.573   3.863   1.541 -1.3858  2.3089  0.7387
  166TCq2    C1 2526   2.062   4.270   1.584 -0.3160 -0.1848  0.3183
  166TCq2    O2 2527   2.039   4.200   1.679 -0.1397  0.2059  0.0807
  166TCq2    C2 2528   2.170   4.368   1.601  0.2065 -0.0695 -0.2042
  166TCq2    C3 2529   2.270   4.346   1.689  0.6636 -1.0573 -0.2902
  166TCq2    C4 2530   2.376   4.430   1.698  0.0774 -0.1366 -0.0445
  166TCq2    C5 2531   2.373   4.538   1.619  0.0158  0.4156  0.0056
  166TCq2    C6 2532   2.273   4.567   1.536  0.0855 -0.1331 -0.7026
  166TCq2    C7 2533   2.168   4.476   1.520 -0.3193  0.5456 -0.0819
  166TCq2    C8 2534   2.265   4.703   1.482 -0.3679 -0.4255  0.5044
  166TCq2    O4 2535   2.366   0.039   1.483 -0.1754  0.2023  0.1692
  166TCq2    C9 2536   2.489   4.400   1.773 -0.1622  0.6173  0.4117
  166TCq2    O5 2537   2.482   4.308   1.859 -0.0580  0.2240  0.1917
  166TCq2    O6 2538   2.583   4.489   1.776 -0.6633  0.2454  0.3713
  166TCq2    H2 2539   2.278   4.259   1.753 -1.9717 -0.6608  0.5849
  166TCq2    H3 2540   2.454   4.609   1.626  0.3118  0.1054 -0.2170
  166TCq2    H4 2541   2.082   4.494   1.457  0.8451 -0.6030 -2.0052
  167TMC2    C1 2542   4.425   3.432  12.878  0.1747  0.3029  0.4747
  167TMC2    C2 2543   4.376   3.498  12.984  0.1697  1.1337 -0.0001
  167TMC2    C3 2544   4.313   3.427  13.089 -0.0384  0.5962  0.6339
  167TMC2    C4 2545   4.427   3.290  12.869  0.2145 -0.3164 -0.5668
  167TMC2    C5 2546   4.378   3.223  12.982 -0.1840 -0.0485  0.5425
  167TMC2    C6 2547   4.317   3.288  13.090  0.3505 -0.4605 -0.0699
  167TMC2     C 2548   4.456   3.516  12.761 -0.1747 -0.2047  0.1358
  167TMC2     O 2549   4.440   3.637  12.769  0.1682  0.1919  0.2914
  167TMC2     H 2550   4.364   3.605  12.973  1.6956  1.4622  1.5807
  167TMC2    H1 2551   4.474   3.238  12.786  1.8795  1.0249 -0.4704
  167TMC2    H2 2552   4.270   3.236  13.173 -0.0935 -0.6933 -0.4717
  167TMC2    C7 2553   4.345   3.077  12.959 -0.7380 -0.2119 -0.0688
  167TMC2    C8 2554   4.260   3.492  13.210  0.1571  0.0737 -0.4794
  167TMC2    O1 2555   4.257   3.024  13.022  0.1522  0.2140  0.1418
  167TMC2    O2 2556   4.160   3.450  13.258  1.1302 -0.0414  0.0080
  167TMC2    O5 2557   4.301   3.621  13.206  0.4442  0.0622  0.2486
  167TMC2    H5 2558   4.394   3.634  13.178  0.2641  1.8006  0.4343
  168MPD2     C 2559   4.564   3.641  12.515 -0.6402 -0.2712 -0.5562
  168MPD2    C1 2560   4.554   3.506  12.533 -0.1552  0.8105 -0.1543
  168MPD2    C2 2561   4.592   3.422  12.435 -0.3781 -0.6123  0.1746
  168MPD2    C3 2562   4.634   3.476  12.315  0.4415  0.2667  0.1880
  168MPD2    C4 2563   4.638   3.616  12.293  0.4058  0.3277  0.6161
  168MPD2    C5 2564   4.600   3.698  12.399  0.5777 -0.0562  0.7998
  168MPD2     H 2565   4.599   3.317  12.460  0.9834 -1.0501 -2.0633
  168MPD2    H1 2566   4.674   3.666  12.204 -2.1174  0.8805 -0.1089
  168MPD2    H2 2567   4.550   3.709  12.598  1.6172  1.4612 -1.6229
  168MPD2    H3 2568   4.616   3.805  12.398  0.5508 -0.0681 -0.8176
  168MPD2     N 2569   4.681   3.396  12.206 -0.5926  0.3381 -0.2178
  168MPD2    H5 2570   4.709   3.441  12.119  0.6210 -1.2477 -0.6458
  168MPD2    N1 2571   4.514   3.447  12.662 -0.3639 -0.2396 -0.6421
  168MPD2    H7 2572   4.521   3.346  12.675  0.0627  0.0839  1.5315
  169MPD1     C 2573   2.295   2.280   8.607 -0.5441 -0.1110  0.0265
  169MPD1    C1 2574   2.280   2.166   8.690  1.1482 -0.0995  0.8771
  169MPD1    C2 2575   2.302   2.187   8.827 -0.3891 -0.5088 -0.8079
  169MPD1    C3 2576   2.367   2.297   8.877  0.2866 -0.1972 -0.4763
  169MPD1    C4 2577   2.394   2.401   8.789 -0.5672  0.7004 -0.2298
  169MPD1    C5 2578   2.355   2.389   8.661  0.2254 -1.0495  0.5079
  169MPD1     H 2579   2.263   2.118   8.901  0.0964 -0.3306 -0.3846
  169MPD1    H1 2580   2.430   2.497   8.822 -0.1143 -0.2078  1.9029
  169MPD1    H2 2581   2.270   2.276   8.502  0.8278 -1.8529 -0.2388
  169MPD1    H3 2582   2.370   2.474   8.596  0.7487 -1.5880 -0.0689
  169MPD1     N 2583   2.381   2.300   9.022 -0.0647  0.4254  0.0853
  169MPD1    H5 2584   2.334   2.230   9.079  1.3400  1.0862  2.0475
  169MPD1    N1 2585   2.202   2.054   8.657 -0.0666 -0.2552 -0.3197
  169MPD1    H6 2586   2.211   2.042   8.556  0.8063 -0.1403 -0.2570
  169MPD1    H7 2587   2.227   1.967   8.704  1.1161 -1.3108 -2.8755
  170MPD1     C 2588   1.431   0.374  13.179  0.3769 -1.2093  0.0003
  170MPD1    C1 2589   1.470   0.423  13.304 -0.6248 -0.1684  0.6423
  170MPD1    C2 2590   1.375   0.484  13.384  0.7918 -0.2179  0.0291
  170MPD1    C3 2591   1.244   0.490  13.342 -0.0284 -0.0488 -0.3375
  170MPD1    C4 2592   1.207   0.447  13.224  0.0503 -0.6423  0.4010
  170MPD1    C5 2593   1.300   0.389  13.137 -0.3742  0.0183 -0.1322
  170MPD1     H 2594   1.398   0.537  13.475 -0.5725 -0.2022  0.3706
  170MPD1    H1 2595   1.106   0.455  13.184  0.3368  0.9797  0.0166
  170MPD1    H2 2596   1.502   0.328  13.112 -1.2341 -1.1052 -1.7824
  170MPD1    H3 2597   1.264   0.340  13.047  1.1542 -0.7266 -0.3482
  170MPD1     N 2598   1.156   0.563  13.427  0.1257 -0.3489  0.5813
  170MPD1    H5 2599   1.200   0.585  13.516 -1.1150 -0.5496  1.2378
  170MPD1    N1 2600   1.606   0.421  13.350  0.5163  0.2093 -0.3550
  170MPD1    H6 2601   1.610   0.417  13.452 -0.7776  1.1395 -0.2551
  170MPD1    H7 2602   1.658   0.354  13.295 -0.4703 -0.3744 -0.5811
  171MPD1     C 2603   4.337   1.965  15.408 -0.6938 -0.6783 -0.4446
  171MPD1    C1 2604   4.424   1.883  15.336 -0.4180  0.4958  0.1334
  171MPD1    C2 2605   4.488   1.784  15.407 -0.3183 -0.3928 -0.0248
  171MPD1    C3 2606   4.486   1.779  15.544  0.2414 -0.1878  0.3518
  171MPD1    C4 2607   4.421   1.880  15.612  0.2380  0.0295  0.0223
  171MPD1    C5 2608   4.349   1.973  15.544  0.4130  0.8708  0.5232
  171MPD1     H 2609   4.556   1.721  15.351 -1.4599  0.5746 -2.4899
  171MPD1    H1 2610   4.428   1.889  15.719 -0.5330  1.1298 -0.0245
  171MPD1    H2 2611   4.274   2.033  15.351  2.6756  3.1748  0.4348
  171MPD1    H3 2612   4.301   2.054  15.598  0.1692  1.0824 -0.0136
  171MPD1     N 2613   4.541   1.682  15.628  0.3335  0.6144 -0.8004
  171MPD1    H5 2614   4.546   1.689  15.729  0.7066  0.0010 -0.7752
  171MPD1    N1 2615   4.414   1.879  15.197  0.2214  0.0069 -0.2883
  171MPD1    H6 2616   4.383   1.966  15.154 -1.0740  0.5705  1.7864
  171MPD1    H7 2617   4.499   1.856  15.146  1.3671  2.2672  0.5872
  172MPD1     C 2618   2.913   1.170  17.004  0.0586  0.1008  0.5892
  172MPD1    C1 2619   2.829   1.231  17.099  0.6818  0.0671 -0.9492
  172MPD1    C2 2620   2.881   1.248  17.224 -0.3930 -0.7364 -0.0752
  172MPD1    C3 2621   3.004   1.193  17.263 -0.3222  1.3789  0.5836
  172MPD1    C4 2622   3.085   1.126  17.168 -0.2681  1.4884  0.3977
  172MPD1    C5 2623   3.041   1.131  17.034  0.0474 -0.2298 -0.5436
  172MPD1     H 2624   2.823   1.299  17.300 -0.4154  0.2704 -0.7629
  172MPD1    H1 2625   3.185   1.093  17.193 -0.8459 -0.7074 -0.1916
  172MPD1    H2 2626   2.865   1.174  16.907  1.7449  0.7369 -0.2122
  172MPD1    H3 2627   3.110   1.093  16.959  2.9893  0.9757  1.5414
  172MPD1     N 2628   3.051   1.211  17.392  0.6569 -1.1336 -0.4848
  172MPD1    H5 2629   3.149   1.193  17.414  0.2431 -0.5463  1.9293
  172MPD1    N1 2630   2.709   1.295  17.059  0.4670 -0.1155  0.0621
  172MPD1    H6 2631   2.649   1.312  17.139  0.2041 -0.4814 -0.0598
  172MPD1    H7 2632   2.648   1.237  17.003 -0.8836 -0.6583  2.0949
  173MPD1     C 2633   4.393   1.256  14.325  0.6481 -0.6071  0.2833
  173MPD1    C1 2634   4.278   1.186  14.355 -0.0644  0.7091  0.4016
  173MPD1    C2 2635   4.297   1.068  14.419 -0.5267  0.7914 -0.3611
  173MPD1    C3 2636   4.425   1.014  14.451 -0.7201  0.0833  0.2874
  173MPD1    C4 2637   4.538   1.083  14.416  0.1391 -0.2978  0.4711
  173MPD1    C5 2638   4.521   1.204  14.355 -0.2780 -0.1824  0.0601
  173MPD1     H 2639   4.208   1.023  14.462  0.3260 -0.1587  0.4092
  173MPD1    H1 2640   4.638   1.050  14.440 -0.0906 -2.2427 -1.2914
  173MPD1    H2 2641   4.383   1.355  14.281  0.5612 -0.5182  0.5012
  173MPD1    H3 2642   4.607   1.267  14.334  1.8625 -3.0221  0.3525
  173MPD1     N 2643   4.431   0.879  14.497 -0.1010 -0.1207 -0.8523
  173MPD1    H5 2644   4.343   0.831  14.511  1.0437 -1.5601  1.5437
  173MPD1    N1 2645   4.156   1.247  14.364  0.2441 -0.2800  0.4308
  173MPD1    H6 2646   4.072   1.189  14.366 -2.6318  3.8056 -2.0863
  173MPD1    H7 2647   4.147   1.307  14.282  1.0934 -2.2296 -1.0908
  174MPD1     C 2648   4.087   4.686  14.389 -0.4643 -0.1310 -0.5491
  174MPD1    C1 2649   4.143   0.049  14.300  0.0471 -0.0419 -0.0261
  174MPD1    C2 2650   4.198   0.164  14.349  0.6059 -0.0642 -0.4339
  174MPD1    C3 2651   4.192   0.193  14.493 -0.2586  0.8131 -0.4243
  174MPD1    C4 2652   4.121   0.105  14.580 -0.7018 -0.4750 -0.3613
  174MPD1    C5 2653   4.077   4.716  14.524 -0.0074  0.6426  0.3968
  174MPD1     H 2654   4.240   0.242  14.287 -2.2207  1.1904 -0.7843
  174MPD1    H1 2655   4.097   0.130  14.682  0.9210 -0.7153  0.0748
  174MPD1    H2 2656   4.036   4.599  14.349 -1.2826 -0.1175  0.4534
  174MPD1    H3 2657   4.023   4.639  14.578 -0.7291  1.8859  1.4403
  174MPD1     N 2658   4.246   0.309  14.560  0.3833 -0.1197  0.5378
  174MPD1    H5 2659   4.202   0.329  14.649 -0.3324 -0.6529  0.3044
  174MPD1    N1 2660   4.138   0.032  14.161  0.6071 -0.4911  0.2978
  174MPD1    H6 2661   4.155   4.663  14.128 -0.3583 -0.6339  0.2040
  174MPD1    H7 2662   4.208   0.095  14.123  0.5454 -0.3815  0.3619
  175MPD1     C 2663   3.390   1.650  15.510 -0.7110 -0.3206  0.3868
  175MPD1    C1 2664   3.381   1.554  15.607 -0.9782 -0.8403 -0.2844
  175MPD1    C2 2665   3.311   1.582  15.724  0.7643  0.3244  0.1585
  175MPD1    C3 2666   3.265   1.711  15.755 -0.5944  0.3104 -0.3447
  175MPD1    C4 2667   3.272   1.809  15.653  0.1191  0.2653  0.4964
  175MPD1    C5 2668   3.341   1.775  15.538 -0.0567 -0.1274  0.3206
  175MPD1     H 2669   3.303   1.507  15.802  0.7345 -0.9728 -1.0937
  175MPD1    H1 2670   3.242   1.911  15.674 -1.1065 -0.2769  1.3293
  175MPD1    H2 2671   3.452   1.631  15.423 -1.9504 -0.6946 -0.4104
  175MPD1    H3 2672   3.351   1.846  15.456 -0.3626 -0.4250  0.0263
  175MPD1     N 2673   3.203   1.745  15.877  0.3845 -0.1048 -0.0055
  175MPD1    H5 2674   3.179   1.843  15.885  0.3016  0.0440 -2.0651
  175MPD1    N1 2675   3.450   1.431  15.586  0.6389 -0.6183  0.1453
  175MPD1    H6 2676   3.497   1.425  15.496  2.6458  0.3528  1.1473
  175MPD1    H7 2677   3.402   1.344  15.610 -1.1358  0.5024  0.7164
  176MPD1     C 2678   0.487   3.604  16.165 -0.6836  0.2137 -0.6228
  176MPD1    C1 2679   0.365   3.551  16.205  0.1854 -0.6951 -0.4216
  176MPD1    C2 2680   0.296   3.610  16.308  0.1202  0.3714  0.7877
  176MPD1    C3 2681   0.341   3.719  16.369 -0.0813 -0.3087 -0.4280
  176MPD1    C4 2682   0.468   3.764  16.323  0.0125 -0.6636  0.4219
  176MPD1    C5 2683   0.536   3.714  16.219  0.1884 -0.6554  0.4730
  176MPD1     H 2684   0.194   3.576  16.318  0.7799 -2.0253 -0.6244
  176MPD1    H1 2685   0.516   3.855  16.357  0.5853 -0.3925 -1.1112
  176MPD1    H2 2686   0.524   3.566  16.070 -1.0057  0.7335 -0.9552
  176MPD1    H3 2687   0.626   3.761  16.180 -1.1716  2.0358  0.5856
  176MPD1     N 2688   0.269   3.787  16.466  0.4251  0.1303  0.4132
  176MPD1    H5 2689   0.178   3.748  16.486  0.9852 -1.6470 -0.5627
  176MPD1    N1 2690   0.293   3.464  16.119 -0.3918 -0.5252 -0.7597
  176MPD1    H6 2691   0.351   3.388  16.083 -0.8456 -0.9917 -0.5064
  176MPD1    H7 2692   0.223   3.414  16.173  0.7289 -0.6734  0.5420
  177MPD1     C 2693   3.330   3.779  10.063 -0.5197  0.5454  0.7169
  177MPD1    C1 2694   3.228   3.714  10.001 -0.9745 -0.3091  0.7088
  177MPD1    C2 2695   3.151   3.783   9.915  0.1364  0.2886 -0.5015
  177MPD1    C3 2696   3.155   3.917   9.901 -0.7223 -0.9704 -0.3741
  177MPD1    C4 2697   3.245   3.991   9.979 -0.3744 -0.0850  0.0330
  177MPD1    C5 2698   3.329   3.917  10.062 -0.4887 -0.4324  0.1587
  177MPD1     H 2699   3.083   3.724   9.855 -0.8534  0.0961  0.8181
  177MPD1    H1 2700   3.259   4.098   9.965 -0.3125 -0.2575 -1.1990
  177MPD1    H2 2701   3.404   3.726  10.121 -0.1115 -1.9238 -2.0969
  177MPD1    H3 2702   3.403   3.973  10.118 -1.1039  1.8692 -1.3290
  177MPD1     N 2703   3.063   3.987   9.812 -0.9748  0.1046  0.1014
  177MPD1    H5 2704   2.997   3.934   9.756 -1.2698  0.0145  0.5318
  177MPD1    N1 2705   3.223   3.574  10.013  0.0885 -0.2238 -0.7148
  177MPD1    H6 2706   3.248   3.534  10.103 -1.7881 -0.9053 -0.4866
  177MPD1    H7 2707   3.127   3.547   9.990 -0.2533  0.5776 -0.2405
  178MPD1     C 2708   4.620   4.046   0.342 -0.1090 -0.0313  0.7420
  178MPD1    C1 2709   4.658   4.180   0.333 -0.0098  0.1882  0.3389
  178MPD1    C2 2710   4.723   4.213   0.220 -0.9438 -0.1219  0.0813
  178MPD1    C3 2711   0.009   4.132   0.108  0.0680 -0.2551 -0.8337
  178MPD1    C4 2712   4.695   3.998   0.118  0.0247  0.4131  0.4894
  178MPD1    C5 2713   4.637   3.956   0.234 -0.4316  0.3251 -0.3939
  178MPD1     H 2714   0.027   4.317   0.207 -1.7816  0.0769 -0.2632
  178MPD1    H1 2715   4.699   3.935   0.030 -1.0126 -0.6550  1.2072
  178MPD1    H2 2716   4.588   4.004   0.437 -2.4941  1.6162  0.6464
  178MPD1    H3 2717   4.616   3.850   0.244 -1.3857  0.5564  0.0605
  178MPD1     N 2718   0.052   4.178  17.688 -0.0217  0.0882 -0.1671
  178MPD1    H5 2719   0.041   4.116  17.609 -1.4687 -0.8315  0.7570
  178MPD1    N1 2720   4.612   4.277   0.428  0.2663 -0.2665 -0.6954
  178MPD1    H6 2721   4.667   4.362   0.436 -0.5546  0.1229  0.7122
  178MPD1    H7 2722   4.578   4.242   0.517 -0.5439  1.2655 -0.4232
  179MPD1     C 2723   0.223   2.802  16.613  0.4847 -0.3496  0.7721
  179MPD1    C1 2724   0.123   2.792  16.517  0.5080  0.2045  0.4321
  179MPD1    C2 2725   0.156   2.714  16.400 -0.0342 -0.2043 -0.4618
  179MPD1    C3 2726   0.264   2.635  16.397 -0.5634 -0.0621  0.1656
  179MPD1    C4 2727   0.362   2.644  16.496 -0.0908  0.6115 -0.1425
  179MPD1    C5 2728   0.336   2.731  16.600 -1.0515  0.3145 -0.5629
  179MPD1     H 2729   0.073   2.712  16.331  1.3238 -0.4709 -2.0894
  179MPD1    H1 2730   0.447   2.577  16.503 -0.4486  0.1722 -0.0138
  179MPD1    H2 2731   0.219   2.875  16.693  0.0549 -0.1558  0.5766
  179MPD1    H3 2732   0.415   2.729  16.675 -1.4421  0.6684 -0.1362
  179MPD1     N 2733   0.288   2.541  16.288 -0.1938  0.2381 -0.7209
  179MPD1    H5 2734   0.382   2.500  16.291 -0.7486 -0.8231  2.2251
  179MPD1    N1 2735   0.020   2.884  16.530  0.6958 -0.0360 -1.0392
  179MPD1    H6 2736   4.666   2.874  16.468 -0.6932 -0.4520  0.8218
  179MPD1    H7 2737   4.712   2.904  16.623 -0.4546 -1.5594 -1.1316
  180MPD1     C 2738   4.463   4.169  14.693 -0.3551 -0.0882  0.4750
  180MPD1    C1 2739   4.555   4.160  14.590  0.3589  0.0066  0.6485
  180MPD1    C2 2740   4.527   4.052  14.507  0.4890 -0.3572 -0.0008
  180MPD1    C3 2741   4.422   3.962  14.527 -1.2699 -0.6095 -0.4596
  180MPD1    C4 2742   4.332   3.979  14.631 -0.4254 -0.0764  0.0247
  180MPD1    C5 2743   4.359   4.083  14.714  0.2202 -0.4230 -0.1569
  180MPD1     H 2744   4.588   4.044  14.418 -1.0453  2.9500 -1.3356
  180MPD1    H1 2745   4.254   3.907  14.651  0.0430 -0.6865 -0.3286
  180MPD1    H2 2746   4.488   4.244  14.767  0.5662  1.6177 -1.5713
  180MPD1    H3 2747   4.296   4.107  14.799  2.9325  0.5834  1.5746
  180MPD1     N 2748   4.406   3.855  14.436  0.0642 -0.1713 -0.4241
  180MPD1    H5 2749   4.487   3.838  14.377 -1.4233 -2.6927 -1.7354
  180MPD1    N1 2750   4.671   4.241  14.578  0.4331  0.7790 -0.2318
  180MPD1    H6 2751   4.655   4.340  14.597  0.6766  0.4941  1.4547
  180MPD1    H7 2752   4.710   4.249  14.484 -0.6907  3.8516 -0.4496
  181MPD1     C 2753   1.220   0.605   9.644  0.2768 -0.0441 -0.4353
  181MPD1    C1 2754   1.213   0.722   9.718 -0.3618  0.1564 -0.7209
  181MPD1    C2 2755   1.323   0.760   9.790 -0.2701  0.0894 -0.4705
  181MPD1    C3 2756   1.432   0.681   9.804  0.2275 -0.3233  0.2551
  181MPD1    C4 2757   1.439   0.553   9.740  0.1467 -0.2547 -0.9629
  181MPD1    C5 2758   1.325   0.522   9.666 -0.5005  0.2553 -0.3606
  181MPD1     H 2759   1.310   0.850   9.850  0.9981  0.9001 -1.4333
  181MPD1    H1 2760   1.520   0.481   9.754  0.7050  0.9066  1.7377
  181MPD1    H2 2761   1.138   0.575   9.581  0.0825 -2.0128  0.7661
  181MPD1    H3 2762   1.320   0.434   9.602  0.2498 -1.1090  1.4526
  181MPD1     N 2763   1.537   0.706   9.895 -0.2554 -0.3094  0.0050
  181MPD1    H5 2764   1.615   0.640   9.898 -0.6350 -0.8658 -1.9987
  181MPD1    N1 2765   1.101   0.805   9.712  0.0532  0.0503 -0.0000
  181MPD1    H6 2766   1.014   0.753   9.697 -0.3578  0.3796  1.2142
  181MPD1    H7 2767   1.089   0.863   9.794 -1.1607 -0.7007  0.3661
  182MPD1     C 2768   2.461   4.149   1.478 -0.1163 -0.5639  0.2883
  182MPD1    C1 2769   2.392   4.039   1.530 -1.2490 -0.0973  0.7995
  182MPD1    C2 2770   2.281   3.988   1.467 -0.4562 -0.5494 -0.0444
  182MPD1    C3 2771   2.233   4.060   1.357  0.1015 -0.8545 -0.3693
  182MPD1    C4 2772   2.301   4.175   1.309 -0.1109 -0.2517  0.4343
  182MPD1    C5 2773   2.422   4.214   1.369  0.2427 -0.4631 -0.7916
  182MPD1     H 2774   2.242   3.899   1.514  0.0860 -0.2257  1.0064
  182MPD1    H1 2775   2.261   4.230   1.225  4.7606 -1.5250 -2.7375
  182MPD1    H2 2776   2.548   4.187   1.531 -0.3598  1.0178 -0.4322
  182MPD1    H3 2777   2.470   4.303   1.330 -0.2521  0.1596  0.0303
  182MPD1     N 2778   2.109   4.027   1.291  0.3033  0.3392  0.6821
  182MPD1    H5 2779   2.076   4.091   1.220 -1.1005  0.8629  1.7902
  182MPD1    N1 2780   2.449   3.968   1.629  0.1505  0.1357 -0.2857
  182MPD1    H6 2781   2.509   4.021   1.692  0.8002  0.5069 -1.2311
  182MPD1    H7 2782   2.382   3.929   1.696  2.2172 -0.4315  1.4386
  183MPD1     C 2783   3.859   1.165  10.346  0.4182 -0.1715 -0.3140
  183MPD1    C1 2784   3.796   1.067  10.417 -0.0985 -0.4554  0.2289
  183MPD1    C2 2785   3.671   1.032  10.379 -0.3326 -0.7477 -0.6368
  183MPD1    C3 2786   3.614   1.080  10.265  0.1570 -0.3564  0.5620
  183MPD1    C4 2787   3.682   1.176  10.197  0.3772  0.1252 -0.3785
  183MPD1    C5 2788   3.803   1.219  10.232  0.2130 -0.6550 -0.1489
  183MPD1     H 2789   3.620   0.959  10.442 -2.3989  1.0120 -0.2671
  183MPD1    H1 2790   3.643   1.226  10.109 -2.0353 -0.0794  0.5606
  183MPD1    H2 2791   3.956   1.204  10.374  0.1866  0.0515  0.1797
  183MPD1    H3 2792   3.859   1.291  10.175 -0.4887  1.2102  1.5247
  183MPD1     N 2793   3.479   1.038  10.237  0.8562 -0.9724  0.1316
  183MPD1    H5 2794   3.441   0.959  10.289 -0.6510 -0.6367 -0.4681
  183MPD1    N1 2795   3.856   1.014  10.533 -0.9250 -0.2805  0.6940
  183MPD1    H6 2796   3.860   0.912  10.537  0.6881 -0.1694  2.4435
  183MPD1    H7 2797   3.955   1.034  10.519 -0.9355  1.1536  2.6627
  184MPD1     C 2798   2.148   2.912   9.594 -0.0705  0.5849  0.4266
  184MPD1    C1 2799   2.157   3.015   9.676 -0.5993  0.0959  0.3889
  184MPD1    C2 2800   2.236   3.126   9.646 -0.4372 -0.1206 -0.1325
  184MPD1    C3 2801   2.284   3.150   9.516  0.5304  0.1554 -0.2347
  184MPD1    C4 2802   2.258   3.046   9.424 -0.4219  0.1997  0.6865
  184MPD1    C5 2803   2.196   2.933   9.466  0.1187 -0.0926  0.8741
  184MPD1     H 2804   2.242   3.206   9.719 -1.5290  1.2100 -1.4969
  184MPD1    H1 2805   2.284   3.053   9.319  0.6249  0.4565  0.9628
  184MPD1    H2 2806   2.089   2.826   9.622 -0.3771  0.3769 -0.8278
  184MPD1    H3 2807   2.172   2.857   9.391 -2.5752 -0.4433  2.0650
  184MPD1     N 2808   2.332   3.276   9.473  0.5138  0.1767 -0.2462
  184MPD1    H5 2809   2.353   3.285   9.374 -0.1186 -0.8070 -0.4754
  184MPD1    N1 2810   2.102   2.995   9.807 -0.3309  0.1945 -0.3125
  184MPD1    H6 2811   2.021   2.935   9.816  0.5237 -1.0860 -1.1337
  184MPD1    H7 2812   2.095   3.077   9.867 -0.9923  1.2054 -1.7710
  185MPD1     C 2813   2.225   3.511   8.688 -1.0154  0.6558 -0.1177
  185MPD1    C1 2814   2.206   3.633   8.748  0.4931 -0.0175  0.2151
  185MPD1    C2 2815   2.245   3.654   8.878 -0.5369 -0.9074  0.6820
  185MPD1    C3 2816   2.287   3.552   8.963 -0.0444  0.4029 -0.1278
  185MPD1    C4 2817   2.295   3.423   8.902 -0.6506 -0.1893  0.2151
  185MPD1    C5 2818   2.280   3.414   8.763  1.0725  0.5550  0.3713
  185MPD1     H 2819   2.235   3.752   8.925 -0.6438 -1.4521  1.7814
  185MPD1    H1 2820   2.331   3.338   8.958  3.4566  0.3041 -1.6981
  185MPD1    H2 2821   2.213   3.488   8.582 -0.9336  3.4983 -0.7416
  185MPD1    H3 2822   2.283   3.314   8.722  0.4923  0.9379 -0.6074
  185MPD1     N 2823   2.324   3.562   9.097  0.3232  0.2664  0.4253
  185MPD1    H5 2824   2.342   3.474   9.143 -0.3681  0.6351  1.4035
  185MPD1    N1 2825   2.149   3.741   8.674 -0.2060 -0.1910  0.3785
  185MPD1    H6 2826   2.156   3.745   8.573 -2.2559  0.8245  0.2557
  185MPD1    H7 2827   2.160   3.837   8.707 -0.4498 -0.4448  1.2262
  186MPD1     C 2828   0.495   2.823  15.543 -0.3745  0.5154  0.2153
  186MPD1    C1 2829   0.423   2.860  15.654  0.7168 -0.1611 -0.2400
  186MPD1    C2 2830   0.475   2.851  15.781 -0.0577  0.5665 -1.0240
  186MPD1    C3 2831   0.601   2.788  15.801 -0.1883  0.2654 -0.6996
  186MPD1    C4 2832   0.676   2.757  15.688  0.6851  0.4450 -0.1810
  186MPD1    C5 2833   0.619   2.772  15.563  0.1357  0.4082  0.5201
  186MPD1     H 2834   0.424   2.903  15.862 -1.1953  1.8593 -2.5764
  186MPD1    H1 2835   0.773   2.711  15.698  0.1164 -0.9249 -0.9241
  186MPD1    H2 2836   0.442   2.833  15.449 -0.9940  0.4628  0.5601
  186MPD1    H3 2837   0.677   2.731  15.481 -2.6707 -0.3539 -1.1178
  186MPD1     N 2838   0.667   2.782  15.925  0.0486  0.2586 -0.3814
  186MPD1    H5 2839   0.763   2.749  15.931  0.1922  0.8117  0.3638
  186MPD1    N1 2840   0.288   2.912  15.638 -0.0479  0.0343  0.1064
  186MPD1    H6 2841   0.232   2.877  15.561  1.2449 -0.5117 -0.5978
  186MPD1    H7 2842   0.245   2.900  15.729 -2.8949 -1.8585 -1.5034
  187MPD1     C 2843   3.947   0.185   0.484 -0.4339  0.0586 -0.1779
  187MPD1    C1 2844   3.845   0.160   0.393 -0.0730 -0.0767 -0.4726
  187MPD1    C2 2845   3.888   0.157   0.260  0.5925 -0.2817  0.0709
  187MPD1    C3 2846   4.020   0.197   0.220  0.0985  0.0652  0.2578
  187MPD1    C4 2847   4.117   0.228   0.315 -0.7018  0.1526  0.1512
  187MPD1    C5 2848   4.077   0.213   0.450  0.1951 -0.0180  0.2521
  187MPD1     H 2849   3.816   0.125   0.186  1.0431  0.2975 -0.6166
  187MPD1    H1 2850   4.220   0.253   0.291 -0.8017 -0.7817 -1.1842
  187MPD1    H2 2851   3.917   0.183   0.588 -0.2926 -0.8774 -0.1544
  187MPD1    H3 2852   4.140   0.255   0.528 -1.3817  2.1521  0.3453
  187MPD1     N 2853   4.061   0.204   0.081  0.3840 -0.2548 -0.2896
  187MPD1    H5 2854   4.154   0.241   0.066  0.4535 -0.7537 -1.1355
  187MPD1    N1 2855   3.716   0.128   0.432 -0.2354  0.9449  0.4762
  187MPD1    H6 2856   3.678   0.183   0.509 -3.4618 -0.8138  0.1454
  187MPD1    H7 2857   3.647   0.137   0.359 -0.9182 -1.1034  0.8795
  188MPD1     C 2858   0.567   0.043  10.418  0.3916 -0.1373 -0.2330
  188MPD1    C1 2859   0.443   4.703  10.419 -0.4977  0.8350  0.3696
  188MPD1    C2 2860   0.447   4.576  10.358  0.2338  0.1463  0.2343
  188MPD1    C3 2861   0.550   4.527  10.281  0.3755 -0.7227  0.5288
  188MPD1    C4 2862   0.668   4.603  10.276 -0.1317  0.4306  0.3454
  188MPD1    C5 2863   0.679   4.716  10.353  0.1439  0.6516 -0.5378
  188MPD1     H 2864   0.365   4.505  10.357  3.6785 -3.8947  1.0386
  188MPD1    H1 2865   0.759   4.589  10.218 -0.4875  1.1740 -0.3848
  188MPD1    H2 2866   0.584   0.140  10.462  0.6475 -1.5470  2.7817
  188MPD1    H3 2867   0.769   0.050  10.344  1.1870 -0.9809 -0.7470
  188MPD1     N 2868   0.526   4.412  10.204  0.5566 -0.6541 -0.3704
  188MPD1    H5 2869   0.434   4.368  10.208  0.9013 -1.5234 -1.8357
  188MPD1    N1 2870   0.330   0.021  10.493 -0.2146  0.0945  0.6538
  188MPD1    H6 2871   0.251   0.007  10.431 -0.1165 -1.5185  0.8975
  188MPD1    H7 2872   0.323   0.118  10.523  0.6576  1.1445 -2.5588
  189MPD1     C 2873   1.623   4.695   0.467 -0.6207  0.0831  0.3270
  189MPD1    C1 2874   1.531   4.622   0.398  1.1246  0.0970 -0.0763
  189MPD1    C2 2875   1.467   4.683   0.294 -0.5059  0.1511  0.0815
  189MPD1    C3 2876   1.477   0.094   0.263 -0.1010 -0.2240 -0.0673
  189MPD1    C4 2877   1.556   0.172   0.346  0.1765  0.6222 -0.3936
  189MPD1    C5 2878   1.632   0.105   0.441 -0.0318  0.0128 -0.0253
  189MPD1     H 2879   1.410   4.616   0.232 -1.1503  1.2704 -0.5382
  189MPD1    H1 2880   1.570   0.276   0.322 -1.7463  1.0384  0.3132
  189MPD1    H2 2881   1.676   4.654   0.552  1.4390  1.1126 -0.4709
  189MPD1    H3 2882   1.697   0.163   0.505  0.1477 -0.9106  0.6316
  189MPD1     N 2883   1.401   0.149   0.159 -0.2783 -0.5773 -0.0146
  189MPD1    H5 2884   1.342   0.077   0.119  1.3238 -0.3190 -2.8190
  189MPD1    N1 2885   1.505   4.487   0.432 -0.7270  0.0408  0.2537
  189MPD1    H6 2886   1.584   4.454   0.487  1.7814  2.8419 -1.6813
  189MPD1    H7 2887   1.511   4.426   0.351  0.1447  2.3334 -1.4017
  190MPD1     C 2888   4.471   3.713  15.426  0.5606 -0.2047  0.0967
  190MPD1    C1 2889   4.497   3.687  15.563  0.5655  0.1430 -0.2202
  190MPD1    C2 2890   4.630   3.669  15.594  0.2787 -0.6426  0.2108
  190MPD1    C3 2891   4.725   3.631  15.503 -0.1809  0.2141 -0.0193
  190MPD1    C4 2892   4.695   3.653  15.366 -0.6556 -0.8268  0.1407
  190MPD1    C5 2893   4.574   3.699  15.335  0.0517  0.2927  0.2972
  190MPD1     H 2894   4.658   3.673  15.699  0.1542 -3.4058  0.3608
  190MPD1    H1 2895   0.037   3.632  15.284 -0.1523  2.0289 -0.1516
  190MPD1    H2 2896   4.381   3.746  15.375 -0.7007 -1.8693  1.2642
  190MPD1    H3 2897   4.549   3.710  15.230  0.6152 -1.0948  0.0120
  190MPD1     N 2898   0.129   3.582  15.547 -0.2020 -0.4513  0.0274
  190MPD1    H5 2899   0.143   3.576  15.647  2.5551 -0.1827 -0.3445
  190MPD1    N1 2900   4.402   3.727  15.665  0.1104  0.1580 -0.4174
  190MPD1    H6 2901   4.306   3.701  15.641  0.7218 -1.6808 -0.9427
  190MPD1    H7 2902   4.423   3.678  15.752  0.9306  3.0690  0.9902
  191MPD1     C 2903   4.701   0.911  13.309 -0.4861  0.1006 -0.0706
  191MPD1    C1 2904   0.042   1.008  13.240 -0.5530 -0.1849  0.0366
  191MPD1    C2 2905   4.715   1.038  13.116 -0.1625  0.3327 -0.7142
  191MPD1    C3 2906   4.599   0.978  13.072 -1.6646 -0.5203 -0.3798
  191MPD1    C4 2907   4.535   0.887  13.148 -0.5853  0.0542  0.2851
  191MPD1    C5 2908   4.587   0.852  13.263  0.0034 -0.0719  0.6868
  191MPD1     H 2909   0.043   1.107  13.051  0.2299  1.3097  0.6370
  191MPD1    H1 2910   4.446   0.836  13.112  1.4485 -2.8994 -0.5364
  191MPD1    H2 2911   0.006   0.873  13.405  1.1087  0.4308 -0.4262
  191MPD1    H3 2912   4.544   0.771  13.320  1.1370 -1.5952 -0.6022
  191MPD1     N 2913   4.539   1.030  12.951  0.3279 -0.1705  0.4942
  191MPD1    H5 2914   4.590   1.105  12.906  0.9407  1.0365  3.1897
  191MPD1    N1 2915   0.143   1.095  13.300  0.2745  0.0343  0.2590
  191MPD1    H6 2916   0.216   1.052  13.355  0.2953  1.2641  1.1847
  191MPD1    H7 2917   0.193   1.141  13.223 -3.4844  1.6710 -1.2505
  192MPD1     C 2918   4.023   0.483  12.400  0.1504  0.8676  0.3959
  192MPD1    C1 2919   4.102   0.547  12.310  0.0000 -0.4517 -0.2269
  192MPD1    C2 2920   4.144   0.675  12.344 -0.9998 -0.3178 -0.1380
  192MPD1    C3 2921   4.120   0.720  12.476  0.5280 -0.0379 -0.4125
  192MPD1    C4 2922   4.030   0.655  12.555 -0.3243  0.7208 -0.6499
  192MPD1    C5 2923   3.979   0.540  12.509  0.0419  0.5591 -0.6183
  192MPD1     H 2924   4.197   0.731  12.268 -2.3712  0.6536 -0.3645
  192MPD1    H1 2925   4.000   0.688  12.654 -0.1670 -0.1394 -0.3181
  192MPD1    H2 2926   3.977   0.388  12.374  0.8478  0.2904  1.2294
  192MPD1    H3 2927   3.910   0.495  12.580  1.1805  2.9771  2.0106
  192MPD1     N 2928   4.166   0.850  12.517 -0.1068  0.8359  0.8677
  192MPD1    H5 2929   4.132   0.879  12.609  1.1271 -0.7621  1.8328
  192MPD1    N1 2930   4.120   0.500  12.179  0.3075 -0.0506 -0.8188
  192MPD1    H6 2931   4.157   0.405  12.181  0.6682  0.1026 -0.0121
  192MPD1    H7 2932   4.181   0.561  12.124 -0.1325  1.4847  0.3903
  193MPD1     C 2933   0.582   0.933  17.560 -0.3496 -0.7643  0.1353
  193MPD1    C1 2934   0.473   0.883  17.493 -0.6357  1.4497 -1.0935
  193MPD1    C2 2935   0.407   0.958  17.398  0.2256 -0.2915  0.2116
  193MPD1    C3 2936   0.451   1.088  17.379 -0.2737  0.2072 -0.1974
  193MPD1    C4 2937   0.569   1.136  17.446 -0.6498 -0.0998  0.3596
  193MPD1    C5 2938   0.630   1.053  17.537 -0.0506  0.1861  0.4405
  193MPD1     H 2939   0.335   0.911  17.333 -0.2929  1.5569 -0.5488
  193MPD1    H1 2940   0.626   1.228  17.432 -0.0210 -0.6267 -0.5436
  193MPD1    H2 2941   0.625   0.882  17.645  1.7807 -1.9586 -1.6343
  193MPD1    H3 2942   0.716   1.087  17.594 -0.0220  0.2096  0.3831
  193MPD1     N 2943   0.394   1.180  17.289  0.4570 -0.3730 -0.0832
  193MPD1    H5 2944   0.443   1.269  17.287 -0.5725  0.2077  0.5659
  193MPD1    N1 2945   0.447   0.738  17.508  0.2901  0.9259  0.1738
  193MPD1    H6 2946   0.347   0.722  17.499  0.5563 -0.3249 -0.5145
  193MPD1    H7 2947   0.471   0.703  17.601  0.3112  0.5181  0.0161
  194MPD1     C 2948   1.386   3.710  17.114  0.6463  0.1333 -0.0554
  194MPD1    C1 2949   1.417   3.685  16.982  0.5193  0.1960  0.3655
  194MPD1    C2 2950   1.488   3.567  16.962  0.2529  0.2871  0.5024
  194MPD1    C3 2951   1.504   3.474  17.066  0.3132  0.4220  0.5511
  194MPD1    C4 2952   1.454   3.492  17.190 -0.3128 -0.3366 -0.5297
  194MPD1    C5 2953   1.394   3.614  17.210 -0.2351  0.2114  0.3163
  194MPD1     H 2954   1.534   3.549  16.866 -0.4820 -0.0123  0.2072
  194MPD1    H1 2955   1.463   3.418  17.268 -3.3811  0.4515  0.5957
  194MPD1    H2 2956   1.334   3.800  17.143 -0.5818  0.1848 -2.4175
  194MPD1    H3 2957   1.350   3.636  17.306  1.0196 -0.4795  1.0525
  194MPD1     N 2958   1.603   3.367  17.054  0.0924  0.2704  0.7400
  194MPD1    H5 2959   1.619   3.305  17.133 -2.7651  0.8894  1.7947
  194MPD1    N1 2960   1.401   3.791  16.884  0.5385 -0.5224  0.0633
  194MPD1    H6 2961   1.414   3.768  16.785  2.5040  1.8431 -0.2525
  194MPD1    H7 2962   1.333   3.865  16.897  1.2684 -0.2685  2.3185
  195MPD1     C 2963   4.632   0.083   0.112  0.2177  0.2554  0.0338
  195MPD1    C1 2964   4.663   0.021  17.699 -0.7081 -0.0480  1.0788
  195MPD1    C2 2965   4.614   4.620  17.672 -0.1810  1.0750 -0.1523
  195MPD1    C3 2966   4.525   4.560   0.061  0.2032 -0.3107 -0.4528
  195MPD1    C4 2967   4.505   4.622   0.179 -0.8568  0.4235  0.6053
  195MPD1    C5 2968   4.532   0.029   0.192 -0.2871 -0.2482  0.0410
  195MPD1     H 2969   4.642   4.566  17.583  3.9367  3.6876 -0.4244
  195MPD1    H1 2970   4.444   4.576   0.257 -0.6947 -0.0818  0.4307
  195MPD1    H2 2971   4.692   0.168   0.141 -1.1109  1.2508 -0.1529
  195MPD1    H3 2972   4.508   0.082   0.284  0.7231  0.9913 -0.4146
  195MPD1     N 2973   4.482   4.427   0.044 -0.3257 -0.4491  0.6138
  195MPD1    H5 2974   4.441   4.386   0.127 -2.2144  1.7498  0.7612
  195MPD1    N1 2975   0.037   0.071  17.615  0.4536 -0.2018  0.0426
  195MPD1    H6 2976   0.036   0.173  17.614  1.4138 -0.2026 -1.4971
  195MPD1    H7 2977   0.028   0.037  17.520  1.8003  1.7440 -0.7823
  196MPD1     C 2978   3.694   3.643   0.729  0.2799  0.8228  0.1130
  196MPD1    C1 2979   3.822   3.679   0.696 -0.6696 -0.9960 -0.2255
  196MPD1    C2 2980   3.878   3.798   0.737 -0.1528  0.6280 -0.0020
  196MPD1    C3 2981   3.813   3.875   0.831  0.4886  0.0671 -0.7064
  196MPD1    C4 2982   3.689   3.834   0.866 -0.1067  0.2709 -0.0662
  196MPD1    C5 2983   3.629   3.719   0.821 -0.2179  0.0728  0.7958
  196MPD1     H 2984   3.970   3.842   0.698 -0.1402 -0.2594 -0.9711
  196MPD1    H1 2985   3.634   3.894   0.937 -0.4867 -0.6485  0.4191
  196MPD1    H2 2986   3.640   3.568   0.672  0.6571  1.1481 -0.6834
  196MPD1    H3 2987   3.529   3.698   0.858 -0.2086 -0.2800  0.6253
  196MPD1     N 2988   3.856   3.999   0.885  0.2396  0.0098  0.0190
  196MPD1    H5 2989   3.800   4.043   0.957 -0.8638 -0.9413 -0.2687
  196MPD1    N1 2990   3.883   3.611   0.590  0.7245 -0.4993 -0.0893
  196MPD1    H6 2991   3.860   3.512   0.589 -1.7761  0.0500  1.9551
  196MPD1    H7 2992   3.985   3.608   0.599  0.8572 -2.0590 -2.1357
  197MPD1     C 2993   3.030   2.286   0.474  0.2335 -0.3831  0.1447
  197MPD1    C1 2994   3.002   2.387   0.392 -0.4784 -0.1080 -0.5202
  197MPD1    C2 2995   2.935   2.368   0.271  0.2242 -0.3061  1.0387
  197MPD1    C3 2996   2.937   2.247   0.218  0.3749 -0.0242 -0.8742
  197MPD1    C4 2997   2.969   2.139   0.298 -0.5201 -0.4136  0.2179
  197MPD1    C5 2998   3.004   2.151   0.431 -0.3320  0.2798 -0.1842
  197MPD1     H 2999   2.903   2.455   0.215  3.5400 -0.0280 -0.4524
  197MPD1    H1 3000   2.979   2.038   0.261  0.1468 -0.1339 -0.3430
  197MPD1    H2 3001   3.077   2.296   0.572  3.3063  0.8573 -1.4500
  197MPD1    H3 3002   3.048   2.072   0.490 -1.4159 -0.8390 -0.8949
  197MPD1     N 3003   2.941   2.230   0.078  0.4017 -0.3768 -0.2889
  197MPD1    H5 3004   2.959   2.134   0.048 -1.4326 -0.4901 -1.0378
  197MPD1    N1 3005   3.023   2.512   0.442 -0.2406  0.0756  0.8667
  197MPD1    H6 3006   3.102   2.522   0.506 -0.2404  0.3835  0.8222
  197MPD1    H7 3007   3.031   2.593   0.380  0.4284 -1.0558 -0.5185
  198MPD1     C 3008   0.157   4.710  15.701 -0.4034 -0.1085  0.4459
  198MPD1    C1 3009   0.290   4.677  15.671  0.1530  0.1995 -0.7424
  198MPD1    C2 3010   0.394   0.024  15.726  0.0431  0.6545  0.4632
  198MPD1    C3 3011   0.364   0.114  15.832  0.1792  0.3294  0.5003
  198MPD1    C4 3012   0.233   0.137  15.869  0.0403 -0.8982  0.0222
  198MPD1    C5 3013   0.130   0.061  15.812 -0.0856 -0.4242 -0.2019
  198MPD1     H 3014   0.498   4.719  15.716 -0.4930 -0.5429 -1.4818
  198MPD1    H1 3015   0.212   0.208  15.948  0.7094 -0.9485  0.2525
  198MPD1    H2 3016   0.077   4.651  15.656  0.8193 -0.7257 -0.9117
  198MPD1    H3 3017   0.028   0.068  15.850 -0.8431  1.3285 -2.5200
  198MPD1     N 3018   0.471   0.184  15.886  0.5371  0.2521  0.0801
  198MPD1    H5 3019   0.561   0.160  15.845 -0.1354 -1.8044 -0.1889
  198MPD1    N1 3020   0.320   4.581  15.571 -0.2401  0.5117 -0.5633
  198MPD1    H6 3021   0.388   4.517  15.611  0.0885  1.6745  0.7578
  198MPD1    H7 3022   0.241   4.525  15.541 -0.0275 -0.1581  0.1321
  199MPD1     C 3023   3.200   1.340  10.314  0.5991  0.7448  0.0819
  199MPD1    C1 3024   3.185   1.429  10.215  0.4645 -0.1784  0.1681
  199MPD1    C2 3025   3.057   1.453  10.172 -0.4327  0.6504 -0.2920
  199MPD1    C3 3026   2.950   1.378  10.216  0.6115  1.2447  0.2979
  199MPD1    C4 3027   2.965   1.293  10.325 -0.0460 -0.8304  0.2503
  199MPD1    C5 3028   3.090   1.283  10.376 -0.5582 -0.2344 -0.7242
  199MPD1     H 3029   3.043   1.507  10.079 -1.7598  1.5379  0.4123
  199MPD1    H1 3030   2.883   1.234  10.365 -2.0331 -1.3809 -4.7079
  199MPD1    H2 3031   3.298   1.324  10.358  1.2954 -0.3658 -1.9016
  199MPD1    H3 3032   3.117   1.213  10.455  1.4365  2.0194  0.5795
  199MPD1     N 3033   2.810   1.404  10.177 -0.4538  0.4202 -0.1789
  199MPD1    H5 3034   2.739   1.338  10.206  0.3298 -0.0075  0.7751
  199MPD1    N1 3035   3.294   1.506  10.167  0.7593 -0.1243 -0.0705
  199MPD1    H6 3036   3.385   1.461  10.169  0.3320 -0.9062  2.0186
  199MPD1    H7 3037   3.277   1.532  10.070 -0.7411 -0.5855  0.0622
  200MPD1     C 3038   1.084   1.652  15.826 -0.3688 -0.8885  0.5954
  200MPD1    C1 3039   0.964   1.687  15.766 -0.0652  0.1231  0.7759
  200MPD1    C2 3040   0.946   1.643  15.636  0.1649  0.3271 -0.3569
  200MPD1    C3 3041   1.039   1.569  15.566  0.2626  0.2656  0.0303
  200MPD1    C4 3042   1.150   1.528  15.626 -0.2674 -0.0027  0.7607
  200MPD1    C5 3043   1.173   1.576  15.756  0.0053 -0.7111 -0.6502
  200MPD1     H 3044   0.857   1.685  15.591 -0.6347 -2.0622 -1.0255
  200MPD1    H1 3045   1.223   1.463  15.581 -0.5009  0.7142 -0.6388
  200MPD1    H2 3046   1.102   1.677  15.930 -1.0118 -0.2104  0.5342
  200MPD1    H3 3047   1.265   1.547  15.806 -0.2589  0.2303  0.3612
  200MPD1     N 3048   1.016   1.538  15.427  0.1335 -0.4156  0.7353
  200MPD1    H5 3049   0.927   1.571  15.390  0.9438 -2.1088 -2.7212
  200MPD1    N1 3050   0.891   1.795  15.813  0.2616 -0.5603 -0.8717
  200MPD1    H6 3051   0.797   1.800  15.776 -0.6530  0.7950  1.6588
  200MPD1    H7 3052   0.895   1.798  15.915 -1.8934 -0.5290 -0.7917
  201MPD1     C 3053   3.703   0.947  13.165  0.9720  0.5496 -0.0916
  201MPD1    C1 3054   3.634   0.851  13.087 -0.4126  0.1668 -0.1510
  201MPD1    C2 3055   3.686   0.724  13.107 -0.7120  0.6329  0.1090
  201MPD1    C3 3056   3.764   0.687  13.210  0.1642 -0.1283 -0.3157
  201MPD1    C4 3057   3.816   0.785  13.293 -0.1235  0.5682  0.6117
  201MPD1    C5 3058   3.787   0.917  13.272 -0.4811 -0.2977  0.3682
  201MPD1     H 3059   3.642   0.652  13.039  0.5075 -1.4566  1.5079
  201MPD1    H1 3060   3.887   0.761  13.372  0.2718 -1.3577 -0.3287
  201MPD1    H2 3061   3.691   1.054  13.156 -0.5140  0.2618 -1.4512
  201MPD1    H3 3062   3.829   0.991  13.340 -0.0763 -0.4991  0.3333
  201MPD1     N 3063   3.781   0.546  13.219 -0.3831 -0.3660  0.2420
  201MPD1    H5 3064   3.717   0.483  13.172  2.1064 -2.0106 -0.9459
  201MPD1    N1 3065   3.564   0.885  12.968 -0.0083  0.2146  0.5198
  201MPD1    H6 3066   3.507   0.807  12.936 -0.7474  1.6918 -1.7233
  201MPD1    H7 3067   3.515   0.974  12.969  0.7250  0.6263 -0.7480
  202MPD1     C 3068   4.429   0.217  10.400 -0.2130 -0.1012 -0.1362
  202MPD1    C1 3069   4.330   0.306  10.354 -0.7280 -0.1148  0.1017
  202MPD1    C2 3070   4.207   0.250  10.368 -0.4904 -0.1416 -0.2770
  202MPD1    C3 3071   4.176   0.153  10.459  0.0478  0.4293 -0.5701
  202MPD1    C4 3072   4.274   0.078  10.515  0.6626  0.3019 -0.0154
  202MPD1    C5 3073   4.400   0.113  10.481 -0.5068 -0.0761 -0.4854
  202MPD1     H 3074   4.126   0.309  10.327  0.4010  2.9807  2.4512
  202MPD1    H1 3075   4.248   4.716  10.574 -0.2207 -0.3740 -1.4210
  202MPD1    H2 3076   4.532   0.219  10.368 -0.8539 -1.3627 -2.3049
  202MPD1    H3 3077   4.483   0.055  10.520  0.1424  0.1211 -1.5398
  202MPD1     N 3078   4.041   0.101  10.469 -0.0617  0.4360 -0.5087
  202MPD1    H5 3079   4.034   0.017  10.525  0.5805  0.6933 -0.0328
  202MPD1    N1 3080   4.362   0.396  10.253  0.0574 -0.7089  0.7942
  202MPD1    H6 3081   4.461   0.420  10.252  0.3105 -1.7307  0.2985
  202MPD1    H7 3082   4.301   0.476  10.264  2.4888  1.1676  0.4890
  203MPD1     C 3083   2.377   1.108  13.344  0.4320  0.1745 -0.1001
  203MPD1    C1 3084   2.514   1.075  13.338 -0.2261  0.0730  0.2092
  203MPD1    C2 3085   2.557   0.987  13.247 -0.4298 -0.1402 -0.5342
  203MPD1    C3 3086   2.476   0.917  13.167  0.4324  0.3609  0.2389
  203MPD1    C4 3087   2.340   0.942  13.177  0.0440  0.2116  0.1668
  203MPD1    C5 3088   2.292   1.042  13.262  0.0356  0.0960 -1.2687
  203MPD1     H 3089   2.659   0.951  13.245 -0.6303 -0.7563  0.5105
  203MPD1    H1 3090   2.262   0.887  13.127  0.1960 -1.3463  1.6673
  203MPD1    H2 3091   2.338   1.169  13.425 -2.2920 -0.4609 -0.9427
  203MPD1    H3 3092   2.184   1.048  13.257  0.1408  1.9317 -1.0675
  203MPD1     N 3093   2.531   0.807  13.093 -0.1584  0.1635  0.0347
  203MPD1    H5 3094   2.626   0.773  13.106 -0.1755 -0.2635 -0.9267
  203MPD1    N1 3095   2.608   1.143  13.412 -0.1040  0.0641 -0.1483
  203MPD1    H6 3096   2.694   1.089  13.423 -1.0146 -0.8370  2.4845
  203MPD1    H7 3097   2.577   1.188  13.497  0.2232 -0.1817  0.1006
  204MPD1     C 3098   1.947   2.021   0.069 -0.1131  0.1727 -0.0613
  204MPD1    C1 3099   1.935   1.884   0.089  0.8084  0.3863  0.4069
  204MPD1    C2 3100   1.963   1.799  17.685  0.4084 -0.8238 -0.3165
  204MPD1    C3 3101   1.940   1.839  17.561  0.0525 -0.4335  0.3343
  204MPD1    C4 3102   1.921   1.977  17.538 -0.2980 -0.1459  0.3960
  204MPD1    C5 3103   1.931   2.063  17.642  0.1211  0.0310 -0.1812
  204MPD1     H 3104   1.979   1.694   0.006  2.4156 -0.3885  0.2388
  204MPD1    H1 3105   1.916   2.021  17.439  2.7935 -1.1298 -0.1877
  204MPD1    H2 3106   1.957   2.091   0.151 -1.7150  0.8839 -0.4712
  204MPD1    H3 3107   1.921   2.169  17.623  0.3301  0.0636 -0.1069
  204MPD1     N 3108   1.938   1.740  17.460 -0.0152  0.7995  0.6631
  204MPD1    H5 3109   1.956   1.645  17.492  1.5083  0.3676 -1.4967
  204MPD1    N1 3110   1.950   1.845   0.220  0.5734 -0.5014 -0.5387
  204MPD1    H6 3111   1.919   1.897   0.302 -1.3875 -1.2922 -0.7832
  204MPD1    H7 3112   1.914   1.750   0.226 -3.1371  1.0269  1.6517
  205MPD1     C 3113   2.002   0.761  16.529 -0.2067  0.0762  0.3243
  205MPD1    C1 3114   2.137   0.777  16.562  0.3655  0.4001 -0.5958
  205MPD1    C2 3115   2.188   0.708  16.668  0.3625  0.1582 -0.2335
  205MPD1    C3 3116   2.099   0.659  16.759 -0.2515 -0.3638 -0.1233
  205MPD1    C4 3117   1.964   0.662  16.733 -0.3572 -0.2959 -1.3204
  205MPD1    C5 3118   1.917   0.706  16.615  0.1002  0.0068 -0.0780
  205MPD1     H 3119   2.293   0.715  16.694  0.2322 -2.0160  0.8157
  205MPD1    H1 3120   1.889   0.630  16.804 -1.4039  2.3815 -1.2019
  205MPD1    H2 3121   1.961   0.791  16.433  0.6882 -1.6892 -0.6217
  205MPD1    H3 3122   1.812   0.686  16.594  0.6145 -1.3031 -1.4202
  205MPD1     N 3123   2.139   0.596  16.883  0.0402  0.5353  0.2099
  205MPD1    H5 3124   2.065   0.547  16.933 -0.3347  3.0658  2.0973
  205MPD1    N1 3125   2.220   0.819  16.458  0.3667 -0.5760 -0.0394
  205MPD1    H6 3126   2.306   0.863  16.491  0.8219 -0.5292 -1.2968
  205MPD1    H7 3127   2.173   0.881  16.393  0.3845  0.2894  0.7594
  206MPD1     C 3128   1.905   3.704  16.704 -0.4340  0.1494  0.0069
  206MPD1    C1 3129   2.029   3.643  16.688 -0.3768 -0.8969 -0.5978
  206MPD1    C2 3130   2.047   3.574  16.568  0.4028 -0.1898 -0.1211
  206MPD1    C3 3131   1.956   3.581  16.464 -0.0746  0.2163 -0.2322
  206MPD1    C4 3132   1.844   3.653  16.479  0.0942  0.2551 -0.1897
  206MPD1    C5 3133   1.818   3.714  16.602  0.1384 -0.1711  0.1425
  206MPD1     H 3134   2.136   3.512  16.569 -0.0111 -0.7500  2.4682
  206MPD1    H1 3135   1.777   3.663  16.395 -1.1152  1.0510  0.8673
  206MPD1    H2 3136   1.888   3.767  16.790 -1.7440  2.7042 -2.1199
  206MPD1    H3 3137   1.726   3.771  16.604  0.4568  0.3443  0.1341
  206MPD1     N 3138   1.989   3.534  16.335  0.4987  0.9068 -0.0529
  206MPD1    H5 3139   1.911   3.532  16.269 -0.9034 -0.2356  1.6122
  206MPD1    N1 3140   2.112   3.618  16.802 -0.3276 -0.4911  0.8310
  206MPD1    H6 3141   2.207   3.616  16.766  0.5758 -0.2754  3.1775
  206MPD1    H7 3142   2.120   3.707  16.850  0.0479  0.1166 -0.3611
  207MPD1     C 3143   4.149   1.805   9.404  0.3828 -0.1199 -0.2094
  207MPD1    C1 3144   4.172   1.674   9.427 -0.4351 -0.4810 -0.2687
  207MPD1    C2 3145   4.238   1.638   9.541 -1.5778 -0.5219 -0.1375
  207MPD1    C3 3146   4.286   1.734   9.628 -0.3192  0.9268  0.1415
  207MPD1    C4 3147   4.262   1.869   9.601 -0.3768  0.3314  0.4714
  207MPD1    C5 3148   4.201   1.898   9.482  0.3171 -0.3898  1.1304
  207MPD1     H 3149   4.256   1.532   9.558 -0.6992 -0.2637  0.5789
  207MPD1    H1 3150   4.298   1.953   9.659  0.6240  2.1829 -2.8003
  207MPD1    H2 3151   4.097   1.836   9.314  0.2073  0.7258  0.1796
  207MPD1    H3 3152   4.197   2.003   9.458 -0.1288 -0.8627 -0.8306
  207MPD1     N 3153   4.348   1.703   9.754 -0.3436  0.3238  0.2566
  207MPD1    H5 3154   4.370   1.779   9.817  2.0320 -0.0032 -0.1757
  207MPD1    N1 3155   4.110   1.578   9.346 -0.3795 -0.1181 -0.5423
  207MPD1    H6 3156   4.035   1.528   9.392  0.7427 -1.2376  0.0805
  207MPD1    H7 3157   4.070   1.621   9.263 -0.1145 -0.9520 -1.1062
  208MPD1     C 3158   2.836   0.125   0.238  0.0192 -0.5417 -0.7625
  208MPD1    C1 3159   2.720   0.191   0.201  0.6462  0.0146  0.2258
  208MPD1    C2 3160   2.609   0.111   0.207 -0.5194  0.9495  0.6904
  208MPD1    C3 3161   2.606   4.709   0.260 -0.0210 -0.4478  0.5578
  208MPD1    C4 3162   2.722   4.650   0.309 -1.1496  0.4390 -0.2295
  208MPD1    C5 3163   2.836   4.723   0.281 -0.1966  0.0084 -0.5056
  208MPD1     H 3164   2.514   0.151   0.174 -0.9182 -0.1119  0.5684
  208MPD1    H1 3165   2.734   4.545   0.331  2.1894  0.7645 -0.5331
  208MPD1    H2 3166   2.937   0.165   0.235 -0.5425  0.9909  0.3253
  208MPD1    H3 3167   2.927   4.684   0.323  0.4911  0.1973 -1.8242
  208MPD1     N 3168   2.480   4.639   0.266 -0.5992  0.3809  0.5542
  208MPD1    H5 3169   2.405   4.689   0.220  0.4795  0.4376 -1.1263
  208MPD1    N1 3170   2.724   0.306   0.117  0.8080  0.8703 -0.0865
  208MPD1    H6 3171   2.662   0.378   0.154  1.9908  1.9990 -0.3187
  208MPD1    H7 3172   2.815   0.351   0.109  0.4437  1.6391  0.1135
  209MPD1     C 3173   0.565   0.487  11.187 -0.3783  0.3386 -0.4615
  209MPD1    C1 3174   0.614   0.612  11.222 -0.7408  1.6899  0.4536
  209MPD1    C2 3175   0.577   0.719  11.144 -0.6857  0.5460  0.7157
  209MPD1    C3 3176   0.493   0.700  11.030  0.2373  0.0869 -0.3515
  209MPD1    C4 3177   0.452   0.579  11.001 -0.3642  0.6137  0.0543
  209MPD1    C5 3178   0.490   0.472  11.080  0.4688 -0.0472  0.3981
  209MPD1     H 3179   0.613   0.818  11.169  1.9062 -0.0045 -0.8059
  209MPD1    H1 3180   0.396   0.553  10.912 -0.5681  0.7655  0.1371
  209MPD1    H2 3181   0.578   0.406  11.259 -1.4986 -0.7719 -1.5259
  209MPD1    H3 3182   0.448   0.375  11.054  3.4379 -1.0093 -0.8536
  209MPD1     N 3183   0.449   0.817  10.962  0.1766 -0.4135  0.4815
  209MPD1    H5 3184   0.489   0.906  10.990 -3.5854  0.8415  1.8498
  209MPD1    N1 3185   0.675   0.629  11.349 -0.4431 -0.2504  0.3322
  209MPD1    H6 3186   0.705   0.538  11.382  0.5707 -0.5440 -1.4271
  209MPD1    H7 3187   0.748   0.700  11.346  1.1062 -1.9027 -0.5061
  210MPD1     C 3188   0.923   1.505  10.956 -0.3328  0.3540 -0.6023
  210MPD1    C1 3189   0.799   1.568  10.937 -0.4932  0.1973  0.4087
  210MPD1    C2 3190   0.696   1.487  10.900 -0.5035 -0.3110 -0.4888
  210MPD1    C3 3191   0.693   1.348  10.903 -0.4481  0.8836 -0.6317
  210MPD1    C4 3192   0.813   1.291  10.951  0.7883  0.1520 -0.1141
  210MPD1    C5 3193   0.926   1.368  10.959  0.5707  0.1718 -0.3688
  210MPD1     H 3194   0.603   1.538  10.875 -0.8079 -0.9612 -0.7118
  210MPD1    H1 3195   0.827   1.186  10.978  2.5188  0.4354  0.0805
  210MPD1    H2 3196   1.021   1.551  10.960 -0.2949  0.2857 -0.7362
  210MPD1    H3 3197   1.022   1.324  10.984  0.5171  1.2565  1.7492
  210MPD1     N 3198   0.587   1.263  10.872  0.0690  0.7301  0.0508
  210MPD1    H5 3199   0.603   1.163  10.879  0.0574  0.7308  0.0894
  210MPD1    N1 3200   0.801   1.712  10.937  0.0501  0.0188 -0.1112
  210MPD1    H6 3201   0.710   1.755  10.954 -0.2319 -0.3699 -0.6420
  210MPD1    H7 3202   0.862   1.734  11.015 -1.7686  0.8731  1.0781
  211MPD1     C 3203   3.537   0.643  16.056 -0.2042  0.0074  0.1701
  211MPD1    C1 3204   3.456   0.731  15.985  0.4763 -0.1589  0.2140
  211MPD1    C2 3205   3.322   0.737  16.014  0.2729 -1.0931 -0.9033
  211MPD1    C3 3206   3.267   0.648  16.109 -1.1237  0.0443  0.0312
  211MPD1    C4 3207   3.353   0.557  16.176 -0.0798  0.0930 -0.5374
  211MPD1    C5 3208   3.486   0.561  16.153  0.1996  0.0408  0.2332
  211MPD1     H 3209   3.265   0.805  15.952 -1.1868 -1.8150 -0.3337
  211MPD1    H1 3210   3.328   0.487  16.255  1.3783 -2.1281 -2.0598
  211MPD1    H2 3211   3.644   0.654  16.039  0.0553 -0.2156  1.6488
  211MPD1    H3 3212   3.555   0.499  16.210  0.3027  0.1307  0.2071
  211MPD1     N 3213   3.134   0.662  16.150  0.0411  0.1284  0.3087
  211MPD1    H5 3214   3.074   0.725  16.099 -0.2155 -0.7782 -0.5089
  211MPD1    N1 3215   3.520   0.818  15.894  0.3397  0.2578 -0.1232
  211MPD1    H6 3216   3.609   0.784  15.857 -0.3732 -1.9911  0.2546
  211MPD1    H7 3217   3.459   0.847  15.818 -1.0742 -0.6734  0.6638
  212MPD1     C 3218   1.470   3.788  16.199 -0.0082  0.1083 -0.4850
  212MPD1    C1 3219   1.335   3.777  16.213  1.1949 -0.3726  0.6386
  212MPD1    C2 3220   1.289   3.703  16.324 -0.7061 -0.3544 -0.3300
  212MPD1    C3 3221   1.379   3.622  16.399  0.6389  0.0805 -0.0585
  212MPD1    C4 3222   1.514   3.619  16.370  0.5043 -0.0898  0.1720
  212MPD1    C5 3223   1.556   3.702  16.271 -0.0668  0.3674  0.5339
  212MPD1     H 3224   1.185   3.711  16.351 -0.6230 -0.8837  0.1387
  212MPD1    H1 3225   1.590   3.559  16.418 -0.9000 -1.2827  0.8972
  212MPD1    H2 3226   1.509   3.857  16.125  1.1959  0.0864  0.1246
  212MPD1    H3 3227   1.663   3.709  16.252 -0.5120  2.8994 -1.0212
  212MPD1     N 3228   1.334   3.541  16.507  0.5566 -0.3192  0.0583
  212MPD1    H5 3229   1.395   3.465  16.534  0.3282  0.0746  1.6612
  212MPD1    N1 3230   1.243   3.862  16.144 -0.1802 -0.1165  0.0076
  212MPD1    H6 3231   1.287   3.894  16.058 -4.1177  2.8640 -0.9064
  212MPD1    H7 3232   1.157   3.811  16.129 -0.7406  1.3811 -1.9276
  213MPD1     C 3233   4.372   0.177  15.948  0.2996 -0.3747 -0.5072
  213MPD1    C1 3234   4.470   0.182  15.850  1.1216 -0.4263 -0.7929
  213MPD1    C2 3235   4.429   0.126  15.727  0.3299 -0.2734  0.3103
  213MPD1    C3 3236   4.320   0.040  15.716  0.0905 -0.0335  0.0266
  213MPD1    C4 3237   4.248   0.005  15.824 -1.0915 -0.1983  0.0787
  213MPD1    C5 3238   4.273   0.079  15.938 -0.3132 -0.5762 -0.4180
  213MPD1     H 3239   4.486   0.165  15.644  2.1373 -3.3755  0.0913
  213MPD1    H1 3240   4.166   4.661  15.808 -0.3425 -1.3535  1.3152
  213MPD1    H2 3241   4.399   0.217  16.044 -4.1773 -0.9834  0.9972
  213MPD1    H3 3242   4.212   0.051  16.023 -0.3789  1.2096  0.1358
  213MPD1     N 3243   4.277   4.701  15.591 -0.1733  0.1784  0.7513
  213MPD1    H5 3244   4.192   4.646  15.597 -0.0200 -0.1479  0.0131
  213MPD1    N1 3245   4.547   0.298  15.847 -0.0580  0.1637 -1.0416
  213MPD1    H6 3246   4.592   0.315  15.937  1.4067  1.4878 -2.0168
  213MPD1    H7 3247   4.627   0.283  15.785  0.1226  1.6198 -1.1609
  214MPD1     C 3248   3.750   4.080  15.567 -0.2014  0.3974 -0.1674
  214MPD1    C1 3249   3.812   4.051  15.454 -0.3552 -0.0563 -0.5002
  214MPD1    C2 3250   3.887   4.150  15.394 -0.1302 -1.0354  0.1589
  214MPD1    C3 3251   3.912   4.264  15.460 -0.2335  0.5517  0.0227
  214MPD1    C4 3252   3.859   4.288  15.588  0.4138  0.4782  0.1461
  214MPD1    C5 3253   3.778   4.189  15.637  0.7349  0.0899  1.0321
  214MPD1     H 3254   3.929   4.122  15.298 -2.0895 -0.6377 -0.8061
  214MPD1    H1 3255   3.877   4.373  15.652 -0.9488  1.4465 -0.7455
  214MPD1    H2 3256   3.671   4.012  15.595 -0.2457  1.0940  1.4163
  214MPD1    H3 3257   3.733   4.204  15.734 -0.3844 -1.8894  0.8250
  214MPD1     N 3258   4.010   4.358  15.410  0.0213  0.0475 -0.2255
  214MPD1    H5 3259   4.012   4.443  15.465  1.6180 -1.1120  1.5160
  214MPD1    N1 3260   3.768   3.945  15.375  0.0159 -0.2709  0.5240
  214MPD1    H6 3261   3.837   3.909  15.310  0.5585  1.7760 -0.0095
  214MPD1    H7 3262   3.731   3.868  15.432  0.8087 -0.0682  1.3211
  215MPD1     C 3263   4.647   0.318  10.636  0.2368 -0.5937 -0.6587
  215MPD1    C1 3264   4.719   0.429  10.609  0.6974 -0.5802 -0.0989
  215MPD1    C2 3265   0.056   0.486  10.714  0.0486  0.0143 -0.0545
  215MPD1    C3 3266   0.066   0.437  10.839 -0.4606  0.1899  0.1599
  215MPD1    C4 3267   0.018   0.309  10.858 -0.0770 -0.0476  0.9209
  215MPD1    C5 3268   4.670   0.258  10.759  0.1431  0.4909 -0.5910
  215MPD1     H 3269   0.090   0.588  10.701 -0.8884  0.3980  0.4934
  215MPD1    H1 3270   0.041   0.248  10.944 -0.9067 -2.7801 -0.8049
  215MPD1    H2 3271   4.584   0.265  10.566 -1.6653  1.0061 -0.1751
  215MPD1    H3 3272   4.626   0.160  10.774 -1.0604  1.1340  0.1179
  215MPD1     N 3273   0.131   0.510  10.940  0.2303 -0.3393 -0.1752
  215MPD1    H5 3274   0.169   0.600  10.912 -0.1928 -0.5938 -1.5842
  215MPD1    N1 3275   4.701   0.505  10.491 -0.4217 -0.1486  0.2574
  215MPD1    H6 3276   0.058   0.564  10.478 -0.9778  0.3262 -1.2200
  215MPD1    H7 3277   4.675   0.446  10.412 -2.0587 -0.0853  0.7486
  216MPD1     C 3278   1.095   3.725  17.462  0.4263 -0.1699  0.2528
  216MPD1    C1 3279   1.031   3.648  17.364  0.0622 -0.1530 -0.9280
  216MPD1    C2 3280   1.061   3.510  17.363 -0.1420  0.6233  0.0308
  216MPD1    C3 3281   1.141   3.455  17.456  0.1397 -0.4002  0.2807
  216MPD1    C4 3282   1.192   3.533  17.561  0.0726  0.4082 -0.9478
  216MPD1    C5 3283   1.163   3.665  17.565 -0.0587  0.0684 -0.2042
  216MPD1     H 3284   1.018   3.447  17.287 -1.1223  0.1879  0.9469
  216MPD1    H1 3285   1.253   3.495  17.643 -0.5209  1.7224  0.0993
  216MPD1    H2 3286   1.055   3.825  17.470  0.8758  0.2994 -3.1727
  216MPD1    H3 3287   1.189   3.725  17.651 -3.7473  0.4959  0.6396
  216MPD1     N 3288   1.162   3.318  17.452 -0.5551 -0.2381 -0.1658
  216MPD1    H5 3289   1.122   3.260  17.379  2.9780  0.6328 -2.7877
  216MPD1    N1 3290   0.940   3.703  17.277  0.5685  0.1971  0.1678
  216MPD1    H6 3291   0.849   3.703  17.323  1.5542  0.8312  2.1269
  216MPD1    H7 3292   0.923   3.640  17.199 -2.8567 -0.2878  1.3034
  217MPD1     C 3293   2.495   1.141   9.265  0.1559 -0.0954  0.0251
  217MPD1    C1 3294   2.598   1.057   9.302 -0.2149 -0.7771 -0.0077
  217MPD1    C2 3295   2.582   0.918   9.283  0.2873  0.8544  0.1752
  217MPD1    C3 3296   2.464   0.866   9.236 -0.4117 -0.2814 -0.4584
  217MPD1    C4 3297   2.359   0.953   9.202  1.2114  0.4891 -0.2503
  217MPD1    C5 3298   2.380   1.090   9.214 -0.7437 -0.2615 -0.1453
  217MPD1     H 3299   2.655   0.846   9.317 -0.6331  1.4098  3.3401
  217MPD1    H1 3300   2.264   0.923   9.160  0.9250  1.1347 -0.0683
  217MPD1    H2 3301   2.493   1.248   9.284  2.2500  0.1762 -1.2261
  217MPD1    H3 3302   2.294   1.154   9.197 -1.5817 -0.7933  2.0871
  217MPD1     N 3303   2.440   0.724   9.221  0.4468 -0.0701 -0.3164
  217MPD1    H5 3304   2.347   0.697   9.190  1.3119 -0.2770 -2.7032
  217MPD1    N1 3305   2.706   1.112   9.368 -0.2709  0.5162 -0.5600
  217MPD1    H6 3306   2.712   1.212   9.385  2.0074  0.1333  0.9671
  217MPD1    H7 3307   2.792   1.060   9.385  0.8532  2.5200 -0.1510
  218MPD1     C 3308   4.127   3.830  12.674 -0.4883 -0.0672 -0.0419
  218MPD1    C1 3309   4.224   3.926  12.705 -0.3838  0.0101 -0.0636
  218MPD1    C2 3310   4.197   4.060  12.688 -1.0396  0.2355  0.4358
  218MPD1    C3 3311   4.076   4.109  12.641  0.3874 -0.3017 -0.3727
  218MPD1    C4 3312   3.984   4.011  12.616 -0.4538  0.2466  0.4568
  218MPD1    C5 3313   4.004   3.877  12.628 -0.0435  0.1584  0.1774
  218MPD1     H 3314   4.267   4.135  12.725 -1.6786  0.6272  0.8460
  218MPD1    H1 3315   3.888   4.040  12.574 -0.4755  0.6026  0.7496
  218MPD1    H2 3316   4.141   3.723  12.681 -0.5528 -0.1936 -1.9635
  218MPD1    H3 3317   3.921   3.812  12.603 -0.2760 -0.3685  2.3129
  218MPD1     N 3318   4.046   4.246  12.626  0.1830  0.3869  0.6079
  218MPD1    H5 3319   4.131   4.299  12.645  0.0078  0.2140  1.9102
  218MPD1    N1 3320   4.339   3.875  12.768  0.6709  0.0358 -0.4472
  218MPD1    H6 3321   4.419   3.937  12.766  1.2947 -0.7844 -1.0729
  218MPD1    H7 3322   4.369   3.778  12.762  1.0411  0.1507 -0.4776
  219MPD1     C 3323   3.140   4.667  12.432  0.1963 -0.1863 -0.3218
  219MPD1    C1 3324   3.225   0.043  12.450 -0.3843  0.4227  0.8524
  219MPD1    C2 3325   3.355   0.017  12.486 -0.0608 -0.2716 -0.5877
  219MPD1    C3 3326   3.402   4.613  12.506 -0.1944  0.0771 -0.1960
  219MPD1    C4 3327   3.310   4.514  12.492 -0.6203 -0.5547  0.2286
  219MPD1    C5 3328   3.182   4.537  12.453  0.7001 -0.5230 -0.5185
  219MPD1     H 3329   3.418   0.105  12.493 -0.9223  0.2822  0.3365
  219MPD1    H1 3330   3.340   4.410  12.495  1.9370  0.1706 -0.7621
  219MPD1    H2 3331   3.036   4.684  12.406  0.3047  2.2351  0.8454
  219MPD1    H3 3332   3.109   4.460  12.431  1.0878 -0.5566 -1.7046
  219MPD1     N 3333   3.535   4.584  12.547 -1.0056  0.0782 -0.0711
  219MPD1    H5 3334   3.578   4.493  12.533  0.8835  0.9613  0.0822
  219MPD1    N1 3335   3.190   0.159  12.393  0.3794  0.5041 -0.2960
  219MPD1    H6 3336   3.102   0.190  12.432  0.9831  0.0404  1.4032
  219MPD1    H7 3337   3.243   0.238  12.431  0.8316 -1.0928  2.3720
  220MPD1     C 3338   3.996   1.609   9.879 -0.3265 -0.7133  0.0402
  220MPD1    C1 3339   3.971   1.467   9.885 -0.5215 -0.5292  0.7660
  220MPD1    C2 3340   4.031   1.399   9.989 -0.2978  0.6851 -0.0884
  220MPD1    C3 3341   4.116   1.463  10.082  0.4318 -0.6579 -1.0353
  220MPD1    C4 3342   4.141   1.598  10.068 -0.5270 -0.2207  0.2496
  220MPD1    C5 3343   4.079   1.664   9.970  0.3827  0.2902  0.4745
  220MPD1     H 3344   4.006   1.294   9.986  1.0435  0.3970 -1.2600
  220MPD1    H1 3345   4.209   1.657  10.128  0.3447 -2.2732  1.2848
  220MPD1    H2 3346   3.961   1.666   9.794 -1.8204  1.5632  2.2052
  220MPD1    H3 3347   4.101   1.769   9.953 -0.1636  0.3224 -0.0305
  220MPD1     N 3348   4.172   1.380  10.184  0.2734  0.7030  0.5684
  220MPD1    H5 3349   4.169   1.281  10.163  2.3005  0.5865  0.8653
  220MPD1    N1 3350   3.909   1.401   9.770  0.0314  0.0512  0.5378
  220MPD1    H6 3351   3.831   1.457   9.736  1.1190  0.2253 -1.6437
  220MPD1    H7 3352   3.879   1.305   9.789  0.2362 -0.4670 -1.7633
  221MPD1     C 3353   1.492   4.596  17.094  0.4970  0.2592 -0.1951
  221MPD1    C1 3354   1.392   4.566  17.004 -0.3076 -0.1759  0.1889
  221MPD1    C2 3355   1.420   4.503  16.885  0.1511 -0.1251  0.6356
  221MPD1    C3 3356   1.550   4.468  16.858  0.5621  0.1668 -0.3674
  221MPD1    C4 3357   1.648   4.494  16.955  0.2672  0.3687  1.0856
  221MPD1    C5 3358   1.621   4.572  17.067  1.0150 -0.3392  0.1711
  221MPD1     H 3359   1.335   4.487  16.819  1.6440  0.4478 -1.4408
  221MPD1    H1 3360   1.753   4.474  16.935  0.0826 -1.1426  1.6347
  221MPD1    H2 3361   1.478   4.658  17.182 -2.9359 -0.6350 -0.0704
  221MPD1    H3 3362   1.703   4.582  17.137  0.2199  2.2494  0.7621
  221MPD1     N 3363   1.598   4.409  16.737 -0.5219  1.0340  0.3643
  221MPD1    H5 3364   1.695   4.379  16.729 -0.5254  1.6100 -1.8577
  221MPD1    N1 3365   1.263   4.620  17.033 -0.4020  0.0870 -0.8945
  221MPD1    H6 3366   1.241   4.629  17.132  0.9174 -0.9396 -0.4974
  221MPD1    H7 3367   1.249   4.710  16.988 -1.8294 -0.0586 -0.7491
  222MPD1     C 3368   1.661   2.521  17.187 -0.1906 -0.1650  0.8565
  222MPD1    C1 3369   1.656   2.657  17.183  0.1863  0.4912 -0.0448
  222MPD1    C2 3370   1.620   2.729  17.292  0.3452 -0.1806 -0.0073
  222MPD1    C3 3371   1.590   2.668  17.410 -0.0168 -0.1237 -0.3359
  222MPD1    C4 3372   1.579   2.532  17.406 -0.1646  0.1228  0.9165
  222MPD1    C5 3373   1.601   2.460  17.296 -0.1355 -0.3796  0.2603
  222MPD1     H 3374   1.643   2.834  17.276  0.5201 -0.0811  0.8962
  222MPD1    H1 3375   1.536   2.484  17.493  0.8718 -0.3264  1.1823
  222MPD1    H2 3376   1.700   2.466  17.103  1.3350  3.9580 -1.1502
  222MPD1    H3 3377   1.596   2.353  17.307  0.7507 -0.1711  2.7756
  222MPD1     N 3378   1.559   2.740  17.531 -0.1499 -0.0099  0.1834
  222MPD1    H5 3379   1.555   2.682  17.614 -1.0012  0.3321  0.3824
  222MPD1    N1 3380   1.718   2.724  17.083 -0.5543  0.5501 -0.5287
  222MPD1    H6 3381   1.727   2.674  16.994 -1.1691 -0.8560  0.1936
  222MPD1    H7 3382   1.686   2.820  17.073  1.4052  1.0284 -2.4951
  223MPD1     C 3383   1.896   2.782   0.766  0.6343  0.1071  0.0728
  223MPD1    C1 3384   1.958   2.889   0.707 -0.1645  0.5222 -0.6295
  223MPD1    C2 3385   1.912   2.934   0.584 -0.3644  0.0914 -0.3416
  223MPD1    C3 3386   1.826   2.858   0.510 -0.2170 -0.0267  0.1471
  223MPD1    C4 3387   1.788   2.736   0.563  0.2326 -0.1445  0.3757
  223MPD1    C5 3388   1.813   2.707   0.693  0.2534 -0.2192 -0.5143
  223MPD1     H 3389   1.953   3.029   0.553 -1.5985  0.8162  0.2420
  223MPD1    H1 3390   1.729   2.670   0.500  2.3204 -0.2152 -1.4943
  223MPD1    H2 3391   1.931   2.756   0.865 -0.8014  2.2052  1.1403
  223MPD1    H3 3392   1.776   2.611   0.725  0.7295  0.2594  1.5126
  223MPD1     N 3393   1.786   2.903   0.379 -0.0537  0.3910 -0.2484
  223MPD1    H5 3394   1.830   2.987   0.345 -2.1244  0.9695 -1.4738
  223MPD1    N1 3395   2.038   2.975   0.788  0.4086 -0.2856 -0.5516
  223MPD1    H6 3396   2.082   2.919   0.861 -0.9670 -1.2152 -0.4356
  223MPD1    H7 3397   2.107   3.017   0.726 -0.9479  2.4685 -0.1941
  224MPD1     C 3398   3.222   1.008   9.395 -0.0745 -0.5444  0.2758
  224MPD1    C1 3399   3.107   1.071   9.443  0.0105  0.1252 -0.0560
  224MPD1    C2 3400   3.028   1.006   9.540 -0.7754  0.1175  0.6878
  224MPD1    C3 3401   3.056   0.878   9.580  0.1680 -0.8120  0.3616
  224MPD1    C4 3402   3.162   0.813   9.518  0.2284  0.5783  1.0036
  224MPD1    C5 3403   3.238   0.877   9.428 -0.8128  0.3579  0.3163
  224MPD1     H 3404   2.946   1.051   9.595 -0.2932  0.6205  0.9908
  224MPD1    H1 3405   3.183   0.707   9.533  3.1401  0.8123 -1.5959
  224MPD1    H2 3406   3.293   1.051   9.326 -1.3328  0.5617 -0.3296
  224MPD1    H3 3407   3.322   0.825   9.382  0.1694  3.5664 -1.5100
  224MPD1     N 3408   2.988   0.796   9.676  0.0619 -0.2422  0.1139
  224MPD1    H5 3409   3.018   0.699   9.686 -1.8674 -0.6759  1.7999
  224MPD1    N1 3410   3.084   1.207   9.410  0.1273  0.2552  0.1558
  224MPD1    H6 3411   3.121   1.238   9.321 -1.9091  0.4589 -0.6183
  224MPD1    H7 3412   2.984   1.224   9.420  0.3086  1.1987  0.2807
  225MPD1     C 3413   4.191   1.822  12.935 -0.6901  0.4541  0.0044
  225MPD1    C1 3414   4.168   1.686  12.921  0.2763  1.0173 -0.1265
  225MPD1    C2 3415   4.080   1.638  12.831 -0.1312  0.1444  0.1041
  225MPD1    C3 3416   4.003   1.729  12.752  0.0970 -0.3848 -0.5143
  225MPD1    C4 3417   4.028   1.868  12.763  0.0647 -0.1022 -0.4865
  225MPD1    C5 3418   4.131   1.913  12.845 -0.3975  0.5350 -0.1754
  225MPD1     H 3419   4.055   1.534  12.815 -0.4646 -0.1611  2.6498
  225MPD1    H1 3420   3.967   1.943  12.712  0.5071 -0.5701 -1.6928
  225MPD1    H2 3421   4.272   1.856  12.998 -1.6132 -1.1360  2.0751
  225MPD1    H3 3422   4.166   2.014  12.832  0.9156 -0.1802 -2.2559
  225MPD1     N 3423   3.891   1.693  12.674  0.2655 -0.9136 -0.6301
  225MPD1    H5 3424   3.861   1.768  12.612  0.6207 -1.5605 -1.6020
  225MPD1    N1 3425   4.209   1.593  13.020 -0.4017  0.2122 -0.2137
  225MPD1    H6 3426   4.297   1.627  13.059  0.6994 -2.2041 -0.6404
  225MPD1    H7 3427   4.211   1.497  12.989  0.8752 -0.0032  0.5253
  226MPD1     C 3428   1.474   1.424   9.518 -0.1838 -0.5081 -0.3621
  226MPD1    C1 3429   1.516   1.318   9.439 -0.5184  0.3613 -0.6473
  226MPD1    C2 3430   1.649   1.275   9.440  0.2635  0.7354 -0.8638
  226MPD1    C3 3431   1.735   1.340   9.524 -0.0810  0.4735  0.6747
  226MPD1    C4 3432   1.686   1.440   9.610 -0.4287  0.1028  0.1450
  226MPD1    C5 3433   1.562   1.483   9.603 -0.1415  0.4396 -0.6578
  226MPD1     H 3434   1.681   1.208   9.361  0.4039  0.4073 -0.5264
  226MPD1    H1 3435   1.752   1.495   9.677  0.1296 -0.0626 -0.2631
  226MPD1    H2 3436   1.373   1.459   9.503 -0.3026 -0.9830 -0.6792
  226MPD1    H3 3437   1.537   1.570   9.663 -0.4980  0.2832 -0.5834
  226MPD1     N 3438   1.870   1.309   9.506 -0.2060  0.2018  0.5610
  226MPD1    H5 3439   1.888   1.240   9.433  1.2372  0.0814  1.0301
  226MPD1    N1 3440   1.435   1.269   9.334  0.6059  0.1290 -0.5568
  226MPD1    H6 3441   1.337   1.286   9.356  0.4182 -1.7023  0.0490
  226MPD1    H7 3442   1.443   1.168   9.334  1.6276  0.2024  2.8135
  227MPD1     C 3443   2.395   0.480   9.569 -0.1598  0.3329 -0.0557
  227MPD1    C1 3444   2.499   0.565   9.567 -0.0613  0.1211 -0.0552
  227MPD1    C2 3445   2.464   0.696   9.579  0.0942 -0.1322  0.6660
  227MPD1    C3 3446   2.333   0.745   9.569 -0.8117 -0.4993  0.1465
  227MPD1    C4 3447   2.230   0.649   9.569 -0.3203  0.0381 -0.4458
  227MPD1    C5 3448   2.263   0.515   9.570 -0.0024  0.5110  0.3422
  227MPD1     H 3449   2.544   0.770   9.580  1.3319 -1.4784  1.2326
  227MPD1    H1 3450   2.128   0.683   9.568 -0.1589  0.4923 -1.1687
  227MPD1    H2 3451   2.427   0.377   9.568  0.3549  0.4728  1.0047
  227MPD1    H3 3452   2.178   0.448   9.572  1.1443 -0.9819 -1.2469
  227MPD1     N 3453   2.322   0.884   9.563  0.1521 -0.4645 -0.1635
  227MPD1    H5 3454   2.396   0.938   9.606  0.2625 -1.7061  1.2093
  227MPD1    N1 3455   2.629   0.525   9.591 -0.4263  0.1329  0.0791
  227MPD1    H6 3456   2.703   0.583   9.553  0.3110 -1.0134 -0.2520
  227MPD1    H7 3457   2.647   0.426   9.573 -2.2357 -0.2262  0.1863
  228MPD1     C 3458   1.310   3.863  13.059  0.3525  0.7557  0.2225
  228MPD1    C1 3459   1.235   3.954  12.989 -0.0086  0.6283  0.1699
  228MPD1    C2 3460   1.100   3.931  12.976 -0.7402 -0.3974 -0.0212
  228MPD1    C3 3461   1.036   3.821  13.021  0.5998 -0.2215 -0.0281
  228MPD1    C4 3462   1.112   3.732  13.088 -0.7489  0.3747 -0.1956
  228MPD1    C5 3463   1.248   3.745  13.103  0.6015 -0.0625 -0.4888
  228MPD1     H 3464   1.033   4.011  12.949  1.8367  1.3103 -1.3152
  228MPD1    H1 3465   1.076   3.643  13.139  0.2513  0.6858  1.0418
  228MPD1    H2 3466   1.412   3.882  13.090 -0.5585 -0.1663  3.7088
  228MPD1    H3 3467   1.311   3.668  13.147  0.7448 -0.1265 -0.8025
  228MPD1     N 3468   0.899   3.821  13.002  0.6081  0.2317  0.1623
  228MPD1    H5 3469   0.855   3.902  12.959 -0.0636 -0.8849 -1.2859
  228MPD1    N1 3470   1.284   4.086  12.966 -0.2710  0.4204  0.3442
  228MPD1    H6 3471   1.383   4.108  12.969 -0.5344  1.7176 -0.5147
  228MPD1    H7 3472   1.238   4.137  12.891  1.2642  1.9946  0.4645
  229MPD1     C 3473   0.169   2.722  14.284 -0.4294 -0.1873 -0.4861
  229MPD1    C1 3474   0.076   2.790  14.357 -0.2771 -0.5003 -0.0690
  229MPD1    C2 3475   0.106   2.816  14.485  0.0354  0.3943  0.0538
  229MPD1    C3 3476   0.223   2.761  14.544  0.2183 -1.1322  0.7806
  229MPD1    C4 3477   0.298   2.670  14.474  0.3180  0.0574  0.3092
  229MPD1    C5 3478   0.271   2.655  14.340  0.6329  0.5716 -0.2575
  229MPD1     H 3479   0.051   2.884  14.549 -0.8427  0.4710 -0.7941
  229MPD1    H1 3480   0.389   2.626  14.513  0.1879 -0.0898  0.4422
  229MPD1    H2 3481   0.157   2.721  14.177 -1.2276 -0.3760 -0.3907
  229MPD1    H3 3482   0.351   2.611  14.281 -1.1891 -1.6673 -1.0468
  229MPD1     N 3483   0.261   2.787  14.675 -0.1585  0.3325 -0.1653
  229MPD1    H5 3484   0.348   2.738  14.692 -0.6050 -0.2747  0.3715
  229MPD1    N1 3485   4.712   2.869  14.285 -0.6026  0.1078  0.4893
  229MPD1    H6 3486   4.648   2.919  14.347  0.6535 -0.6074  2.3599
  229MPD1    H7 3487   4.662   2.804  14.224 -0.2709 -0.0529  0.3920
  230MPD1     C 3488   4.447   3.005  15.485  0.3076  0.2891  0.0539
  230MPD1    C1 3489   4.421   2.998  15.349  0.0095  0.3441  0.4177
  230MPD1    C2 3490   4.523   2.955  15.270  0.4252 -0.0523  0.3701
  230MPD1    C3 3491   4.649   2.914  15.331  0.1948 -0.6389 -0.1486
  230MPD1    C4 3492   4.669   2.925  15.466 -0.0333  0.4408 -0.0493
  230MPD1    C5 3493   4.564   2.963  15.541 -0.1512 -0.5865 -0.5046
  230MPD1     H 3494   4.521   2.963  15.162 -0.0257 -4.3343  0.0808
  230MPD1    H1 3495   0.036   2.891  15.512 -0.4930  0.6602  1.0393
  230MPD1    H2 3496   4.371   3.045  15.550  2.2338  3.2319  0.4824
  230MPD1    H3 3497   4.586   2.965  15.647  0.8944  0.6360 -0.7490
  230MPD1     N 3498   0.025   2.879  15.233  0.5410 -0.4430 -0.0500
  230MPD1    H5 3499   0.001   2.882  15.134  0.2002 -1.0897  0.0139
  230MPD1    N1 3500   4.302   3.044  15.288  0.3042  0.2388 -0.1889
  230MPD1    H6 3501   4.297   2.988  15.203  1.2845 -0.0694 -0.0391
  230MPD1    H7 3502   4.226   3.037  15.356  0.8480 -0.0476  0.3920
  231MPD1     C 3503   3.088   4.489  15.482 -0.0405 -0.0402 -0.2822
  231MPD1    C1 3504   3.105   4.561  15.366  0.2664  0.6748 -0.3072
  231MPD1    C2 3505   3.231   4.571  15.319  0.1020  0.2279 -0.1959
  231MPD1    C3 3506   3.340   4.518  15.382  0.3384 -0.5363  1.3626
  231MPD1    C4 3507   3.320   4.442  15.493  0.2399  0.2412 -0.7547
  231MPD1    C5 3508   3.194   4.432  15.545  0.0193  0.4338 -0.3278
  231MPD1     H 3509   3.258   4.633  15.234 -0.8556  0.4027 -0.3756
  231MPD1    H1 3510   3.405   4.400  15.544  0.2770  0.2343 -0.8226
  231MPD1    H2 3511   2.988   4.478  15.523 -0.4166  2.0971 -0.6382
  231MPD1    H3 3512   3.179   4.379  15.638 -1.0858 -0.4284 -0.9979
  231MPD1     N 3513   3.470   4.560  15.334 -0.1965  0.1050  0.5058
  231MPD1    H5 3514   3.477   4.599  15.240  1.9575 -0.1466  0.5680
  231MPD1    N1 3515   2.987   4.593  15.295 -0.3623  0.5422 -0.5382
  231MPD1    H6 3516   2.907   4.606  15.358  0.3273 -3.8171  1.2719
  231MPD1    H7 3517   2.996   4.680  15.243  0.5285  0.5400 -0.3844
  232MPD1     C 3518   0.770   3.177   0.153 -0.9964  0.0135  0.3529
  232MPD1    C1 3519   0.632   3.186   0.176 -0.7464 -0.3824  0.3563
  232MPD1    C2 3520   0.567   3.067   0.153 -0.1985 -0.0752 -0.4999
  232MPD1    C3 3521   0.628   2.938   0.150  1.0037  0.4605  0.6690
  232MPD1    C4 3522   0.763   2.932   0.149 -0.3104 -0.2699  0.2631
  232MPD1    C5 3523   0.834   3.051   0.156  0.4311  0.1983 -0.5952
  232MPD1     H 3524   0.459   3.077   0.148 -0.1812  0.2020 -0.3409
  232MPD1    H1 3525   0.825   2.843   0.152  1.7167  1.1542  0.7884
  232MPD1    H2 3526   0.833   3.265   0.152 -1.4177  0.2509 -4.5436
  232MPD1    H3 3527   0.942   3.042   0.158  0.4503  1.0756  1.6395
  232MPD1     N 3528   0.549   2.823   0.138  0.5924 -0.0855  0.3765
  232MPD1    H5 3529   0.449   2.839   0.144  0.3802 -1.0218 -0.6102
  232MPD1    N1 3530   0.570   3.316   0.176  0.1025  0.0469 -0.1000
  232MPD1    H6 3531   0.472   3.306   0.204 -0.4649  0.5231 -1.9046
  232MPD1    H7 3532   0.628   3.387   0.219 -0.1950  0.6579 -0.7199
  233MPD1     C 3533   0.734   2.701   1.567 -0.2891  0.6521 -0.5214
  233MPD1    C1 3534   0.792   2.714   1.693 -0.3352  0.3750 -0.4058
  233MPD1    C2 3535   0.899   2.805   1.698  0.0523 -0.7267 -0.3337
  233MPD1    C3 3536   0.948   2.870   1.588 -0.7761  0.2301 -0.1922
  233MPD1    C4 3537   0.884   2.852   1.470 -0.5255  0.8339 -0.2828
  233MPD1    C5 3538   0.781   2.765   1.462  0.4327 -1.1105 -0.8321
  233MPD1     H 3539   0.948   2.823   1.794  0.2521  0.9929 -0.7616
  233MPD1    H1 3540   0.919   2.910   1.385  0.7585  1.4403  0.6534
  233MPD1    H2 3541   0.663   2.621   1.550  2.0179 -1.1167 -1.8057
  233MPD1    H3 3542   0.727   2.758   1.369 -2.4255 -0.8489  0.7996
  233MPD1     N 3543   1.065   2.952   1.583 -0.6370 -0.3848  0.5309
  233MPD1    H5 3544   1.094   2.982   1.490 -0.1462  0.6577  1.0221
  233MPD1    N1 3545   0.744   2.654   1.814  0.5864 -0.4056 -0.5170
  233MPD1    H6 3546   0.814   2.638   1.885  1.2353 -0.9007 -1.2724
  233MPD1    H7 3547   0.708   2.560   1.799 -2.1983  0.7066 -0.9214
  234MPD1     C 3548   3.694   3.866   9.599 -0.1292  0.0204  0.3949
  234MPD1    C1 3549   3.722   3.989   9.655 -0.4078 -0.0314 -0.0477
  234MPD1    C2 3550   3.629   4.089   9.627  0.1031 -0.6505  0.1658
  234MPD1    C3 3551   3.513   4.071   9.551  0.2653  0.4674 -0.0891
  234MPD1    C4 3552   3.488   3.946   9.502  0.3194 -0.0573  0.1820
  234MPD1    C5 3553   3.578   3.843   9.527 -0.4058 -0.4614  0.2623
  234MPD1     H 3554   3.653   4.188   9.663 -0.8155  0.2390 -1.6238
  234MPD1    H1 3555   3.396   3.921   9.450 -0.5322  1.3699  1.0062
  234MPD1    H2 3556   3.760   3.781   9.609  3.2489  2.5475 -0.1404
  234MPD1    H3 3557   3.557   3.741   9.499 -3.5046  0.0881  0.5233
  234MPD1     N 3558   3.432   4.184   9.548  0.2151  0.0764  0.0879
  234MPD1    H5 3559   3.464   4.268   9.595  1.0987  1.0310 -2.2293
  234MPD1    N1 3560   3.847   4.017   9.711 -0.4974 -0.1738  0.5035
  234MPD1    H6 3561   3.893   3.944   9.765  1.2130  0.7543  0.3141
  234MPD1    H7 3562   3.860   4.101   9.767  0.7360 -0.1009  0.1142
  235MPD1     C 3563   3.912   2.889  10.027  0.7005  0.0948  0.2313
  235MPD1    C1 3564   4.034   2.932  10.071 -0.0679  0.5080 -0.5891
  235MPD1    C2 3565   4.138   2.939   9.980  0.4202 -0.0603  0.2491
  235MPD1    C3 3566   4.126   2.891   9.857  0.2602  0.3048  0.1224
  235MPD1    C4 3567   3.999   2.858   9.811 -0.4516  0.3903 -0.5455
  235MPD1    C5 3568   3.894   2.867   9.892 -0.5392  1.1805 -0.1834
  235MPD1     H 3569   4.233   2.982  10.011  1.9863 -0.8193 -3.5580
  235MPD1    H1 3570   3.978   2.816   9.713 -0.1704 -2.5619  0.6605
  235MPD1    H2 3571   3.828   2.857  10.088  1.0075 -1.9903 -0.4231
  235MPD1    H3 3572   3.799   2.828   9.856  0.0965 -2.1026  1.6710
  235MPD1     N 3573   4.238   2.902   9.774 -0.0310 -0.9952  0.1833
  235MPD1    H5 3574   4.324   2.931   9.820 -1.0230  0.3888  1.1780
  235MPD1    N1 3575   4.061   2.940  10.210  0.5804  0.4308  0.6371
  235MPD1    H6 3576   4.141   2.998  10.235  0.0787  0.6566  1.7348
  235MPD1    H7 3577   3.978   2.953  10.267 -0.2493 -2.0864 -0.0006
  236MPD1     C 3578   4.468   3.316  10.413 -0.1897  0.6300  0.0000
  236MPD1    C1 3579   4.377   3.226  10.366  0.4443 -0.2236  0.0482
  236MPD1    C2 3580   4.368   3.100  10.427 -0.8062 -0.5814 -0.6578
  236MPD1    C3 3581   4.438   3.062  10.541 -0.2973  0.6675  0.5366
  236MPD1    C4 3582   4.520   3.161  10.587  0.0735  0.1096  0.1578
  236MPD1    C5 3583   4.535   3.282  10.524  0.4780  0.1948  0.7945
  236MPD1     H 3584   4.289   3.032  10.399 -0.0271 -1.8321  0.1809
  236MPD1    H1 3585   4.582   3.135  10.671 -1.4392 -0.9062  0.9537
  236MPD1    H2 3586   4.493   3.408  10.362  1.9335 -0.7565 -1.4682
  236MPD1    H3 3587   4.603   3.358  10.559  1.1790  0.3167 -0.8029
  236MPD1     N 3588   4.446   2.933  10.607 -0.3348 -0.3487  0.1614
  236MPD1    H5 3589   4.522   2.922  10.674 -0.8671 -2.1153  0.4668
  236MPD1    N1 3590   4.310   3.254  10.246  0.0013 -0.2673  0.2760
  236MPD1    H6 3591   4.316   3.353  10.220 -0.3262 -0.1861  0.5103
  236MPD1    H7 3592   4.218   3.211  10.242  0.0348 -0.3815  0.6735
  237MPD1     C 3593   4.059   1.439  15.180  0.0560 -0.9136  0.4462
  237MPD1    C1 3594   4.119   1.321  15.134  0.3712 -0.2208  0.2975
  237MPD1    C2 3595   4.027   1.229  15.080  0.4282 -0.3504 -0.1483
  237MPD1    C3 3596   3.886   1.256  15.071  0.7681  0.1173  0.1676
  237MPD1    C4 3597   3.829   1.363  15.125 -0.2191  0.8335  0.6293
  237MPD1    C5 3598   3.921   1.459  15.173 -1.2845 -0.4200  0.2850
  237MPD1     H 3599   4.058   1.134  15.037  0.2765 -1.3908  2.0135
  237MPD1    H1 3600   3.723   1.386  15.120 -0.4846 -0.4201  0.4664
  237MPD1    H2 3601   4.122   1.517  15.222 -0.1090  0.2172 -1.3956
  237MPD1    H3 3602   3.878   1.548  15.215  3.2361  2.2382 -0.6738
  237MPD1     N 3603   3.802   1.171  14.988 -0.1506  0.6017  0.8833
  237MPD1    H5 3604   3.707   1.206  14.984 -0.3588  0.1231  1.7076
  237MPD1    N1 3605   4.259   1.310  15.133  0.0149 -0.7981  0.7599
  237MPD1    H6 3606   4.294   1.215  15.139 -0.9184 -1.2535 -0.9768
  237MPD1    H7 3607   4.297   1.375  15.202 -0.4080  0.7156 -0.4225
  238MPD1     C 3608   0.420   0.645  14.995 -0.2610 -0.1592 -0.0572
  238MPD1    C1 3609   0.344   0.607  15.103  0.4776  0.0725 -0.0547
  238MPD1    C2 3610   0.285   0.485  15.087  0.6729 -0.0581  0.9311
  238MPD1    C3 3611   0.316   0.393  14.986  0.6821 -0.7902  0.7888
  238MPD1    C4 3612   0.411   0.433  14.892 -0.2150 -0.0623 -0.3610
  238MPD1    C5 3613   0.457   0.562  14.892 -0.0342 -0.2843 -0.2309
  238MPD1     H 3614   0.220   0.451  15.167 -1.3490  0.4161 -0.4945
  238MPD1    H1 3615   0.445   0.368  14.812 -1.9488  0.0059 -1.1394
  238MPD1    H2 3616   0.469   0.742  14.988 -1.7501  0.6378  0.5558
  238MPD1    H3 3617   0.521   0.594  14.810 -1.9245 -0.2103 -1.6667
  238MPD1     N 3618   0.267   0.262  14.981  0.0704  0.8242 -0.1621
  238MPD1    H5 3619   0.289   0.206  14.900  0.8593 -0.8177  1.1826
  238MPD1    N1 3620   0.316   0.699  15.201 -0.1804 -0.2498  0.1963
  238MPD1    H6 3621   0.294   0.658  15.291 -1.8133 -0.1123 -0.1421
  238MPD1    H7 3622   0.399   0.757  15.218 -0.1073 -0.5250  0.7601
  239MPD1     C 3623   1.352   0.581  14.855  0.2750  0.4722  0.5064
  239MPD1    C1 3624   1.251   0.669  14.875  0.3462  0.9399  1.0413
  239MPD1    C2 3625   1.177   0.696  14.764  0.2339 -0.5741 -0.6991
  239MPD1    C3 3626   1.196   0.638  14.638  0.3129  0.2096 -0.3241
  239MPD1    C4 3627   1.297   0.545  14.629 -0.4031 -0.2344 -0.1763
  239MPD1    C5 3628   1.369   0.514  14.736  0.4712 -0.3553 -0.0705
  239MPD1     H 3629   1.095   0.767  14.778 -0.0372 -0.7310 -1.4924
  239MPD1    H1 3630   1.311   0.502  14.531 -3.3992 -0.5291 -0.4935
  239MPD1    H2 3631   1.393   0.534  14.944  0.1284 -0.7099 -0.0410
  239MPD1    H3 3632   1.449   0.442  14.726  0.0536 -0.5431 -1.9883
  239MPD1     N 3633   1.133   0.689  14.522 -0.3211 -0.1488 -0.0602
  239MPD1    H5 3634   1.167   0.651  14.434  0.4279 -1.1762  0.6799
  239MPD1    N1 3635   1.210   0.704  15.007  0.3061  0.4924  0.1054
  239MPD1    H6 3636   1.286   0.702  15.075 -0.6874  1.6095  1.2440
  239MPD1    H7 3637   1.172   0.798  15.015 -0.5649 -0.0239  2.0486
  240MPD1     C 3638   4.422   0.624  13.561  0.6336 -0.0986 -0.1374
  240MPD1    C1 3639   4.353   0.520  13.623  0.3028 -0.0544  0.4175
  240MPD1    C2 3640   4.429   0.436  13.702  0.0760 -0.2703 -0.0118
  240MPD1    C3 3641   4.555   0.478  13.748 -0.2832 -0.2465  0.6149
  240MPD1    C4 3642   4.609   0.596  13.708  0.4462 -0.3118 -0.5110
  240MPD1    C5 3643   4.544   0.662  13.606 -0.4682  0.8369 -0.8504
  240MPD1     H 3644   4.400   0.333  13.721 -0.9264  0.2766  1.4149
  240MPD1    H1 3645   4.709   0.621  13.741  0.7328 -0.8798 -0.9404
  240MPD1    H2 3646   4.376   0.681  13.481 -0.6888 -1.4916 -0.3797
  240MPD1    H3 3647   4.585   0.755  13.567 -0.9958  2.0415  1.4662
  240MPD1     N 3648   4.627   0.388  13.835 -0.0776 -0.3713 -0.0040
  240MPD1    H5 3649   4.585   0.312  13.888  0.1163  0.6079  1.5387
  240MPD1    N1 3650   4.228   0.490  13.571 -0.3646 -0.0507  0.2198
  240MPD1    H6 3651   4.167   0.422  13.617 -3.0767  1.8849 -0.5456
  240MPD1    H7 3652   4.185   0.560  13.511  1.1479  0.6566 -0.0347
  241MPD1     C 3653   0.754   0.472  14.380 -0.1157 -0.4386  0.4177
  241MPD1    C1 3654   0.664   0.398  14.451 -0.1556 -0.4078 -0.0142
  241MPD1    C2 3655   0.541   0.357  14.392  0.9868 -0.0694  0.1120
  241MPD1    C3 3656   0.511   0.401  14.265  0.0961  0.4990  0.0291
  241MPD1    C4 3657   0.598   0.484  14.199 -0.3723  0.3068  0.1784
  241MPD1    C5 3658   0.721   0.518  14.254 -0.5087 -0.7515 -0.1730
  241MPD1     H 3659   0.479   0.279  14.436  1.2513  0.6060  1.6889
  241MPD1    H1 3660   0.580   0.520  14.098 -1.5313 -1.4759 -0.2540
  241MPD1    H2 3661   0.853   0.497  14.417 -0.1669 -0.6867  0.7202
  241MPD1    H3 3662   0.783   0.576  14.186  1.6449 -0.8910  1.6773
  241MPD1     N 3663   0.393   0.364  14.201  1.0542 -0.3283  0.1954
  241MPD1    H5 3664   0.387   0.384  14.102 -0.1704  1.1836  0.5750
  241MPD1    N1 3665   0.710   0.337  14.572 -0.2603 -0.0719  0.5060
  241MPD1    H6 3666   0.638   0.321  14.643 -1.7680 -1.1753 -1.2962
  241MPD1    H7 3667   0.787   0.383  14.621  0.6694 -3.5489  2.3350
  242MPD1     C 3668   4.522   3.361  15.996 -0.0298  0.4755 -0.1880
  242MPD1    C1 3669   4.428   3.408  15.906 -0.2090 -0.0404 -0.7623
  242MPD1    C2 3670   4.463   3.384  15.773 -0.2577 -0.9139  0.2184
  242MPD1    C3 3671   4.570   3.307  15.725 -0.7493 -0.5660 -0.2152
  242MPD1    C4 3672   4.644   3.245  15.821  0.0421  1.1802  0.0685
  242MPD1    C5 3673   4.625   3.284  15.953  0.3557 -0.6804 -0.7135
  242MPD1     H 3674   4.395   3.438  15.708  0.8575  0.3078  0.0609
  242MPD1    H1 3675   4.721   3.173  15.796 -0.5561  0.0631  1.4111
  242MPD1    H2 3676   4.522   3.392  16.100  1.9052 -0.2628  0.0273
  242MPD1    H3 3677   4.690   3.242  16.029  0.9776 -0.1777 -0.9684
  242MPD1     N 3678   4.596   3.287  15.582 -0.1912  0.5173 -0.2091
  242MPD1    H5 3679   4.678   3.232  15.559 -0.2744  0.1250  0.4307
  242MPD1    N1 3680   4.333   3.504  15.934  0.0548 -0.3128  0.3784
  242MPD1    H6 3681   4.289   3.497  16.026 -1.2006 -1.6445 -0.3164
  242MPD1    H7 3682   4.259   3.508  15.865  0.8837  3.0856 -0.2983
  243MPD1     C 3683   1.609   1.804   0.161 -0.2452 -0.6506  0.0306
  243MPD1    C1 3684   1.665   1.683   0.183  0.5985 -0.5410 -0.6768
  243MPD1    C2 3685   1.677   1.594   0.078 -0.4938 -0.6448  0.4626
  243MPD1    C3 3686   1.644   1.630  17.654  0.2602 -0.3953 -0.2241
  243MPD1    C4 3687   1.582   1.752  17.636  0.0100  0.2618 -0.6122
  243MPD1    C5 3688   1.567   1.840   0.036  0.5454  0.3646  1.4065
  243MPD1     H 3689   1.696   1.490   0.101  1.2062 -0.3313  0.4914
  243MPD1    H1 3690   1.541   1.780  17.539 -0.9453  0.5942 -0.1159
  243MPD1    H2 3691   1.589   1.867   0.247 -3.0530 -1.4812 -0.0158
  243MPD1    H3 3692   1.511   1.932   0.024 -2.3171 -1.5585 -0.2272
  243MPD1     N 3693   1.653   1.531  17.553  0.6121 -0.2634 -0.0542
  243MPD1    H5 3694   1.700   1.443  17.570 -0.9328 -0.8806  0.9314
  243MPD1    N1 3695   1.687   1.642   0.321 -0.5739 -0.1226  0.0071
  243MPD1    H6 3696   1.699   1.718   0.388 -1.1569 -1.8886  2.1210
  243MPD1    H7 3697   1.758   1.571   0.334 -0.4847 -0.2581 -1.2648
  244MPD1     C 3698   1.648   0.588  17.538  0.3715 -0.2690  0.7967
  244MPD1    C1 3699   1.583   0.613  17.421 -0.1532  0.5115  0.2388
  244MPD1    C2 3700   1.604   0.739  17.363 -0.4198 -0.2992  0.5430
  244MPD1    C3 3701   1.677   0.837  17.428  0.7531 -0.3778 -0.1376
  244MPD1    C4 3702   1.740   0.813  17.548 -1.1297  0.0245 -0.1063
  244MPD1    C5 3703   1.721   0.685  17.592  0.0760  0.2091  0.1535
  244MPD1     H 3704   1.573   0.758  17.261 -1.7414 -3.6659  0.3295
  244MPD1    H1 3705   1.805   0.878  17.605 -3.0752  1.2242  0.7767
  244MPD1    H2 3706   1.647   0.494  17.591 -0.8488 -0.2626  0.7917
  244MPD1    H3 3707   1.773   0.661  17.684  1.0471 -0.0594 -0.4728
  244MPD1     N 3708   1.685   0.957  17.363 -0.2880 -0.1398  0.0623
  244MPD1    H5 3709   1.638   0.965  17.273  0.7069 -0.2167 -0.4719
  244MPD1    N1 3710   1.513   0.514  17.352  0.0249 -0.6969  0.3138
  244MPD1    H6 3711   1.475   0.436  17.405 -1.9108 -0.1155 -0.2326
  244MPD1    H7 3712   1.438   0.559  17.301 -0.0282 -1.1019  0.0325
  245MPD1     C 3713   2.876   2.394  13.477 -0.4247 -0.1909  0.0346
  245MPD1    C1 3714   2.976   2.411  13.378 -0.1192 -0.1268  0.0830
  245MPD1    C2 3715   3.091   2.483  13.413  0.2287  0.1282 -0.1512
  245MPD1    C3 3716   3.108   2.527  13.548  0.1365 -0.3582  0.2939
  245MPD1    C4 3717   3.019   2.486  13.648 -0.2874 -0.2467 -0.0490
  245MPD1    C5 3718   2.901   2.422  13.610 -0.1475 -0.6293 -0.1642
  245MPD1     H 3719   3.159   2.512  13.334  0.8960 -0.0548  0.3459
  245MPD1    H1 3720   3.029   2.507  13.754 -1.9032 -0.1813  0.0988
  245MPD1    H2 3721   2.785   2.343  13.447 -1.3971  1.1689  0.6619
  245MPD1    H3 3722   2.828   2.395  13.684  0.4304 -0.3136  0.5184
  245MPD1     N 3723   3.219   2.607  13.587  0.2160 -0.6128  0.6647
  245MPD1    H5 3724   3.278   2.644  13.514 -1.3389 -0.5676 -0.5649
  245MPD1    N1 3725   2.956   2.370  13.245 -0.1279 -0.3378  0.1014
  245MPD1    H6 3726   2.899   2.285  13.244  1.0855 -1.1417 -0.8603
  245MPD1    H7 3727   3.049   2.354  13.208  0.2241  1.6909  0.1140
  246MPD1     C 3728   3.408   4.702   9.283 -0.2404 -0.2678  0.0978
  246MPD1    C1 3729   3.341   4.623   9.193  0.2922  0.2348  0.0865
  246MPD1    C2 3730   3.381   4.494   9.165  0.6070 -0.5828  0.3814
  246MPD1    C3 3731   3.489   4.442   9.238  0.0883  0.1814 -0.2032
  246MPD1    C4 3732   3.557   4.519   9.326  0.2446 -0.1079 -0.6612
  246MPD1    C5 3733   3.508   4.644   9.355  0.0840  0.3019 -0.6203
  246MPD1     H 3734   3.339   4.437   9.083  0.2026 -1.1530  0.9915
  246MPD1    H1 3735   3.642   4.486   9.385 -0.3442 -0.2000  0.1419
  246MPD1    H2 3736   3.378   0.075   9.316  0.1120  0.3514 -1.4251
  246MPD1    H3 3737   3.561   4.703   9.429  1.2839 -1.5906  0.0383
  246MPD1     N 3738   3.519   4.308   9.204  0.2310 -0.6471 -0.0307
  246MPD1    H5 3739   3.452   4.262   9.142  0.3710  0.4076 -0.9583
  246MPD1    N1 3740   3.244   4.684   9.110  0.6814 -0.1640  0.2314
  246MPD1    H6 3741   3.186   0.022   9.164  1.5219  0.0128  0.9307
  246MPD1    H7 3742   3.179   4.622   9.063  0.8781 -0.4859  0.3746
  247MPD1     C 3743   2.657   2.815  15.710  1.0154 -0.0263  0.4406
  247MPD1    C1 3744   2.577   2.787  15.819 -0.3066 -0.0031  0.0147
  247MPD1    C2 3745   2.627   2.710  15.926  0.0054  0.0555 -0.1516
  247MPD1    C3 3746   2.745   2.647  15.913 -0.6131 -0.7142 -0.5404
  247MPD1    C4 3747   2.814   2.666  15.799  0.5452 -0.1332 -0.0362
  247MPD1    C5 3748   2.770   2.749  15.703  0.6169  0.2855  0.1346
  247MPD1     H 3749   2.560   2.703  16.011 -2.5065  1.8329 -2.0162
  247MPD1    H1 3750   2.907   2.615  15.776  0.2645 -0.1226 -1.1862
  247MPD1    H2 3751   2.629   2.887  15.634  2.3804 -1.2362 -1.2006
  247MPD1    H3 3752   2.837   2.768  15.620 -0.8427  1.2362 -0.8230
  247MPD1     N 3753   2.796   2.565  16.018  0.2276 -0.3408  0.0597
  247MPD1    H5 3754   2.887   2.528  15.993  0.9290  1.7969 -0.5654
  247MPD1    N1 3755   2.465   2.866  15.840 -0.0484  0.4482 -0.2089
  247MPD1    H6 3756   2.402   2.828  15.910  0.4594 -2.0589 -1.1439
  247MPD1    H7 3757   2.424   2.875  15.747  0.3097 -0.3045 -0.4341
  248MPD1     C 3758   3.836   1.776   0.446  0.5265 -0.1157 -0.5779
  248MPD1    C1 3759   3.863   1.776   0.303  0.3178  0.0532 -0.2673
  248MPD1    C2 3760   3.752   1.760   0.222 -0.3932  0.0454  0.0104
  248MPD1    C3 3761   3.623   1.772   0.256  0.4695 -0.3732 -0.6430
  248MPD1    C4 3762   3.600   1.782   0.394 -0.1582 -0.0397 -0.5822
  248MPD1    C5 3763   3.701   1.771   0.479  0.7228 -0.4865 -0.1514
  248MPD1     H 3764   3.785   1.736   0.121  0.1745  2.0856 -0.2888
  248MPD1    H1 3765   3.498   1.782   0.430 -0.0851 -1.7147 -0.3651
  248MPD1    H2 3766   3.913   1.776   0.523 -0.1815  0.6872  0.1305
  248MPD1    H3 3767   3.680   1.748   0.582 -0.3875 -0.3794 -0.3569
  248MPD1     N 3768   3.523   1.769   0.154  0.0324  0.1069 -0.6029
  248MPD1    H5 3769   3.546   1.758   0.056  0.2726 -2.9043 -0.2083
  248MPD1    N1 3770   3.990   1.757   0.253  0.6197 -0.1177 -0.3798
  248MPD1    H6 3771   4.060   1.809   0.305  0.2530  0.6782 -0.6838
  248MPD1    H7 3772   4.002   1.788   0.157  2.4167 -1.3578 -0.5610
  249MPD1     C 3773   0.644   0.866  10.517 -0.7728 -0.8655  0.1243
  249MPD1    C1 3774   0.599   0.996  10.525  0.5914 -0.4040 -0.4438
  249MPD1    C2 3775   0.505   1.041  10.436 -0.0251 -0.0631 -0.7226
  249MPD1    C3 3776   0.454   0.949  10.345  0.4520  0.3025 -1.4419
  249MPD1    C4 3777   0.501   0.825  10.339  0.4456  0.4090  0.9129
  249MPD1    C5 3778   0.596   0.781  10.422  0.3251 -0.3859  0.2348
  249MPD1     H 3779   0.465   1.142  10.439  2.8574  1.0036  1.3828
  249MPD1    H1 3780   0.464   0.751  10.270 -1.5336 -1.0426  3.5448
  249MPD1    H2 3781   0.706   0.827  10.597 -0.1276 -0.1019 -0.0038
  249MPD1    H3 3782   0.623   0.676  10.425 -1.3901 -0.8107  0.7228
  249MPD1     N 3783   0.356   1.001  10.252  0.6450 -0.1047 -0.1204
  249MPD1    H5 3784   0.330   1.098  10.269 -0.0401 -0.4413  0.7811
  249MPD1    N1 3785   0.675   1.093  10.596 -0.1097 -0.5371  0.6393
  249MPD1    H6 3786   0.728   1.061  10.677  1.4019  0.5425  0.0713
  249MPD1    H7 3787   0.623   1.179  10.616  0.0359 -0.0179 -1.2999
  250MPD2     C 3788   1.848   0.824  13.686 -0.3819  0.6924 -0.2730
  250MPD2    C1 3789   1.776   0.918  13.615  0.2596 -0.0513  0.6114
  250MPD2    C2 3790   1.708   0.888  13.495  0.3335 -0.5665 -0.2604
  250MPD2    C3 3791   1.711   0.753  13.455  0.1451 -0.3382  0.7582
  250MPD2    C4 3792   1.797   0.669  13.519 -0.2009  0.8487  0.2800
  250MPD2    C5 3793   1.866   0.700  13.635 -1.0162 -0.0484 -0.1241
  250MPD2     H 3794   1.670   0.968  13.432  0.4350 -0.2129  0.1248
  250MPD2    H1 3795   1.831   0.582  13.464 -1.0447  0.5045  0.3098
  250MPD2    H2 3796   1.893   0.848  13.782  0.1017 -0.4672 -0.2129
  250MPD2    H3 3797   1.921   0.626  13.692  1.3971  1.9342  0.0947
  250MPD2     N 3798   1.658   0.701  13.339 -0.5760  0.1028  0.3984
  250MPD2    H5 3799   1.671   0.600  13.329  0.3543  0.2354  0.2804
  250MPD2    N1 3800   1.778   1.055  13.665 -0.4576 -0.2145  0.0405
  250MPD2    H7 3801   1.827   1.073  13.752 -0.1406 -0.3765 -0.1042
  251TMC3    C1 3802   1.776   1.295  13.658  0.1984 -0.0702 -0.4876
  251TMC3    C2 3803   1.710   1.410  13.624  0.2306 -0.8472 -0.3628
  251TMC3    C3 3804   1.786   1.525  13.621  0.7932 -0.3190  0.3370
  251TMC3    C4 3805   1.907   1.297  13.693  0.5630  0.3697  0.3156
  251TMC3    C5 3806   1.974   1.417  13.682  0.0319  0.0435  0.5066
  251TMC3    C6 3807   1.925   1.532  13.628  0.2084  0.1523  0.1045
  251TMC3     C 3808   1.712   1.165  13.619 -0.2039 -0.2843  0.2200
  251TMC3     O 3809   1.647   1.173  13.516 -0.3408  0.8711 -0.2259
  251TMC3     H 3810   1.612   1.393  13.580  0.6733 -0.2045 -1.5751
  251TMC3    H1 3811   1.955   1.211  13.740 -0.6314 -1.7636 -2.3700
  251TMC3    H2 3812   1.986   1.621  13.639  0.3170 -0.0019  0.7546
  251TMC3    C7 3813   2.116   1.418  13.705 -0.3470  0.4770  0.1578
  251TMC3    C8 3814   1.720   1.638  13.565  0.2185 -0.1269 -0.4689
  251TMC3    O1 3815   2.163   1.529  13.728  0.2658 -0.0439 -0.2547
  251TMC3    O2 3816   1.595   1.654  13.581  0.0703 -0.5792  0.2167
  252TMC3    C1 3817   2.458   2.388   9.228  0.3328  0.0688 -0.1596
  252TMC3    C2 3818   2.538   2.459   9.311  0.2363 -0.2059  0.2270
  252TMC3    C3 3819   2.535   2.424   9.445 -0.4788 -0.6225 -0.1580
  252TMC3    C4 3820   2.369   2.294   9.278  0.6911  0.0232  0.0718
  252TMC3    C5 3821   2.364   2.274   9.415  0.5145 -0.5892  0.0397
  252TMC3    C6 3822   2.444   2.337   9.507  1.0509  0.1224 -0.3309
  252TMC3     C 3823   2.458   2.402   9.085 -0.5847 -0.1029  0.1246
  252TMC3     O 3824   2.538   2.479   9.034  0.3198 -0.3756  0.6080
  252TMC3     H 3825   2.599   2.538   9.270  0.8169 -0.3973  0.7138
  252TMC3    H1 3826   2.294   2.247   9.215 -0.0548 -2.7907  3.0911
  252TMC3    H2 3827   2.431   2.319   9.613  1.0254 -0.9909 -0.5218
  252TMC3    C7 3828   2.264   2.188   9.464  0.9045 -0.0490 -0.1159
  252TMC3    C8 3829   2.622   2.499   9.532 -0.4875 -0.4214  0.2077
  252TMC3    O1 3830   2.164   2.174   9.391 -0.2726 -0.3668 -0.0807
  252TMC3    O2 3831   2.653   2.611   9.496 -1.0978  0.4717 -0.0563
  253MPD2     C 3832   3.663   1.065  15.342 -0.0218 -0.3353 -0.5179
  253MPD2    C1 3833   3.529   1.059  15.367  0.2919 -0.6613 -0.0248
  253MPD2    C2 3834   3.477   1.083  15.494  0.2714  0.7223  0.4204
  253MPD2    C3 3835   3.559   1.106  15.600 -0.1633 -0.2237 -0.3811
  253MPD2    C4 3836   3.695   1.096  15.582 -0.5367  0.4184  0.5642
  253MPD2    C5 3837   3.744   1.082  15.452 -0.0229 -0.1253  0.9822
  253MPD2     H 3838   3.368   1.083  15.495  0.2772 -1.1482  1.9159
  253MPD2    H1 3839   3.767   1.129  15.655  0.1985 -0.7487  0.3753
  253MPD2    H2 3840   3.709   1.049  15.245  0.4872 -1.3116 -0.1081
  253MPD2    H3 3841   3.851   1.085  15.435 -0.2641  1.4464 -0.2893
  253MPD2     N 3842   3.510   1.134  15.719  0.2645  0.0463 -0.2808
  253MPD2    H5 3843   3.575   1.144  15.797 -1.6596  1.0238  1.2295
  253MPD2    N1 3844   3.443   1.047  15.262  0.1354  0.3068  0.0225
  253MPD2    H7 3845   3.348   1.017  15.286 -0.3457  2.3498  0.6892
  254TMC3    C1 3846   3.354   1.190  15.894 -0.2427  0.3200 -0.3805
  254TMC3    C2 3847   3.233   1.247  15.921 -0.3075 -0.4898 -0.0917
  254TMC3    C3 3848   3.188   1.247  16.047 -0.2016  0.2859  0.6140
  254TMC3    C4 3849   3.438   1.128  15.984 -0.1795  0.0255  0.4010
  254TMC3    C5 3850   3.382   1.130  16.114 -0.2140 -0.3191  0.3120
  254TMC3    C6 3851   3.271   1.205  16.150  0.0722 -0.1775 -0.5370
  254TMC3     C 3852   3.382   1.171  15.754  0.3168 -0.2631  0.3368
  254TMC3     O 3853   3.286   1.185  15.677  0.3337  0.1406  0.2552
  254TMC3     H 3854   3.178   1.291  15.838 -0.2777  0.4996  0.4277
  254TMC3    H1 3855   3.521   1.065  15.957 -1.5954 -1.0867 -1.3379
  254TMC3    H2 3856   3.248   1.205  16.256  0.1614  1.7123 -0.5262
  254TMC3    C7 3857   3.456   1.069  16.221 -0.5189 -0.5094  0.1216
  254TMC3    C8 3858   3.073   1.323  16.096 -0.1209  0.1556 -0.1276
  254TMC3    O1 3859   3.404   1.051  16.331  0.3347  0.0941  0.0575
  254TMC3    O2 3860   3.065   1.327  16.218  0.5022 -0.1762  0.7072
  255MPD2     C 3861   1.920   3.619  10.503  0.4663  0.2569  0.3290
  255MPD2    C1 3862   1.858   3.703  10.417 -0.9088 -0.1603 -0.4071
  255MPD2    C2 3863   1.904   3.715  10.288  0.2649 -0.1762 -1.1703
  255MPD2    C3 3864   2.015   3.648  10.242 -0.0273  0.2140 -0.1667
  255MPD2    C4 3865   2.077   3.557  10.326  0.9045  0.2928 -0.4998
  255MPD2    C5 3866   2.026   3.548  10.457  0.6120  0.8701  0.5635
  255MPD2     H 3867   1.863   3.792  10.224  1.6696  1.5589  0.0015
  255MPD2    H1 3868   2.170   3.507  10.302  0.6994 -1.3665  2.0722
  255MPD2    H2 3869   1.884   3.600  10.604  0.0853 -2.0745 -0.2561
  255MPD2    H3 3870   2.066   3.486  10.535  1.0295 -0.1892 -0.4875
  255MPD2     N 3871   2.067   3.684  10.116 -0.2737  0.2425  0.0738
  255MPD2    H5 3872   2.018   3.759  10.068  1.4206  0.6119 -1.0720
  255MPD2    N1 3873   1.746   3.781  10.467 -0.2932  1.1997  0.1877
  255MPD2    H7 3874   1.724   3.792  10.566 -0.2284 -3.1705  0.6634
  256TMC3    C1 3875   1.574   3.938  10.471 -0.0444 -0.1097  0.8124
  256TMC3    C2 3876   1.637   4.001  10.579 -0.2247 -0.3601 -0.1414
  256TMC3    C3 3877   1.574   4.115  10.626 -0.0218 -0.5281  0.0711
  256TMC3    C4 3878   1.457   3.992  10.424  0.2567 -0.0775  0.1363
  256TMC3    C5 3879   1.393   4.101  10.477 -0.0494 -0.3322 -0.0232
  256TMC3    C6 3880   1.452   4.166  10.587  0.0367  0.2531 -0.4213
  256TMC3     C 3881   1.651   3.849  10.391 -0.5845  0.6994  1.0078
  256TMC3     O 3882   1.611   3.831  10.277 -0.0387 -0.3925  0.7753
  256TMC3     H 3883   1.739   3.983  10.611  0.2501 -0.9689 -1.9329
  256TMC3    H1 3884   1.422   3.928  10.344  0.0987 -2.0709  1.8014
  256TMC3    H2 3885   1.411   4.259  10.625  3.4900  1.5419  0.1908
  256TMC3    C7 3886   1.341   4.185  10.367  1.0270 -0.3225 -0.1193
  256TMC3    C8 3887   1.666   4.221  10.658  0.3185 -0.2241 -0.2708
  256TMC3    O1 3888   1.277   4.131  10.274  0.7891  0.0305 -0.0680
  256TMC3    O2 3889   1.696   4.231  10.776  0.2777 -0.1113  0.0981
  257MPD2     C 3890   0.400   1.211  13.469 -0.8887  0.1166  0.9642
  257MPD2    C1 3891   0.495   1.179  13.377  0.0278  0.2119  0.5513
  257MPD2    C2 3892   0.579   1.079  13.399 -0.3242  0.2992  0.2329
  257MPD2    C3 3893   0.574   1.007  13.516  0.1905  0.4753 -0.3610
  257MPD2    C4 3894   0.479   1.034  13.610 -0.6703 -0.3492 -0.1397
  257MPD2    C5 3895   0.391   1.130  13.582 -0.0800  0.0245  0.0754
  257MPD2     H 3896   0.649   1.033  13.330 -0.4120 -1.1043  1.0738
  257MPD2    H1 3897   0.471   0.988  13.708  1.5649  0.8645  0.6241
  257MPD2    H2 3898   0.337   1.297  13.453 -0.0755  1.1616  3.4341
  257MPD2    H3 3899   0.314   1.141  13.657  0.8287 -0.7325  1.1104
  257MPD2     N 3900   0.666   0.898  13.529  0.0270  0.0533  0.0690
  257MPD2    H5 3901   0.731   0.883  13.452 -0.4140 -1.2522 -0.0521
  257MPD2    N1 3902   0.502   1.260  13.264  0.1757  0.2980  0.2728
  257MPD2    H7 3903   0.430   1.328  13.247  0.4338  0.7084  0.8241
  258TMC3    C1 3904   0.769   0.707  13.620 -0.2771 -0.0097 -0.2477
  258TMC3    C2 3905   0.847   0.691  13.508 -0.1612 -0.5863  0.1137
  258TMC3    C3 3906   0.959   0.621  13.519  0.2102 -0.4267  0.7540
  258TMC3    C4 3907   0.815   0.663  13.744 -0.7415 -0.1439 -0.7318
  258TMC3    C5 3908   0.920   0.585  13.748 -0.9599 -0.2303  0.5340
  258TMC3    C6 3909   1.006   0.573  13.641 -0.0557  0.4952 -0.0072
  258TMC3     C 3910   0.657   0.798  13.621  1.1638  0.0041 -0.2344
  258TMC3     O 3911   0.577   0.787  13.715 -0.0108  0.2595 -0.3134
  258TMC3     H 3912   0.820   0.720  13.407 -1.5971 -1.1240  0.3482
  258TMC3    H1 3913   0.747   0.682  13.827  0.0938 -2.6346  0.5342
  258TMC3    H2 3914   1.089   0.505  13.657 -1.7881 -1.7116 -0.4380
  258TMC3    C7 3915   0.946   0.523  13.879 -0.6689  0.8422  0.0295
  258TMC3    C8 3916   1.026   0.583  13.396 -0.0327 -0.1010  0.1329
  258TMC3    O1 3917   0.846   0.514  13.952  0.2018 -0.3449  0.4137
  258TMC3    O2 3918   0.957   0.557  13.297 -0.1904  0.0049 -0.1330
  259MPD2     C 3919   3.506   2.477   1.030  0.3020 -0.0543  0.4910
  259MPD2    C1 3920   3.608   2.397   1.074  0.6686  0.0911 -0.8354
  259MPD2    C2 3921   3.738   2.411   1.012 -0.0564 -0.9545 -0.3717
  259MPD2    C3 3922   3.760   2.500   0.907  0.2055  0.5693  0.0582
  259MPD2    C4 3923   3.651   2.574   0.866  0.4841  0.2113  0.4250
  259MPD2    C5 3924   3.533   2.564   0.935  0.5251  0.5145 -0.2885
  259MPD2     H 3925   3.827   2.358   1.046  0.3177 -1.6693 -2.4912
  259MPD2    H1 3926   3.658   2.655   0.794 -1.9782 -0.7167 -0.8423
  259MPD2    H2 3927   3.405   2.481   1.070 -0.2080  0.2140 -0.8444
  259MPD2    H3 3928   3.449   2.629   0.909 -0.3970  0.4983  2.6903
  259MPD2     N 3929   3.878   2.504   0.834 -0.1113 -0.2989 -0.8379
  259MPD2    H5 3930   3.955   2.457   0.880  0.3244  0.8562 -0.3743
  259MPD2    N1 3931   3.581   2.311   1.181  0.2068 -0.1386 -0.0862
  259MPD2    H7 3932   3.485   2.299   1.210  0.3947 -0.5821  0.3703
  260TMC3    C1 3933   4.029   2.513   0.642 -0.0921  0.0276  0.2565
  260TMC3    C2 3934   4.067   2.581   0.527  0.5280 -0.0756  0.9168
  260TMC3    C3 3935   4.182   2.534   0.463  1.0203 -0.2534  0.2282
  260TMC3    C4 3936   4.096   2.403   0.686 -0.1874 -0.2169  0.8622
  260TMC3    C5 3937   4.195   2.350   0.599  0.1728 -0.4737  0.2367
  260TMC3    C6 3938   4.248   2.420   0.492 -0.0677  0.6796 -0.4447
  260TMC3     C 3939   3.903   2.555   0.709 -0.0818  0.5118 -0.3306
  260TMC3     O 3940   3.830   2.622   0.640  0.0004  0.3870  0.2416
  260TMC3     H 3941   4.013   2.668   0.493  0.2502 -0.2662  0.8655
  260TMC3    H1 3942   4.070   2.350   0.777  0.0036  0.2291  1.1733
  260TMC3    H2 3943   4.319   2.373   0.425  0.5827  1.1404 -0.0793
  260TMC3    C7 3944   4.262   2.231   0.637  0.6286 -0.0456  0.1790
  260TMC3    C8 3945   4.229   2.610   0.349  0.3789  0.0422 -0.1251
  260TMC3    O1 3946   4.373   2.210   0.581  0.1900 -0.5285  0.3639
  260TMC3    O2 3947   4.160   2.703   0.309 -0.1447 -0.0189 -0.1351
  261MPD2     C 3948   1.072   0.885  12.707  0.4007  0.3819  0.2547
  261MPD2    C1 3949   1.201   0.848  12.663  0.5770 -0.4025 -0.3513
  261MPD2    C2 3950   1.232   0.866  12.532 -0.2636  0.4860  0.2715
  261MPD2    C3 3951   1.138   0.922  12.449  0.3950 -0.6801  0.0686
  261MPD2    C4 3952   1.007   0.954  12.496 -0.4963  0.7334 -0.0605
  261MPD2    C5 3953   0.971   0.929  12.625  0.0853 -0.0338  0.6447
  261MPD2     H 3954   1.326   0.837  12.487 -0.4367  1.1282 -0.5086
  261MPD2    H1 3955   0.938   1.005  12.431 -0.7629 -0.1378 -0.4676
  261MPD2    H2 3956   1.047   0.874  12.811 -0.2608  2.2954  0.3079
  261MPD2    H3 3957   0.877   0.969  12.659 -0.4660  0.5993 -1.6736
  261MPD2     N 3958   1.180   0.947  12.315 -0.5621  0.0900 -0.4352
  261MPD2    H5 3959   1.268   0.907  12.286 -1.0157 -0.1247 -1.4875
  261MPD2    N1 3960   1.292   0.786  12.751 -0.3945  0.2470  0.1006
  261MPD2    H7 3961   1.389   0.776  12.723  0.5976  1.5154  3.0491
  262TMC3    C1 3962   1.182   1.005  12.088 -0.2060  0.4624  0.4606
  262TMC3    C2 3963   1.175   1.116  12.012  0.1833 -0.0411 -0.2265
  262TMC3    C3 3964   1.236   1.106  11.887 -0.6083  0.6027 -0.0245
  262TMC3    C4 3965   1.237   0.881  12.049 -0.6022 -0.2828 -0.2783
  262TMC3    C5 3966   1.272   0.867  11.917 -0.9645  0.5530  0.7606
  262TMC3    C6 3967   1.276   0.982  11.836 -0.0131 -0.7717  0.0283
  262TMC3     C 3968   1.119   1.021  12.221 -0.3994  0.4820 -0.4934
  262TMC3     O 3969   1.022   1.097  12.232 -0.7085  0.6904 -0.2199
  262TMC3     H 3970   1.130   1.206  12.052  0.9668 -0.5871  1.8345
  262TMC3    H1 3971   1.246   0.799  12.120 -0.7844 -1.2155 -1.3310
  262TMC3    H2 3972   1.315   0.977  11.735  1.7948 -0.6594  0.7019
  262TMC3    C7 3973   1.314   0.734  11.892 -0.1086 -0.6207  0.1126
  262TMC3    C8 3974   1.239   1.224  11.798  0.2169 -0.6865  0.5623
  262TMC3    O1 3975   1.355   0.668  11.987 -0.2362  0.0723  0.3475
  262TMC3    O2 3976   1.302   1.215  11.695  0.0195  0.3457  0.0279
  263MPD2     C 3977   2.263   0.005  11.420  0.1689 -0.3357  0.2465
  263MPD2    C1 3978   2.322   0.105  11.496 -0.0627  0.7825  1.0129
  263MPD2    C2 3979   2.362   0.228  11.435  0.4121 -0.8265 -0.8506
  263MPD2    C3 3980   2.361   0.235  11.294 -0.1802 -0.8417  0.0519
  263MPD2    C4 3981   2.307   0.129  11.221  0.1111  0.7899  0.3584
  263MPD2    C5 3982   2.256   0.022  11.282 -0.3080 -0.5248  0.4412
  263MPD2     H 3983   2.415   0.301  11.495 -1.2454 -0.3545  0.0402
  263MPD2    H1 3984   2.316   0.131  11.113 -0.0739 -0.1238  0.3288
  263MPD2    H2 3985   2.237   4.632  11.458  0.2409 -0.2642  0.4789
  263MPD2    H3 3986   2.224   4.672  11.210 -4.2029  0.8348  0.7673
  263MPD2     N 3987   2.407   0.349  11.220 -1.0874 -0.7279  0.2097
  263MPD2    H5 3988   2.432   0.437  11.265  0.4862 -1.3168  0.5021
  263MPD2    N1 3989   2.366   0.069  11.631  0.2483 -0.1187 -0.6067
  263MPD2    H7 3990   2.362   4.698  11.662  0.8633  0.2783  0.6966
  264TMC3    C1 3991   2.490   0.483  11.037  0.0840  0.3483  0.1436
  264TMC3    C2 3992   2.456   0.599  11.105  0.3798  1.0082 -0.2817
  264TMC3    C3 3993   2.501   0.716  11.042  0.5247  0.5051  0.4524
  264TMC3    C4 3994   2.580   0.479  10.932 -0.6590  0.1530 -0.3877
  264TMC3    C5 3995   2.623   0.593  10.872  0.4755  0.5067 -0.2148
  264TMC3    C6 3996   2.586   0.712  10.932  0.5480 -0.7305 -0.4249
  264TMC3     C 3997   2.457   0.349  11.090  0.2234 -0.4076  0.0784
  264TMC3     O 3998   2.473   0.260  11.009 -0.5305  0.0330 -0.1747
  264TMC3     H 3999   2.390   0.603  11.190  2.4697  1.6860  1.2943
  264TMC3    H1 4000   2.626   0.390  10.891 -0.5658  0.7756 -1.6296
  264TMC3    H2 4001   2.617   0.808  10.892  0.2741 -0.7563 -0.6968
  264TMC3    C7 4002   2.743   0.585  10.789  0.6172 -0.5704 -0.1407
  264TMC3    C8 4003   2.511   0.841  11.104  0.6152 -0.0179  1.2307
  264TMC3    O1 4004   2.812   0.486  10.792 -0.0458 -0.0164 -0.2932
  264TMC3    O2 4005   2.619   0.894  11.118 -0.1344  0.1602  0.1020
  265MPD2     C 4006   4.522   0.802  15.577 -0.1693 -0.3492 -0.1843
  265MPD2    C1 4007   4.559   0.911  15.504 -0.5375 -0.2742  0.6633
  265MPD2    C2 4008   4.603   0.896  15.370  0.2090  0.1313  0.6112
  265MPD2    C3 4009   4.626   0.772  15.326  0.2335  0.3307 -0.4320
  265MPD2    C4 4010   4.587   0.660  15.400  0.0901  0.2919  0.4556
  265MPD2    C5 4011   4.535   0.670  15.526 -0.2836  0.1307  0.1714
  265MPD2     H 4012   4.617   0.978  15.301  1.0284  1.8139  2.7576
  265MPD2    H1 4013   4.599   0.561  15.357 -0.5548  1.3950 -2.2532
  265MPD2    H2 4014   4.469   0.807  15.671 -0.1365 -1.2472 -0.1193
  265MPD2    H3 4015   4.484   0.595  15.585  1.5157 -1.4225 -0.2475
  265MPD2     N 4016   4.681   0.738  15.200 -0.8436 -0.2251  0.1305
  265MPD2    H5 4017   4.702   0.640  15.187  0.4597 -0.0759  1.1424
  265MPD2    N1 4018   4.539   1.042  15.547 -0.0254  0.4295 -0.0481
  265MPD2    H7 4019   4.563   1.118  15.484  0.6149  1.3111  1.2488
  266TMC3    C1 4020   4.483   1.221  15.694 -0.7174  0.8188  0.6592
  266TMC3    C2 4021   4.417   1.251  15.810  0.3121  0.7302  0.7036
  266TMC3    C3 4022   4.411   1.376  15.858 -0.0672  0.2507  0.2331
  266TMC3    C4 4023   4.555   1.316  15.636  0.4763 -0.2713 -0.7230
  266TMC3    C5 4024   4.544   1.445  15.683 -0.8487  0.4508 -0.1924
  266TMC3    C6 4025   4.466   1.476  15.788  0.0843  0.5288  0.3232
  266TMC3     C 4026   4.498   1.075  15.678 -0.2298  0.1096 -0.0846
  266TMC3     O 4027   4.493   0.997  15.769  0.9334 -0.0732  0.4561
  266TMC3     H 4028   4.358   1.177  15.862 -1.2932  0.0861 -1.9952
  266TMC3    H1 4029   4.615   1.298  15.548  1.4023 -2.5536  0.3772
  266TMC3    H2 4030   4.442   1.578  15.819 -1.6809  0.7689 -1.8043
  266TMC3    C7 4031   4.551   1.550  15.586  0.0624 -0.1406 -0.0599
  266TMC3    C8 4032   4.306   1.428  15.949  0.5310 -0.4263  0.9165
  266TMC3    O1 4033   4.547   1.514  15.470  0.5560  0.3578  0.2156
  266TMC3    O2 4034   4.188   1.438  15.915 -0.1655  0.2228 -0.7343
  267MPD2     C 4035   1.141   2.333   0.092  0.5074  0.0266 -0.1173
  267MPD2    C1 4036   1.230   2.434   0.104 -0.1038  0.1357  0.4510
  267MPD2    C2 4037   1.201   2.562   0.079  0.0691  0.4380 -0.2233
  267MPD2    C3 4038   1.074   2.591   0.035  0.3216  0.1491  0.7097
  267MPD2    C4 4039   0.977   2.493   0.026 -0.0173 -0.4143  0.5425
  267MPD2    C5 4040   1.011   2.367   0.061 -1.2283 -0.5602  0.0140
  267MPD2     H 4041   1.280   2.631   0.053 -0.2597  0.8379 -0.1561
  267MPD2    H1 4042   0.876   2.515  17.697  1.0562 -1.4697 -3.6486
  267MPD2    H2 4043   1.166   2.234   0.128 -1.4336 -0.0799  0.9417
  267MPD2    H3 4044   0.926   2.300   0.068 -0.2491 -1.7300  0.5544
  267MPD2     N 4045   1.036   2.720  17.696 -0.0196 -0.1801  0.1483
  267MPD2    H5 4046   0.938   2.726  17.671  1.1165 -0.4489 -4.3675
  267MPD2    N1 4047   1.363   2.397   0.126  0.1456 -0.4003 -0.3899
  267MPD2    H7 4048   1.373   2.300   0.153  3.0264  0.0800  0.2255
  268TMC3    C1 4049   1.590   2.385   0.114  0.2220 -0.3851 -0.3073
  268TMC3    C2 4050   1.694   2.412   0.028  0.2918  0.5791 -0.0004
  268TMC3    C3 4051   1.826   2.401   0.073  0.3885  0.2046  0.2659
  268TMC3    C4 4052   1.607   2.332   0.234 -0.5183  0.1148  0.1935
  268TMC3    C5 4053   1.738   2.316   0.265 -0.7182  0.2310  0.0925
  268TMC3    C6 4054   1.847   2.340   0.191 -0.4228 -0.1123 -0.8717
  268TMC3     C 4055   1.473   2.471   0.095 -0.3764 -0.0546 -0.3197
  268TMC3     O 4056   1.488   2.571   0.028 -0.1383 -0.6865  0.1726
  268TMC3     H 4057   1.662   2.462  17.640  0.6659  0.7199 -0.0532
  268TMC3    H1 4058   1.525   2.340   0.304  0.6614  1.2542  1.4402
  268TMC3    H2 4059   1.949   2.323   0.223 -0.4524  1.6481  0.1776
  268TMC3    C7 4060   1.764   2.221   0.362  0.3733  0.5691 -0.1456
  268TMC3    C8 4061   1.909   2.513   0.043 -0.2231 -0.7202  0.2771
  268TMC3    O1 4062   1.880   2.188   0.389  0.0403 -0.0059  0.2295
  268TMC3    O2 4063   1.997   2.546   0.123  0.0947 -0.1734 -0.2662
  269MPD2     C 4064   2.622   1.404  15.531  0.5106  0.2414 -0.7387
  269MPD2    C1 4065   2.530   1.435  15.622 -0.3908 -0.5116  0.3395
  269MPD2    C2 4066   2.483   1.565  15.637 -0.5461  0.4480 -0.0418
  269MPD2    C3 4067   2.543   1.669  15.576 -0.3488  0.2832 -1.0436
  269MPD2    C4 4068   2.649   1.649  15.485  0.1942 -0.5618  0.1972
  269MPD2    C5 4069   2.678   1.511  15.462 -0.3990  0.4195  0.1326
  269MPD2     H 4070   2.427   1.583  15.728 -0.0105  1.7076  0.0256
  269MPD2    H1 4071   2.695   1.737  15.441  0.2198  0.6962  2.7165
  269MPD2    H2 4072   2.647   1.303  15.501 -1.3184 -0.7936  1.3222
  269MPD2    H3 4073   2.758   1.495  15.391 -1.0138  0.6542 -0.6067
  269MPD2     N 4074   2.510   1.797  15.630 -0.4238 -0.8967 -0.1649
  269MPD2    H5 4075   2.423   1.799  15.682 -0.6007  0.4240 -0.5082
  269MPD2    N1 4076   2.467   1.323  15.687  0.3194  0.5189  0.0188
  269MPD2    H7 4077   2.499   1.229  15.667 -0.5162  0.0822  0.7586
  270TMC3    C1 4078   2.278   1.213  15.793  0.1838 -0.3778  0.4607
  270TMC3    C2 4079   2.144   1.216  15.829 -0.6066  0.2511  0.4266
  270TMC3    C3 4080   2.082   1.099  15.846 -0.2582 -0.0841  0.5299
  270TMC3    C4 4081   2.356   1.101  15.803  0.8698 -1.1318 -0.4255
  270TMC3    C5 4082   2.284   0.989  15.842 -0.7000 -0.1431  0.4172
  270TMC3    C6 4083   2.148   0.984  15.858  0.4402  0.0456 -0.6733
  270TMC3     C 4084   2.345   1.334  15.753 -0.3547 -0.3131  0.5709
  270TMC3     O 4085   2.280   1.433  15.782 -0.2982  0.3838  0.4442
  270TMC3     H 4086   2.091   1.308  15.810 -0.2599  0.5212  0.7549
  270TMC3    H1 4087   2.462   1.095  15.782  1.0819 -1.4852  0.7422
  270TMC3    H2 4088   2.084   0.902  15.885 -0.5003  1.0922  0.2632
  270TMC3    C7 4089   2.359   0.863  15.840 -0.4405 -0.1506 -0.3744
  270TMC3    C8 4090   1.949   1.085  15.805  0.0116  0.0055 -0.1620
  270TMC3    O1 4091   2.476   0.881  15.807 -0.3341 -0.0166  0.0643
  270TMC3    O2 4092   1.879   1.181  15.829  0.5102  0.3703  0.6425
  271MPD2     C 4093   1.168   1.318  14.153 -0.3525  0.4446  0.2621
  271MPD2    C1 4094   1.110   1.254  14.260 -0.4059  0.4463  0.5471
  271MPD2    C2 4095   0.972   1.241  14.257 -1.0991 -0.3272 -0.2838
  271MPD2    C3 4096   0.899   1.299  14.161 -0.4453  0.1596  0.0347
  271MPD2    C4 4097   0.958   1.351  14.046  0.2909 -0.3251  0.5538
  271MPD2    C5 4098   1.094   1.363  14.046  1.2443  0.0169  0.0063
  271MPD2     H 4099   0.927   1.195  14.345 -0.0250 -2.7021 -0.9980
  271MPD2    H1 4100   0.900   1.397  13.967  0.8484 -2.6383 -1.2121
  271MPD2    H2 4101   1.275   1.330  14.147 -0.5506  0.7503 -2.4912
  271MPD2    H3 4102   1.141   1.416  13.964  0.7411  1.8646  0.9071
  271MPD2     N 4103   0.756   1.295  14.166  0.0444  0.0170  0.6654
  271MPD2    H5 4104   0.705   1.324  14.083  1.7459 -2.1822 -1.1422
  271MPD2    N1 4105   1.178   1.204  14.373  0.3143  0.2692  0.0455
  271MPD2    H7 4106   1.122   1.158  14.443 -1.0382 -0.7603 -1.7200
  272TMC3    C1 4107   1.343   1.084  14.478 -0.2522 -0.0780 -0.0953
  272TMC3    C2 4108   1.413   0.981  14.432  0.0975  0.5410 -0.2917
  272TMC3    C3 4109   1.465   0.896  14.523  0.3012 -0.4256  0.7619
  272TMC3    C4 4110   1.297   1.089  14.604 -0.3098 -0.7692 -0.2458
  272TMC3    C5 4111   1.356   1.005  14.694 -0.0684  0.2758 -0.1254
  272TMC3    C6 4112   1.444   0.906  14.659  0.2311  0.4006  0.3515
  272TMC3     C 4113   1.318   1.187  14.377 -0.5118 -0.1772 -0.0042
  272TMC3     O 4114   1.403   1.216  14.294 -0.4302 -0.2652  0.1448
  272TMC3     H 4115   1.434   0.988  14.326  0.6164  1.8461 -0.0983
  272TMC3    H1 4116   1.223   1.158  14.643 -0.5415 -1.9598  1.4241
  272TMC3    H2 4117   1.482   0.834  14.731  1.5643 -1.5873 -2.3709
  272TMC3    C7 4118   1.331   1.025  14.834 -0.0013  0.1460  0.1944
  272TMC3    C8 4119   1.554   0.796  14.472  0.1927 -1.0014 -0.3604
  272TMC3    O1 4120   1.221   1.074  14.867  0.4386  0.9382 -0.6270
  272TMC3    O2 4121   1.551   0.787  14.352 -0.0999 -0.4846  0.0317
  273MPD2     C 4122   2.837   3.541  11.824  0.4169 -0.3998  0.5365
  273MPD2    C1 4123   2.960   3.599  11.859  0.4360  0.3933  0.7095
  273MPD2    C2 4124   3.021   3.680  11.760 -0.7194  0.6327  0.6665
  273MPD2    C3 4125   2.966   3.686  11.634  0.5194  0.5754 -0.5676
  273MPD2    C4 4126   2.850   3.623  11.597 -0.0883  0.3390  0.2757
  273MPD2    C5 4127   2.785   3.549  11.693  0.1946  0.2661  0.4293
  273MPD2     H 4128   3.117   3.725  11.781  0.5620 -2.1225  0.7440
  273MPD2    H1 4129   2.804   3.625  11.498  0.2669 -2.5775  0.0703
  273MPD2    H2 4130   2.769   3.493  11.894 -2.5958  3.5833  0.3341
  273MPD2    H3 4131   2.689   3.505  11.665  0.9076 -1.4918  0.7751
  273MPD2     N 4132   3.013   3.786  11.544  0.7116  0.7867 -0.2693
  273MPD2    H5 4133   2.957   3.782  11.459  1.9111 -4.0605 -0.8501
  273MPD2    N1 4134   3.007   3.585  11.992  0.4648  0.1282  0.4849
  273MPD2    H7 4135   3.104   3.616  12.001  0.3480  0.7054 -0.2755
  274TMC3    C1 4136   3.090   4.004  11.480 -0.2162  0.2824  0.2498
  274TMC3    C2 4137   3.043   3.992  11.347 -0.3835 -0.3533 -0.2637
  274TMC3    C3 4138   3.065   4.106  11.267  0.2783  0.3611 -0.3924
  274TMC3    C4 4139   3.165   4.111  11.520  0.4600 -0.3361 -0.6545
  274TMC3    C5 4140   3.175   4.218  11.442  0.3015  0.2091 -0.0058
  274TMC3    C6 4141   3.128   4.213  11.319  0.4491  0.0994 -0.1369
  274TMC3     C 4142   3.095   3.893  11.574 -0.2888  0.7861  0.1381
  274TMC3     O 4143   3.142   3.920  11.679  0.2905  1.0265  0.4811
  274TMC3     H 4144   2.974   3.915  11.314  2.6711 -2.6579 -1.3057
  274TMC3    H1 4145   3.205   4.120  11.621  1.2697 -1.8525 -0.8252
  274TMC3    H2 4146   3.171   4.277  11.243  1.9076 -0.7120 -0.0099
  274TMC3    C7 4147   3.129   4.336  11.514 -0.2132 -0.3275  0.7928
  274TMC3    C8 4148   2.967   4.133  11.159 -0.6269  0.4897 -0.3588
  274TMC3    O1 4149   3.012   4.339  11.554 -0.0899  0.3001 -0.0382
  274TMC3    O2 4150   2.897   4.041  11.118  0.3191 -0.0996 -0.2822
  275MPD2     C 4151   2.720   2.010  14.755  0.2742  0.8370  0.1661
  275MPD2    C1 4152   2.673   2.035  14.883  0.1342  0.7566 -0.5776
  275MPD2    C2 4153   2.544   1.995  14.912  0.1627 -0.1225 -0.0173
  275MPD2    C3 4154   2.468   1.935  14.815  0.9590 -0.0201 -0.2973
  275MPD2    C4 4155   2.517   1.905  14.687 -0.8944 -0.3619  0.0423
  275MPD2    C5 4156   2.646   1.943  14.658 -0.1974  0.0024  0.7895
  275MPD2     H 4157   2.503   2.024  15.008  1.4847  0.7173  0.2888
  275MPD2    H1 4158   2.461   1.847  14.614 -1.0785 -0.3258  0.1553
  275MPD2    H2 4159   2.823   2.032  14.730  0.0163  0.8234 -0.8956
  275MPD2    H3 4160   2.689   1.908  14.565  0.4135  1.2692  0.5913
  275MPD2     N 4161   2.336   1.900  14.858 -0.0749 -0.7115  0.1405
  275MPD2    H5 4162   2.307   1.915  14.954  1.8278  2.0707  0.2743
  275MPD2    N1 4163   2.752   2.077  14.994 -0.4125 -0.1548  0.2756
  275MPD2    H7 4164   2.716   2.068  15.088 -2.3669  0.6551 -0.4011
  276TMC3    C1 4165   2.897   2.195  15.127 -1.3676 -0.0965 -0.4796
  276TMC3    C2 4166   2.875   2.105  15.230  0.5179 -0.4507 -0.3809
  276TMC3    C3 4167   2.940   2.130  15.345 -0.4221 -1.2367  0.1256
  276TMC3    C4 4168   2.973   2.309  15.138  0.7833 -0.8523 -0.8374
  276TMC3    C5 4169   3.036   2.326  15.261 -0.3296  0.1175  0.3458
  276TMC3    C6 4170   3.013   2.248  15.371  0.8093  0.0473 -0.4941
  276TMC3     C 4171   2.878   2.138  14.995 -0.4689 -0.5522  0.1399
  276TMC3     O 4172   2.936   2.193  14.900  0.0332  0.6765 -0.3996
  276TMC3     H 4173   2.835   2.005  15.219  0.3215 -0.3565 -0.5345
  276TMC3    H1 4174   2.986   2.383  15.060 -1.5043 -0.1333 -0.5570
  276TMC3    H2 4175   3.085   2.259  15.451 -0.3882 -1.9118  0.8646
  276TMC3    C7 4176   3.136   2.422  15.281 -0.5051 -0.2633 -0.3656
  276TMC3    C8 4177   2.951   2.029  15.447 -0.4806 -0.0811 -0.1128
  276TMC3    O1 4178   3.149   2.470  15.394  0.4128  0.5024 -0.1655
  276TMC3    O2 4179   2.978   2.055  15.563  0.0315 -0.5023 -0.6024
  277MPD2     C 4180   4.719   1.022  13.641 -0.2596 -0.2178 -0.3249
  277MPD2    C1 4181   4.582   1.025  13.658 -0.3379 -0.4935 -0.0580
  277MPD2    C2 4182   4.529   0.968  13.773  0.4770 -0.7319  0.3490
  277MPD2    C3 4183   4.606   0.912  13.869  0.3260 -0.1968  0.1678
  277MPD2    C4 4184   0.013   0.905  13.852 -0.5692  0.4061  0.1169
  277MPD2    C5 4185   0.071   0.959  13.738 -0.1870 -0.1118  0.2072
  277MPD2     H 4186   4.423   0.971  13.795  0.6826 -0.9919  1.3729
  277MPD2    H1 4187   0.082   0.862  13.924 -0.4989 -0.2664 -0.3433
  277MPD2    H2 4188   0.047   1.060  13.555 -1.3441 -2.7982 -2.1473
  277MPD2    H3 4189   0.178   0.955  13.721 -0.3118 -1.6479 -0.2448
  277MPD2     N 4190   4.544   0.846  13.978 -0.5865  0.1608  0.1030
  277MPD2    H5 4191   4.450   0.881  13.996 -0.5732  0.4181 -0.3139
  277MPD2    N1 4192   4.491   1.065  13.554 -0.3671 -0.5245  0.4851
  277MPD2    H7 4193   4.531   1.112  13.473 -0.1011  0.8959  1.4289
  278TMC3    C1 4194   4.497   0.692  14.141 -0.6359  0.3581  0.2175
  278TMC3    C2 4195   4.495   0.559  14.114  0.0817 -0.0161 -0.5603
  278TMC3    C3 4196   4.372   0.496  14.103 -0.1283 -0.4301  0.9377
  278TMC3    C4 4197   4.382   0.764  14.159 -0.2032 -0.0435  0.3250
  278TMC3    C5 4198   4.263   0.697  14.154 -0.0782 -0.0472  0.6503
  278TMC3    C6 4199   4.253   0.566  14.112 -0.3869 -0.0283  0.6047
  278TMC3     C 4200   4.600   0.757  14.064  0.2841 -0.6711  1.2837
  278TMC3     O 4201   4.713   0.719  14.071  0.1727  0.2559 -0.0620
  278TMC3     H 4202   4.592   0.512  14.099 -0.3247 -1.1253  0.2807
  278TMC3    H1 4203   4.390   0.868  14.188 -0.1297  0.9072 -3.1043
  278TMC3    H2 4204   4.155   0.520  14.115 -1.0988  1.5482  1.7936
  278TMC3    C7 4205   4.142   0.775  14.156 -0.4976 -0.9390  0.1812
  278TMC3    C8 4206   4.372   0.357  14.062 -1.1544  0.5173 -0.2101
  278TMC3    O1 4207   4.139   0.872  14.226 -0.0578 -0.3489 -0.6760
  278TMC3    O2 4208   4.472   0.294  14.084 -0.6762 -0.2843 -0.2196
  279MPD2     C 4209   3.631   1.426   0.259  1.2368 -0.4658 -0.1996
  279MPD2    C1 4210   3.589   1.350   0.152  0.7907  0.0930  0.4658
  279MPD2    C2 4211   3.684   1.280   0.082 -0.0143  0.1190  0.0223
  279MPD2    C3 4212   3.818   1.272   0.120  0.0105  0.2660 -0.1736
  279MPD2    C4 4213   3.863   1.356   0.226 -0.3934  0.2021  0.8689
  279MPD2    C5 4214   3.767   1.428   0.293 -0.2509 -0.7856  0.0972
  279MPD2     H 4215   3.657   1.217  17.702 -1.4560  1.2601 -0.3779
  279MPD2    H1 4216   3.969   1.363   0.250 -0.5973 -0.8481  2.0871
  279MPD2    H2 4217   3.558   1.478   0.320  0.0653  0.0574 -2.0595
  279MPD2    H3 4218   3.801   1.488   0.377 -0.1989 -0.1863 -0.3550
  279MPD2     N 4219   3.910   1.192   0.048  0.3077 -0.4194 -0.4853
  279MPD2    H5 4220   4.006   1.193   0.080 -0.5695  2.7041  1.9383
  279MPD2    N1 4221   3.449   1.356   0.119  0.1433 -0.7681 -0.2704
  279MPD2    H7 4222   3.399   1.429   0.168  1.2286  0.6312 -1.2758
  280TMC3    C1 4223   3.245   1.293   0.029  0.1042  0.1853 -0.1349
  280TMC3    C2 4224   3.177   1.239  17.630 -0.2165 -0.1175  0.2915
  280TMC3    C3 4225   3.041   1.253  17.628 -0.4624 -0.0937  0.3001
  280TMC3    C4 4226   3.181   1.367   0.130  0.1570  0.8560 -0.0237
  280TMC3    C5 4227   3.044   1.391   0.112 -0.0440  0.3207 -0.1727
  280TMC3    C6 4228   2.974   1.323   0.024 -0.1805 -0.5293  0.0080
  280TMC3     C 4229   3.387   1.285   0.025  0.5619  0.0363  0.5449
  280TMC3     O 4230   3.441   1.216  17.640 -0.1136  0.2523  0.2839
  280TMC3     H 4231   3.237   1.192  17.553 -0.5133 -0.9530  0.5737
  280TMC3    H1 4232   3.239   1.437   0.190 -0.6206  1.2934  0.2141
  280TMC3    H2 4233   2.865   1.321   0.026 -0.1903  1.4671  1.0485
  280TMC3    C7 4234   2.977   1.507   0.186  0.6541  0.6346  0.2754
  280TMC3    C8 4235   2.978   1.233  17.504  0.1233 -0.1846  0.7370
  280TMC3    O1 4236   3.026   1.564   0.283 -0.1353 -0.0766 -0.5144
  280TMC3    O2 4237   2.853   1.251  17.515  0.0655 -0.1141  0.1782
  281TMC3    C1 4238   2.334   1.525  14.183  1.1110 -0.0711  1.2967
  281TMC3    C2 4239   2.406   1.558  14.079 -0.1721 -0.0920 -0.0820
  281TMC3    C3 4240   2.521   1.488  14.058 -0.6310 -0.0954  0.4814
  281TMC3    C4 4241   2.361   1.416  14.263  0.2037 -0.3309 -0.6398
  281TMC3    C5 4242   2.474   1.340  14.234 -0.2820 -0.1826  0.4926
  281TMC3    C6 4243   2.559   1.376  14.128  0.8443  0.1196 -0.0580
  281TMC3     C 4244   2.191   1.520  14.156  0.1928  0.0134  0.2241
  281TMC3     O 4245   2.133   1.415  14.171  0.5576 -0.3272 -0.1344
  281TMC3     H 4246   2.392   1.645  14.017  2.1034  0.2050 -0.1752
  281TMC3    H1 4247   2.301   1.380  14.346 -0.5006 -0.6545 -1.2888
  281TMC3    H2 4248   2.653   1.325  14.114  1.1737  0.6979  0.0513
  281TMC3    C7 4249   2.464   1.203  14.275 -1.1467  0.0777 -0.0113
  281TMC3    C8 4250   2.587   1.493  13.927  0.4289 -0.0750  0.3690
  281TMC3    O1 4251   2.431   1.188  14.390  1.3850  0.0353  0.3854
  281TMC3    O2 4252   2.552   1.580  13.848  0.1192  0.0070  0.1651
  282MPD2     C 4253   4.296   2.706  15.396 -0.0470  0.6316 -0.4630
  282MPD2    C1 4254   4.175   2.776  15.421  0.2214 -0.1812 -0.5325
  282MPD2    C2 4255   4.083   2.804  15.322 -0.4867 -0.8391 -0.0944
  282MPD2    C3 4256   4.110   2.759  15.190  0.4647 -0.4269 -0.5100
  282MPD2    C4 4257   4.229   2.691  15.167 -0.0287  0.7333 -0.3946
  282MPD2    C5 4258   4.317   2.665  15.271  0.4710 -0.0689 -0.0789
  282MPD2     H 4259   3.991   2.853  15.351 -0.5816 -0.3698 -1.1890
  282MPD2    H1 4260   4.260   2.655  15.069  2.1826  1.2191  0.1318
  282MPD2    H2 4261   4.371   2.678  15.469 -1.2226 -2.7403 -0.5030
  282MPD2    H3 4262   4.403   2.603  15.247 -1.0428 -2.9944  1.9950
  282MPD2     N 4263   4.011   2.775  15.094 -0.3816 -0.0207  0.6213
  282MPD2    H5 4264   3.920   2.802  15.129 -0.1087 -0.3968  1.6271
  282MPD2    N1 4265   4.145   2.820  15.553  0.5826 -0.1134  0.9433
  282MPD2    H7 4266   4.060   2.873  15.572 -0.2753  0.0921 -3.5646
  283TMC3    C1 4267   4.164   2.833  15.791  0.9999  0.3196 -0.0342
  283TMC3    C2 4268   4.127   2.964  15.812 -0.0620 -0.4240  0.1704
  283TMC3    C3 4269   4.097   2.996  15.944 -0.0890  0.4736 -0.4541
  283TMC3    C4 4270   4.172   2.741  15.893  0.1279  0.0903 -0.2585
  283TMC3    C5 4271   4.142   2.777  16.016 -0.0978  0.0383  0.5100
  283TMC3    C6 4272   4.106   2.905  16.044 -0.2232 -0.6550  0.6789
  283TMC3     C 4273   4.221   2.793  15.662  0.1344  0.4477 -0.0711
  283TMC3     O 4274   4.328   2.741  15.682  0.0378  0.1546  0.2893
  283TMC3     H 4275   4.111   3.034  15.731  0.4813  1.4424  1.6691
  283TMC3    H1 4276   4.201   2.642  15.860  1.7232  0.3008  0.4955
  283TMC3    H2 4277   4.083   2.927  16.147 -0.6202 -2.6295  1.0064
  283TMC3    C7 4278   4.103   2.675  16.105 -0.1114  0.0530  0.2397
  283TMC3    C8 4279   4.045   3.127  15.981  0.1562 -0.0858 -0.1400
  283TMC3    O1 4280   4.057   2.703  16.212  0.4017  0.0770 -0.7121
  283TMC3    O2 4281   4.015   3.133  16.101 -0.9116  0.0313 -0.0858
  284MPD2     C 4282   2.808   2.083  12.376  0.0005 -0.1243  1.4831
  284MPD2    C1 4283   2.841   2.042  12.249  0.0568 -0.3176 -0.3908
  284MPD2    C2 4284   2.768   1.935  12.186  0.5510  0.0796 -0.2103
  284MPD2    C3 4285   2.669   1.869  12.261 -0.5039  0.3959 -0.2195
  284MPD2    C4 4286   2.635   1.920  12.385  0.0417 -0.1992 -0.8248
  284MPD2    C5 4287   2.701   2.027  12.441 -0.3415  0.6494 -0.5051
  284MPD2     H 4288   2.784   1.907  12.083 -0.2305 -1.3111  0.0556
  284MPD2    H1 4289   2.551   1.882  12.443  0.2895 -2.6119 -2.0396
  284MPD2    H2 4290   2.865   2.159  12.428  0.5493  1.0202 -0.8206
  284MPD2    H3 4291   2.667   2.060  12.538 -2.5978  2.9784 -2.0733
  284MPD2     N 4292   2.586   1.770  12.213  0.1181  0.8024 -0.1924
  284MPD2    H5 4293   2.506   1.748  12.271  1.4470 -2.9142  0.2338
  284MPD2    N1 4294   2.938   2.107  12.177  0.0670  0.4188  0.3895
  284MPD2    H7 4295   2.937   2.087  12.077 -0.2384  1.7672  0.1215
  285TMC3    C1 4296   3.093   2.252  12.100 -0.3050 -0.1549  0.1927
  285TMC3    C2 4297   3.160   2.149  12.039  0.2957 -0.3959 -0.0713
  285TMC3    C3 4298   3.204   2.171  11.911 -0.5502  0.0534 -0.9483
  285TMC3    C4 4299   3.075   2.384  12.064  0.2986  0.3873 -0.8804
  285TMC3    C5 4300   3.131   2.401  11.934  0.6319  0.5160  0.5976
  285TMC3    C6 4301   3.181   2.296  11.860  1.0202  1.1548 -0.7625
  285TMC3     C 4302   3.018   2.217  12.215 -0.6496 -0.1367  0.8656
  285TMC3     O 4303   3.015   2.282  12.317 -0.1792 -0.4704  0.3149
  285TMC3     H 4304   3.162   2.057  12.095  2.3157  0.0969  0.6665
  285TMC3    H1 4305   3.022   2.451  12.132 -0.2970  0.2732 -1.2334
  285TMC3    H2 4306   3.202   2.312  11.755  0.6233  1.6802 -0.7576
  285TMC3    C7 4307   3.091   2.512  11.860  0.3036 -0.3647  0.5164
  285TMC3    C8 4308   3.198   2.058  11.814 -0.2470 -0.3239 -1.1250
  285TMC3    O1 4309   3.099   2.507  11.740 -0.1790 -0.7926  0.4435
  285TMC3    O2 4310   3.196   2.071  11.692 -0.0761 -0.4617  0.1149
  286MPD2     C 4311   2.934   0.380   1.386 -0.0118 -0.6882 -0.2791
  286MPD2    C1 4312   2.875   0.336   1.276 -0.3981  0.6284  0.1703
  286MPD2    C2 4313   2.907   0.211   1.225 -0.4193  0.1146 -0.0605
  286MPD2    C3 4314   3.009   0.138   1.275 -0.7603  0.3302  0.7845
  286MPD2    C4 4315   3.070   0.180   1.391  0.0277  0.1151 -0.0404
  286MPD2    C5 4316   3.023   0.295   1.450  0.9930  0.1065  0.3273
  286MPD2     H 4317   2.863   0.189   1.129  0.9830  0.2473 -0.7315
  286MPD2    H1 4318   3.139   0.126   1.454  1.3577  1.0202 -0.7405
  286MPD2    H2 4319   2.912   0.478   1.427 -2.1913 -1.4200  0.3016
  286MPD2    H3 4320   3.058   0.319   1.549 -1.3770  3.6445  0.3018
  286MPD2     N 4321   3.066   0.024   1.212  0.4327 -0.7698 -0.5911
  286MPD2    H5 4322   3.151   4.709   1.249  0.7899  2.7828  2.3937
  286MPD2    N1 4323   2.772   0.399   1.207 -0.6161  0.2957  0.8081
  286MPD2    H7 4324   2.722   0.354   1.132  1.9822 -4.2359  1.8051
  287TMC3    C1 4325   3.106   4.583   1.049 -0.0364  0.5294 -0.4866
  287TMC3    C2 4326   3.048   4.487   0.964 -0.3701  0.2934  0.2919
  287TMC3    C3 4327   3.136   4.416   0.887 -0.3387 -0.3309  0.0807
  287TMC3    C4 4328   3.241   4.612   1.052  0.0318  0.0843  0.1026
  287TMC3    C5 4329   3.331   4.535   0.976  0.3927  0.2204  0.2789
  287TMC3    C6 4330   3.270   4.445   0.893  0.3889 -0.1389  0.0287
  287TMC3     C 4331   3.010   4.680   1.106 -0.4346 -0.0595 -0.2379
  287TMC3     O 4332   2.893   4.683   1.067  1.4549 -0.1488 -0.1203
  287TMC3     H 4333   2.944   4.457   0.967 -0.8925  2.0817 -0.0857
  287TMC3    H1 4334   3.276   4.691   1.118 -1.2663  1.3575 -0.7496
  287TMC3    H2 4335   3.337   4.389   0.829 -0.8637  3.0318 -4.0083
  287TMC3    C7 4336   3.470   4.569   0.980 -0.3733 -0.3227  0.2547
  287TMC3    C8 4337   3.075   4.348   0.777 -0.0841 -0.4539  0.5800
  287TMC3    O1 4338   3.509   4.604   1.089 -0.2076 -0.0975  0.1438
  287TMC3    O2 4339   2.950   4.345   0.776  0.0863  0.0564  0.1318
  288TMC3    C1 4340   4.364   0.515  14.592 -0.4141 -0.0812 -0.1684
  288TMC3    C2 4341   4.338   0.508  14.722 -0.0383 -0.3564  0.1739
  288TMC3    C3 4342   4.389   0.606  14.804  0.4145 -0.3521 -0.1249
  288TMC3    C4 4343   4.435   0.612  14.531  0.1348  0.6785  0.3634
  288TMC3    C5 4344   4.495   0.700  14.620 -0.4008 -0.5234 -0.7304
  288TMC3    C6 4345   4.469   0.711  14.755 -0.1084 -0.2146 -0.4000
  288TMC3     C 4346   4.323   0.408  14.504  0.1300  0.3246 -0.6267
  288TMC3     O 4347   4.347   0.420  14.386 -0.5884 -0.3554 -0.2905
  288TMC3     H 4348   4.300   0.414  14.761 -1.1021 -0.1007 -0.2333
  288TMC3    H1 4349   4.473   0.596  14.430  0.4733 -0.7528  0.7247
  288TMC3    H2 4350   4.511   0.780  14.826  0.1030  1.4907 -2.1782
  288TMC3    C7 4351   4.543   0.824  14.560  0.0180  0.7698  0.4889
  288TMC3    C8 4352   4.381   0.591  14.948  0.3949  0.1477  0.2295
  288TMC3    O1 4353   4.643   0.880  14.601  0.5657  0.2911 -0.3897
  288TMC3    O2 4354   4.442   0.655  15.030  0.1564 -0.1484  0.0277
  289MPD2     C 4355   4.536   4.612  14.436 -0.0297  0.3050  0.2698
  289MPD2    C1 4356   4.544   4.614  14.300  0.3408  0.0950  0.3169
  289MPD2    C2 4357   4.456   4.534  14.223 -0.0981 -0.1929  0.2981
  289MPD2    C3 4358   4.352   4.467  14.286  0.1596 -0.1279  0.4928
  289MPD2    C4 4359   4.354   4.455  14.421  0.3940 -0.6919 -0.7239
  289MPD2    C5 4360   4.447   4.530  14.493 -0.0816 -0.2833 -0.3780
  289MPD2     H 4361   4.462   4.548  14.116 -1.2146 -1.9484  0.0111
  289MPD2    H1 4362   4.275   4.395  14.465  2.4506 -2.5923  0.3561
  289MPD2    H2 4363   4.600   4.665  14.506  0.8657 -0.4639  0.0381
  289MPD2    H3 4364   4.445   4.530  14.602  0.0391  2.3428 -0.3758
  289MPD2     N 4365   4.229   4.434  14.226  0.4935 -0.3914 -0.7689
  289MPD2    H5 4366   4.151   4.409  14.287 -1.0651 -0.4590 -2.7693
  289MPD2    N1 4367   4.643   4.706  14.248  0.1916 -0.0376 -0.7385
  289MPD2    H7 4368   4.676   0.056  14.308  2.0165  0.1687 -2.0081
  290TMC3    C1 4369   4.048   4.424  14.072  0.5047  0.0551 -0.7018
  290TMC3    C2 4370   3.992   4.521  13.992 -0.4868  0.3758 -0.2359
  290TMC3    C3 4371   3.858   4.528  13.990  0.2686 -0.0930 -0.8630
  290TMC3    C4 4372   3.978   4.335  14.149 -0.1887 -0.1680  0.0947
  290TMC3    C5 4373   3.841   4.355  14.145 -0.2137  0.7573  0.1160
  290TMC3    C6 4374   3.782   4.451  14.069 -0.1766 -0.1132  0.4566
  290TMC3     C 4375   4.193   4.439  14.095 -0.1457  0.0513  0.0642
  290TMC3     O 4376   4.259   4.474  14.000  0.3547  0.3068  0.5825
  290TMC3     H 4377   4.050   4.585  13.927  4.1887 -1.3873  2.1189
  290TMC3    H1 4378   4.020   4.244  14.189 -0.4136 -0.5905 -0.6392
  290TMC3    H2 4379   3.676   4.472  14.064  0.1604  1.5929  0.3827
  290TMC3    C7 4380   3.766   4.252  14.203 -0.9318  0.0124 -0.3482
  290TMC3    C8 4381   3.798   4.655  13.950 -0.3051 -0.3763  0.2262
  290TMC3    O1 4382   3.645   4.267  14.181 -0.1762  0.2211  0.5035
  290TMC3    O2 4383   3.692   4.649  13.885  0.6109 -0.5359 -0.1731
  291MPD2     C 4384   3.765   4.218   0.460  0.0877 -0.1385  0.3244
  291MPD2    C1 4385   3.811   4.091   0.414  0.0736 -0.3938 -0.3860
  291MPD2    C2 4386   3.931   4.079   0.338  0.4219 -0.0997  0.5235
  291MPD2    C3 4387   4.003   4.190   0.311 -0.8338 -0.2423 -0.0684
  291MPD2    C4 4388   3.946   4.314   0.329 -0.6052  0.5852  0.2595
  291MPD2    C5 4389   3.837   4.326   0.411 -0.0567  0.0465  0.6369
  291MPD2     H 4390   3.966   3.983   0.301 -0.8861 -0.4294  0.1345
  291MPD2    H1 4391   3.996   4.401   0.289  0.3465 -1.2900 -2.7099
  291MPD2    H2 4392   3.685   4.227   0.532  0.3728 -0.4496  0.6820
  291MPD2    H3 4393   3.787   4.419   0.439 -0.7407 -0.1060 -0.0826
  291MPD2     N 4394   4.125   4.184   0.249 -0.4225  0.2086  0.4051
  291MPD2    H5 4395   4.157   4.278   0.227 -0.2041  0.4728  1.8646
  291MPD2    N1 4396   3.738   3.972   0.423  0.3986 -0.0557  0.1897
  291MPD2    H7 4397   3.778   3.885   0.387  0.4675  0.4753 -1.0080
  292TMC3    C1 4398   3.553   3.835   0.476  0.2562 -0.8155  0.3666
  292TMC3    C2 4399   3.446   3.824   0.562 -0.2643 -0.6898  0.5030
  292TMC3    C3 4400   3.341   3.746   0.527  1.1107 -0.3352  0.8350
  292TMC3    C4 4401   3.561   3.759   0.360 -0.0818  0.0422 -0.0984
  292TMC3    C5 4402   3.451   3.683   0.326 -0.2016  0.4373  0.0190
  292TMC3    C6 4403   3.339   3.677   0.408  0.3502  0.4197 -0.4140
  292TMC3     C 4404   3.623   3.964   0.492  0.2815 -0.4107  0.0468
  292TMC3     O 4405   3.573   4.038   0.577 -0.3201 -0.0313 -0.0846
  292TMC3     H 4406   3.445   3.883   0.653  0.2694  2.2041 -1.3718
  292TMC3    H1 4407   3.646   3.772   0.294 -0.1348  0.7046 -0.0435
  292TMC3    H2 4408   3.269   3.595   0.400 -0.1298  0.6918  0.9932
  292TMC3    C7 4409   3.463   3.575   0.236 -0.2333 -0.2797 -0.4512
  292TMC3    C8 4410   3.234   3.749   0.621  0.6263 -0.6111  0.2177
  292TMC3    O1 4411   3.579   3.530   0.221  0.4428 -0.3852 -0.5740
  292TMC3    O2 4412   3.269   3.769   0.737  0.7589 -0.5333 -0.2498
  293MPD2     C 4413   1.156   1.267  12.487 -0.8266  0.3370 -1.2167
  293MPD2    C1 4414   1.032   1.285  12.543  0.0089  0.0846  1.0934
  293MPD2    C2 4415   1.016   1.271  12.678 -0.2724 -0.2970 -0.3201
  293MPD2    C3 4416   1.119   1.232  12.762 -0.4520 -0.1509  0.6013
  293MPD2    C4 4417   1.246   1.223  12.706  0.0598  0.0867  0.2056
  293MPD2    C5 4418   1.261   1.234  12.568 -0.0921 -0.5889 -0.0681
  293MPD2     H 4419   0.919   1.272  12.726  0.7001 -0.4501  1.6408
  293MPD2    H1 4420   1.335   1.208  12.766  0.2038 -2.5406 -0.6854
  293MPD2    H2 4421   1.179   1.262  12.381  0.2134  2.1673 -1.0714
  293MPD2    H3 4422   1.360   1.220  12.526 -0.2023  1.8895 -1.1308
  293MPD2     N 4423   1.091   1.214  12.895  0.1525 -0.1450 -0.1553
  293MPD2    H5 4424   0.994   1.224  12.924  0.9596  1.2686  2.1387
  293MPD2    N1 4425   0.927   1.300  12.450  0.0985  0.5199 -0.0779
  293MPD2    H7 4426   0.963   1.292  12.356 -1.8694 -2.5351 -0.5779
  294TMC3    C1 4427   0.712   1.313  12.364  0.4239  0.5346 -0.5872
  294TMC3    C2 4428   0.578   1.302  12.397 -0.0840  0.3737 -0.1612
  294TMC3    C3 4429   0.494   1.251  12.294  0.3060  0.4947  0.3251
  294TMC3    C4 4430   0.761   1.264  12.244 -0.5287  0.3488  0.4440
  294TMC3    C5 4431   0.672   1.223  12.151  0.5655 -0.3584 -0.4783
  294TMC3    C6 4432   0.537   1.219  12.173 -0.2810  0.2892 -0.8006
  294TMC3     C 4433   0.796   1.320  12.482  0.6153 -0.1320 -0.1066
  294TMC3     O 4434   0.737   1.309  12.591 -0.3298 -0.0453 -0.0448
  294TMC3     H 4435   0.528   1.338  12.486 -1.9485  0.0209 -1.0464
  294TMC3    H1 4436   0.867   1.274  12.219 -0.5362  0.5400  0.4827
  294TMC3    H2 4437   0.475   1.173  12.097 -0.4498  0.5769 -0.8358
  294TMC3    C7 4438   0.713   1.171  12.022 -0.3175  0.0456  0.1302
  294TMC3    C8 4439   0.366   1.211  12.337 -0.2392  0.6157  0.2686
  294TMC3    O1 4440   0.656   1.234  11.930 -0.3561 -0.3278  0.2055
  294TMC3    O2 4441   0.333   1.258  12.445 -0.4577  0.2081  0.1982
  295MPD2     C 4442   1.448   3.927   0.980  0.2826  0.0103  0.1093
  295MPD2    C1 4443   1.400   3.861   0.876  0.8613 -0.5272 -0.3401
  295MPD2    C2 4444   1.302   3.767   0.895  0.5862 -0.2638 -0.3122
  295MPD2    C3 4445   1.249   3.746   1.025  0.0852 -0.0346  0.7412
  295MPD2    C4 4446   1.295   3.816   1.130 -0.3407  0.1237 -0.6941
  295MPD2    C5 4447   1.398   3.907   1.105 -0.7401  0.3365  0.5842
  295MPD2     H 4448   1.262   3.707   0.814 -1.3988 -0.2699  0.6577
  295MPD2    H1 4449   1.260   3.814   1.233 -0.6313  0.1415 -0.7929
  295MPD2    H2 4450   1.527   4.002   0.973 -0.1941  0.3841 -1.2060
  295MPD2    H3 4451   1.447   3.965   1.182 -1.4108  1.5789  0.0745
  295MPD2     N 4452   1.143   3.643   1.056  0.4263 -0.1090  0.0282
  295MPD2    H5 4453   1.108   3.645   1.151  0.6580 -1.3056  0.1370
  295MPD2    N1 4454   1.434   3.896   0.743  0.1073 -0.6466  0.4056
  295MPD2    H7 4455   1.377   3.851   0.673  0.3598 -1.2652  0.6050
  296TMC3    C1 4456   0.982   3.483   1.024 -0.6981 -0.0983  0.7254
  296TMC3    C2 4457   0.980   3.457   1.158 -0.6967  0.2216  0.4706
  296TMC3    C3 4458   0.863   3.405   1.205  0.6299  0.0006 -0.0164
  296TMC3    C4 4459   0.876   3.471   0.938 -0.1250  0.8591 -0.0790
  296TMC3    C5 4460   0.755   3.437   0.998  0.3797 -0.6563 -0.0979
  296TMC3    C6 4461   0.751   3.408   1.128  0.3771  0.2356 -0.8686
  296TMC3     C 4462   1.081   3.566   0.957  0.0795 -0.0166  0.0041
  296TMC3     O 4463   1.092   3.564   0.834 -0.2465  0.1890  0.2199
  296TMC3     H 4464   1.071   3.457   1.218 -0.1663 -0.2885 -0.3407
  296TMC3    H1 4465   0.883   3.493   0.832 -2.0759  1.6911 -0.0351
  296TMC3    H2 4466   0.663   3.366   1.174  1.0429  0.5784  0.7540
  296TMC3    C7 4467   0.642   3.469   0.913  0.1888  0.6754  0.0393
  296TMC3    C8 4468   0.856   3.355   1.342 -1.0399  0.3902 -0.7246
  296TMC3    O1 4469   0.662   3.488   0.799 -0.4136  0.1482 -0.0583
  296TMC3    O2 4470   0.769   3.271   1.372 -0.6446  0.5650  0.5757
  297MPD2     C 4471   3.441   1.574  16.633  0.1001 -0.2330 -0.3062
  297MPD2    C1 4472   3.403   1.696  16.586 -0.0412  0.1511  0.2610
  297MPD2    C2 4473   3.477   1.813  16.615 -0.7953  0.0432  0.1769
  297MPD2    C3 4474   3.595   1.806  16.679  0.1341 -0.1211  0.2407
  297MPD2    C4 4475   3.636   1.679  16.723 -0.6332  0.0937 -0.6454
  297MPD2    C5 4476   3.557   1.571  16.696 -0.2068  0.4174  0.3559
  297MPD2     H 4477   3.454   1.913  16.578  1.0007  0.7139  0.8669
  297MPD2    H1 4478   3.722   1.655  16.785  0.1635 -1.0462 -2.2068
  297MPD2    H2 4479   3.387   1.482  16.613 -2.6398  0.8612  2.0349
  297MPD2    H3 4480   3.589   1.476  16.736  0.2080  0.6549  0.5908
  297MPD2     N 4481   3.681   1.924  16.691  0.0575  0.3420  0.2303
  297MPD2    H5 4482   3.641   2.016  16.674  0.4219  0.2244 -1.2483
  297MPD2    N1 4483   3.299   1.707  16.495  0.0833 -0.1759  0.0167
  297MPD2    H7 4484   3.262   1.621  16.454 -1.3832  1.5070 -2.1744
  298TMC3    C1 4485   3.146   1.788  16.339 -0.2280 -0.1229  0.1483
  298TMC3    C2 4486   3.199   1.713  16.241 -0.1257  0.1257 -0.1684
  298TMC3    C3 4487   3.147   1.734  16.109 -0.5406 -0.1144 -0.1494
  298TMC3    C4 4488   3.040   1.872  16.326  0.4833 -0.3099 -0.2068
  298TMC3    C5 4489   2.984   1.877  16.198  1.0724 -0.1762 -0.1371
  298TMC3    C6 4490   3.038   1.821  16.087  0.3179 -0.1009  0.0080
  298TMC3     C 4491   3.236   1.820  16.452  0.4215 -0.4903 -0.2054
  298TMC3     O 4492   3.220   1.926  16.510 -0.2163 -0.3651 -0.6582
  298TMC3     H 4493   3.284   1.647  16.250  1.5656  2.1408 -1.4373
  298TMC3    H1 4494   2.999   1.930  16.408 -0.5925  0.7943 -1.5280
  298TMC3    H2 4495   2.979   1.833  15.997  0.1352 -1.5551 -0.0763
  298TMC3    C7 4496   2.846   1.939  16.193  0.0962 -0.4550 -0.4325
  298TMC3    C8 4497   3.216   1.673  15.994  0.3158 -0.1115 -0.0912
  298TMC3    O1 4498   2.789   1.946  16.300  0.3693 -0.6094  0.1487
  298TMC3    O2 4499   3.283   1.577  16.018  0.2850 -0.3534  0.3048
  299MPD2     C 4500   4.207   1.821  10.540  0.7507 -0.6886 -0.4961
  299MPD2    C1 4501   4.174   1.705  10.610 -0.0485 -0.1442  0.7901
  299MPD2    C2 4502   4.066   1.628  10.561 -0.1696  0.1483  0.5094
  299MPD2    C3 4503   3.991   1.670  10.452 -0.1700 -0.3686  0.9277
  299MPD2    C4 4504   4.034   1.787  10.385 -0.7631 -0.7425 -0.2805
  299MPD2    C5 4505   4.144   1.859  10.423  0.1550  0.2576 -0.7507
  299MPD2     H 4506   4.050   1.529  10.601  1.4127 -0.6888 -0.9294
  299MPD2    H1 4507   3.994   1.811  10.287 -0.7866 -0.8054 -0.2859
  299MPD2    H2 4508   4.280   1.895  10.570 -2.2411  2.7378 -1.7402
  299MPD2    H3 4509   4.187   1.943  10.370 -0.8609  0.9536 -0.4775
  299MPD2     N 4510   3.865   1.613  10.421  0.0181 -0.5488 -0.0034
  299MPD2    H5 4511   3.824   1.656  10.339 -1.4697 -0.2519  0.8945
  299MPD2    N1 4512   4.264   1.662  10.713 -0.2696  0.3420 -0.6559
  299MPD2    H7 4513   4.346   1.720  10.726 -0.5774  0.8901 -1.1809
  300TMC3    C1 4514   3.668   1.497  10.444  0.1317  0.6037  0.0104
  300TMC3    C2 4515   3.606   1.610  10.459 -0.0360  0.7571 -0.4795
  300TMC3    C3 4516   3.478   1.617  10.518  0.2102  0.7832 -0.4447
  300TMC3    C4 4517   3.606   1.381  10.477  0.3800  0.2950 -0.5367
  300TMC3    C5 4518   3.487   1.388  10.548 -0.3116  0.7868 -0.3512
  300TMC3    C6 4519   3.417   1.510  10.573 -0.3752 -0.1210  0.6629
  300TMC3     C 4520   3.808   1.502  10.479  0.3246  0.1766 -0.2142
  300TMC3     O 4521   3.842   1.425  10.570 -0.2317  0.0991 -0.1547
  300TMC3     H 4522   3.643   1.710  10.443  0.5985  0.8044  1.3077
  300TMC3    H1 4523   3.656   1.285  10.486 -1.1423 -0.3347  1.2010
  300TMC3    H2 4524   3.323   1.509  10.628 -1.5640  5.4679 -1.2958
  300TMC3    C7 4525   3.427   1.264  10.604 -0.8125  0.0601 -0.0816
  300TMC3    C8 4526   3.441   1.746  10.569  0.0372 -0.1235 -0.1072
  300TMC3    O1 4527   3.441   1.154  10.548 -0.6065 -0.4309 -0.1531
  300TMC3    O2 4528   3.523   1.839  10.578  0.0691  0.5346  0.3834
  301MPD2     C 4529   0.484   2.001   1.213 -0.1098  0.1797  0.3396
  301MPD2    C1 4530   0.565   2.082   1.139 -1.2849 -0.0427 -0.7051
  301MPD2    C2 4531   0.686   2.031   1.092  0.3138 -0.1571  0.0237
  301MPD2    C3 4532   0.734   1.906   1.124  0.1421 -0.9020  0.2096
  301MPD2    C4 4533   0.647   1.832   1.199  0.5869  0.3022 -0.2633
  301MPD2    C5 4534   0.526   1.874   1.244  0.2413  0.3003 -0.0954
  301MPD2     H 4535   0.752   2.100   1.041  0.6934  0.0597  0.8203
  301MPD2    H1 4536   0.674   1.732   1.229  0.4366  0.5111  0.5769
  301MPD2    H2 4537   0.384   2.032   1.244  0.8068  0.5108  2.9755
  301MPD2    H3 4538   0.460   1.806   1.297  2.4342 -1.5496  0.2440
  301MPD2     N 4539   0.859   1.851   1.102 -0.1197 -0.9781 -0.0823
  301MPD2    H5 4540   0.884   1.761   1.141 -1.6916 -2.0026 -1.4056
  301MPD2    N1 4541   0.542   2.215   1.107 -0.6899  0.6820  0.2046
  301MPD2    H7 4542   0.604   2.247   1.033 -0.3483  0.8363  0.5632
  302TMC3    C1 4543   1.082   1.854   1.026  0.0961 -0.3332 -0.5453
  302TMC3    C2 4544   1.102   1.722   1.050  0.6053  0.0116  0.0707
  302TMC3    C3 4545   1.228   1.676   1.025  1.0357  0.5655 -0.0810
  302TMC3    C4 4546   1.184   1.940   0.988  0.2452  0.7956  0.3083
  302TMC3    C5 4547   1.303   1.888   0.967  0.1214  0.6349  0.2816
  302TMC3    C6 4548   1.323   1.754   0.972  0.0623  0.3142  0.4809
  302TMC3     C 4549   0.952   1.912   1.020 -0.6311 -0.7694 -0.5805
  302TMC3     O 4550   0.935   2.008   0.950  0.0910  0.0823  0.3324
  302TMC3     H 4551   1.026   1.645   1.057  0.7857 -0.3936 -2.3395
  302TMC3    H1 4552   1.170   2.047   0.976 -0.2648  0.7249  0.3056
  302TMC3    H2 4553   1.420   1.710   0.951 -1.0746 -1.5305 -0.9255
  302TMC3    C7 4554   1.413   1.963   0.911  0.6962  0.3719  0.1746
  302TMC3    C8 4555   1.264   1.537   1.060 -0.8004  0.5231 -0.3350
  302TMC3    O1 4556   1.530   1.938   0.933 -0.6647  0.1133 -0.2746
  302TMC3    O2 4557   1.377   1.495   1.028  0.5298  0.8664  0.5046
  303MPD2     C 4558   1.322   1.630  10.112 -0.0976 -0.0418 -0.1764
  303MPD2    C1 4559   1.238   1.533  10.093  0.2922 -0.4776  0.6324
  303MPD2    C2 4560   1.272   1.425  10.010 -0.6804 -0.4303  0.1217
  303MPD2    C3 4561   1.395   1.421   9.953  0.1611 -0.1294 -0.1454
  303MPD2    C4 4562   1.490   1.521   9.983 -0.2363 -0.0530  0.5063
  303MPD2    C5 4563   1.451   1.624  10.052 -0.2254 -0.4111 -0.4754
  303MPD2     H 4564   1.195   1.352   9.990  0.9603 -1.6260 -1.7986
  303MPD2    H1 4565   1.582   1.518   9.926  0.4766 -2.2282  1.7617
  303MPD2    H2 4566   1.289   1.707  10.180  0.5341  0.5856 -0.5748
  303MPD2    H3 4567   1.519   1.704  10.077 -1.4597 -0.3069  2.6143
  303MPD2     N 4568   1.431   1.326   9.861 -0.1649  0.2496 -0.7972
  303MPD2    H5 4569   1.525   1.317   9.825  0.0393 -2.4586  0.3554
  303MPD2    N1 4570   1.112   1.544  10.152  0.0085 -0.4568  0.0656
  303MPD2    H7 4571   1.084   1.633  10.191 -0.8859 -0.3179 -0.8992
  304TMC3    C1 4572   0.893   1.489  10.224 -0.7402 -0.2870  0.2189
  304TMC3    C2 4573   0.843   1.598  10.164 -0.3681  0.4174 -0.2838
  304TMC3    C3 4574   0.707   1.607  10.148  0.0580 -0.0556 -0.5052
  304TMC3    C4 4575   0.813   1.381  10.252  0.2689 -0.4340  0.3080
  304TMC3    C5 4576   0.682   1.388  10.226 -0.2620  0.6554 -0.4561
  304TMC3    C6 4577   0.623   1.508  10.191 -0.8304 -0.0653 -0.3313
  304TMC3     C 4578   1.024   1.444  10.173 -0.3311 -0.3360 -0.0717
  304TMC3     O 4579   1.035   1.325  10.145  0.1447 -0.0841 -0.4213
  304TMC3     H 4580   0.909   1.676  10.126 -1.7216  1.3851 -0.6538
  304TMC3    H1 4581   0.857   1.284  10.274 -0.0640 -0.7960 -0.6099
  304TMC3    H2 4582   0.520   1.523  10.159 -0.7359 -1.8127 -1.4628
  304TMC3    C7 4583   0.636   1.281  10.135  0.7903  0.9418  0.6969
  304TMC3    C8 4584   0.676   1.661  10.018 -0.5448  0.6304  0.4312
  304TMC3    O1 4585   0.554   1.323  10.058 -0.4456  0.2971  0.5036
  304TMC3    O2 4586   0.759   1.739   9.973 -0.7411 -0.1861 -0.0291
  305MPD2     C 4587   4.485   3.050  14.098 -0.1094  0.2197 -0.4017
  305MPD2    C1 4588   4.412   2.936  14.076  0.4316 -0.0135 -0.0006
  305MPD2    C2 4589   4.403   2.888  13.950  0.3197  0.1720 -0.0011
  305MPD2    C3 4590   4.458   2.958  13.848 -0.2489 -0.1397 -0.1105
  305MPD2    C4 4591   4.540   3.055  13.873  0.6713  0.5544 -0.1245
  305MPD2    C5 4592   4.551   3.106  13.996 -0.7397 -0.0028 -0.1000
  305MPD2     H 4593   4.349   2.798  13.922  0.5473 -0.0179  0.1710
  305MPD2    H1 4594   4.599   3.111  13.801 -1.2928  1.1568 -1.2712
  305MPD2    H2 4595   4.497   3.096  14.195  2.7377 -2.1788  0.3623
  305MPD2    H3 4596   4.621   3.188  14.011 -1.7770  1.2027 -1.7946
  305MPD2     N 4597   4.447   2.922  13.708  0.3411 -0.2384 -0.1837
  305MPD2    H5 4598   4.502   2.978  13.644 -0.3783 -0.6185 -1.1300
  305MPD2    N1 4599   4.347   2.878  14.191 -0.0031 -0.4245  0.0872
  305MPD2    H7 4600   4.369   2.915  14.282  0.5750  0.3177 -0.3515
  306TMC3    C1 4601   4.218   2.724  14.312 -0.5726 -0.7869  0.0033
  306TMC3    C2 4602   4.311   2.640  14.381 -0.2416  0.4217 -0.0729
  306TMC3    C3 4603   4.325   2.662  14.514  0.3830  0.2312 -0.1477
  306TMC3    C4 4604   4.137   2.811  14.378 -0.2387 -0.0299  0.5803
  306TMC3    C5 4605   4.162   2.832  14.505  0.2867  0.1904  0.1882
  306TMC3    C6 4606   4.252   2.762  14.578  0.5421 -0.4032  0.5855
  306TMC3     C 4607   4.271   2.762  14.184  0.3610 -0.0984  0.0421
  306TMC3     O 4608   4.261   2.685  14.091  0.2551 -0.3757 -0.4075
  306TMC3     H 4609   4.369   2.572  14.321 -0.2420  0.0718  0.3253
  306TMC3    H1 4610   4.077   2.875  14.315 -2.0394 -0.6408  1.6931
  306TMC3    H2 4611   4.253   2.780  14.685  0.9988 -0.1436  0.5365
  306TMC3    C7 4612   4.088   2.943  14.565  0.1499 -0.3705  0.5528
  306TMC3    C8 4613   4.442   2.607  14.580  0.0244 -0.4696  0.2084
  306TMC3    O1 4614   3.972   2.973  14.530 -0.4994 -0.6833 -0.2688
  306TMC3    O2 4615   4.474   2.500  14.536  0.3049  0.6709  0.6214
  307MPD2     C 4616   2.025   4.685   0.812  0.3247  0.1910  0.6861
  307MPD2    C1 4617   2.013   0.090   0.866  0.1768 -0.3812 -0.4108
  307MPD2    C2 4618   1.891   0.135   0.910  0.0089 -0.3709  0.0045
  307MPD2    C3 4619   1.773   0.059   0.871  0.4597  0.0268 -0.1542
  307MPD2    C4 4620   1.789   4.657   0.826  0.4177 -0.1170  0.4017
  307MPD2    C5 4621   1.913   4.607   0.805  0.0967  0.4067  0.4370
  307MPD2     H 4622   1.880   0.231   0.957 -0.0053 -0.4176  0.0959
  307MPD2    H1 4623   1.703   4.593   0.809  0.8422 -0.9439  1.3641
  307MPD2    H2 4624   2.119   4.635   0.794 -0.8856 -2.4751  1.6893
  307MPD2    H3 4625   1.928   4.503   0.778 -1.0144  0.1753  0.7137
  307MPD2     N 4626   1.646   0.125   0.875  0.0803  0.4159  0.0068
  307MPD2    H5 4627   1.658   0.225   0.890  0.1521  0.2271  1.2335
  307MPD2    N1 4628   2.119   0.181   0.873  0.2174 -0.4872  0.0907
  307MPD2    H7 4629   2.090   0.277   0.889 -1.4547 -1.0427  0.4831
  308TMC3    C1 4630   1.309   0.280   0.643  0.0358 -0.4151  0.1078
  308TMC3    C2 4631   1.339   0.404   0.697  0.3965  0.1722  0.3824
  308TMC3    C3 4632   1.404   0.418   0.813  0.2244  0.3333 -0.1706
  308TMC3    C4 4633   1.355   0.167   0.704 -0.3777 -0.5186 -0.0012
  308TMC3    C5 4634   1.428   0.185   0.823 -0.9592 -0.6805  0.0456
  308TMC3    C6 4635   1.458   0.311   0.878 -0.9684 -0.3757 -0.1262
  308TMC3     C 4636   1.225   0.274   0.521 -1.0649 -0.2405  0.9899
  308TMC3     O 4637   1.146   0.180   0.520  0.0380  0.0753 -0.5432
  308TMC3     H 4638   1.304   0.496   0.652  0.2452  0.4145  0.9928
  308TMC3    H1 4639   1.342   0.072   0.653  0.6738 -0.2260 -0.8202
  308TMC3    H2 4640   1.513   0.324   0.971 -1.7832  1.0069  0.1617
  308TMC3    C7 4641   1.526   0.073   0.844  0.3390 -0.6602  0.1480
  308TMC3    C8 4642   1.431   0.548   0.871 -0.6197  0.3074  0.2139
  308TMC3    O1 4643   1.493   4.686   0.803  0.0756  0.2904  0.4795
  308TMC3    O2 4644   1.415   0.569   0.992 -0.2914  0.4266  0.5297
  309MPD2     C 4645   1.512   1.100  16.718 -0.1903  0.0315  0.2689
  309MPD2    C1 4646   1.484   1.182  16.614  0.0761  0.1385  0.7050
  309MPD2    C2 4647   1.378   1.268  16.621 -0.4547  0.5925 -0.2691
  309MPD2    C3 4648   1.289   1.255  16.726  0.5900 -0.0094 -0.2467
  309MPD2    C4 4649   1.315   1.170  16.831  0.1070  0.0703  0.3004
  309MPD2    C5 4650   1.434   1.097  16.831 -0.2283 -0.2203  0.2255
  309MPD2     H 4651   1.358   1.345  16.548 -1.5356  0.8502  0.2904
  309MPD2    H1 4652   1.243   1.168  16.912  0.8529  1.0123  0.9921
  309MPD2    H2 4653   1.598   1.033  16.717  1.5583  2.2586  0.7581
  309MPD2    H3 4654   1.457   1.044  16.923 -1.3297 -0.5403  0.3120
  309MPD2     N 4655   1.167   1.330  16.747  0.1998  0.6502  0.2525
  309MPD2    H5 4656   1.116   1.296  16.827  0.9820 -1.9977 -0.3584
  309MPD2    N1 4657   1.561   1.191  16.491  0.0092  0.5298 -0.0822
  309MPD2    H7 4658   1.533   1.261  16.423 -1.1222 -0.2555 -0.4152
  310TMC3    C1 4659   1.720   1.117  16.326 -0.6252 -0.4091  0.0616
  310TMC3    C2 4660   1.672   1.219  16.241 -0.9640 -0.0831  0.9009
  310TMC3    C3 4661   1.755   1.275  16.151 -0.0248 -0.2047 -0.6485
  310TMC3    C4 4662   1.849   1.081  16.312 -0.9183  0.0227  0.5194
  310TMC3    C5 4663   1.936   1.150  16.241 -0.0874  0.8530  0.3543
  310TMC3    C6 4664   1.889   1.242  16.148 -0.3414  0.9225 -0.2181
  310TMC3     C 4665   1.650   1.089  16.451  0.1488  0.7831 -0.5609
  310TMC3     O 4666   1.694   0.991  16.509  0.0897  0.5718 -0.2233
  310TMC3     H 4667   1.566   1.239  16.238 -1.1001 -1.1484 -1.3965
  310TMC3    H1 4668   1.893   1.009  16.380  0.1097 -0.9715 -1.1702
  310TMC3    H2 4669   1.961   1.286  16.080  1.6164 -0.3878  1.0003
  310TMC3    C7 4670   2.063   1.087  16.218  0.2171 -0.2284 -0.8556
  310TMC3    C8 4671   1.707   1.388  16.076  0.1707  0.5135 -0.3449
  310TMC3    O1 4672   2.080   0.970  16.246  0.1182 -0.1183 -0.5758
  310TMC3    O2 4673   1.587   1.405  16.050  0.5031  0.2310  0.2334
  311MPD2     C 4674   3.589   2.470  12.703 -0.1450  0.1551 -0.2270
  311MPD2    C1 4675   3.590   2.605  12.742  0.3729 -0.4333 -0.1834
  311MPD2    C2 4676   3.479   2.654  12.793  0.1705 -0.1667 -0.1596
  311MPD2    C3 4677   3.370   2.572  12.817 -0.6597  0.1019 -0.2493
  311MPD2    C4 4678   3.369   2.437  12.775 -1.1214 -0.1990  0.1825
  311MPD2    C5 4679   3.484   2.385  12.719 -0.3327  0.0957 -0.3954
  311MPD2     H 4680   3.473   2.756  12.831 -1.5262  0.3578 -1.8184
  311MPD2    H1 4681   3.285   2.369  12.789 -0.4911 -1.0948 -0.3403
  311MPD2    H2 4682   3.677   2.426  12.658  0.5518  0.3832  0.9184
  311MPD2    H3 4683   3.500   2.280  12.700  2.9996  0.3974  0.8220
  311MPD2     N 4684   3.261   2.635  12.888  0.1450 -0.1546  0.3413
  311MPD2    H5 4685   3.261   2.736  12.890 -0.0579 -0.1679  1.1177
  311MPD2    N1 4686   3.702   2.689  12.733  0.1521  0.5759  0.2483
  311MPD2    H7 4687   3.691   2.779  12.778 -0.1480  0.7355 -0.1599
  312TMC3    C1 4688   3.047   2.657  12.986  0.2308  0.0891  0.3276
  312TMC3    C2 4689   2.922   2.616  12.965 -0.0076 -0.0951  0.4656
  312TMC3    C3 4690   2.823   2.659  13.050  0.0027 -0.2139 -0.3503
  312TMC3    C4 4691   3.081   2.736  13.083 -0.6835  0.1513  0.0330
  312TMC3    C5 4692   2.980   2.801  13.152  0.2723  0.1221  0.0706
  312TMC3    C6 4693   2.854   2.749  13.146  0.1788  0.7140  0.3943
  312TMC3     C 4694   3.156   2.570  12.946 -0.6329 -0.0036  0.1558
  312TMC3     O 4695   3.140   2.452  12.961  0.5695 -0.5283  0.3151
  312TMC3     H 4696   2.896   2.532  12.901 -1.2416 -0.5013  1.5143
  312TMC3    H1 4697   3.184   2.733  13.115  0.1570 -0.6812 -2.7158
  312TMC3    H2 4698   2.778   2.811  13.193 -0.5684  0.4170 -0.4380
  312TMC3    C7 4699   3.034   2.891  13.254 -0.0848  0.1684 -0.2310
  312TMC3    C8 4700   2.689   2.597  13.045  0.2564  0.0459 -0.6313
  312TMC3    O1 4701   3.148   2.933  13.243  0.1212  0.0041 -1.1313
  312TMC3    O2 4702   2.664   2.531  12.940  0.2508  0.1799  0.5079
  313MPD2     C 4703   3.093   1.707  11.080 -0.9825  0.7412  0.3524
  313MPD2    C1 4704   2.963   1.747  11.108  0.1145 -0.0802 -0.3198
  313MPD2    C2 4705   2.861   1.706  11.022 -0.9066 -0.4202 -0.4938
  313MPD2    C3 4706   2.886   1.625  10.915  0.3228 -0.1198 -0.4796
  313MPD2    C4 4707   3.015   1.582  10.885  0.5794 -0.0330  0.0827
  313MPD2    C5 4708   3.111   1.625  10.975 -0.0479  0.0812 -0.1385
  313MPD2     H 4709   2.761   1.745  11.037 -0.0532  0.5289  2.8590
  313MPD2    H1 4710   3.054   1.522  10.804  1.6211 -0.8300  1.1640
  313MPD2    H2 4711   3.182   1.745  11.130 -1.5215 -0.4717  2.1805
  313MPD2    H3 4712   3.214   1.596  10.957  0.2792  0.5341  0.9889
  313MPD2     N 4713   2.785   1.588  10.822 -0.7944 -0.8698 -0.2297
  313MPD2    H5 4714   2.694   1.602  10.865 -1.5093  0.1829 -2.1124
  313MPD2    N1 4715   2.945   1.835  11.216 -0.1942 -0.0668  0.1188
  313MPD2    H7 4716   2.859   1.889  11.225 -1.5211 -1.9908 -1.1149
  314TMC3    C1 4717   2.973   1.939  11.416 -0.9377  0.2941  0.5515
  314TMC3    C2 4718   3.064   2.038  11.424  0.2924  0.1070 -0.1859
  314TMC3    C3 4719   3.012   2.155  11.385 -0.2982  0.3119 -0.3919
  314TMC3    C4 4720   2.838   1.961  11.393 -0.1468  0.4671 -0.0363
  314TMC3    C5 4721   2.799   2.079  11.341 -0.7853 -1.2716 -0.1985
  314TMC3    C6 4722   2.889   2.180  11.340  0.4764  0.1937  0.7114
  314TMC3     C 4723   3.025   1.841  11.330  0.8838 -0.4472 -0.1739
  314TMC3     O 4724   3.121   1.772  11.360  0.2214  0.4685 -0.5300
  314TMC3     H 4725   3.169   2.011  11.424  1.0738  3.1730  1.1805
  314TMC3    H1 4726   2.768   1.879  11.394  2.1653 -1.4877  0.3528
  314TMC3    H2 4727   2.869   2.270  11.284  1.5521 -1.2568 -1.9943
  314TMC3    C7 4728   2.702   2.058  11.231 -0.6411  0.3391  0.7540
  314TMC3    C8 4729   3.096   2.277  11.383  0.1802  0.7847 -0.0695
  314TMC3    O1 4730   2.615   1.975  11.253 -0.2022  0.0271  0.5049
  314TMC3    O2 4731   3.055   2.382  11.337  0.0519  0.5151  0.0760
  315MPD2     C 4732   2.406   1.157  17.134  0.5290 -0.1619 -0.3052
  315MPD2    C1 4733   2.462   1.189  17.257  0.6902 -0.7376  0.1073
  315MPD2    C2 4734   2.442   1.310  17.307  0.1380 -0.3381 -0.2780
  315MPD2    C3 4735   2.358   1.403  17.249 -0.0972  0.2685 -0.3415
  315MPD2    C4 4736   2.309   1.368  17.124 -0.4148 -0.0701  0.4034
  315MPD2    C5 4737   2.323   1.244  17.066 -0.2565  0.8745 -0.0353
  315MPD2     H 4738   2.488   1.334  17.402 -1.3799 -1.0824  0.6440
  315MPD2    H1 4739   2.234   1.430  17.076  0.2387  0.2024 -0.2683
  315MPD2    H2 4740   2.415   1.058  17.091 -0.9651 -0.0171 -0.9660
  315MPD2    H3 4741   2.276   1.219  16.972 -0.2653 -0.9124  0.4479
  315MPD2     N 4742   2.335   1.529  17.309 -0.0798 -0.7854 -0.0537
  315MPD2    H5 4743   2.385   1.536  17.397  0.7860  1.9659 -0.7904
  315MPD2    N1 4744   2.555   1.099  17.325  0.1533 -0.3917 -0.6042
  315MPD2    H7 4745   2.606   1.137  17.404  0.9372 -0.3102 -1.1468
  316TMC3    C1 4746   2.285   1.762  17.333  0.0165  0.7567 -1.2816
  316TMC3    C2 4747   2.319   1.751  17.469 -0.1306  0.1916 -0.6369
  316TMC3    C3 4748   2.319   1.870  17.548 -0.1011  0.3067 -0.0722
  316TMC3    C4 4749   2.256   1.882  17.271  0.8937  0.5860 -0.3295
  316TMC3    C5 4750   2.240   1.992  17.354  0.6234 -0.2077 -0.2546
  316TMC3    C6 4751   2.267   1.985  17.494 -0.0129 -0.0912  0.2346
  316TMC3     C 4752   2.277   1.637  17.251  0.0905  0.1081  0.1159
  316TMC3     O 4753   2.232   1.653  17.139 -0.5908  0.5425 -0.0981
  316TMC3     H 4754   2.340   1.658  17.522  1.2700  1.5883  1.2666
  316TMC3    H1 4755   2.254   1.891  17.163  0.1240  2.6572 -0.1560
  316TMC3    H2 4756   2.243   2.070  17.556  0.1399  0.7553 -0.8670
  316TMC3    C7 4757   2.207   2.127  17.304 -1.0504 -0.7183  0.4824
  316TMC3    C8 4758   2.385   1.890  17.675 -0.1613 -0.0270  0.6012
  316TMC3    O1 4759   2.166   2.217  17.380 -0.5362  0.1797  0.4653
  316TMC3    O2 4760   2.351   1.968   0.059  0.0119  0.0660  0.2216
  317MPD2     C 4761   0.096   4.662  13.211  0.3078  0.0820  0.0385
  317MPD2    C1 4762   0.095   4.538  13.152 -0.2679 -0.1157 -0.3554
  317MPD2    C2 4763   0.117   4.422  13.218 -0.4244  0.0230  0.0609
  317MPD2    C3 4764   0.156   4.431  13.350  0.2171  0.3636  0.1445
  317MPD2    C4 4765   0.162   4.555  13.408  0.2792  0.2610  0.1378
  317MPD2    C5 4766   0.137   4.668  13.342  0.1725  0.2184 -0.4469
  317MPD2     H 4767   0.104   4.324  13.174  0.4416 -0.1848  0.2536
  317MPD2    H1 4768   0.179   4.572  13.514 -1.7819 -1.8982  0.7874
  317MPD2    H2 4769   0.116   0.032  13.163 -2.3605  1.0488  0.8807
  317MPD2    H3 4770   0.145   0.037  13.394  0.6399 -1.8132  3.2339
  317MPD2     N 4771   0.163   4.309  13.419 -0.1638 -0.5489  0.2260
  317MPD2    H5 4772   0.137   4.223  13.372  2.5516 -0.6001 -1.1831
  317MPD2    N1 4773   0.046   4.534  13.021 -0.4635  0.2116  0.5089
  317MPD2    H7 4774   0.054   4.451  12.963 -1.8537  1.3811 -1.3360
  318TMC3    C1 4775   0.172   4.185  13.613  0.8271 -0.2393  0.1280
  318TMC3    C2 4776   0.061   4.106  13.590  0.3760  0.0422 -0.4704
  318TMC3    C3 4777   0.039   3.996  13.664 -0.3355  0.0054 -0.2861
  318TMC3    C4 4778   0.266   4.150  13.714  0.2809  0.1249  0.5247
  318TMC3    C5 4779   0.230   4.049  13.791  0.3500 -0.3540 -0.0309
  318TMC3    C6 4780   0.131   3.959  13.762 -0.2408 -0.6290 -0.4536
  318TMC3     C 4781   0.198   4.302  13.550 -0.0483  0.4605 -0.0588
  318TMC3     O 4782   0.248   4.391  13.621 -0.2515  0.2318 -0.6376
  318TMC3     H 4783   4.713   4.139  13.517  1.5764 -0.1974 -1.7772
  318TMC3    H1 4784   0.356   4.208  13.730  0.4168  0.1847 -0.4581
  318TMC3    H2 4785   0.109   3.874  13.826  2.6467 -1.2084 -0.2424
  318TMC3    C7 4786   0.292   4.035  13.918  0.1946 -0.1682 -0.4162
  318TMC3    C8 4787   4.629   3.967  13.698  0.3480 -0.6335 -0.2381
  318TMC3    O1 4788   0.291   4.129  13.995 -0.2434  0.6588 -0.7065
  318TMC3    O2 4789   4.605   3.930  13.810 -0.0421  0.0679 -0.2677
  319MPD2     C 4790   1.097   0.847  16.328 -0.6735  0.4799 -0.3195
  319MPD2    C1 4791   1.039   0.794  16.440 -0.7931 -0.2406 -0.6493
  319MPD2    C2 4792   0.905   0.757  16.433  0.4200  0.4067 -0.3362
  319MPD2    C3 4793   0.843   0.762  16.307 -0.4431  0.0249 -0.2487
  319MPD2    C4 4794   0.908   0.815  16.200 -0.2569  0.3420 -0.5546
  319MPD2    C5 4795   1.037   0.857  16.209  0.0935  0.7415 -0.6804
  319MPD2     H 4796   0.848   0.715  16.515  1.1431 -1.8295 -0.9794
  319MPD2    H1 4797   0.862   0.821  16.102 -1.4513  0.7805  0.0457
  319MPD2    H2 4798   1.192   0.898  16.336 -0.5348 -0.0112  1.2153
  319MPD2    H3 4799   1.086   0.912  16.129  0.5443 -1.0721 -1.6749
  319MPD2     N 4800   0.707   0.718  16.281 -0.3542 -0.0913  0.9800
  319MPD2    H5 4801   0.676   0.719  16.184  1.8673  0.1496  0.2671
  319MPD2    N1 4802   1.112   0.775  16.559  0.1530 -0.3111  0.1548
  319MPD2    H7 4803   1.055   0.742  16.636  0.5515  0.9706  1.0000
  320TMC3    C1 4804   0.485   0.633  16.306 -0.0742 -0.5187 -0.5899
  320TMC3    C2 4805   0.418   0.754  16.318  0.0619  0.1637  0.1677
  320TMC3    C3 4806   0.292   0.763  16.355  0.6714  0.0435 -0.6794
  320TMC3    C4 4807   0.412   0.519  16.338 -0.1075  0.3979  0.3089
  320TMC3    C5 4808   0.282   0.533  16.377 -0.2834 -0.4542  0.1962
  320TMC3    C6 4809   0.226   0.659  16.395  0.3501 -0.5274  0.3090
  320TMC3     C 4810   0.622   0.646  16.365  0.2356 -0.4462  1.1266
  320TMC3     O 4811   0.636   0.630  16.486  0.1163 -0.6576  0.3578
  320TMC3     H 4812   0.468   0.843  16.281 -1.0420  0.6780 -0.1153
  320TMC3    H1 4813   0.466   0.426  16.349 -0.6266  0.1571  0.8216
  320TMC3    H2 4814   0.138   0.674  16.457  1.4549  0.5542  1.6388
  320TMC3    C7 4815   0.200   0.413  16.416  0.2297 -0.3430  0.1032
  320TMC3    C8 4816   0.245   0.901  16.344  1.3363 -0.1197  0.0853
  320TMC3    O1 4817   0.118   0.434  16.506 -0.1043 -0.8028  0.9147
  320TMC3    O2 4818   0.318   0.998  16.357  0.3995  0.1825 -0.3215
  321TMC3    C1 4819   1.303   0.720  16.700  0.3083 -0.6660  0.0315
  321TMC3    C2 4820   1.219   0.644  16.771  0.4212 -0.1062  0.5228
  321TMC3    C3 4821   1.274   0.591  16.885  0.6702  0.0904 -0.1049
  321TMC3    C4 4822   1.440   0.742  16.727  0.3042 -0.1911 -0.8224
  321TMC3    C5 4823   1.483   0.686  16.847 -0.2920  0.6623  0.1982
  321TMC3    C6 4824   1.403   0.619  16.934 -0.3382 -0.2448  0.2242
  321TMC3     C 4825   1.249   0.786  16.575 -0.2068  0.6461  0.3617
  321TMC3     O 4826   1.341   0.821  16.501  0.0275  0.1184  0.1823
  321TMC3     H 4827   1.122   0.618  16.731  1.2768 -0.8135 -1.0980
  321TMC3    H1 4828   1.503   0.815  16.677  0.1887  1.4802  1.4440
  321TMC3    H2 4829   1.436   0.588  17.033  1.5550  1.0904  0.0177
  321TMC3    C7 4830   1.614   0.719  16.893 -0.4146  0.2605  0.4769
  321TMC3    C8 4831   1.203   0.479  16.958 -0.2301 -0.6853  0.3188
  321TMC3    O1 4832   1.664   0.827  16.861 -0.0851  0.2193 -0.0711
  321TMC3    O2 4833   1.083   0.480  16.954 -0.3132 -0.4617 -0.0085
  322MPD2     C 4834   3.883   2.096  13.570  0.1923  0.3467 -0.2669
  322MPD2    C1 4835   3.915   2.057  13.693  0.5600 -0.0217 -0.0043
  322MPD2    C2 4836   3.936   1.925  13.716  0.3041  0.2039  0.0524
  322MPD2    C3 4837   3.938   1.832  13.611  0.2066  0.1402  0.1831
  322MPD2    C4 4838   3.890   1.872  13.490  0.1417  0.4089  0.1019
  322MPD2    C5 4839   3.856   2.003  13.474  0.5093 -0.6408  0.5262
  322MPD2     H 4840   3.977   1.893  13.812  1.6383  1.3578 -0.1305
  322MPD2    H1 4841   3.878   1.807  13.404 -1.8829 -1.8363  2.1012
  322MPD2    H2 4842   3.867   2.201  13.551 -0.4057  0.5353  1.2344
  322MPD2    H3 4843   3.826   2.042  13.378  0.3206  2.7307  1.9493
  322MPD2     N 4844   3.991   1.698  13.638 -0.2637 -0.3738  0.5704
  322MPD2    H5 4845   4.022   1.684  13.733 -0.2572  1.2203  0.7943
  322MPD2    N1 4846   3.949   2.145  13.799 -0.4714  0.3170  0.3968
  322MPD2    H7 4847   3.951   2.243  13.772  1.1913  0.7363  2.0839
  323TMC3    C1 4848   4.013   2.215  14.016  0.0424  0.0679 -0.1808
  323TMC3    C2 4849   4.133   2.268  13.977  0.1080 -0.4556  0.3901
  323TMC3    C3 4850   4.207   2.340  14.067  0.1510 -0.6976 -0.3349
  323TMC3    C4 4851   3.965   2.230  14.139  0.2923 -0.5331  0.3221
  323TMC3    C5 4852   4.041   2.288  14.230  0.2565  0.8831  0.1892
  323TMC3    C6 4853   4.163   2.347  14.196 -0.5974  0.3692 -0.3202
  323TMC3     C 4854   3.945   2.118  13.936  0.1354 -0.7667 -0.2357
  323TMC3     O 4855   3.882   2.032  13.991  0.2270 -0.3293  0.1209
  323TMC3     H 4856   4.162   2.261  13.873 -1.6779 -0.1849 -0.1368
  323TMC3    H1 4857   3.878   2.176  14.175 -0.3861 -0.2764 -0.9355
  323TMC3    H2 4858   4.242   2.375  14.265 -2.3742 -0.7802  2.1614
  323TMC3    C7 4859   4.019   2.239  14.367  0.4938  0.4418  1.5900
  323TMC3    C8 4860   4.347   2.380  14.044 -0.2077  0.6107 -0.9634
  323TMC3    O1 4861   3.978   2.127  14.386  0.1168 -0.3480 -1.0369
  323TMC3    O2 4862   4.431   2.391  14.132 -0.0778  0.0672  0.0770
  324MPD2     C 4863   1.284   3.147  14.234  0.1358  0.5210 -0.5097
  324MPD2    C1 4864   1.227   3.221  14.337 -0.1651 -0.7220 -0.3027
  324MPD2    C2 4865   1.088   3.205  14.354  0.1010 -0.2690  0.6288
  324MPD2    C3 4866   1.014   3.123  14.269 -0.4252  0.1425 -0.8180
  324MPD2    C4 4867   1.072   3.051  14.167 -0.6481 -0.5115  0.1874
  324MPD2    C5 4868   1.207   3.055  14.156  0.1998  0.7144 -0.0837
  324MPD2     H 4869   1.040   3.272  14.425  0.7750  2.3765 -1.3895
  324MPD2    H1 4870   1.015   2.980  14.107 -0.2966 -0.9435  0.3628
  324MPD2    H2 4871   1.389   3.154  14.210 -0.2514  3.1135 -1.3483
  324MPD2    H3 4872   1.256   3.004  14.074 -2.1794  0.3773 -1.3008
  324MPD2     N 4873   0.871   3.121  14.277 -0.4333  0.4311  0.5294
  324MPD2    H5 4874   0.828   3.048  14.221 -0.0983  1.7534 -1.4435
  324MPD2    N1 4875   1.303   3.288  14.426 -0.2457  0.3645 -0.0400
  324MPD2    H7 4876   1.249   3.336  14.497  0.2017 -1.0650  1.2683
  325TMC3    C1 4877   0.646   3.166  14.348 -0.0991  0.3065  0.3901
  325TMC3    C2 4878   0.595   3.140  14.226  0.2710  0.3621 -0.1091
  325TMC3    C3 4879   0.477   3.072  14.221  0.5268  0.4080  0.4081
  325TMC3    C4 4880   0.576   3.147  14.461  0.0305 -0.0145  0.3698
  325TMC3    C5 4881   0.458   3.084  14.449 -0.1006  0.5642  0.5046
  325TMC3    C6 4882   0.406   3.046  14.329 -0.5201  0.0896 -0.6441
  325TMC3     C 4883   0.785   3.203  14.358 -0.1659 -0.2500 -0.5128
  325TMC3     O 4884   0.808   3.295  14.433 -0.6006 -0.1516 -0.1681
  325TMC3     H 4885   0.651   3.161  14.136 -0.5819  1.4359 -0.3883
  325TMC3    H1 4886   0.610   3.171  14.561  0.4866 -3.1898  0.9872
  325TMC3    H2 4887   0.316   2.985  14.333  0.3443 -1.0747  0.9570
  325TMC3    C7 4888   0.358   3.111  14.554 -0.5059 -0.2727  0.7497
  325TMC3    C8 4889   0.434   3.033  14.087 -0.7933  0.6062  0.4868
  325TMC3    O1 4890   0.387   3.095  14.674 -0.0671 -0.4585  0.5749
  325TMC3    O2 4891   0.517   3.047  13.998  0.2279 -0.2702 -0.1186
  326MPD2     C 4892   2.597   3.990  11.269 -0.7887  0.0865 -0.8977
  326MPD2    C1 4893   2.559   4.109  11.215 -0.4415  0.8946 -0.3766
  326MPD2    C2 4894   2.601   4.229  11.270  0.0292 -0.3409 -0.1543
  326MPD2    C3 4895   2.688   4.234  11.379  0.3406 -0.5951 -0.6752
  326MPD2    C4 4896   2.728   4.111  11.425  0.0519 -0.5976 -0.6049
  326MPD2    C5 4897   2.689   3.992  11.368 -0.0947  0.3384  0.1160
  326MPD2     H 4898   2.570   4.320  11.220  0.9148 -1.0412 -1.9974
  326MPD2    H1 4899   2.805   4.100  11.501 -0.4623 -0.0698 -0.0090
  326MPD2    H2 4900   2.556   3.896  11.233  1.3608 -1.6869  1.2869
  326MPD2    H3 4901   2.716   3.900  11.419  3.2932  0.3264 -1.7483
  326MPD2     N 4902   2.764   4.354  11.420  0.1931  0.0504  0.5469
  326MPD2    H5 4903   2.856   4.339  11.461  0.0535 -0.2811  0.7464
  326MPD2    N1 4904   2.470   4.112  11.103 -0.0694  0.4117  0.5215
  326MPD2    H7 4905   2.467   4.207  11.066 -0.3014 -0.4022 -1.5792
  327TMC3    C1 4906   2.352   4.052  10.917 -0.5571  0.5283 -0.2322
  327TMC3    C2 4907   2.262   4.154  10.943  0.1226 -0.3771  0.2997
  327TMC3    C3 4908   2.250   4.248  10.840  0.4003  0.6860 -0.5377
  327TMC3    C4 4909   2.435   4.054  10.812 -0.2428  0.3370  0.3008
  327TMC3    C5 4910   2.414   4.145  10.710  0.0416  0.6635 -0.3497
  327TMC3    C6 4911   2.319   4.235  10.725 -0.4288 -0.4928  0.1945
  327TMC3     C 4912   2.422   4.005  11.033  0.4419 -0.1118  0.2515
  327TMC3     O 4913   2.444   3.887  11.047 -0.4049  0.5814 -0.4693
  327TMC3     H 4914   2.207   4.178  11.033  2.6623  1.4400  1.3689
  327TMC3    H1 4915   2.513   3.980  10.797  1.8599  2.8197 -1.0983
  327TMC3    H2 4916   2.314   4.315  10.652  0.9729  0.5122  1.2054
  327TMC3    C7 4917   2.533   4.227  10.676 -0.1614  0.3214  0.0202
  327TMC3    C8 4918   2.199   4.380  10.874  0.4168  0.1754  0.6254
  327TMC3    O1 4919   2.519   4.310  10.587  0.4361  0.0669 -0.4456
  327TMC3    O2 4920   2.271   4.471  10.834 -0.2234 -0.1629 -0.4583
  328MPD2     C 4921   0.431   4.455  16.881  0.2605 -0.0345  0.3653
  328MPD2    C1 4922   0.298   4.421  16.878  0.4907 -0.1668 -0.0449
  328MPD2    C2 4923   0.217   4.503  16.961  0.2532 -1.3262 -0.4049
  328MPD2    C3 4924   0.266   4.621  17.021  0.2154 -0.4815 -0.3592
  328MPD2    C4 4925   0.394   4.660  16.987 -0.3668  0.7994 -0.4462
  328MPD2    C5 4926   0.480   4.572  16.928 -0.0129 -0.0178 -0.1966
  328MPD2     H 4927   0.117   4.467  16.980  1.0650 -1.6735  3.2620
  328MPD2    H1 4928   0.447   0.006  17.049 -0.0339 -0.4919  0.7490
  328MPD2    H2 4929   0.512   4.401  16.833 -0.1178 -0.4515  0.1920
  328MPD2    H3 4930   0.584   4.599  16.919 -0.5598  1.6108 -1.6053
  328MPD2     N 4931   0.191   4.695  17.112 -0.8354  0.1934 -0.0251
  328MPD2    H5 4932   0.232   0.048  17.161  1.3743  1.5392 -4.0744
  328MPD2    N1 4933   0.253   4.319  16.799  0.5048 -0.3991 -0.5179
  328MPD2    H7 4934   0.330   4.275  16.750  0.2523  0.5826 -1.8067
  329TMC3    C1 4935   0.114   4.137  16.742  0.1313  0.6514 -0.0139
  329TMC3    C2 4936   0.023   4.050  16.796 -0.5335  0.3837 -0.3007
  329TMC3    C3 4937   0.030   3.916  16.767 -0.0297 -0.4637  0.4859
  329TMC3    C4 4938   0.203   4.097  16.647 -0.1000 -0.1731 -0.2777
  329TMC3    C5 4939   0.203   3.959  16.611 -0.5903  0.1340 -0.0341
  329TMC3    C6 4940   0.124   3.868  16.679 -0.2099  0.5339 -0.2496
  329TMC3     C 4941   0.125   4.271  16.791  0.2245  0.4855 -0.0994
  329TMC3     O 4942   0.023   4.317  16.835 -0.3591  0.7370  0.3134
  329TMC3     H 4943   4.676   4.093  16.864 -0.8329 -0.3654 -0.1392
  329TMC3    H1 4944   0.271   4.167  16.599 -1.3621  1.7255  0.6899
  329TMC3    H2 4945   0.126   3.760  16.674 -0.6582  0.5660 -1.2462
  329TMC3    C7 4946   0.298   3.911  16.515 -0.5657  0.4481  0.5487
  329TMC3    C8 4947   4.683   3.817  16.844  0.2967  0.0073 -0.0127
  329TMC3    O1 4948   0.394   3.986  16.493 -0.3794 -0.0244 -0.0132
  329TMC3    O2 4949   4.677   3.699  16.812 -0.2369 -0.2012  0.6093
  330TMC3    C1 4950   2.822   4.294   9.567  0.2259  0.6181  0.2392
  330TMC3    C2 4951   2.752   4.197   9.500  0.5929  0.1226  0.2125
  330TMC3    C3 4952   2.824   4.076   9.500 -0.2087  0.2893 -0.8799
  330TMC3    C4 4953   2.932   4.280   9.643 -0.6083 -0.0782  0.0579
  330TMC3    C5 4954   2.982   4.154   9.650  0.3062 -0.2189 -0.4318
  330TMC3    C6 4955   2.936   4.051   9.575 -0.3564 -0.6972  0.9124
  330TMC3     C 4956   2.744   4.418   9.602  0.4056  0.0333 -0.6807
  330TMC3     O 4957   2.780   4.481   9.701 -0.1483 -0.6414  0.4586
  330TMC3     H 4958   2.660   4.209   9.444  2.0094 -0.4084 -2.2187
  330TMC3    H1 4959   2.986   4.356   9.699 -0.1435  0.8788 -1.6602
  330TMC3    H2 4960   2.990   3.957   9.569 -2.6443 -1.9071 -0.7502
  330TMC3    C7 4961   3.055   4.122   9.778  0.5821  0.2453 -0.3315
  330TMC3    C8 4962   2.780   3.989   9.394 -0.7379  0.7209  0.3998
  330TMC3    O1 4963   3.110   4.210   9.837  0.2467 -0.2983  0.1765
  330TMC3    O2 4964   2.739   4.046   9.298  0.0720 -0.6453  0.2117
  331MPD2     C 4965   0.480   2.860  12.464  0.4395 -0.5103  0.1054
  331MPD2    C1 4966   0.586   2.856  12.373 -0.4793 -0.3657 -0.5148
  331MPD2    C2 4967   0.655   2.739  12.360 -0.5964  0.0059  0.1069
  331MPD2    C3 4968   0.626   2.629  12.442  0.0282 -0.3278  0.1560
  331MPD2    C4 4969   0.515   2.636  12.524 -0.6852  0.1273 -0.3012
  331MPD2    C5 4970   0.442   2.749  12.537 -0.5628  0.0195 -0.0725
  331MPD2     H 4971   0.741   2.732  12.293  0.3477  0.2280  1.2930
  331MPD2    H1 4972   0.475   2.542  12.561 -1.8835  0.7309 -0.0592
  331MPD2    H2 4973   0.419   2.949  12.472  0.3019 -0.4338 -1.6123
  331MPD2    H3 4974   0.345   2.747  12.585 -0.9502 -1.6045 -0.9317
  331MPD2     N 4975   0.712   2.511  12.438  0.7632 -0.1075  0.4730
  331MPD2    H5 4976   0.792   2.529  12.378  1.3568  0.4221  1.4195
  331MPD2    N1 4977   0.638   2.963  12.298 -0.1703  0.5515 -0.6725
  331MPD2    H7 4978   0.722   2.947  12.244 -1.2596 -0.9776 -1.9065
  332TMC3    C1 4979   0.804   2.298  12.478  0.4050  0.4191 -0.7052
  332TMC3    C2 4980   0.864   2.291  12.358  0.0190  0.7176  0.5986
  332TMC3    C3 4981   0.981   2.229  12.348  0.1430  0.0405  0.1408
  332TMC3    C4 4982   0.866   2.244  12.586 -0.3952  0.3403  0.5122
  332TMC3    C5 4983   0.983   2.177  12.579 -0.4206 -0.2960 -0.0068
  332TMC3    C6 4984   1.056   2.188  12.457  0.2095  0.9642 -0.8873
  332TMC3     C 4985   0.699   2.393  12.511 -0.0612  0.1805  0.3731
  332TMC3     O 4986   0.620   2.369  12.603 -0.3382 -0.1811 -0.1157
  332TMC3     H 4987   0.806   2.314  12.269  1.0874 -0.7272 -0.4635
  332TMC3    H1 4988   0.820   2.258  12.683  1.2460  1.6778  1.1140
  332TMC3    H2 4989   1.143   2.126  12.438 -0.5578 -1.0923  2.3219
  332TMC3    C7 4990   1.067   2.175  12.697 -0.1016 -0.4668 -0.6144
  332TMC3    C8 4991   1.064   2.254  12.234 -0.2053  0.6837 -0.5392
  332TMC3    O1 4992   1.001   2.167  12.799 -0.3741 -0.7086 -0.4039
  332TMC3    O2 4993   1.182   2.262  12.260  0.6997  0.4589 -0.2599
  333MPD2     C 4994   1.732   2.245  11.576  0.0820 -0.1015 -0.1608
  333MPD2    C1 4995   1.643   2.268  11.479 -0.5737  0.1467  0.4667
  333MPD2    C2 4996   1.511   2.218  11.492 -0.6716  0.0627  0.8021
  333MPD2    C3 4997   1.466   2.164  11.609  0.1627 -0.1329 -0.6049
  333MPD2    C4 4998   1.560   2.153  11.715 -0.4805  0.0617 -0.1180
  333MPD2    C5 4999   1.682   2.195  11.695 -0.3013  0.2889 -0.0789
  333MPD2     H 5000   1.447   2.238  11.408 -0.3167 -0.8318  0.3160
  333MPD2    H1 5001   1.547   2.106  11.812 -1.2726  1.6793  0.5672
  333MPD2    H2 5002   1.836   2.276  11.578  0.1175 -0.1678 -0.9935
  333MPD2    H3 5003   1.754   2.182  11.775 -0.4257 -1.1190 -0.2080
  333MPD2     N 5004   1.325   2.137  11.629 -0.1946 -0.3487  0.2207
  333MPD2    H5 5005   1.259   2.158  11.555  2.6762  1.8156 -1.7237
  333MPD2    N1 5006   1.696   2.308  11.351 -0.1382  0.0988 -0.0522
  333MPD2    H7 5007   1.795   2.330  11.353 -0.0207 -0.3220 -1.2099
  334TMC3    C1 5008   1.711   2.384  11.127 -0.1369  0.6864  0.9499
  334TMC3    C2 5009   1.846   2.356  11.117 -0.2759  0.3354  0.0419
  334TMC3    C3 5010   1.919   2.421  11.017  0.1856 -0.4407  0.3732
  334TMC3    C4 5011   1.646   2.465  11.041  0.4022 -0.6344  0.3426
  334TMC3    C5 5012   1.726   2.535  10.952 -0.9348 -0.4153  0.1297
  334TMC3    C6 5013   1.861   2.513  10.935 -0.1932  0.0051 -0.1026
  334TMC3     C 5014   1.631   2.330  11.231 -0.6087  0.2202  0.2998
  334TMC3     O 5015   1.511   2.313  11.203 -0.0545 -0.0173 -0.4577
  334TMC3     H 5016   1.889   2.275  11.175  0.7864  1.5308  0.9154
  334TMC3    H1 5017   1.540   2.489  11.045  0.8530  1.2575  1.4393
  334TMC3    H2 5018   1.911   2.576  10.862 -0.7739  2.6409  1.8199
  334TMC3    C7 5019   1.654   2.637  10.877  0.3248 -0.0458 -0.7208
  334TMC3    C8 5020   2.053   2.382  10.985 -0.5367 -0.2328 -0.0619
  334TMC3    O1 5021   1.726   2.730  10.846 -0.1584 -0.1359  0.5380
  334TMC3    O2 5022   2.094   2.290  11.060 -0.2167 -0.1772 -0.3543
  335TMC3    C1 5023   0.146   4.331  17.518 -0.2417  0.5560  0.4276
  335TMC3    C2 5024   0.102   4.254  17.416 -0.0951 -0.6957  0.3822
  335TMC3    C3 5025   0.163   4.270  17.291 -0.3364  0.1650 -0.7073
  335TMC3    C4 5026   0.246   4.426  17.505  0.2941 -0.3736 -0.0708
  335TMC3    C5 5027   0.304   4.432  17.381  0.6404 -0.1753  0.0763
  335TMC3    C6 5028   0.267   4.351  17.276 -0.2097  0.1689  0.3492
  335TMC3     C 5029   0.107   4.299  17.658  0.2908 -0.3755  0.0616
  335TMC3     O 5030   0.132   4.390   0.038 -0.6942  0.4929 -0.1456
  335TMC3     H 5031   0.010   4.196  17.421 -0.7333  0.4170  1.7557
  335TMC3    H1 5032   0.285   4.487  17.587 -0.8687  1.7758 -1.1329
  335TMC3    H2 5033   0.335   4.365  17.193  0.1518 -1.9528  0.2829
  335TMC3    C7 5034   0.416   4.526  17.362 -0.3459 -0.8300  0.0652
  335TMC3    C8 5035   0.151   4.145  17.214  0.0355 -0.2383  0.3641
  335TMC3    O1 5036   0.398   4.634  17.415  0.6320  0.4827 -0.1371
  335TMC3    O2 5037   0.050   4.079  17.214 -0.1336  0.2116  0.3185
  336MPD2     C 5038   0.832   2.095  16.137 -0.6333 -0.0074 -0.6756
  336MPD2    C1 5039   0.714   2.022  16.121  0.7910  0.1094  0.0945
  336MPD2    C2 5040   0.716   1.884  16.120  0.8125 -0.4197 -0.5375
  336MPD2    C3 5041   0.838   1.813  16.135  0.2853  0.6661  0.0442
  336MPD2    C4 5042   0.952   1.889  16.155 -0.5707  0.6850  0.7961
  336MPD2    C5 5043   0.946   2.020  16.140 -0.3136  0.1914 -0.1049
  336MPD2     H 5044   0.630   1.823  16.094  0.4337  0.3364 -1.0433
  336MPD2    H1 5045   1.051   1.844  16.154 -0.9021 -0.0036 -2.6019
  336MPD2    H2 5046   0.839   2.201  16.116 -0.1087 -0.0680 -0.8167
  336MPD2    H3 5047   1.038   2.077  16.143  0.0728 -0.4691  0.8062
  336MPD2     N 5048   0.843   1.675  16.127 -0.2136 -0.7788 -0.2107
  336MPD2    H5 5049   0.925   1.631  16.169 -0.4998 -1.7491 -0.6603
  336MPD2    N1 5050   0.588   2.079  16.111  0.0162  0.1695 -0.1045
  336MPD2    H7 5051   0.509   2.019  16.090 -0.5621  0.9611 -0.1603
  337TMC3    C1 5052   0.425   2.241  16.088  0.3374  0.6008 -0.5600
  337TMC3    C2 5053   0.328   2.146  16.060 -0.4830 -0.1974 -0.2470
  337TMC3    C3 5054   0.196   2.180  16.037  0.0166  0.3896  0.5357
  337TMC3    C4 5055   0.390   2.369  16.102  0.2975 -0.4604  0.0648
  337TMC3    C5 5056   0.258   2.402  16.106 -0.3484 -0.0344 -0.3450
  337TMC3    C6 5057   0.166   2.311  16.067  0.3459  0.6070  0.0064
  337TMC3     C 5058   0.562   2.211  16.103 -0.1172  0.5332  0.9669
  337TMC3     O 5059   0.636   2.307  16.114  0.3261  0.1266 -0.2236
  337TMC3     H 5060   0.337   2.038  16.055  2.0948 -0.0708  1.4491
  337TMC3    H1 5061   0.464   2.447  16.090  0.3223 -0.0937  2.6529
  337TMC3    H2 5062   0.059   2.330  16.073  0.4198  0.0723  3.6373
  337TMC3    C7 5063   0.216   2.519  16.172 -0.2630  0.3192  0.2257
  337TMC3    C8 5064   0.093   2.077  16.036 -1.2414 -0.0766  0.1251
  337TMC3    O1 5065   0.102   2.551  16.155  0.3014  0.3895  0.6717
  337TMC3    O2 5066   0.122   1.970  16.089  0.1255 -0.2215  0.2619
  338MPD2     C 5067   1.241   1.253   0.557 -0.1455 -0.1641 -0.3524
  338MPD2    C1 5068   1.151   1.313   0.470 -0.0345  0.1202 -0.6769
  338MPD2    C2 5069   1.040   1.374   0.520 -0.3014 -0.3111 -0.0698
  338MPD2    C3 5070   1.014   1.377   0.654 -0.3564  0.1695 -0.2680
  338MPD2    C4 5071   1.099   1.317   0.748 -0.7717 -0.5477 -0.0807
  338MPD2    C5 5072   1.214   1.261   0.698  0.8099  0.3210 -0.3405
  338MPD2     H 5073   0.974   1.435   0.459 -1.3685 -1.4710 -0.0772
  338MPD2    H1 5074   1.099   1.316   0.856 -0.8605  0.3039 -0.0723
  338MPD2    H2 5075   1.331   1.202   0.523 -0.5889 -0.5599 -0.9282
  338MPD2    H3 5076   1.292   1.222   0.762 -0.4228 -0.7299  0.5308
  338MPD2     N 5077   0.916   1.471   0.686  0.0890 -0.1720 -0.2531
  338MPD2    H5 5078   0.867   1.498   0.601  0.8509 -1.6580 -1.1535
  338MPD2    N1 5079   1.164   1.286   0.330  0.0731  0.0224  0.3097
  338MPD2    H7 5080   1.089   1.320   0.272 -0.0412  1.2212  1.1541
  339TMC3    C1 5081   0.783   1.610   0.808 -0.2595  0.4420 -0.1438
  339TMC3    C2 5082   0.673   1.607   0.892 -0.6216  0.0244 -0.6600
  339TMC3    C3 5083   0.574   1.709   0.881 -0.1086  0.1059  0.0118
  339TMC3    C4 5084   0.799   1.708   0.711  0.0664  0.4938 -0.4571
  339TMC3    C5 5085   0.701   1.810   0.710 -0.5360  0.4407 -0.1366
  339TMC3    C6 5086   0.593   1.808   0.789 -0.3416  0.2986 -0.6882
  339TMC3     C 5087   0.874   1.498   0.814  0.1379 -0.0546  0.8384
  339TMC3     O 5088   0.898   1.446   0.923 -1.0574  0.4089 -0.1036
  339TMC3     H 5089   0.668   1.515   0.948  3.4478 -0.4355 -1.0334
  339TMC3    H1 5090   0.888   1.717   0.650  0.8250  0.7371  0.6643
  339TMC3    H2 5091   0.522   1.890   0.778 -1.7207 -0.6750  1.0341
  339TMC3    C7 5092   0.694   1.903   0.604  0.0383 -0.0400  0.2604
  339TMC3    C8 5093   0.452   1.706   0.952 -0.7066 -0.6109 -0.8001
  339TMC3    O1 5094   0.638   2.010   0.628  0.0088  0.2833 -0.1473
  339TMC3    O2 5095   0.390   1.815   0.952 -0.6816  0.3722  0.0173
  340MPD2     C 5096   1.455   4.600  10.095 -0.2473  0.1777  0.1922
  340MPD2    C1 5097   1.400   4.484  10.060  0.0343 -0.0903  0.5357
  340MPD2    C2 5098   1.389   4.384  10.157 -1.3559  0.0152 -0.4955
  340MPD2    C3 5099   1.407   4.412  10.290  0.1382 -0.3194  0.3188
  340MPD2    C4 5100   1.454   4.535  10.331  0.2093  0.3655 -0.0355
  340MPD2    C5 5101   1.480   4.626  10.229  0.4889 -1.0283 -0.5398
  340MPD2     H 5102   1.341   4.292  10.126 -0.8182 -0.9698  1.6176
  340MPD2    H1 5103   1.492   4.555  10.431 -0.6215  0.6818  0.2131
  340MPD2    H2 5104   1.453   4.683  10.025  1.5275  2.7288  3.1481
  340MPD2    H3 5105   1.528   4.719  10.256  0.4312 -0.2924 -3.0235
  340MPD2     N 5106   1.386   4.316  10.391 -0.2665 -0.0731 -0.4296
  340MPD2    H5 5107   1.412   4.345  10.484  3.0218  0.7078 -1.5873
  340MPD2    N1 5108   1.360   4.465   9.925 -0.3643  0.0818  0.1208
  340MPD2    H7 5109   1.376   4.547   9.867 -0.2108 -0.7482 -0.9943
  341TMC3    C1 5110   1.226   4.405   9.745  0.2881 -0.8129 -1.1714
  341TMC3    C2 5111   1.103   4.359   9.695 -1.2302  0.5677 -0.4844
  341TMC3    C3 5112   1.072   4.387   9.563  0.1682 -0.8935  0.6783
  341TMC3    C4 5113   1.307   4.470   9.658 -0.5500 -0.1714  0.3303
  341TMC3    C5 5114   1.272   4.511   9.528  1.0759  0.9797 -1.0101
  341TMC3    C6 5115   1.149   4.465   9.479 -0.1104  0.4297  0.3817
  341TMC3     C 5116   1.267   4.374   9.884  0.3000  0.8355 -0.2144
  341TMC3     O 5117   1.193   4.299   9.947 -0.2707  0.2924 -0.2811
  341TMC3     H 5118   1.035   4.299   9.754  0.3396 -1.5841 -0.8432
  341TMC3    H1 5119   1.410   4.488   9.688 -0.8234 -0.4578  1.4589
  341TMC3    H2 5120   1.110   4.481   9.380  0.0946  0.2721  0.2746
  341TMC3    C7 5121   1.387   4.518   9.436 -0.3898  0.0002 -0.3229
  341TMC3    C8 5122   0.975   4.296   9.503 -0.4952 -0.0022  0.4447
  341TMC3    O1 5123   1.492   4.470   9.477 -0.3374 -0.7054  0.0517
  341TMC3    O2 5124   0.965   4.182   9.548  0.1022  0.0826 -0.2635
  342MPD2     C 5125   3.703   2.132   0.021 -0.6657  0.1515 -0.3236
  342MPD2    C1 5126   3.780   2.188  17.627 -0.7052 -0.3921 -0.1211
  342MPD2    C2 5127   3.768   2.314  17.581 -0.5995 -1.1925 -0.8017
  342MPD2    C3 5128   3.676   2.397  17.635  0.2666 -0.4642 -0.1685
  342MPD2    C4 5129   3.590   2.340   0.029 -0.0876 -0.0778  0.1871
  342MPD2    C5 5130   3.604   2.214   0.076 -0.1474 -0.1132  0.7152
  342MPD2     H 5131   3.842   2.346  17.509  0.6157 -1.7130  0.2106
  342MPD2    H1 5132   3.504   2.395   0.063 -2.0816  0.0329 -4.9509
  342MPD2    H2 5133   3.704   2.026   0.045 -2.2359  0.0623 -0.6957
  342MPD2    H3 5134   3.537   2.191   0.158 -2.6777 -2.3550 -1.9908
  342MPD2     N 5135   3.652   2.532  17.599  0.1267 -0.0956 -0.2998
  342MPD2    H5 5136   3.575   2.575  17.650 -0.8403 -1.5122 -0.5838
  342MPD2    N1 5137   3.869   2.099  17.560  0.6279 -0.3840  0.6813
  342MPD2    H7 5138   3.851   2.002  17.583 -0.4053 -0.4671 -0.4587
  343TMC3    C1 5139   4.052   2.017  17.441 -0.0793 -0.0729  0.2282
  343TMC3    C2 5140   4.186   2.042  17.427  0.0584  0.3712  0.7578
  343TMC3    C3 5141   4.263   1.950  17.356 -0.0568 -0.2673 -0.2989
  343TMC3    C4 5142   4.002   1.900  17.383  0.0771  0.3199  0.2771
  343TMC3    C5 5143   4.084   1.813  17.313  0.3753  0.4390  0.2664
  343TMC3    C6 5144   4.213   1.844  17.283  0.3321 -0.3648 -0.6292
  343TMC3     C 5145   3.978   2.131  17.484 -0.1345  0.2816 -0.0172
  343TMC3     O 5146   4.025   2.243  17.463 -0.4406 -0.3893  0.4930
  343TMC3     H 5147   4.233   2.132  17.464  1.1829 -0.5598  1.5755
  343TMC3    H1 5148   3.898   1.870  17.398  0.1234  0.3784  0.6976
  343TMC3    H2 5149   4.269   1.795  17.205 -0.6996  0.9393 -2.1726
  343TMC3    C7 5150   4.024   1.689  17.272  0.2349 -0.0988  0.3510
  343TMC3    C8 5151   4.410   1.976  17.342 -0.2731  0.2311  0.4580
  343TMC3    O1 5152   3.909   1.670  17.301  0.5471 -0.0587 -0.5487
  343TMC3    O2 5153   4.449   2.091  17.346 -0.1045  0.0064  0.2637
  344MPD2     C 5154   0.128   1.889  11.114 -0.8145  0.4199 -0.5526
  344MPD2    C1 5155   0.044   1.898  11.007 -0.1209  0.2251 -0.9174
  344MPD2    C2 5156   0.044   2.008  10.928 -0.5419  0.3100  0.1452
  344MPD2    C3 5157   0.115   2.121  10.972 -0.4206 -0.1532  0.6614
  344MPD2    C4 5158   0.201   2.106  11.087 -0.0492 -0.1809 -0.1700
  344MPD2    C5 5159   0.209   1.991  11.156 -1.0985 -0.2595  0.0790
  344MPD2     H 5160   4.701   2.016  10.845  0.7036 -1.7398 -1.0904
  344MPD2    H1 5161   0.258   2.191  11.124  1.2858 -0.3457 -1.8637
  344MPD2    H2 5162   0.117   1.808  11.185  2.2738  1.3856  1.0450
  344MPD2    H3 5163   0.268   1.974  11.245 -3.0997 -1.5231  1.1632
  344MPD2     N 5164   0.128   2.242  10.904  0.4709 -0.6279  0.0905
  344MPD2    H5 5165   0.204   2.302  10.934  1.7585 -1.1607 -2.0867
  344MPD2    N1 5166   4.671   1.802  10.985 -0.1768  0.3270  0.8797
  344MPD2    H7 5167   4.594   1.830  10.924 -0.4324 -1.5276  0.3372
  345TMC3    C1 5168   0.093   2.430  10.760 -0.0657  0.1555 -0.1219
  345TMC3    C2 5169   0.193   2.496  10.826  0.0999  0.9004 -0.3782
  345TMC3    C3 5170   0.242   2.605  10.764 -0.4124 -0.1753 -0.3644
  345TMC3    C4 5171   0.044   2.460  10.639  0.1517 -0.2192  0.0791
  345TMC3    C5 5172   0.089   2.581  10.589 -0.6184  0.0803 -0.0777
  345TMC3    C6 5173   0.196   2.650  10.641 -0.7500  0.4885 -0.5547
  345TMC3     C 5174   0.043   2.295  10.811  0.4199  0.8795 -1.6096
  345TMC3     O 5175   4.672   2.247  10.751  0.1128 -0.3521  0.5210
  345TMC3     H 5176   0.214   2.488  10.932 -1.4332 -0.4771 -0.1840
  345TMC3    H1 5177   4.686   2.409  10.593 -0.3325  0.0202  0.6950
  345TMC3    H2 5178   0.216   2.749  10.603  0.3480  0.4920  0.0330
  345TMC3    C7 5179   4.723   2.660  10.503 -0.6934  0.6659 -0.0766
  345TMC3    C8 5180   0.327   2.691  10.842  0.0417 -0.4614  0.2870
  345TMC3    O1 5181   0.003   2.775  10.535  0.2558  0.0726  0.2851
  345TMC3    O2 5182   0.363   2.654  10.950 -0.4647  0.7520  0.6748
  346MPD2     C 5183   4.022   3.132  13.693 -0.3258  0.1497 -0.1700
  346MPD2    C1 5184   4.153   3.179  13.680  0.1465  0.2284  0.5679
  346MPD2    C2 5185   4.221   3.246  13.782 -0.0914  0.0818  0.5318
  346MPD2    C3 5186   4.144   3.293  13.887 -0.3098  0.6178  0.0304
  346MPD2    C4 5187   4.007   3.260  13.896 -0.4020 -0.4596 -0.0660
  346MPD2    C5 5188   3.953   3.177  13.802  0.0241  1.0510  0.3577
  346MPD2     H 5189   4.328   3.262  13.779 -0.4583  3.0195  2.9350
  346MPD2    H1 5190   3.949   3.284  13.984 -2.7464  1.2892 -2.0517
  346MPD2    H2 5191   3.974   3.073  13.617  0.8008 -0.2378 -0.5857
  346MPD2    H3 5192   3.849   3.148  13.799 -0.2042  1.8017  1.0669
  346MPD2     N 5193   4.214   3.366  13.983 -0.2620 -0.8676  0.3367
  346MPD2    H5 5194   4.315   3.369  13.988 -0.3269 -2.1315  2.2563
  346MPD2    N1 5195   4.215   3.146  13.558  0.0816  0.2277 -0.3470
  346MPD2    H7 5196   4.170   3.077  13.499 -1.4338  0.9257 -0.0245
  347TMC3    C1 5197   4.263   3.498  14.173  0.2623 -0.7815 -0.5174
  347TMC3    C2 5198   4.391   3.442  14.181  0.2660  0.5530 -0.5802
  347TMC3    C3 5199   4.472   3.492  14.276  0.4947 -0.1440  0.4296
  347TMC3    C4 5200   4.231   3.605  14.254 -0.3085  0.3425  0.2239
  347TMC3    C5 5201   4.330   3.664  14.333 -0.8409 -0.6635  0.7747
  347TMC3    C6 5202   4.457   3.616  14.335 -0.1850  0.1577 -0.4547
  347TMC3     C 5203   4.161   3.450  14.077  0.4213 -0.0273 -0.5323
  347TMC3     O 5204   4.046   3.485  14.103 -0.0513  0.3236 -0.4175
  347TMC3     H 5205   4.415   3.344  14.141 -0.9180 -0.2151  0.5566
  347TMC3    H1 5206   4.131   3.647  14.255 -0.6331 -0.4463  0.5314
  347TMC3    H2 5207   4.533   3.651  14.404 -0.6418 -0.0540  0.1544
  347TMC3    C7 5208   4.296   3.781  14.413 -0.1353  0.0077  0.4919
  347TMC3    C8 5209   4.549   3.390  14.334  0.1395  0.0105 -0.2740
  347TMC3    O1 5210   4.177   3.801  14.440  0.6542  0.7528  0.2273
  347TMC3    O2 5211   4.603   3.302  14.265  0.0723 -0.0149 -0.3891
  348MPD2     C 5212   3.228   3.237  12.062 -0.1135  0.0861 -0.5585
  348MPD2    C1 5213   3.343   3.266  11.992 -0.3094 -0.1848 -0.5380
  348MPD2    C2 5214   3.341   3.309  11.865 -0.0519  0.5615 -0.8093
  348MPD2    C3 5215   3.222   3.324  11.807  0.6702  0.4354  1.0018
  348MPD2    C4 5216   3.112   3.293  11.875  0.6704  0.0155  0.3693
  348MPD2    C5 5217   3.110   3.249  11.997 -0.4905 -0.1125  0.0947
  348MPD2     H 5218   3.429   3.357  11.822 -2.2498  2.2500 -3.4683
  348MPD2    H1 5219   3.016   3.313  11.830  0.9565  0.2592 -0.1318
  348MPD2    H2 5220   3.225   3.195  12.161  2.1219  1.0157 -0.0996
  348MPD2    H3 5221   3.019   3.233  12.054 -1.3847 -0.3060 -1.3821
  348MPD2     N 5222   3.217   3.368  11.671 -0.1477 -0.5874 -0.6419
  348MPD2    H5 5223   3.303   3.389  11.623 -0.2080  0.1452 -0.4352
  348MPD2    N1 5224   3.475   3.229  12.026  0.1569 -0.7082 -0.5838
  348MPD2    H7 5225   3.546   3.248  11.957  0.8020 -1.8691 -0.2357
  349TMC3    C1 5226   3.659   3.151  12.147  0.0964 -0.7987 -0.3655
  349TMC3    C2 5227   3.704   3.046  12.219 -0.2761  0.0576 -0.3029
  349TMC3    C3 5228   3.824   2.993  12.174 -0.0539 -0.9719  1.0742
  349TMC3    C4 5229   3.724   3.225  12.058 -0.2005  0.0090 -0.2471
  349TMC3    C5 5230   3.842   3.169  12.019 -0.3589  0.4803  0.6260
  349TMC3    C6 5231   3.885   3.051  12.072  0.5590 -0.4438 -0.2001
  349TMC3     C 5232   3.514   3.150  12.137  0.3819  0.7317  0.1800
  349TMC3     O 5233   3.449   3.100  12.228 -0.1601 -0.3021  0.1248
  349TMC3     H 5234   3.646   3.002  12.299  0.6326 -2.1837 -0.8760
  349TMC3    H1 5235   3.692   3.315  12.007 -1.5693 -1.1787 -1.5061
  349TMC3    H2 5236   3.974   3.009  12.027  0.8060 -3.2051  2.8262
  349TMC3    C7 5237   3.869   3.187  11.884  0.3247  0.4385  0.4763
  349TMC3    C8 5238   3.849   2.859  12.226 -0.4920  0.2038 -0.0746
  349TMC3    O1 5239   3.940   3.282  11.857  0.0085  0.0499  0.3969
  349TMC3    O2 5240   3.784   2.828  12.327  0.5257  0.0862  0.6349
  350MPD2     C 5241   2.057   1.336  10.208 -0.2578 -0.4040 -0.1586
  350MPD2    C1 5242   2.077   1.211  10.266  0.3345  0.3524 -0.4044
  350MPD2    C2 5243   2.201   1.177  10.322  0.4473  0.5924 -0.5087
  350MPD2    C3 5244   2.303   1.273  10.331 -0.5162  0.3945  0.6107
  350MPD2    C4 5245   2.274   1.400  10.269 -0.3651  0.3600  0.4813
  350MPD2    C5 5246   2.152   1.427  10.213  0.1426  0.3335 -0.0303
  350MPD2     H 5247   2.228   1.076  10.351 -0.1223  0.2918 -1.0406
  350MPD2    H1 5248   2.343   1.482  10.282  0.4939 -0.2100 -0.4359
  350MPD2    H2 5249   1.965   1.365  10.158 -0.7927 -0.4505  0.7923
  350MPD2    H3 5250   2.140   1.521  10.160 -0.7940  0.4893  0.4591
  350MPD2     N 5251   2.423   1.240  10.398 -0.3613  0.2511  0.5438
  350MPD2    H5 5252   2.423   1.152  10.449 -1.2374 -0.3552 -0.5060
  350MPD2    N1 5253   1.988   1.108  10.252  0.1139 -0.0824 -0.4435
  350MPD2    H7 5254   2.016   1.023  10.299  1.7003  0.4262 -0.4955
  351TMC3    C1 5255   1.824   0.951  10.164 -0.2719 -0.5422 -0.1939
  351TMC3    C2 5256   1.915   0.853  10.176 -0.1798 -0.0219  0.0824
  351TMC3    C3 5257   1.885   0.736  10.123 -0.1890  0.8331 -0.3880
  351TMC3    C4 5258   1.703   0.930  10.108  0.0542  0.5005 -0.3689
  351TMC3    C5 5259   1.668   0.805  10.070 -0.1528 -0.1537  0.7933
  351TMC3    C6 5260   1.760   0.705  10.077  0.0712  0.6149 -0.3455
  351TMC3     C 5261   1.876   1.096  10.178 -0.0898 -0.7964 -0.0515
  351TMC3     O 5262   1.821   1.185  10.113  0.0181  0.2505 -0.6503
  351TMC3     H 5263   2.018   0.876  10.203  0.5572 -3.4391  0.2401
  351TMC3    H1 5264   1.643   1.020  10.098 -1.3899 -0.4058  0.1149
  351TMC3    H2 5265   1.749   0.602  10.044  1.5884  0.6109 -0.8394
  351TMC3    C7 5266   1.549   0.804   9.986  0.0681 -0.1412  0.4807
  351TMC3    C8 5267   2.001   0.648  10.107 -0.2929  0.2509 -0.1732
  351TMC3    O1 5268   1.480   0.899   9.995  0.2915  0.4709  0.0436
  351TMC3    O2 5269   2.100   0.681  10.173  0.0297  0.4125  0.1955
  352MPD2     C 5270   4.426   2.838   1.046 -0.8462  1.0260 -0.1486
  352MPD2    C1 5271   4.526   2.884   0.962  0.5479 -0.9620  0.3515
  352MPD2    C2 5272   4.650   2.821   0.952  0.3009  0.3901  0.4472
  352MPD2    C3 5273   4.681   2.723   1.042  0.4252  0.4632 -0.6866
  352MPD2    C4 5274   4.581   2.676   1.125 -0.4133 -0.4621 -0.4716
  352MPD2    C5 5275   4.451   2.734   1.136  0.1496 -0.6884  0.2293
  352MPD2     H 5276   0.004   2.849   0.883  0.7179 -0.9855  0.3817
  352MPD2    H1 5277   4.608   2.598   1.195  1.7343 -0.5320 -1.3864
  352MPD2    H2 5278   4.329   2.886   1.054 -0.2989  2.3226 -1.2247
  352MPD2    H3 5279   4.385   2.704   1.216  0.4535  0.8808  1.0729
  352MPD2     N 5280   0.088   2.672   1.057  0.6066 -0.8654  0.9719
  352MPD2    H5 5281   0.095   2.601   1.129 -1.6603 -2.0476  0.0136
  352MPD2    N1 5282   4.487   2.993   0.879  0.0241  0.0724  0.7919
  352MPD2    H7 5283   4.388   3.017   0.878 -0.0392 -0.1833  1.2332
  353TMC3    C1 5284   0.316   2.627   1.051 -0.1659  0.3864 -0.1655
  353TMC3    C2 5285   0.305   2.494   1.079 -0.3475 -0.1389  0.1704
  353TMC3    C3 5286   0.422   2.423   1.091  0.3607 -0.1010  0.5582
  353TMC3    C4 5287   0.430   2.700   1.044 -0.9216  0.7633  0.3186
  353TMC3    C5 5288   0.547   2.623   1.058  0.4419 -0.0690 -0.2726
  353TMC3    C6 5289   0.545   2.485   1.073  0.4845 -0.5580  0.5415
  353TMC3     C 5290   0.206   2.707   1.000 -0.0437  0.2927  0.0947
  353TMC3     O 5291   0.220   2.804   0.929 -0.5004 -0.0984  0.9755
  353TMC3     H 5292   0.215   2.439   1.054 -0.6433  0.7643 -0.7355
  353TMC3    H1 5293   0.431   2.807   1.026  1.1273  0.8365  0.8221
  353TMC3    H2 5294   0.637   2.432   1.094  0.1681 -0.8178  1.2491
  353TMC3    C7 5295   0.672   2.668   1.010 -0.2135  0.2533 -0.4553
  353TMC3    C8 5296   0.423   2.279   1.129 -0.1197 -0.2193  0.1244
  353TMC3    O1 5297   0.743   2.577   0.971 -0.0700 -0.4686 -0.0246
  353TMC3    O2 5298   0.330   2.242   1.197  0.0509 -0.2478 -0.4103
  354TMC3    C1 5299   2.303   4.450  13.504 -0.0346  0.4615  0.3325
  354TMC3    C2 5300   2.431   4.405  13.497 -0.2154 -0.3622  0.7860
  354TMC3    C3 5301   2.484   4.391  13.373  0.0841  0.0957 -0.2007
  354TMC3    C4 5302   2.220   4.470  13.396  0.1236  0.2061 -0.0850
  354TMC3    C5 5303   2.282   4.466  13.276 -0.8227 -0.7406  0.0057
  354TMC3    C6 5304   2.413   4.417  13.259 -0.0519  0.2075 -0.1439
  354TMC3     C 5305   2.238   4.454  13.633 -0.6832 -0.4398  0.0670
  354TMC3     O 5306   2.117   4.433  13.634  0.3635  0.6486 -0.2897
  354TMC3     H 5307   2.492   4.378  13.582 -0.0724 -2.7730 -0.0822
  354TMC3    H1 5308   2.129   4.526  13.415  0.0313  0.5554 -1.5631
  354TMC3    H2 5309   2.471   4.401  13.169 -2.1552  1.4703 -1.6984
  354TMC3    C7 5310   2.249   4.565  13.173 -0.0171  0.1496 -1.1682
  354TMC3    C8 5311   2.620   4.436  13.353  0.1416 -0.0151  0.0327
  354TMC3    O1 5312   2.137   4.613  13.185  0.1431 -0.4280  0.1000
  354TMC3    O2 5313   2.711   4.353  13.347  0.3903  0.2443  0.1925
  355MPD2     C 5314   2.215   0.564  12.268  0.6819 -0.4820  0.1041
  355MPD2    C1 5315   2.271   0.562  12.144  0.0994  0.3752  0.0789
  355MPD2    C2 5316   2.406   0.583  12.120 -0.1384 -0.0966 -0.6018
  355MPD2    C3 5317   2.488   0.626  12.229 -0.7339 -0.3123 -0.9096
  355MPD2    C4 5318   2.428   0.636  12.350  0.3420 -0.7688  0.0002
  355MPD2    C5 5319   2.297   0.606  12.370  0.2723  0.2044 -0.4519
  355MPD2     H 5320   2.447   0.552  12.024 -0.5216 -1.7722 -0.2155
  355MPD2    H1 5321   2.482   0.684  12.432  0.2600  0.6348 -0.7686
  355MPD2    H2 5322   2.108   0.554  12.285  0.5158  1.8873  0.4794
  355MPD2    H3 5323   2.249   0.606  12.467  0.7144  0.4430 -0.2342
  355MPD2     N 5324   2.621   0.666  12.221 -0.3665  0.2959  0.3676
  355MPD2    H5 5325   2.662   0.700  12.307  1.2140  0.8135 -0.5884
  355MPD2    N1 5326   2.186   0.532  12.035 -0.3941 -0.3628 -0.2106
  355MPD2    H7 5327   2.091   0.506  12.062  0.1472 -1.3631  0.7828
  356TMC3    C1 5328   2.846   0.680  12.117 -0.8612 -0.1292  0.0754
  356TMC3    C2 5329   2.924   0.633  12.022  0.7746 -0.3925  0.2677
  356TMC3    C3 5330   3.059   0.676  12.016  0.4015 -0.2999  1.4550
  356TMC3    C4 5331   2.893   0.755  12.218 -0.2941 -0.0747  0.3188
  356TMC3    C5 5332   3.024   0.792  12.214  0.1259  0.0410  0.8789
  356TMC3    C6 5333   3.104   0.762  12.107  0.2119  0.3270 -0.3268
  356TMC3     C 5334   2.701   0.651  12.104  0.6990 -0.6354 -0.2934
  356TMC3     O 5335   2.671   0.607  11.993 -0.0393 -0.4006  0.0266
  356TMC3     H 5336   2.887   0.560  11.951  2.1774 -0.7289 -0.1147
  356TMC3    H1 5337   2.825   0.792  12.294  0.4051 -0.4411  1.1146
  356TMC3    H2 5338   3.206   0.800  12.106  0.2294  0.3798  2.5891
  356TMC3    C7 5339   3.076   0.843  12.344  0.3373 -0.7667  0.3181
  356TMC3    C8 5340   3.117   0.671  11.883  0.2438  0.0031 -0.7180
  356TMC3    O1 5341   3.002   0.836  12.439 -0.5730 -0.2995 -0.1798
  356TMC3    O2 5342   3.043   0.641  11.788  0.3839 -0.3018  0.0497
  357MPD2     C 5343   1.465   3.412   0.964 -0.2482 -0.1403 -0.0755
  357MPD2    C1 5344   1.509   3.479   1.074  0.4395 -0.2578  0.5086
  357MPD2    C2 5345   1.446   3.446   1.192 -1.0119  0.1577 -0.2550
  357MPD2    C3 5346   1.345   3.345   1.197  0.2011  0.0236 -0.1892
  357MPD2    C4 5347   1.305   3.289   1.077 -0.5619  0.5558  0.4230
  357MPD2    C5 5348   1.358   3.323   0.959 -0.3507 -0.7171  0.1649
  357MPD2     H 5349   1.481   3.495   1.282 -2.2381  1.4257 -0.4703
  357MPD2    H1 5350   1.219   3.224   1.087 -0.4546  0.2254 -0.8022
  357MPD2    H2 5351   1.507   3.442   0.869  0.3391  0.5528  0.4113
  357MPD2    H3 5352   1.321   3.292   0.862 -0.8047 -0.9074  0.4009
  357MPD2     N 5353   1.294   3.296   1.320  0.0647  0.6348 -1.1235
  357MPD2    H5 5354   1.263   3.199   1.316  1.4624  0.1371 -0.0326
  357MPD2    N1 5355   1.612   3.576   1.064  0.3703  0.2684  0.0463
  357MPD2    H7 5356   1.652   3.599   0.974 -0.4174 -0.9188 -0.6123
  358TMC3    C1 5357   1.765   3.746   1.129  0.3161  0.7356  0.2570
  358TMC3    C2 5358   1.764   3.814   1.010  1.1943 -0.0239  0.7736
  358TMC3    C3 5359   1.851   3.917   0.990 -0.2188 -0.8468  0.6453
  358TMC3    C4 5360   1.849   3.787   1.230  0.1540 -0.4477  1.0149
  358TMC3    C5 5361   1.937   3.888   1.209 -0.1940 -0.0510 -0.7633
  358TMC3    C6 5362   1.936   3.959   1.095  0.0841 -0.0445 -0.7372
  358TMC3     C 5363   1.672   3.642   1.172  0.2155 -0.3046 -0.8042
  358TMC3     O 5364   1.659   3.625   1.291  0.4908 -1.0180 -0.4026
  358TMC3     H 5365   1.687   3.796   0.937  2.3935  1.0087 -0.7403
  358TMC3    H1 5366   1.860   3.749   1.331 -2.6196 -2.2291  0.6409
  358TMC3    H2 5367   2.025   4.010   1.060  0.7313  0.0184  1.0035
  358TMC3    C7 5368   2.041   3.907   1.306 -0.2709 -0.8041 -0.5086
  358TMC3    C8 5369   1.873   3.970   0.861 -0.0155 -0.5307 -0.0827
  358TMC3    O1 5370   2.065   3.818   1.389 -0.3018 -0.4471  0.0553
  358TMC3    O2 5371   1.938   4.074   0.850  0.0213 -0.0223  0.2379
  359MPD2     C 5372   2.836   3.963  12.717  0.2306 -0.5460 -0.8131
  359MPD2    C1 5373   2.843   3.976  12.579 -0.5272 -0.3485  0.7789
  359MPD2    C2 5374   2.769   4.080  12.518  0.2080 -0.2371  0.0991
  359MPD2    C3 5375   2.682   4.167  12.587  0.8910  0.2480  0.5778
  359MPD2    C4 5376   2.687   4.156  12.726 -0.0452  0.8979  0.0616
  359MPD2    C5 5377   2.764   4.057  12.793  0.4492  0.1956  0.5402
  359MPD2     H 5378   2.768   4.083  12.410  0.6374 -0.8994  0.0775
  359MPD2    H1 5379   2.628   4.219  12.791  2.1522  2.9141  0.0999
  359MPD2    H2 5380   2.888   3.884  12.771  1.8029  1.2411  0.2942
  359MPD2    H3 5381   2.753   4.050  12.900  0.1312  1.6888  0.6054
  359MPD2     N 5382   2.579   4.246  12.523  0.1258  0.0653 -0.1520
  359MPD2    H5 5383   2.511   4.287  12.585  0.8572  1.2487 -0.1340
  359MPD2    N1 5384   2.910   3.882  12.504 -0.2664 -0.1414 -0.3134
  359MPD2    H7 5385   2.897   3.879  12.403 -0.2815  1.3714 -0.3677
  360TMC3    C1 5386   3.023   3.682  12.442  0.0754  0.2071 -0.2379
  360TMC3    C2 5387   3.135   3.604  12.456  0.3883 -0.5420 -0.4445
  360TMC3    C3 5388   3.194   3.539  12.355  0.1362  0.7232 -0.7255
  360TMC3    C4 5389   2.959   3.678  12.323 -0.4192 -0.7033 -0.3482
  360TMC3    C5 5390   3.011   3.599  12.230  0.2465 -0.6811 -0.6357
  360TMC3    C6 5391   3.137   3.542  12.233 -0.0525  0.9704 -0.3313
  360TMC3     C 5392   2.999   3.787  12.543  0.0905 -0.3195 -0.7647
  360TMC3     O 5393   3.042   3.757  12.654  0.1640 -0.7754 -0.8751
  360TMC3     H 5394   3.194   3.616  12.546 -1.2527  2.2540  0.2675
  360TMC3    H1 5395   2.864   3.725  12.301 -0.3152  0.1795  1.0490
  360TMC3    H2 5396   3.189   3.483  12.158 -0.7273  0.3287 -0.2925
  360TMC3    C7 5397   2.929   3.580  12.110  0.0062  0.6702  0.3178
  360TMC3    C8 5398   3.341   3.503  12.372 -0.2908  0.3095  0.0515
  360TMC3    O1 5399   2.804   3.572  12.119  0.4545 -0.6039 -0.5571
  360TMC3    O2 5400   3.381   3.492  12.487  0.7679 -0.0422  0.3708
  361MPD2     C 5401   4.312   2.776  16.385 -0.5501 -0.2578 -1.2042
  361MPD2    C1 5402   4.311   2.750  16.519  0.0869  0.1450  0.0475
  361MPD2    C2 5403   4.412   2.677  16.574 -0.5478 -0.6900 -0.4781
  361MPD2    C3 5404   4.508   2.611  16.502 -0.2606 -0.3419 -0.8164
  361MPD2    C4 5405   4.499   2.622  16.363 -0.3581  0.3427  0.3363
  361MPD2    C5 5406   4.406   2.710  16.306 -0.8411  0.2137 -0.1797
  361MPD2     H 5407   4.433   2.680  16.680  2.1297 -1.1983 -0.9961
  361MPD2    H1 5408   4.566   2.573  16.293  0.3488  0.8586  0.6493
  361MPD2    H2 5409   4.238   2.847  16.348 -1.0920 -0.5114 -0.6045
  361MPD2    H3 5410   4.404   2.720  16.198 -0.1838 -1.4633 -0.3532
  361MPD2     N 5411   4.621   2.539  16.554 -0.1476 -0.5012 -0.0872
  361MPD2    H5 5412   4.675   2.487  16.486  2.2046 -0.4147  1.7111
  361MPD2    N1 5413   4.221   2.812  16.611 -0.7039 -0.3524 -0.3244
  361MPD2    H7 5414   4.233   2.779  16.706  0.3682  0.7087 -0.0900
  362TMC3    C1 5415   4.104   2.975  16.720 -0.1242  0.3635 -0.2869
  362TMC3    C2 5416   4.043   2.884  16.803  0.5003  0.7797 -0.1477
  362TMC3    C3 5417   3.993   2.933  16.925 -0.6064  0.1345 -0.5218
  362TMC3    C4 5418   4.137   3.101  16.761 -0.6210 -0.0877  0.3114
  362TMC3    C5 5419   4.094   3.142  16.881  0.3410 -0.0962 -0.0182
  362TMC3    C6 5420   4.030   3.060  16.963  0.0895  0.1835  0.4944
  362TMC3     C 5421   4.153   2.927  16.594 -0.8985  0.3037  0.8967
  362TMC3     O 5422   4.152   2.996  16.495 -0.2327 -0.6922  0.4017
  362TMC3     H 5423   4.008   2.787  16.770 -1.0778  2.0941 -2.3861
  362TMC3    H1 5424   4.201   3.159  16.695  1.5142 -0.1627  2.3382
  362TMC3    H2 5425   4.009   3.093  17.065 -0.4145  3.4520 -0.6533
  362TMC3    C7 5426   4.116   3.282  16.917 -0.3042  0.9110  0.2294
  362TMC3    C8 5427   3.887   2.871  17.004 -0.3298 -0.1264 -0.0646
  362TMC3    O1 5428   4.092   3.319  17.029 -0.5647 -0.0120 -0.5032
  362TMC3    O2 5429   3.865   2.753  16.976 -0.4326 -0.6505  0.2016
  363TMC3    C1 5430   3.266   1.019  10.125  0.2387  0.7816  0.1919
  363TMC3    C2 5431   3.243   0.895  10.183 -0.5292 -1.0861 -0.6427
  363TMC3    C3 5432   3.113   0.843  10.173 -0.1027 -0.4437 -0.8747
  363TMC3    C4 5433   3.168   1.088  10.064  0.0609  0.5344 -0.2273
  363TMC3    C5 5434   3.043   1.037  10.063 -0.3043 -1.0399 -0.1258
  363TMC3    C6 5435   3.015   0.915  10.125 -0.8242  0.2433 -0.0424
  363TMC3     C 5436   3.401   1.077  10.130 -0.4843  0.4734  0.2408
  363TMC3     O 5437   3.432   1.154  10.044 -0.1145 -0.5036  0.3608
  363TMC3     H 5438   3.324   0.832  10.218  1.0582 -0.1993 -2.7189
  363TMC3    H1 5439   3.189   1.188  10.027  2.4333 -0.0569 -0.4886
  363TMC3    H2 5440   2.919   0.864  10.121 -0.7244 -0.0243  1.0072
  363TMC3    C7 5441   2.929   1.100   9.987  0.2525 -0.0117 -0.7242
  363TMC3    C8 5442   3.076   0.703  10.215  0.1309  0.0151 -0.2758
  363TMC3    O1 5443   2.823   1.045  10.010 -0.2242 -0.5563 -1.1106
  363TMC3    O2 5444   2.962   0.663  10.206  0.1827 -0.2140  0.2034
  364MPD2     C 5445   1.843   4.716  11.037  0.1883  0.3721 -0.4259
  364MPD2    C1 5446   1.969   0.007  10.983 -0.1622 -0.1430  0.0393
  364MPD2    C2 5447   2.055   4.627  10.956 -0.1653  0.2007 -0.0235
  364MPD2    C3 5448   2.008   4.498  10.970  0.5804  0.1234 -0.3564
  364MPD2    C4 5449   1.883   4.485  11.021  0.0562 -0.7726  0.0872
  364MPD2    C5 5450   1.798   4.587  11.057 -0.3199 -0.1777 -0.0303
  364MPD2     H 5451   2.158   4.648  10.930  0.2794 -0.8300  0.8688
  364MPD2    H1 5452   1.845   4.384  11.036  0.8831 -1.0631  0.1898
  364MPD2    H2 5453   1.778   0.077  11.046 -0.8253 -0.3430 -0.8616
  364MPD2    H3 5454   1.700   4.555  11.090 -0.6200  0.1208 -0.6218
  364MPD2     N 5455   2.078   4.382  10.937  0.5699 -0.6736 -0.2573
  364MPD2    H5 5456   2.019   4.300  10.928 -0.8928  0.1645  1.6806
  364MPD2    N1 5457   2.003   0.139  10.951 -0.1029 -0.5905 -0.1660
  364MPD2    H7 5458   1.940   0.208  10.991  1.7264 -0.1588  2.0080
  365TMC3    C1 5459   2.140   0.306  10.850 -0.3200 -0.5864 -0.1316
  365TMC3    C2 5460   2.178   0.341  10.725 -0.2608 -0.9252  0.5331
  365TMC3    C3 5461   2.211   0.472  10.720  0.2432 -0.8038  0.5444
  365TMC3    C4 5462   2.136   0.379  10.962 -0.4793  0.2977 -0.0847
  365TMC3    C5 5463   2.145   0.520  10.947 -0.1276  0.7337  0.0771
  365TMC3    C6 5464   2.185   0.565  10.819  0.0359 -0.4640  0.2174
  365TMC3     C 5465   2.109   0.165  10.860 -0.0555  1.0990 -0.0451
  365TMC3     O 5466   2.135   0.092  10.765  0.1857  0.3202 -0.6466
  365TMC3     H 5467   2.177   0.274  10.640 -0.8369  0.9425 -0.9231
  365TMC3    H1 5468   2.129   0.339  11.062 -2.1821  3.1956  0.9385
  365TMC3    H2 5469   2.218   0.669  10.819 -0.4420 -0.3149 -0.5649
  365TMC3    C7 5470   2.129   0.616  11.060  0.3707  1.1099  0.8896
  365TMC3    C8 5471   2.329   0.502  10.645  0.1757 -0.1293  0.1243
  365TMC3    O1 5472   2.182   0.727  11.049 -0.1390 -0.0040 -0.0348
  365TMC3    O2 5473   2.365   0.621  10.651 -0.1144  0.0895 -0.4719
  366MPD2     C 5474   0.136   1.419  15.853 -0.4159  0.0773 -0.1838
  366MPD2    C1 5475   0.163   1.478  15.729  0.1665  0.5645  1.0448
  366MPD2    C2 5476   0.207   1.401  15.619  0.2459 -0.6036  0.1761
  366MPD2    C3 5477   0.210   1.262  15.630 -0.5508 -0.1377 -0.3690
  366MPD2    C4 5478   0.192   1.208  15.751 -0.3152 -0.2934 -0.2809
  366MPD2    C5 5479   0.162   1.285  15.861  0.0748  0.0194  0.1827
  366MPD2     H 5480   0.229   1.442  15.520 -0.1246  1.8864  1.1138
  366MPD2    H1 5481   0.198   1.101  15.770  2.1357 -0.5341 -2.3712
  366MPD2    H2 5482   0.114   1.467  15.947  1.3636 -1.0931  0.8232
  366MPD2    H3 5483   0.142   1.234  15.954 -2.1400  1.7538  0.6491
  366MPD2     N 5484   0.228   1.196  15.506  0.1814  0.5134 -0.5635
  366MPD2    H5 5485   0.232   1.262  15.429  0.7039 -0.2652 -1.1994
  366MPD2    N1 5486   0.148   1.616  15.723 -0.4865  0.0936 -0.0398
  366MPD2    H7 5487   0.112   1.670  15.801  0.7169  1.4421 -0.4045
  367TMC3    C1 5488   0.127   1.819  15.621  0.6234 -0.2208  0.0608
  367TMC3    C2 5489   0.228   1.875  15.692  0.2608  0.3477  0.1113
  367TMC3    C3 5490   0.275   2.003  15.677 -0.5494 -0.3088  0.5481
  367TMC3    C4 5491   0.083   1.883  15.512  0.0430  0.3531 -0.1605
  367TMC3    C5 5492   0.121   2.014  15.504 -0.1261  0.3367 -0.1496
  367TMC3    C6 5493   0.213   2.076  15.580  0.3427  0.2598 -0.1786
  367TMC3     C 5494   0.156   1.678  15.603  0.0448  0.6675  0.2702
  367TMC3     O 5495   0.163   1.639  15.486  0.2468  0.4213 -0.2953
  367TMC3     H 5496   0.288   1.813  15.757  3.3794  3.0514 -0.1424
  367TMC3    H1 5497   4.718   1.845  15.465  0.9079 -2.9289  0.8002
  367TMC3    H2 5498   0.239   2.178  15.555  0.3065  0.3096 -0.0150
  367TMC3    C7 5499   0.014   2.101  15.460  0.2386  0.2125 -0.2883
  367TMC3    C8 5500   0.408   2.033  15.726 -0.9153 -1.3269 -0.2380
  367TMC3    O1 5501   4.723   2.195  15.539  0.4207  0.1817  0.4605
  367TMC3    O2 5502   0.451   1.946  15.804  0.1187 -0.0678  0.2777
  368MPD2     C 5503   1.649   3.254  13.103 -0.1452  0.6037 -0.2561
  368MPD2    C1 5504   1.627   3.287  12.967 -0.9767  0.1506  0.1842
  368MPD2    C2 5505   1.733   3.284  12.879  0.3332 -0.4726 -0.1304
  368MPD2    C3 5506   1.854   3.241  12.916  0.3050  0.0105  0.4918
  368MPD2    C4 5507   1.872   3.206  13.050 -0.0204 -0.2047  0.7791
  368MPD2    C5 5508   1.768   3.198  13.139 -0.1050  0.4621 -0.8452
  368MPD2     H 5509   1.715   3.315  12.776 -1.3184  1.6532  0.8044
  368MPD2    H1 5510   1.967   3.168  13.085  0.1325 -0.6296 -0.1075
  368MPD2    H2 5511   1.563   3.252  13.169  2.6700  1.6396  3.4292
  368MPD2    H3 5512   1.773   3.147  13.235  0.4958 -2.4185 -2.4342
  368MPD2     N 5513   1.975   3.241  12.834  0.4804 -0.5941 -0.1926
  368MPD2    H5 5514   2.062   3.238  12.885 -0.2475  0.9358  1.1263
  368MPD2    N1 5515   1.502   3.335  12.914 -0.3193  0.1316  0.1049
  368MPD2    H7 5516   1.509   3.395  12.833  0.2436  1.8144  1.4070
  369TMC3    C1 5517   1.274   3.405  12.936  0.3785  0.5613 -0.3122
  369TMC3    C2 5518   1.299   3.505  12.848  0.5823  0.4954  0.6951
  369TMC3    C3 5519   1.190   3.557  12.778 -0.1399  0.5512  0.3489
  369TMC3    C4 5520   1.155   3.356  12.962  0.8174 -0.1555  0.0500
  369TMC3    C5 5521   1.054   3.410  12.894  0.8226  0.2551 -0.9184
  369TMC3    C6 5522   1.063   3.506  12.792  0.1969 -0.1626  0.0668
  369TMC3     C 5523   1.383   3.324  12.985 -0.9657 -0.3430  0.3314
  369TMC3     O 5524   1.352   3.254  13.082 -0.7159 -0.2768  0.0172
  369TMC3     H 5525   1.399   3.547  12.837  0.1230  0.8731 -2.1140
  369TMC3    H1 5526   1.132   3.271  13.025  0.5581 -0.6870 -0.7591
  369TMC3    H2 5527   0.972   3.549  12.751 -0.4144 -0.3403  1.2456
  369TMC3    C7 5528   0.925   3.351  12.922  0.2443  0.1068  0.0560
  369TMC3    C8 5529   1.193   3.681  12.707 -0.4781 -0.1784  0.6552
  369TMC3    O1 5530   0.912   3.328  13.044  0.2688 -0.0587 -0.1776
  369TMC3    O2 5531   1.108   3.713  12.625 -0.0703 -0.2370 -0.2000
  370TMC3    C1 5532   0.898   3.559  16.022 -0.1309 -0.3714  0.1834
  370TMC3    C2 5533   0.808   3.491  16.106  0.0743  0.2149  2.0602
  370TMC3    C3 5534   0.770   3.362  16.087  0.2717  0.5305  0.6765
  370TMC3    C4 5535   0.960   3.488  15.923  0.2559 -0.4898  0.0807
  370TMC3    C5 5536   0.935   3.352  15.923 -0.0376 -0.2606 -0.4910
  370TMC3    C6 5537   0.835   3.292  15.991  0.1312 -0.0454  0.5654
  370TMC3     C 5538   0.934   3.696  16.050 -0.0917  0.5161  0.3728
  370TMC3     O 5539   0.933   3.720  16.170 -0.0973 -0.0581  0.2142
  370TMC3     H 5540   0.758   3.546  16.184 -2.9129  0.1376  0.1809
  370TMC3    H1 5541   1.039   3.531  15.863  0.4722 -0.6383  0.2647
  370TMC3    H2 5542   0.808   3.187  15.983  3.3229 -1.0161  2.6249
  370TMC3    C7 5543   1.035   3.264  15.860 -0.1881  0.6770  0.2178
  370TMC3    C8 5544   0.745   3.277  16.207 -0.0616 -0.5615 -0.2239
  370TMC3    O1 5545   1.150   3.303  15.832 -0.8512  0.6812 -0.4118
  370TMC3    O2 5546   0.777   3.160  16.210  0.5855 -0.2471  0.0787
  371TMC3    C1 5547   2.497   2.027  15.659  0.0064 -0.0619  0.2703
  371TMC3    C2 5548   2.415   2.004  15.766  0.7335 -0.1231  0.2518
  371TMC3    C3 5549   2.338   2.106  15.811  0.3797 -0.0252  0.7766
  371TMC3    C4 5550   2.489   2.141  15.588  0.1620  0.2588  0.4556
  371TMC3    C5 5551   2.406   2.236  15.633  0.1222  0.6069  0.2372
  371TMC3    C6 5552   2.326   2.226  15.741 -0.0005  0.3861 -0.1434
  371TMC3     C 5553   2.570   1.913  15.598 -0.1641 -0.3120 -0.3621
  371TMC3     O 5554   2.646   1.937  15.503  0.1817  0.0467  0.6027
  371TMC3     H 5555   2.429   1.926  15.839 -1.6321 -1.7078 -1.0047
  371TMC3    H1 5556   2.552   2.160  15.502 -0.5513  3.8213  0.6984
  371TMC3    H2 5557   2.279   2.316  15.781  1.1683  0.7422  0.4365
  371TMC3    C7 5558   2.421   2.374  15.576 -0.1961 -0.7180  0.2217
  371TMC3    C8 5559   2.235   2.063  15.906  0.0222  0.3258 -0.0674
  371TMC3    O1 5560   2.340   2.458  15.600  0.0936  0.0469  0.3330
  371TMC3    O2 5561   2.266   1.970  15.980  0.3034 -0.3921  0.3451
  372MPD2     C 5562   1.434   3.485  13.326 -0.2777 -0.5722 -0.5563
  372MPD2    C1 5563   1.568   3.500  13.371  0.1802 -0.4691 -0.3471
  372MPD2    C2 5564   1.601   3.455  13.499  0.1132  0.1185 -0.3950
  372MPD2    C3 5565   1.497   3.407  13.577  0.1433 -0.1513  0.4152
  372MPD2    C4 5566   1.366   3.403  13.534  0.3871  0.2852  1.0036
  372MPD2    C5 5567   1.334   3.437  13.405 -0.2086  0.4981 -0.1034
  372MPD2     H 5568   1.700   3.459  13.541 -0.6930  4.1842  1.1067
  372MPD2    H1 5569   1.281   3.373  13.595 -1.1414 -1.2259 -1.9204
  372MPD2    H2 5570   1.408   3.509  13.223  2.0339 -0.0180 -1.0127
  372MPD2    H3 5571   1.234   3.414  13.370  0.9741 -1.8359 -1.9549
  372MPD2     N 5572   1.525   3.357  13.710 -0.5664  0.5587 -0.3039
  372MPD2    H5 5573   1.623   3.344  13.735 -0.8936 -0.5470  0.4194
  372MPD2    N1 5574   1.663   3.552  13.279  0.5132  0.6761  0.1419
  372MPD2    H7 5575   1.759   3.555  13.313  1.2337  0.0133 -1.8495
  373TMC3    C1 5576   1.496   3.230  13.912 -0.1828 -0.2697  0.0548
  373TMC3    C2 5577   1.590   3.289  13.994 -0.0999  0.3949  0.4899
  373TMC3    C3 5578   1.645   3.209  14.091  0.1315 -0.2362 -0.7329
  373TMC3    C4 5579   1.463   3.099  13.924  0.6202  0.3952 -0.0428
  373TMC3    C5 5580   1.519   3.029  14.028  0.2381 -0.2193 -0.4607
  373TMC3    C6 5581   1.615   3.078  14.109 -0.0882  0.6187 -0.4052
  373TMC3     C 5582   1.435   3.300  13.801 -0.7188  0.2529  0.6801
  373TMC3     O 5583   1.314   3.287  13.806  0.1732  0.2496 -0.7082
  373TMC3     H 5584   1.609   3.395  13.977  0.6647  0.4956  1.9099
  373TMC3    H1 5585   1.395   3.058  13.851  0.0280 -0.5566  1.0280
  373TMC3    H2 5586   1.673   3.011  14.171 -0.2447 -0.3286 -1.2813
  373TMC3    C7 5587   1.512   2.882  14.007  0.5421 -0.2473 -0.3614
  373TMC3    C8 5588   1.781   3.242  14.106  0.1111  0.0806 -0.7893
  373TMC3    O1 5589   1.481   2.842  13.894  0.2601  0.0575 -0.0386
  373TMC3    O2 5590   1.836   3.313  14.021 -0.0394  0.0988 -0.4264
  374TMC3    C1 5591   2.403   3.493   9.480 -0.0900  0.1422 -0.5770
  374TMC3    C2 5592   2.456   3.598   9.556  0.4861  0.0389  0.1408
  374TMC3    C3 5593   2.473   3.719   9.494  0.2246  0.0083  0.6081
  374TMC3    C4 5594   2.346   3.515   9.362  0.5436 -0.3076  0.5604
  374TMC3    C5 5595   2.371   3.639   9.307 -0.1293  0.1811  0.5057
  374TMC3    C6 5596   2.419   3.746   9.371 -0.1456  0.3960  0.9432
  374TMC3     C 5597   2.375   3.373   9.553 -0.4816  0.0478 -0.4310
  374TMC3     O 5598   2.397   3.376   9.673 -0.5115 -0.3143  0.1367
  374TMC3     H 5599   2.497   3.576   9.653 -0.1828 -0.8713  0.2171
  374TMC3    H1 5600   2.299   3.442   9.297  0.2471  1.5995 -1.3898
  374TMC3    H2 5601   2.444   3.838   9.318 -0.0656 -0.1755 -0.0103
  374TMC3    C7 5602   2.337   3.673   9.171 -0.6560  0.3955 -0.2831
  374TMC3    C8 5603   2.519   3.835   9.573 -0.1798  0.2952 -0.4196
  374TMC3    O1 5604   2.343   3.790   9.133  0.1453  0.1616  0.1463
  374TMC3    O2 5605   2.493   3.943   9.526  0.8162 -0.3958 -0.1004
  375MPD2     C 5606   1.840   4.232  17.236  0.8749 -0.3387  0.3947
  375MPD2    C1 5607   1.769   4.217  17.114 -0.5583  0.6695  0.1121
  375MPD2    C2 5608   1.833   4.219  16.998  0.2540  0.0296 -0.1868
  375MPD2    C3 5609   1.971   4.234  16.994 -0.2874  0.0271  0.0465
  375MPD2    C4 5610   2.040   4.237  17.117  0.3226  0.0759  0.9902
  375MPD2    C5 5611   1.976   4.242  17.232 -1.4153  0.3904  0.4884
  375MPD2     H 5612   1.778   4.196  16.908  0.7359 -0.3967 -0.3725
  375MPD2    H1 5613   2.147   4.254  17.120 -0.2114  3.7721 -0.2500
  375MPD2    H2 5614   1.796   4.236  17.335  0.0538  2.0651 -0.0645
  375MPD2    H3 5615   2.035   4.253  17.323 -1.0996  0.9999  0.2140
  375MPD2     N 5616   2.045   4.262  16.874  0.1423  0.1804  0.3343
  375MPD2    H5 5617   2.144   4.283  16.885  0.5383 -1.6837  0.2637
  375MPD2    N1 5618   1.630   4.196  17.103 -0.4748 -0.6614  0.1280
  375MPD2    H7 5619   1.589   4.195  17.010  0.5486 -0.8236 -0.3244
  376TMC3    C1 5620   2.081   4.305  16.641 -0.2745 -0.0591  0.3833
  376TMC3    C2 5621   2.215   4.307  16.666  0.4125 -0.6272 -0.2715
  376TMC3    C3 5622   2.295   4.351  16.563 -0.0957 -0.1556  0.5727
  376TMC3    C4 5623   2.029   4.325  16.513 -0.5852  0.0171 -0.3899
  376TMC3    C5 5624   2.115   4.355  16.415 -0.3586 -0.7126  0.6158
  376TMC3    C6 5625   2.246   4.370  16.438  0.4651  0.4550  0.1057
  376TMC3     C 5626   1.989   4.259  16.747  0.1327  0.1822 -0.1710
  376TMC3     O 5627   1.870   4.252  16.719 -0.5327 -0.0587 -0.6650
  376TMC3     H 5628   2.270   4.303  16.759 -0.5550  1.1449  0.3684
  376TMC3    H1 5629   1.924   4.305  16.493 -0.1888 -1.1297 -1.2838
  376TMC3    H2 5630   2.312   4.406  16.360  0.5502  1.4119  0.6214
  376TMC3    C7 5631   2.108   4.269  16.299  0.1035 -0.1972 -0.2208
  376TMC3    C8 5632   2.435   4.297  16.557 -0.0144 -1.5336  0.4649
  376TMC3    O1 5633   2.041   4.315  16.203 -0.3350 -0.0665 -0.3629
  376TMC3    O2 5634   2.469   4.271  16.442  0.1614  0.0205 -0.1531
  377MPD2     C 5635   0.312   3.911  12.249  0.2062  0.4250  0.5102
  377MPD2    C1 5636   0.375   3.817  12.327 -0.2164  0.1205  0.3205
  377MPD2    C2 5637   0.307   3.795  12.451 -0.7091  0.1168  0.5921
  377MPD2    C3 5638   0.192   3.864  12.485 -0.0892  0.0690 -0.4756
  377MPD2    C4 5639   0.130   3.954  12.397  0.1821  0.3675 -0.1055
  377MPD2    C5 5640   0.202   3.982  12.284  0.1695 -0.0005 -0.2930
  377MPD2     H 5641   0.360   3.750  12.535 -1.0169  0.7701  1.1392
  377MPD2    H1 5642   0.036   4.006  12.411  0.0177 -0.1219  0.5819
  377MPD2    H2 5643   0.349   3.925  12.147 -3.3547  1.3914 -0.6508
  377MPD2    H3 5644   0.162   4.058  12.217  0.3178 -0.1351 -0.5355
  377MPD2     N 5645   0.136   3.855  12.619 -0.0667 -0.3108 -0.0148
  377MPD2    H5 5646   0.058   3.917  12.639 -0.6010 -0.3991 -1.8186
  377MPD2    N1 5647   0.500   3.763  12.293  0.0600  0.3592 -0.0029
  377MPD2    H7 5648   0.528   3.806  12.206  1.2988 -2.2548 -0.9096
  378TMC3    C1 5649   0.891   3.683  12.171 -0.3233 -0.1740 -0.0594
  378TMC3    C2 5650   0.759   3.702  12.201 -0.7461  0.5521 -0.4219
  378TMC3    C3 5651   0.706   3.630  12.302 -0.1850  0.8350  0.1077
  378TMC3    C4 5652   0.973   3.599  12.250  0.7136 -0.8589 -0.5536
  378TMC3    C5 5653   0.912   3.534  12.356  0.2997 -0.6510  0.1383
  378TMC3    C6 5654   0.781   3.545  12.381  0.3860 -0.3511  0.0431
  378TMC3     C 5655   0.941   3.754  12.060  0.2337 -0.1006 -0.0888
  378TMC3     O 5656   0.882   3.853  12.023 -0.0222 -0.2508  0.1475
  378TMC3     H 5657   0.701   3.761  12.131 -3.6095 -0.6838  0.8866
  378TMC3    H1 5658   1.080   3.611  12.250  0.6619 -0.3407  0.3742
  378TMC3    H2 5659   0.737   3.509  12.473  2.8917  0.2933  1.4926
  378TMC3    C7 5660   0.985   3.435  12.442 -0.1565 -0.3210  1.0628
  378TMC3    C8 5661   0.568   3.655  12.347  0.2810  0.5056  0.3362
  378TMC3    O1 5662   0.921   3.382  12.532 -0.1159 -0.1179  0.1472
  378TMC3    O2 5663   0.531   3.588  12.446  0.1231 -0.0350 -0.1578
  379MPD2     C 5664   1.796   1.829  15.818 -0.1142 -0.9192 -0.2191
  379MPD2    C1 5665   1.680   1.782  15.871 -0.2421 -0.8442 -0.8845
  379MPD2    C2 5666   1.687   1.666  15.947 -0.8644  0.3967 -0.1544
  379MPD2    C3 5667   1.800   1.589  15.962  0.0525  0.1956  0.2754
  379MPD2    C4 5668   1.917   1.645  15.912  0.1652 -0.6015 -0.7564
  379MPD2    C5 5669   1.910   1.767  15.856  0.1466 -0.6472 -0.0217
  379MPD2     H 5670   1.595   1.624  15.986 -0.6026  0.0247  0.0593
  379MPD2    H1 5671   2.013   1.597  15.920 -0.0908 -1.1480 -0.9573
  379MPD2    H2 5672   1.801   1.926  15.770  2.7152 -0.6031  0.7313
  379MPD2    H3 5673   2.002   1.822  15.838  0.6100 -1.2591  0.4930
  379MPD2     N 5674   1.813   1.470  16.038  0.0048  0.7166 -0.0198
  379MPD2    H5 5675   1.906   1.445  16.068  0.6716  0.9554 -1.8796
  379MPD2    N1 5676   1.561   1.851  15.830 -0.6076 -0.9477  0.1166
  379MPD2    H7 5677   1.577   1.926  15.764 -1.3696 -0.8691  0.0226
  380TMC3    C1 5678   1.350   1.913  15.807 -1.1306  0.5727  0.0996
  380TMC3    C2 5679   1.347   1.860  15.677  0.0173 -0.7197  0.0532
  380TMC3    C3 5680   1.229   1.886  15.607  0.2385 -0.7573  0.5200
  380TMC3    C4 5681   1.237   1.971  15.866  0.2222  0.8009 -0.3692
  380TMC3    C5 5682   1.127   1.992  15.794  0.0957 -0.3063  0.2083
  380TMC3    C6 5683   1.124   1.953  15.662  0.2974 -0.4755 -0.8793
  380TMC3     C 5684   1.439   1.848  15.889  0.1310  0.3836  0.6774
  380TMC3     O 5685   1.394   1.776  15.973  0.3779  0.1500  0.4907
  380TMC3     H 5686   1.419   1.788  15.639  0.3535 -0.2386 -0.2235
  380TMC3    H1 5687   1.244   2.005  15.968  0.4037  3.7665 -1.3658
  380TMC3    H2 5688   1.032   1.962  15.606  2.0354 -0.8560 -3.7777
  380TMC3    C7 5689   1.051   2.108  15.838  0.2650 -0.7803 -0.3160
  380TMC3    C8 5690   1.215   1.850  15.457  0.0882 -0.4393  0.0384
  380TMC3    O1 5691   1.102   2.200  15.902  1.0121 -0.1748 -0.1557
  380TMC3    O2 5692   1.100   1.861  15.414 -0.4599 -0.3577  0.1631
  381TMC3    C1 5693   0.721   2.831  16.143  0.1899 -0.3555  0.3127
  381TMC3    C2 5694   0.850   2.852  16.112  0.8615  0.5716  0.4673
  381TMC3    C3 5695   0.945   2.852  16.210  0.2282  0.2648 -0.3486
  381TMC3    C4 5696   0.680   2.818  16.277  0.0878 -1.1291 -0.1614
  381TMC3    C5 5697   0.779   2.820  16.372 -0.2108 -0.1442 -0.5000
  381TMC3    C6 5698   0.908   2.851  16.339  0.1655  0.4025 -0.2445
  381TMC3     C 5699   0.617   2.837  16.045  0.0264 -0.3027 -0.2102
  381TMC3     O 5700   0.503   2.852  16.083  0.1953  0.0339 -0.0735
  381TMC3     H 5701   0.878   2.887  16.013 -2.5843 -2.2919 -1.5401
  381TMC3    H1 5702   0.578   2.793  16.304 -0.3063 -0.3528 -0.9296
  381TMC3    H2 5703   0.986   2.853  16.414  1.7585  1.9461 -1.9358
  381TMC3    C7 5704   0.757   2.787  16.512 -0.1128  1.0765 -0.0015
  381TMC3    C8 5705   1.058   2.945  16.177 -0.0585 -0.2652 -0.5961
  381TMC3    O1 5706   0.846   2.722  16.564 -0.2629  0.2075 -0.1636
  381TMC3    O2 5707   1.136   2.898  16.097  0.2790 -0.2329  0.2057
  382MPD2     C 5708   4.272   0.874  17.092  0.1519 -0.5142 -0.3228
  382MPD2    C1 5709   4.341   0.823  17.195 -0.4691  0.0363  0.1552
  382MPD2    C2 5710   4.312   0.699  17.256 -0.6796 -0.4121  0.1549
  382MPD2    C3 5711   4.202   0.635  17.215 -0.1614  0.2405 -0.3495
  382MPD2    C4 5712   4.121   0.691  17.120 -0.1516 -0.4177  0.0077
  382MPD2    C5 5713   4.160   0.804  17.054  0.6858 -0.2058 -0.4248
  382MPD2     H 5714   4.365   0.654  17.340 -0.8966  1.3632  1.2533
  382MPD2    H1 5715   4.027   0.644  17.094 -0.5296  0.1967  0.2837
  382MPD2    H2 5716   4.287   0.968  17.041 -0.3266 -0.0487  0.4031
  382MPD2    H3 5717   4.093   0.849  16.983 -0.4002 -2.0467 -0.5721
  382MPD2     N 5718   4.168   0.504  17.270  0.3914  0.5897  0.2197
  382MPD2    H5 5719   4.099   0.453  17.217  0.9921 -0.8820  0.8653
  382MPD2    N1 5720   4.455   0.883  17.242  0.6911 -0.1421 -0.7304
  382MPD2    H7 5721   4.499   0.841  17.323 -0.8938 -0.8031 -0.1968
  383TMC3    C1 5722   4.162   0.322  17.406  0.2702 -0.4756  0.4406
  383TMC3    C2 5723   4.139   0.241  17.301 -0.0391 -0.4449  0.7029
  383TMC3    C3 5724   4.057   0.132  17.323 -0.0447  0.2124 -0.5650
  383TMC3    C4 5725   4.123   0.302  17.537  0.0462  0.2616  0.7472
  383TMC3    C5 5726   4.049   0.190  17.554 -0.4996 -0.2622 -0.8532
  383TMC3    C6 5727   4.005   0.114  17.446  0.1475  0.3883  0.1881
  383TMC3     C 5728   4.217   0.450  17.383 -0.1980  0.6497  0.6211
  383TMC3     O 5729   4.290   0.494  17.470 -0.1477  0.3607 -0.3903
  383TMC3     H 5730   4.168   0.264  17.199  0.8814 -0.2764  1.0037
  383TMC3    H1 5731   4.141   0.383  17.607  1.3626 -0.0106  0.7275
  383TMC3    H2 5732   3.950   0.023  17.468 -0.0876  0.7427  1.0548
  383TMC3    C7 5733   3.985   0.163  17.680  0.3633  0.1357 -0.1734
  383TMC3    C8 5734   4.010   0.044  17.210 -0.4587  0.4135  0.0138
  383TMC3    O1 5735   3.875   0.108  17.673  0.2110  0.2766  0.0702
  383TMC3    O2 5736   3.913   4.699  17.240 -0.4064  0.1790 -0.5829
  384MPD2     C 5737   1.684   1.776  12.324  0.2592 -0.4802 -1.4395
  384MPD2    C1 5738   1.741   1.767  12.453  0.7402 -0.3730 -0.0490
  384MPD2    C2 5739   1.812   1.652  12.474  0.1093  0.0684 -0.0510
  384MPD2    C3 5740   1.839   1.555  12.386  0.1946  0.0902 -0.2850
  384MPD2    C4 5741   1.791   1.568  12.261 -0.3306 -0.2015 -0.0125
  384MPD2    C5 5742   1.706   1.674  12.233  0.5730 -0.0588 -0.7132
  384MPD2     H 5743   1.854   1.635  12.573  1.5689  0.0694 -0.6749
  384MPD2    H1 5744   1.798   1.491  12.186  3.7224 -0.8096  0.9925
  384MPD2    H2 5745   1.611   1.854  12.307 -1.4639 -1.7795 -0.0485
  384MPD2    H3 5746   1.653   1.682  12.139  1.1447 -1.4874 -1.1535
  384MPD2     N 5747   1.910   1.443  12.429 -0.0916 -1.0014  0.1713
  384MPD2    H5 5748   1.947   1.441  12.524  0.5283  1.2410 -0.0183
  384MPD2    N1 5749   1.702   1.848  12.559 -0.2133 -0.2466  0.1964
  384MPD2    H7 5750   1.611   1.892  12.547 -0.3001 -0.7048 -0.8228
  385TMC3    C1 5751   2.010   1.229  12.436 -0.1563 -0.1674  0.8960
  385TMC3    C2 5752   1.966   1.099  12.410 -0.3554 -0.4446  0.0593
  385TMC3    C3 5753   1.938   1.028  12.523  0.2618 -0.1895  0.4344
  385TMC3    C4 5754   2.049   1.267  12.558  0.8165 -0.5531 -0.5845
  385TMC3    C5 5755   2.016   1.187  12.666  0.2160 -1.2118  0.3435
  385TMC3    C6 5756   1.973   1.062  12.651  0.4552 -0.4660 -0.3243
  385TMC3     C 5757   1.943   1.330  12.361 -0.0391 -0.5765  0.2246
  385TMC3     O 5758   1.914   1.292  12.249  0.1940 -0.6465 -0.1086
  385TMC3     H 5759   1.944   1.077  12.306 -1.4874  1.2447 -0.0628
  385TMC3    H1 5760   2.104   1.359  12.578 -1.0404  0.4055  0.1029
  385TMC3    H2 5761   1.940   1.017  12.743 -1.0430 -0.2498 -0.7642
  385TMC3    C7 5762   1.954   1.266  12.774  0.7548 -1.3646 -0.1486
  385TMC3    C8 5763   1.873   0.890  12.517  0.1349 -0.7542  0.4278
  385TMC3    O1 5764   1.902   1.372  12.732 -0.4017  0.0149  0.3376
  385TMC3    O2 5765   1.836   0.844  12.624  0.2094  0.4732 -0.4260
  386TMC3    C1 5766   1.879   3.557  11.635 -0.1704  0.0382  0.8132
  386TMC3    C2 5767   1.897   3.526  11.502  0.8879 -0.1263  0.2872
  386TMC3    C3 5768   1.829   3.600  11.410  0.8836 -0.2250  0.0378
  386TMC3    C4 5769   1.810   3.666  11.671 -0.5095  0.1295 -0.2781
  386TMC3    C5 5770   1.751   3.736  11.579 -0.8298 -0.2754 -0.4402
  386TMC3    C6 5771   1.759   3.711  11.448 -0.3125 -0.1312 -0.6914
  386TMC3     C 5772   1.948   3.492  11.742  0.7033  0.2398  0.6656
  386TMC3     O 5773   1.908   3.514  11.856  0.1279  0.3038  0.2463
  386TMC3     H 5774   1.920   3.423  11.476  1.6862  0.2386 -0.4253
  386TMC3    H1 5775   1.807   3.696  11.775 -1.4304  0.9018 -0.5266
  386TMC3    H2 5776   1.700   3.755  11.369 -1.4555  1.9740  1.3259
  386TMC3    C7 5777   1.673   3.843  11.634  0.1445 -0.3571  0.0426
  386TMC3    C8 5778   1.844   3.561  11.269  0.2285 -0.2869  0.2793
  386TMC3    O1 5779   1.638   3.849  11.753 -0.2271  0.8263  0.1067
  386TMC3    O2 5780   1.759   3.609  11.195  0.0731  0.0649  0.6079
  387MPD2     C 5781   0.005   4.002   9.785  0.3435  0.3811 -0.0155
  387MPD2    C1 5782   0.073   3.950   9.893 -0.2672 -0.3112  0.9443
  387MPD2    C2 5783   0.045   3.819   9.928  0.7390  0.0758 -0.2250
  387MPD2    C3 5784   4.669   3.739   9.880 -0.4679  0.0208 -0.3455
  387MPD2    C4 5785   4.583   3.793   9.782 -0.5651 -0.4661 -0.1426
  387MPD2    C5 5786   4.620   3.923   9.735  0.0595  0.5373 -0.1247
  387MPD2     H 5787   0.111   3.772  10.000  1.3287 -1.4014 -1.7354
  387MPD2    H1 5788   4.498   3.734   9.749 -0.5094  0.7129 -2.4005
  387MPD2    H2 5789   0.019   4.102   9.747  0.9400 -0.3496 -1.7210
  387MPD2    H3 5790   4.564   3.970   9.654  1.5263  0.8886 -0.9354
  387MPD2     N 5791   4.658   3.617   9.952 -0.1129  0.1967 -0.1537
  387MPD2    H5 5792   4.720   3.605  10.031 -3.0115  2.4910  2.4521
  387MPD2    N1 5793   0.184   4.010   9.955 -0.1067  0.6720  0.4925
  387MPD2    H7 5794   0.228   3.954  10.027  1.3269  0.0092 -0.9115
  388TMC3    C1 5795   0.370   4.131   9.968  0.1272  0.2209 -0.3729
  388TMC3    C2 5796   0.427   4.251   9.993 -0.4011  0.0650 -0.0187
  388TMC3    C3 5797   0.557   4.250  10.040  0.3015 -0.3169  0.1152
  388TMC3    C4 5798   0.441   4.009   9.959 -0.5640  0.0776  0.0888
  388TMC3    C5 5799   0.571   4.014  10.000 -0.3292 -1.1515  0.0946
  388TMC3    C6 5800   0.626   4.134  10.041  0.1214  0.2889 -0.2929
  388TMC3     C 5801   0.233   4.126   9.919  0.0442 -0.1449 -0.3458
  388TMC3     O 5802   0.197   4.217   9.842 -0.1366 -1.1040  0.3585
  388TMC3     H 5803   0.376   4.346   9.993  0.3731  0.4819  0.4767
  388TMC3    H1 5804   0.403   3.918   9.914 -0.6397  0.5648 -0.8276
  388TMC3    H2 5805   0.729   4.140  10.076  0.9773 -1.8955 -2.4373
  388TMC3    C7 5806   0.650   3.885  10.013 -0.3743  1.1156 -0.5513
  388TMC3    C8 5807   0.613   4.355  10.117  0.2852  0.1051  0.4356
  388TMC3    O1 5808   0.773   3.873  10.019 -0.1709 -0.3590  0.3169
  388TMC3    O2 5809   0.735   4.372  10.109 -0.0089 -0.5268 -0.4665
  389MPD2     C 5810   3.548   1.939  11.762 -0.1741 -0.8344 -0.4150
  389MPD2    C1 5811   3.505   1.872  11.646 -0.3919 -0.0882  0.1996
  389MPD2    C2 5812   3.437   1.754  11.656  0.2171  0.3686 -0.3435
  389MPD2    C3 5813   3.434   1.681  11.770  0.5554  0.0884  0.0621
  389MPD2    C4 5814   3.480   1.744  11.888 -0.4141 -0.0269 -0.6848
  389MPD2    C5 5815   3.529   1.869  11.885 -0.7528  0.2200  0.1510
  389MPD2     H 5816   3.401   1.708  11.565 -0.3054  0.7163 -0.3144
  389MPD2    H1 5817   3.473   1.702  11.987 -1.1044 -2.9497 -1.9633
  389MPD2    H2 5818   3.593   2.037  11.770  1.3876 -1.6484  0.7272
  389MPD2    H3 5819   3.554   1.923  11.975 -0.2352 -0.0473  0.1628
  389MPD2     N 5820   3.387   1.552  11.782 -0.3954  0.2210 -0.5052
  389MPD2    H5 5821   3.408   1.492  11.862  1.5041 -0.5954 -1.5993
  389MPD2    N1 5822   3.527   1.927  11.523  0.1211 -0.6175 -0.4590
  389MPD2    H7 5823   3.481   1.884  11.444 -0.6523 -2.3564  0.9503
  390TMC3    C1 5824   3.292   1.350  11.713 -0.0896  0.1500  0.5573
  390TMC3    C2 5825   3.266   1.317  11.838  0.6556 -0.5717  0.2326
  390TMC3    C3 5826   3.226   1.189  11.861  1.0066  0.3807 -0.4370
  390TMC3    C4 5827   3.263   1.269  11.606  0.4733  0.1754  0.1392
  390TMC3    C5 5828   3.219   1.145  11.621  0.1141 -0.3309 -0.4863
  390TMC3    C6 5829   3.204   1.106  11.750 -0.1184 -0.3540  0.0070
  390TMC3     C 5830   3.318   1.488  11.682  0.4208 -0.3173  0.0448
  390TMC3     O 5831   3.278   1.527  11.574 -0.2445  0.2481 -0.1388
  390TMC3     H 5832   3.267   1.383  11.923 -0.6814 -0.8048  0.4242
  390TMC3    H1 5833   3.259   1.309  11.505 -0.0308  0.6762  0.3619
  390TMC3    H2 5834   3.154   1.010  11.759  0.5442 -0.6387  0.7100
  390TMC3    C7 5835   3.093   1.141  11.554  0.4122  0.5434  0.0072
  390TMC3    C8 5836   3.127   1.192  11.970  0.6859  0.0314  0.3263
  390TMC3    O1 5837   3.088   1.106  11.440  0.4229  0.2649 -0.2611
  390TMC3    O2 5838   3.148   1.267  12.065 -0.0634  0.2057 -0.1279
  391MPD2     C 5839   2.876   3.198  10.921 -0.0964  0.2424  0.0365
  391MPD2    C1 5840   2.949   3.308  10.956  0.1566  0.0008  0.2953
  391MPD2    C2 5841   2.982   3.405  10.861 -1.1673 -0.2838  0.2101
  391MPD2    C3 5842   2.930   3.400  10.735  0.3771 -0.2183 -1.0154
  391MPD2    C4 5843   2.875   3.277  10.693  1.2528 -0.0646 -0.1211
  391MPD2    C5 5844   2.848   3.185  10.788 -0.0915  0.3911  0.4390
  391MPD2     H 5845   3.028   3.500  10.883 -1.7388 -0.3663  1.7684
  391MPD2    H1 5846   2.849   3.248  10.591 -0.4129  0.6587  0.1096
  391MPD2    H2 5847   2.848   3.130  11.000  0.6278  0.4352  0.4649
  391MPD2    H3 5848   2.792   3.096  10.759  0.7967 -0.6589  1.9705
  391MPD2     N 5849   2.959   3.502  10.639 -0.2815 -0.4740  0.8110
  391MPD2    H5 5850   3.033   3.570  10.652  0.6891 -1.1820 -0.9791
  391MPD2    N1 5851   2.994   3.330  11.091  0.4312 -0.1308  0.7175
  391MPD2    H7 5852   2.950   3.275  11.165  0.7906 -1.5785 -0.1374
  392TMC3    C1 5853   2.897   3.653  10.473 -0.3273  0.3034 -0.0549
  392TMC3    C2 5854   2.846   3.671  10.351  0.2848  0.1682  0.0615
  392TMC3    C3 5855   2.914   3.737  10.253  0.4125 -0.6851  0.4085
  392TMC3    C4 5856   3.018   3.710  10.505  0.8453 -0.1851 -0.1313
  392TMC3    C5 5857   3.086   3.772  10.406 -0.3249 -0.6977 -0.4080
  392TMC3    C6 5858   3.033   3.788  10.278 -0.0457 -0.6482 -0.3195
  392TMC3     C 5859   2.869   3.534  10.543 -0.0891 -0.3575  0.1728
  392TMC3     O 5860   2.757   3.484  10.528 -0.5798 -0.3510 -0.7345
  392TMC3     H 5861   2.766   3.606  10.317  0.9777 -0.1533 -0.9747
  392TMC3    H1 5862   3.058   3.717  10.605 -1.0412 -0.7469  0.6752
  392TMC3    H2 5863   3.092   3.834  10.199  0.4908 -0.9264 -0.0849
  392TMC3    C7 5864   3.208   3.834  10.445 -0.0720 -0.3044  0.7047
  392TMC3    C8 5865   2.848   3.744  10.119  0.6011  0.1524 -0.5844
  392TMC3    O1 5866   3.279   3.776  10.523 -0.1680  0.1794  0.4664
  392TMC3    O2 5867   2.796   3.639  10.083 -0.6030 -0.3344 -0.0616
  393TMC3    C1 5868   1.760   1.576  10.400  0.3447 -0.5608 -0.1158
  393TMC3    C2 5869   1.625   1.586  10.402  0.2805 -0.5344  0.7378
  393TMC3    C3 5870   1.556   1.494  10.472  0.0332  0.0782 -0.4735
  393TMC3    C4 5871   1.826   1.465  10.443  0.0108  0.1508 -0.3484
  393TMC3    C5 5872   1.744   1.371  10.501  0.4942 -0.1578  0.0665
  393TMC3    C6 5873   1.611   1.387  10.527  0.1979  0.8861  0.3968
  393TMC3     C 5874   1.836   1.673  10.314 -0.1625  0.4157 -0.1361
  393TMC3     O 5875   1.765   1.724  10.228 -0.4773  0.1568 -0.3005
  393TMC3     H 5876   1.571   1.668  10.356 -0.5554 -0.3835  2.0014
  393TMC3    H1 5877   1.934   1.458  10.446 -0.1042 -0.7290  1.6367
  393TMC3    H2 5878   1.557   1.326  10.598 -0.5347  0.2139 -0.7404
  393TMC3    C7 5879   1.808   1.254  10.551  0.4906 -0.3017 -0.1812
  393TMC3    C8 5880   1.416   1.520  10.487 -0.1565  1.0004  0.3859
  393TMC3    O1 5881   1.736   1.161  10.589  0.2093  0.1274 -0.0006
  393TMC3    O2 5882   1.371   1.632  10.501 -0.0048  0.2879 -0.1235
  394TMC3    C1 5883   3.615   2.075  11.357 -0.5238 -0.0458 -0.3874
  394TMC3    C2 5884   3.491   2.073  11.302 -0.3498  0.4432  0.1253
  394TMC3    C3 5885   3.481   2.106  11.173  0.2505  0.1538  1.1332
  394TMC3    C4 5886   3.733   2.111  11.290  0.2831 -0.2901 -0.9078
  394TMC3    C5 5887   3.713   2.131  11.156  0.6493  0.0198 -0.0923
  394TMC3    C6 5888   3.586   2.134  11.093  0.5219  0.1843  0.1847
  394TMC3     C 5889   3.618   2.034  11.497 -0.2791  0.0003 -0.4077
  394TMC3     O 5890   3.693   2.101  11.571 -0.2812  0.0749 -0.1310
  394TMC3     H 5891   3.400   2.061  11.360 -0.5901 -0.3741 -0.4253
  394TMC3    H1 5892   3.830   2.110  11.337  0.7765 -0.1890 -1.9349
  394TMC3    H2 5893   3.571   2.163  10.989  1.9274 -0.5130 -0.2105
  394TMC3    C7 5894   3.839   2.133  11.070  0.4660  0.8652 -0.2078
  394TMC3    C8 5895   3.352   2.072  11.113 -0.4366  1.0277 -0.0599
  394TMC3    O1 5896   3.946   2.139  11.130  0.1745  0.4549 -0.9565
  394TMC3    O2 5897   3.251   2.055  11.182 -0.1257 -0.7530  0.0428
  395TMC3    C1 5898   3.096   4.160  14.361  0.3304  0.0808 -0.3428
  395TMC3    C2 5899   2.977   4.168  14.421 -0.4719 -0.8278  0.0232
  395TMC3    C3 5900   2.958   4.261  14.525 -0.3031  0.0295 -0.2830
  395TMC3    C4 5901   3.199   4.236  14.401 -0.4066 -0.6114 -0.3920
  395TMC3    C5 5902   3.173   4.328  14.503 -0.2571 -0.0719 -0.1512
  395TMC3    C6 5903   3.058   4.339  14.568  0.2927  0.1109 -0.3894
  395TMC3     C 5904   3.139   4.020  14.356 -0.4340 -0.9600  0.1896
  395TMC3     O 5905   3.240   3.999  14.417  0.6816  0.4380 -0.2054
  395TMC3     H 5906   2.890   4.122  14.375 -0.2061 -1.9417  0.6406
  395TMC3    H1 5907   3.288   4.222  14.342 -0.4314  1.0459 -0.8035
  395TMC3    H2 5908   3.040   4.407  14.650  1.2266  1.0004 -0.9213
  395TMC3    C7 5909   3.281   4.381  14.573  0.8526  0.5951 -0.1155
  395TMC3    C8 5910   2.856   4.227  14.621 -0.0376  0.3337 -0.5011
  395TMC3    O1 5911   3.270   4.486  14.629 -0.6298  0.1098 -0.2232
  395TMC3    O2 5912   2.838   4.312  14.705  0.4589  0.0161  0.5518
  396MPD2     C 5913   2.798   0.129  16.883 -0.2282  0.8006 -0.9438
  396MPD2    C1 5914   2.868   0.160  16.999  0.4261  0.1990  0.3307
  396MPD2    C2 5915   2.988   0.225  16.995  0.4761 -0.0570  0.0526
  396MPD2    C3 5916   3.039   0.267  16.869 -1.0809  0.0594  0.3832
  396MPD2    C4 5917   2.956   0.261  16.757  0.7508  0.1451  0.4083
  396MPD2    C5 5918   2.834   0.194  16.768  0.3460  0.5865 -0.3846
  396MPD2     H 5919   3.036   0.249  17.089 -0.2855 -1.4492  0.7968
  396MPD2    H1 5920   2.982   0.301  16.660 -1.3340  0.8294  0.1352
  396MPD2    H2 5921   2.697   0.091  16.888 -0.6988  1.8411 -2.5211
  396MPD2    H3 5922   2.770   0.187  16.681 -0.4622  0.6537  0.2030
  396MPD2     N 5923   3.173   0.318  16.873  0.0645  0.0259 -0.0879
  396MPD2    H5 5924   3.201   0.342  16.968  3.1533  0.4189 -1.0949
  396MPD2    N1 5925   2.827   0.102  17.122  0.6561  0.1561  0.1335
  396MPD2    H7 5926   2.745   0.041  17.120  0.5700  0.2728  0.0967
  397TMC3    C1 5927   2.870   4.699  17.309  0.0896 -0.4496 -1.4867
  397TMC3    C2 5928   2.953   4.604  17.265 -0.0027 -0.6551  0.6964
  397TMC3    C3 5929   2.901   4.478  17.228  0.6620  0.4204  0.2507
  397TMC3    C4 5930   2.738   4.676  17.338  0.0385  0.3443 -0.5661
  397TMC3    C5 5931   2.702   4.545  17.331 -0.6004 -0.5892 -0.2456
  397TMC3    C6 5932   2.775   4.445  17.276 -0.6909 -0.5066  0.1353
  397TMC3     C 5933   2.899   0.091  17.239 -0.0148  0.2505  0.4455
  397TMC3     O 5934   2.991   0.155  17.286 -0.7572  0.1046 -0.1105
  397TMC3     H 5935   3.041   4.644  17.215 -1.1379 -0.1955 -0.9268
  397TMC3    H1 5936   2.663   0.022  17.371 -1.1596 -1.4156  0.5544
  397TMC3    H2 5937   2.736   4.345  17.262 -1.2154 -0.2536 -0.2131
  397TMC3    C7 5938   2.559   4.511  17.365 -0.2465  0.0940 -0.1090
  397TMC3    C8 5939   2.905   4.461  17.082  0.0175  0.2513  0.2462
  397TMC3    O1 5940   2.477   4.602  17.360  0.0901 -0.6270 -0.3601
  397TMC3    O2 5941   2.793   4.452  17.029 -0.0639 -0.1169  0.3278
  398MPD2     C 5942   1.266   0.913  17.504 -0.4414 -0.2527 -0.1447
  398MPD2    C1 5943   1.328   0.827  17.592  0.0307  0.1562 -0.1787
  398MPD2    C2 5944   1.420   0.882  17.675 -0.3637 -0.4812 -0.4496
  398MPD2    C3 5945   1.453   1.016  17.684  0.6603 -0.1578 -0.3298
  398MPD2    C4 5946   1.391   1.088  17.584 -0.9342 -0.3261 -0.0631
  398MPD2    C5 5947   1.300   1.038  17.495  0.5400 -0.2195  0.0468
  398MPD2     H 5948   1.477   0.813   0.033  1.4633  1.6679  0.2775
  398MPD2    H1 5949   1.409   1.195  17.588 -1.1608 -0.3217  0.8691
  398MPD2    H2 5950   1.195   0.864  17.439  1.2249 -1.1484 -1.2988
  398MPD2    H3 5951   1.252   1.104  17.424 -1.3543 -0.0825  1.4668
  398MPD2     N 5952   1.554   1.063   0.066 -0.0046 -0.1427  0.0980
  398MPD2    H5 5953   1.596   1.000   0.134 -1.1491 -1.5870 -0.5132
  398MPD2    N1 5954   1.287   0.689  17.612 -0.1996  0.5616  0.4938
  398MPD2    H7 5955   1.337   0.653  17.692  2.0843  2.5245 -0.0259
  399TMC3    C1 5956   1.196   0.483  17.590 -0.2580  0.0184 -0.1096
  399TMC3    C2 5957   1.305   0.436  17.660  0.6326  0.6099 -0.2618
  399TMC3    C3 5958   1.289   0.314   0.023 -0.0287 -0.2090  0.5530
  399TMC3    C4 5959   1.083   0.407  17.573 -0.1013 -0.1829  0.0762
  399TMC3    C5 5960   1.080   0.283  17.630 -0.4751 -0.0821 -0.0132
  399TMC3    C6 5961   1.184   0.232   0.000 -0.1761  0.7538 -0.3089
  399TMC3     C 5962   1.198   0.621  17.539  0.2522 -0.0602  0.0263
  399TMC3     O 5963   1.125   0.642  17.445 -0.3460  0.4501 -0.5408
  399TMC3     H 5964   1.401   0.485  17.670  0.1707  1.2090  1.2373
  399TMC3    H1 5965   1.003   0.455  17.516  0.7486  0.3903 -0.6370
  399TMC3    H2 5966   1.170   0.143   0.060  1.3973  0.2488 -0.7041
  399TMC3    C7 5967   0.953   0.210  17.634 -0.3638  0.0857  0.4129
  399TMC3    C8 5968   1.391   0.280   0.119  0.7170  0.5121  0.0941
  399TMC3    O1 5969   0.968   0.090  17.661 -1.0658  0.1507  0.3095
  399TMC3    O2 5970   1.465   0.374   0.136 -0.5191 -0.0728  0.4831
  400TMC3    C1 5971   0.006   0.033  17.246  0.0453 -0.3973  0.1279
  400TMC3    C2 5972   4.628   4.724  17.333  0.1519  0.0915 -0.0359
  400TMC3    C3 5973   4.544   0.100  17.365  0.1116 -0.2343 -0.5470
  400TMC3    C4 5974   0.025   0.160  17.195  0.7349 -0.4566 -0.3708
  400TMC3    C5 5975   4.661   0.256  17.236  0.3799 -0.5866  0.6980
  400TMC3    C6 5976   4.550   0.225  17.311 -0.0063 -0.2785  0.0398
  400TMC3     C 5977   0.070   4.652  17.170  0.3639  0.1374 -0.3853
  400TMC3     O 5978   0.012   4.546  17.181 -0.1549  0.1313 -0.4397
  400TMC3     H 5979   4.617   4.622  17.367  0.5447 -0.2495 -0.9147
  400TMC3    H1 5980   0.098   0.183  17.119  0.5439  1.8061  0.1198
  400TMC3    H2 5981   4.482   0.303  17.344 -1.3510 -0.4933 -2.2132
  400TMC3    C7 5982   4.647   0.368  17.143  0.5374  0.1458  0.2664
  400TMC3    C8 5983   4.434   0.078  17.448 -0.2542 -0.1525 -0.3257
  400TMC3    O1 5984   0.021   0.435  17.110  0.1097  0.4188 -0.2454
  400TMC3    O2 5985   4.408   0.151  17.541 -0.1801 -0.2440  0.1923
  401MPD2     C 5986   2.337   3.221  17.589 -0.1237 -0.1372 -0.4062
  401MPD2    C1 5987   2.332   3.158   0.012  0.4862 -0.0367  0.3043
  401MPD2    C2 5988   2.324   3.017   0.013  0.7991  0.0691 -0.4955
  401MPD2    C3 5989   2.315   2.942  17.596 -0.3826  0.1812 -0.1617
  401MPD2    C4 5990   2.302   3.009  17.476 -0.6208  0.3190 -0.4038
  401MPD2    C5 5991   2.312   3.145  17.474 -0.1022 -0.4295 -0.1939
  401MPD2     H 5992   2.323   2.972   0.111  3.1571  1.6367  0.2528
  401MPD2    H1 5993   2.276   2.955  17.385 -2.4518  1.9551 -0.8602
  401MPD2    H2 5994   2.348   3.327  17.570 -0.6434 -0.2510 -1.3746
  401MPD2    H3 5995   2.303   3.199  17.380  1.4667 -1.1171 -0.7438
  401MPD2     N 5996   2.306   2.801  17.611 -0.1581 -0.1861 -0.1644
  401MPD2    H5 5997   2.305   2.775   0.006 -0.9509 -1.0474 -0.3945
  401MPD2    N1 5998   2.328   3.217   0.134 -0.2546 -0.0260 -0.0723
  401MPD2    H7 5999   2.329   3.162   0.219  1.3158 -2.4465 -1.6509
  402TMC3    C1 6000   2.324   2.570  17.550  0.6814 -0.4333  0.2360
  402TMC3    C2 6001   2.283   2.538  17.677 -0.4078 -0.8447  0.1852
  402TMC3    C3 6002   2.309   2.410   0.022 -0.2999 -0.1303  0.3541
  402TMC3    C4 6003   2.381   2.480  17.467  0.2012  0.3113  0.1537
  402TMC3    C5 6004   2.415   2.355  17.519  0.0731  0.5982  0.5505
  402TMC3    C6 6005   2.384   2.325  17.646 -0.0435  0.1906 -0.4218
  402TMC3     C 6006   2.313   2.709  17.509  0.2764  0.4451  0.2270
  402TMC3     O 6007   2.362   2.721  17.401  0.0609 -0.2884  0.6285
  402TMC3     H 6008   2.240   2.612   0.041  2.6722  0.9588  0.2018
  402TMC3    H1 6009   2.402   2.501  17.363 -2.1499  0.0970 -0.3767
  402TMC3    H2 6010   2.399   2.228  17.693  0.4907  0.3819 -0.2024
  402TMC3    C7 6011   2.503   2.261  17.441 -0.2206 -0.0739  0.6896
  402TMC3    C8 6012   2.323   2.389   0.169 -0.1913 -0.1117  0.1176
  402TMC3    O1 6013   2.517   2.295  17.322  0.3898 -0.3980 -0.1791
  402TMC3    O2 6014   2.385   2.285   0.203  0.6994  0.2990 -0.4760
  403MPD2     C 6015   1.131   1.747  13.185 -0.4739  0.0418 -0.3714
  403MPD2    C1 6016   1.081   1.665  13.280 -0.6667 -0.0232  0.5683
  403MPD2    C2 6017   1.118   1.687  13.414  0.0854  0.1540  0.0594
  403MPD2    C3 6018   1.196   1.791  13.448  0.2673  0.3647 -0.5147
  403MPD2    C4 6019   1.238   1.880  13.352 -0.1502 -0.5935  0.3731
  403MPD2    C5 6020   1.199   1.859  13.221  0.3747 -0.2537 -0.3477
  403MPD2     H 6021   1.103   1.623  13.500  1.5229  0.4071  0.4901
  403MPD2    H1 6022   1.304   1.964  13.371  1.9184 -1.9117 -0.9788
  403MPD2    H2 6023   1.125   1.724  13.079 -1.2489  0.2384 -0.3664
  403MPD2    H3 6024   1.244   1.928  13.150  2.6996 -2.3802 -0.9296
  403MPD2     N 6025   1.233   1.785  13.587 -0.1324  0.1885 -0.5396
  403MPD2    H5 6026   1.205   1.713  13.654  0.7656 -0.7821 -1.2036
  403MPD2    N1 6027   1.028   1.545  13.240 -0.0473 -0.0436  0.1119
  403MPD2    H7 6028   1.029   1.523  13.140  3.2600  3.1730 -0.5642
  404TMC3    C1 6029   0.992   1.317  13.264  0.0147 -0.0867  0.5161
  404TMC3    C2 6030   0.976   1.212  13.353  0.0824 -1.5851 -0.4097
  404TMC3    C3 6031   1.050   1.098  13.320 -0.7443 -0.8380 -0.0353
  404TMC3    C4 6032   1.061   1.302  13.143 -0.4316  0.6693  0.1211
  404TMC3    C5 6033   1.122   1.177  13.120  0.2793 -0.7131 -1.1064
  404TMC3    C6 6034   1.139   1.080  13.212  0.8639  0.3777 -0.6381
  404TMC3     C 6035   0.979   1.452  13.333 -0.6667 -0.6627  0.3272
  404TMC3     O 6036   0.937   1.470  13.445  0.0504 -0.1244 -0.3285
  404TMC3     H 6037   0.924   1.222  13.448 -1.8152 -1.1227 -1.5139
  404TMC3    H1 6038   1.082   1.376  13.067 -1.0177  0.6999 -0.0096
  404TMC3    H2 6039   1.194   0.989  13.189 -0.6096 -0.4520 -0.8987
  404TMC3    C7 6040   1.184   1.170  12.987  0.9447 -0.0520  0.6445
  404TMC3    C8 6041   1.042   1.003  13.425  0.0003 -0.8033  0.4277
  404TMC3    O1 6042   1.292   1.124  12.963 -0.0139 -0.5403 -0.4192
  404TMC3    O2 6043   0.936   0.994  13.487  0.3417  0.3348 -0.0267
  405MPD2     C 6044   1.392   1.573  14.719 -0.5773 -0.3447 -0.1640
  405MPD2    C1 6045   1.267   1.528  14.729  0.3522 -0.7487  0.1889
  405MPD2    C2 6046   1.175   1.571  14.637 -0.3583 -0.2364 -0.0806
  405MPD2    C3 6047   1.217   1.643  14.524 -0.8247 -0.2326 -0.1912
  405MPD2    C4 6048   1.349   1.684  14.517  0.3889 -0.1598 -0.0214
  405MPD2    C5 6049   1.439   1.645  14.614  0.4051 -0.2331  0.0622
  405MPD2     H 6050   1.071   1.546  14.653  0.3931 -2.0524  2.1008
  405MPD2    H1 6051   1.385   1.747  14.436  1.1398  3.2461  2.9899
  405MPD2    H2 6052   1.472   1.544  14.787 -0.2997  1.9282  0.4669
  405MPD2    H3 6053   1.542   1.675  14.596 -0.1454  1.4141 -0.2874
  405MPD2     N 6054   1.126   1.659  14.422  0.8527  0.1796  0.2253
  405MPD2    H5 6055   1.037   1.612  14.434  0.2899  1.0045 -0.7325
  405MPD2    N1 6056   1.242   1.444  14.844 -0.2501  0.3051 -0.1642
  405MPD2    H7 6057   1.314   1.435  14.915  0.5923  1.6493 -0.8362
  406TMC3    C1 6058   0.859   1.872  14.133 -0.1620 -0.9944 -0.4186
  406TMC3    C2 6059   0.764   1.772  14.144  0.0142 -0.0098  0.0391
  406TMC3    C3 6060   0.804   1.664  14.220 -0.0170 -0.0465 -0.4235
  406TMC3    C4 6061   0.986   1.862  14.180  0.0080 -0.9449 -0.1563
  406TMC3    C5 6062   1.017   1.739  14.231 -0.1208 -0.3526  0.6995
  406TMC3    C6 6063   0.932   1.640  14.254 -0.5450 -1.2590  0.3929
  406TMC3     C 6064   0.812   2.009  14.153  0.2090  0.2468  0.7210
  406TMC3     O 6065   0.886   2.102  14.124 -0.1604 -0.3927 -0.1016
  406TMC3     H 6066   0.662   1.780  14.110  0.0739 -1.1977 -0.4282
  406TMC3    H1 6067   1.054   1.944  14.157  0.7632 -0.6098  3.2834
  406TMC3    H2 6068   0.953   1.538  14.284  1.5671  0.0076  3.2058
  406TMC3    C7 6069   1.143   1.736  14.307  0.0187 -0.0823 -0.1310
  406TMC3    C8 6070   0.712   1.655  14.331 -0.4679 -0.2623  0.3602
  406TMC3    O1 6071   1.230   1.820  14.286 -0.1068 -0.1476  0.1568
  406TMC3    O2 6072   0.624   1.741  14.335  0.1635 -0.1029 -0.1574
  407MPD2     C 6073   4.038   3.265   9.864  0.4576 -0.2463 -0.1790
  407MPD2    C1 6074   4.153   3.337   9.880 -0.1376  0.5230  0.1181
  407MPD2    C2 6075   4.173   3.409   9.993  0.0802  0.8777 -0.3826
  407MPD2    C3 6076   4.074   3.434  10.083  0.5179  0.0223 -0.8560
  407MPD2    C4 6077   3.958   3.361  10.071  0.2276  0.0624 -0.4478
  407MPD2    C5 6078   3.942   3.269   9.966  0.0347  0.1932 -0.0399
  407MPD2     H 6079   4.265   3.467   9.998  0.9039 -0.3623 -1.4412
  407MPD2    H1 6080   3.884   3.363  10.151 -1.3458 -0.6890 -1.8967
  407MPD2    H2 6081   4.022   3.204   9.776  2.0486 -0.3645 -0.3945
  407MPD2    H3 6082   3.854   3.207   9.960  0.9735 -1.0391 -1.2070
  407MPD2     N 6083   4.083   3.516  10.194 -0.1044  0.0660 -0.0106
  407MPD2    H5 6084   3.996   3.529  10.244 -0.8974  3.6426 -2.3363
  407MPD2    N1 6085   4.248   3.347   9.772  0.2319  0.1090 -0.5907
  407MPD2    H7 6086   4.328   3.405   9.790 -0.3836  1.5862 -2.6263
  408TMC3    C1 6087   4.348   3.322   9.564 -0.4856  0.4701  0.5548
  408TMC3    C2 6088   4.482   3.342   9.609  0.0284  0.8698  0.3373
  408TMC3    C3 6089   4.555   3.433   9.540  0.3095 -1.1736  0.8387
  408TMC3    C4 6090   4.288   3.403   9.473  0.7286 -0.2412 -0.2831
  408TMC3    C5 6091   4.364   3.496   9.407  0.3158 -0.3515  0.5144
  408TMC3    C6 6092   4.499   3.520   9.443 -0.4712 -0.0676  0.1758
  408TMC3     C 6093   4.239   3.281   9.651 -1.1952 -0.1670 -0.9028
  408TMC3     O 6094   4.143   3.230   9.601 -0.3509  0.3006 -0.2207
  408TMC3     H 6095   4.517   3.284   9.694  0.8430  1.2870  0.2804
  408TMC3    H1 6096   4.185   3.389   9.443  1.0961 -0.6718 -1.3268
  408TMC3    H2 6097   4.565   3.582   9.384 -1.8974  2.0645  0.8152
  408TMC3    C7 6098   4.295   3.567   9.307 -0.2699 -0.4889 -0.4558
  408TMC3    C8 6099   4.696   3.437   9.575 -0.3621  0.0405  0.7792
  408TMC3    O1 6100   4.194   3.514   9.270 -0.2284 -0.6148  0.0104
  408TMC3    O2 6101   0.013   3.349   9.651  0.5047 -0.1025 -0.1389
  409MPD2     C 6102   3.064   3.755  16.960 -0.4307 -0.0279 -0.0215
  409MPD2    C1 6103   3.171   3.792  17.038  0.5481 -0.4758  0.1766
  409MPD2    C2 6104   3.239   3.909  17.002  0.0276  0.4835  0.1416
  409MPD2    C3 6105   3.209   3.973  16.883  0.1950 -0.2746 -0.4656
  409MPD2    C4 6106   3.110   3.921  16.801  0.3474 -0.1371 -0.9863
  409MPD2    C5 6107   3.040   3.817  16.841 -0.4564 -0.0364 -0.8254
  409MPD2     H 6108   3.329   3.934  17.056  1.4570 -0.6198 -1.7480
  409MPD2    H1 6109   3.100   3.963  16.702  0.2842 -0.5538 -1.1569
  409MPD2    H2 6110   3.001   3.671  16.985 -0.8152  0.7575  1.6124
  409MPD2    H3 6111   2.947   3.779  16.799 -0.6808  1.3327 -1.5499
  409MPD2     N 6112   3.279   4.083  16.825 -0.4109  0.0909 -0.3452
  409MPD2    H5 6113   3.257   4.111  16.730  1.1258  3.0193  0.1661
  409MPD2    N1 6114   3.201   3.718  17.156  0.2577 -0.0167  0.2499
  409MPD2    H7 6115   3.268   3.757  17.221 -1.8834  3.2907  0.4555
  410TMC3    C1 6116   3.462   4.231  16.804 -0.3540 -0.1301 -0.5721
  410TMC3    C2 6117   3.549   4.311  16.864  0.1900  0.3315 -0.2588
  410TMC3    C3 6118   3.606   4.411  16.793 -0.2038  0.3426  0.4432
  410TMC3    C4 6119   3.442   4.233  16.669  0.1070  0.3665 -0.4746
  410TMC3    C5 6120   3.487   4.343  16.602  0.4393  0.2081 -0.5279
  410TMC3    C6 6121   3.576   4.431  16.662  0.0893  0.2548  0.3616
  410TMC3     C 6122   3.388   4.142  16.890 -0.6171 -0.5564 -0.5976
  410TMC3     O 6123   3.424   4.142  17.009  0.3439 -0.1199 -0.0269
  410TMC3     H 6124   3.568   4.322  16.970 -0.8296 -3.4601  0.3347
  410TMC3    H1 6125   3.413   4.148  16.609  1.5293  0.5882 -1.4920
  410TMC3    H2 6126   3.600   4.522  16.608  1.0165  0.0972  0.5012
  410TMC3    C7 6127   3.493   4.332  16.455  0.3254 -1.0050  0.5715
  410TMC3    C8 6128   3.735   4.464  16.850  0.3161  0.7591 -0.7564
  410TMC3    O1 6129   3.498   4.217  16.409 -0.2844  0.4072 -0.1191
  410TMC3    O2 6130   3.762   4.433  16.966 -0.4969 -0.6185 -0.1316
  411MPD2     C 6131   3.703   0.049  14.414 -0.9608 -0.6294 -0.2653
  411MPD2    C1 6132   3.581   0.087  14.364  0.3306 -0.1162 -1.0788
  411MPD2    C2 6133   3.504   4.718  14.304  1.0898  0.1916 -0.2881
  411MPD2    C3 6134   3.537   4.589  14.323  0.7860  0.1280 -0.3105
  411MPD2    C4 6135   3.659   4.546  14.373 -0.6916 -0.9873  0.4595
  411MPD2    C5 6136   3.738   4.639  14.429  0.1397  0.0192  0.2954
  411MPD2     H 6137   3.414   0.031  14.258  1.3108  1.9019  0.6678
  411MPD2    H1 6138   3.682   4.441  14.389  2.2008 -0.3253  0.7085
  411MPD2    H2 6139   3.768   0.127  14.451 -2.3769 -0.0598  1.0332
  411MPD2    H3 6140   3.834   4.618  14.474  1.8688  2.6683 -2.1793
  411MPD2     N 6141   3.454   4.494  14.267  0.2199 -0.4797 -0.2536
  411MPD2    H5 6142   3.497   4.403  14.252  0.9634  0.1655 -2.1101
  411MPD2    N1 6143   3.546   0.229  14.354 -0.2306 -0.1392  0.0395
  411MPD2    H7 6144   3.605   0.297  14.399  0.2724 -0.6919  0.2190
  412TMC3    C1 6145   3.256   4.423  14.148  0.4255  0.1706  0.1956
  412TMC3    C2 6146   3.122   4.461  14.115 -0.1769 -0.3795 -0.1107
  412TMC3    C3 6147   3.093   4.455  13.978 -0.1505  0.9760  0.5656
  412TMC3    C4 6148   3.342   4.357  14.063 -0.8189  0.2352  0.6408
  412TMC3    C5 6149   3.302   4.340  13.939 -0.3884 -0.0072  0.8421
  412TMC3    C6 6150   3.185   4.391  13.899  0.7556  1.4954 -0.3241
  412TMC3     C 6151   3.319   4.507  14.247 -0.2777  0.9762  0.5438
  412TMC3     O 6152   3.246   4.576  14.315 -0.7636 -0.2673  0.3913
  412TMC3     H 6153   3.073   4.541  14.169  0.7615 -1.6291  2.5819
  412TMC3    H1 6154   3.447   4.345  14.087 -0.6498  0.6438  0.0981
  412TMC3    H2 6155   3.157   4.378  13.795 -2.0175 -0.7003  0.7178
  412TMC3    C7 6156   3.397   4.335  13.835  0.5552  1.2803  0.1567
  412TMC3    C8 6157   3.077   4.591  13.936  0.2106  0.9679  0.3069
  412TMC3    O1 6158   3.380   4.401  13.728 -0.3624  0.3741 -0.4578
  412TMC3    O2 6159   2.964   4.640  13.962 -0.4549 -0.0862 -0.2881
  413MPD2     C 6160   0.422   3.118  15.329 -0.4792  0.4490  0.2193
  413MPD2    C1 6161   0.338   3.141  15.225 -0.5668  0.0118 -0.5597
  413MPD2    C2 6162   0.387   3.115  15.094 -0.2085 -0.4928  0.1043
  413MPD2    C3 6163   0.508   3.053  15.079  0.5600 -0.1507 -0.2040
  413MPD2    C4 6164   0.592   3.036  15.185 -0.1099 -0.5001  0.6767
  413MPD2    C5 6165   0.543   3.059  15.312  0.4940 -0.7268 -0.4984
  413MPD2     H 6166   0.332   3.133  15.002 -1.9634 -0.8848  1.0942
  413MPD2    H1 6167   0.698   3.018  15.169  0.0576  2.2970 -1.4613
  413MPD2    H2 6168   0.387   3.127  15.432 -1.3116 -0.8688  0.0502
  413MPD2    H3 6169   0.609   3.045  15.397 -2.7102  0.3349  2.1974
  413MPD2     N 6170   0.554   3.030  14.943  0.0556 -0.2087  0.1210
  413MPD2    H5 6171   0.503   3.080  14.871 -0.8411 -1.2504  0.0327
  413MPD2    N1 6172   0.207   3.190  15.248 -0.3821 -0.4340  0.4573
  413MPD2    H7 6173   0.183   3.200  15.346  0.3192  0.9341  0.4932
  414TMC3    C1 6174   0.665   2.926  14.767  0.3480  0.4373  0.6562
  414TMC3    C2 6175   0.671   2.797  14.712 -0.1983 -0.3212 -0.1871
  414TMC3    C3 6176   0.769   2.767  14.619 -0.1044  1.2431  0.2794
  414TMC3    C4 6177   0.759   3.016  14.732  0.1975  0.1539  0.4577
  414TMC3    C5 6178   0.856   2.986  14.644  0.3976  0.0857 -0.3459
  414TMC3    C6 6179   0.858   2.864  14.580 -0.1989  0.2524  0.6497
  414TMC3     C 6180   0.639   2.929  14.911 -0.3802 -0.0487 -0.1215
  414TMC3     O 6181   0.686   2.841  14.979  0.4524  0.3235 -0.3997
  414TMC3     H 6182   0.607   2.725  14.760 -0.2529 -0.0052  0.2169
  414TMC3    H1 6183   0.763   3.108  14.789  0.9433  0.4910 -0.1405
  414TMC3    H2 6184   0.919   2.852  14.492  0.1717  3.2393  0.5000
  414TMC3    C7 6185   0.989   3.023  14.670 -0.5019  0.1557 -0.0854
  414TMC3    C8 6186   0.786   2.629  14.578  0.0971 -0.2908 -0.0980
  414TMC3    O1 6187   1.070   2.933  14.650 -0.8360 -0.0438 -0.1517
  414TMC3    O2 6188   0.695   2.557  14.617 -0.3171  0.1890  0.1045
  415TMC3    C1 6189   1.420   1.131   9.742 -0.2879 -0.6567  0.2135
  415TMC3    C2 6190   1.552   1.103   9.767  0.0338  0.7989  0.1146
  415TMC3    C3 6191   1.616   1.011   9.688 -0.5752  0.4655 -0.0980
  415TMC3    C4 6192   1.348   1.073   9.641 -0.3241 -0.3236  0.4987
  415TMC3    C5 6193   1.416   0.980   9.565  0.6861 -0.1438  0.1698
  415TMC3    C6 6194   1.550   0.944   9.586  0.2473 -0.3534  0.1233
  415TMC3     C 6195   1.357   1.219   9.827  0.2131  0.2838 -0.2065
  415TMC3     O 6196   1.239   1.201   9.846  0.3035  0.0503 -0.3910
  415TMC3     H 6197   1.598   1.136   9.859  1.3199  1.9588 -0.9394
  415TMC3    H1 6198   1.247   1.105   9.619  0.5060  1.9928  0.0148
  415TMC3    H2 6199   1.592   0.862   9.529 -0.2655 -0.9930  0.6665
  415TMC3    C7 6200   1.347   0.940   9.438 -0.5424  0.3260  0.1523
  415TMC3    C8 6201   1.748   0.964   9.727 -0.1427 -0.3594  0.2778
  415TMC3    O1 6202   1.418   0.932   9.341 -0.1232 -0.5033 -0.0415
  415TMC3    O2 6203   1.768   0.852   9.682  0.0691 -0.6253  0.6040
  416MPD2     C 6204   3.165   0.109  11.650 -0.3751 -0.0856 -0.1058
  416MPD2    C1 6205   3.059   0.018  11.662  0.5159  0.3599 -0.1661
  416MPD2    C2 6206   3.079   4.616  11.614  0.9346  0.8301 -0.3244
  416MPD2    C3 6207   3.195   4.575  11.554  0.1423  0.5713  0.0952
  416MPD2    C4 6208   3.303   4.661  11.545 -0.4272  0.2080 -0.1483
  416MPD2    C5 6209   3.282   0.066  11.594  0.0652  0.5449 -0.0229
  416MPD2     H 6210   3.003   4.542  11.633 -0.9758  2.1089 -3.1080
  416MPD2    H1 6211   3.398   4.629  11.504  0.7470 -0.1593  2.8892
  416MPD2    H2 6212   3.173   0.207  11.695  0.3156 -2.2569  4.4913
  416MPD2    H3 6213   3.363   0.138  11.593 -0.2321  0.8904  1.1538
  416MPD2     N 6214   3.216   4.441  11.507  0.0354  0.6202  0.0125
  416MPD2    H5 6215   3.309   4.424  11.468  0.4229  1.8770  0.3649
  416MPD2    N1 6216   2.938   0.055  11.735 -0.4038 -0.6594  0.6228
  416MPD2    H7 6217   2.932   0.151  11.766 -0.5664 -0.2103 -0.7914
  417TMC3    C1 6218   2.719   0.046  11.820 -0.2726 -0.3790 -0.4670
  417TMC3    C2 6219   2.745   0.132  11.929 -0.0266 -0.2474 -0.2752
  417TMC3    C3 6220   2.638   0.187  11.994  0.1398 -0.1840 -0.3493
  417TMC3    C4 6221   2.593   0.032  11.768  0.1430 -0.0077  0.9835
  417TMC3    C5 6222   2.487   0.097  11.821 -0.0944 -0.2758 -0.6419
  417TMC3    C6 6223   2.515   0.178  11.935 -0.1340 -0.2337  0.1286
  417TMC3     C 6224   2.825   4.702  11.753 -0.4100 -0.8505  0.5444
  417TMC3     O 6225   2.803   4.583  11.722 -0.7384  0.9787  0.1861
  417TMC3     H 6226   2.842   0.127  11.975  0.0898 -0.4905 -0.5422
  417TMC3    H1 6227   2.578   4.692  11.683  0.3346  0.6782  0.4196
  417TMC3    H2 6228   2.423   0.217  11.979  0.0834  0.8572 -0.3784
  417TMC3    C7 6229   2.404   0.163  11.726  0.5211  0.3647 -0.3252
  417TMC3    C8 6230   2.655   0.252  12.126 -0.3250  0.6390  0.1635
  417TMC3    O1 6231   2.369   0.279  11.734  1.0454  0.1819 -0.5338
  417TMC3    O2 6232   2.551   0.284  12.182  0.1218  0.2241  0.6340
  418TMC3    C1 6233   1.887   1.091   0.278 -0.6490 -0.7648 -0.0527
  418TMC3    C2 6234   1.810   1.120   0.165 -0.6187 -0.1821 -0.5260
  418TMC3    C3 6235   1.696   1.194   0.189 -0.2519  0.3158  0.0755
  418TMC3    C4 6236   1.850   1.134   0.400 -0.3504 -0.0983  0.1661
  418TMC3    C5 6237   1.727   1.192   0.420 -0.0417  0.0462 -0.2850
  418TMC3    C6 6238   1.649   1.224   0.313  0.1192  0.0595  0.4934
  418TMC3     C 6239   2.029   1.063   0.258 -0.4983 -0.0421 -0.7383
  418TMC3     O 6240   2.079   1.088   0.146 -0.4365 -0.5138  0.7474
  418TMC3     H 6241   1.842   1.088   0.066  0.7442  1.1890 -0.5268
  418TMC3    H1 6242   1.910   1.115   0.488  0.8052 -0.7225 -0.7673
  418TMC3    H2 6243   1.553   1.271   0.326 -0.5241 -0.8290 -1.1430
  418TMC3    C7 6244   1.652   1.163   0.543 -0.7792 -0.2237  0.5876
  418TMC3    C8 6245   1.586   1.190   0.087 -0.0008  0.6282 -0.2691
  418TMC3    O1 6246   1.568   1.248   0.573  0.7504  0.1234  0.2240
  418TMC3    O2 6247   1.536   1.295   0.045  0.0599 -0.0349  0.3525
  419MPD2     C 6248   0.258   0.171  12.752 -0.2971  0.5281 -0.2517
  419MPD2    C1 6249   0.141   0.248  12.731 -0.4237  0.1290  0.1714
  419MPD2    C2 6250   0.075   0.304  12.834 -0.4831 -0.2462  0.8922
  419MPD2    C3 6251   0.116   0.283  12.964 -0.0170 -0.3995 -0.4442
  419MPD2    C4 6252   0.233   0.205  12.983 -0.4212  0.6541  0.4095
  419MPD2    C5 6253   0.304   0.153  12.881  0.0731 -0.3980 -0.1013
  419MPD2     H 6254   4.712   0.363  12.815 -0.9153 -1.6774 -1.4959
  419MPD2    H1 6255   0.272   0.189  13.083 -0.9784 -3.0927  0.0080
  419MPD2    H2 6256   0.310   0.105  12.683 -2.7642  0.4342 -1.9993
  419MPD2    H3 6257   0.396   0.100  12.903  1.4913  2.6019  1.2333
  419MPD2     N 6258   0.042   0.351  13.064  0.7579 -0.0315 -0.4370
  419MPD2    H5 6259   4.684   0.406  13.044 -0.7013 -2.3901 -0.8940
  419MPD2    N1 6260   0.092   0.268  12.597  1.0813  0.5112  0.0545
  419MPD2    H7 6261   0.004   0.317  12.582  1.0470  0.9650  1.6919
  420TMC3    C1 6262   0.008   0.438  13.293  0.1034 -0.4742 -0.6070
  420TMC3    C2 6263   4.612   0.473  13.243  0.2249  0.5139 -0.3159
  420TMC3    C3 6264   4.493   0.417  13.287  0.2104  0.6959 -0.4390
  420TMC3    C4 6265   0.009   0.366  13.414 -0.1347  0.0771 -0.0481
  420TMC3    C5 6266   4.611   0.311  13.454  0.4581 -0.0470 -0.0073
  420TMC3    C6 6267   4.491   0.327  13.388 -0.5305 -1.2517  0.9488
  420TMC3     C 6268   0.084   0.351  13.202  0.6578  0.1407  0.5197
  420TMC3     O 6269   0.170   0.277  13.248  0.3163 -0.9274 -0.2317
  420TMC3     H 6270   4.603   0.543  13.161  1.3989 -2.5692 -3.0938
  420TMC3    H1 6271   0.101   0.340  13.464 -0.0786 -3.1790 -1.8040
  420TMC3    H2 6272   4.397   0.284  13.420 -0.4268 -1.0719  1.4924
  420TMC3    C7 6273   4.623   0.186  13.521  0.4220  0.1973 -0.2955
  420TMC3    C8 6274   4.367   0.459  13.224 -0.2362  0.1491  0.6179
  420TMC3    O1 6275   4.707   0.177  13.610 -0.4157 -0.2255  0.1760
  420TMC3    O2 6276   4.336   0.575  13.229 -0.5770 -0.1352  0.0658
  421TMC3    C1 6277   1.350   1.836  13.785 -0.0115 -0.1940 -0.4021
  421TMC3    C2 6278   1.395   1.934  13.872  0.5768 -0.4541 -0.0418
  421TMC3    C3 6279   1.402   1.899  14.004 -0.6109  0.0110  0.1289
  421TMC3    C4 6280   1.354   1.704  13.817 -0.4398  0.4003  0.3478
  421TMC3    C5 6281   1.384   1.676  13.943  0.2070  0.0561  0.4682
  421TMC3    C6 6282   1.403   1.770  14.043  0.5096  0.0891  0.1297
  421TMC3     C 6283   1.320   1.873  13.647  0.6939 -0.1424 -0.5428
  421TMC3     O 6284   1.364   1.977  13.601 -0.1034 -0.4721  0.0985
  421TMC3     H 6285   1.383   2.039  13.851  2.2592 -0.0351  1.1309
  421TMC3    H1 6286   1.352   1.627  13.741 -1.2426  0.4153  0.3508
  421TMC3    H2 6287   1.437   1.743  14.142  0.6219  0.0085  0.0686
  421TMC3    C7 6288   1.417   1.542  13.998 -0.1955  0.3780  0.8275
  421TMC3    C8 6289   1.483   1.984  14.080 -0.1437 -0.2104 -0.1475
  421TMC3    O1 6290   1.452   1.535  14.117 -0.2989  0.1366  0.1408
  421TMC3    O2 6291   1.547   2.063  14.011  0.2629 -0.3155 -0.0776
  422TMC3    C1 6292   4.120   2.858  12.599 -0.6449  0.4197 -0.1323
  422TMC3    C2 6293   4.105   2.970  12.676  0.0943 -0.5568  0.0455
  422TMC3    C3 6294   3.994   2.982  12.748 -0.2646  0.0290 -0.5541
  422TMC3    C4 6295   4.033   2.752  12.606 -0.0580 -0.2789  0.5216
  422TMC3    C5 6296   3.924   2.762  12.687  0.7971 -0.7262 -0.3989
  422TMC3    C6 6297   3.908   2.875  12.766  0.0594 -0.0573  0.1684
  422TMC3     C 6298   4.234   2.854  12.507  0.0889 -0.0793  0.7082
  422TMC3     O 6299   4.299   2.958  12.495 -0.3854  0.6861 -0.1314
  422TMC3     H 6300   4.181   3.046  12.689  0.3096 -0.5833 -1.1163
  422TMC3    H1 6301   4.049   2.670  12.537  1.1019  0.1393  0.2869
  422TMC3    H2 6302   3.817   2.888  12.823 -1.1844  0.8507 -2.0059
  422TMC3    C7 6303   3.821   2.659  12.672  1.0646  0.8511  0.5366
  422TMC3    C8 6304   3.971   3.105  12.827  0.2902  0.0249 -0.6470
  422TMC3    O1 6305   3.854   2.566  12.595 -0.7297  0.3915  0.2663
  422TMC3    O2 6306   4.031   3.206  12.786  0.3538 -0.3824  0.1415
  423MPD2     C 6307   0.081   3.629   0.380  0.7838  0.1606  0.2575
  423MPD2    C1 6308   0.063   3.494   0.379 -0.0922  0.2787  0.2768
  423MPD2    C2 6309   0.119   3.421   0.278 -0.1301 -1.0418 -0.0688
  423MPD2    C3 6310   0.190   3.483   0.173  0.5895  0.1960 -0.5542
  423MPD2    C4 6311   0.201   3.623   0.177 -0.7421 -0.3646 -0.8544
  423MPD2    C5 6312   0.145   3.694   0.280 -0.3114  0.0586 -0.0446
  423MPD2     H 6313   0.101   3.315   0.268 -1.0093 -0.9985  1.0955
  423MPD2    H1 6314   0.261   3.683   0.111  0.9989 -1.2662 -0.0965
  423MPD2    H2 6315   0.051   3.691   0.463  0.1662 -0.8437  0.7886
  423MPD2    H3 6316   0.156   3.802   0.280 -0.0746  0.0332 -0.2138
  423MPD2     N 6317   0.263   3.421   0.073  0.3357  0.4834 -0.1920
  423MPD2    H5 6318   0.323   3.480   0.016  1.0526  1.1038  1.2146
  423MPD2    N1 6319   4.708   3.422   0.477  0.3458  0.1421  0.6917
  423MPD2    H7 6320   4.720   3.322   0.482 -1.0985 -0.0740 -0.1666
  424TMC3    C1 6321   4.540   3.390   0.633 -0.1111 -0.3551 -0.4184
  424TMC3    C2 6322   4.599   3.273   0.669 -0.4997 -0.1665  0.5284
  424TMC3    C3 6323   4.511   3.176   0.720  0.1601 -0.5569  0.2613
  424TMC3    C4 6324   4.411   3.396   0.615  0.0393  1.4639  0.0918
  424TMC3    C5 6325   4.325   3.299   0.664  0.2263  0.3000  0.3426
  424TMC3    C6 6326   4.376   3.176   0.713 -0.3648  0.0770 -0.0528
  424TMC3     C 6327   4.618   3.484   0.554  0.1554 -0.7481 -0.4081
  424TMC3     O 6328   4.571   3.600   0.553  0.2830  0.4854 -0.3817
  424TMC3     H 6329   4.705   3.268   0.689  0.0633  2.1923 -2.0505
  424TMC3    H1 6330   4.367   3.489   0.583  0.0583  0.8444 -1.7729
  424TMC3    H2 6331   4.317   3.087   0.732  1.5402 -1.2213 -0.2917
  424TMC3    C7 6332   4.203   3.297   0.590 -0.1843  1.0652 -0.2140
  424TMC3    C8 6333   4.570   3.064   0.797  0.9877  0.1280 -1.0981
  424TMC3    O1 6334   4.194   3.358   0.485 -0.1804 -0.6031  0.1167
  424TMC3    O2 6335   4.690   3.045   0.772  0.6372 -0.0477  0.1471
  425MPD2     C 6336   4.414   3.081  17.482  0.1572  0.4754  0.5737
  425MPD2    C1 6337   4.389   2.971  17.403 -0.3302  0.2887  0.0820
  425MPD2    C2 6338   4.259   2.946  17.370 -0.3747 -0.0112  0.3833
  425MPD2    C3 6339   4.156   3.026  17.417  0.1362 -0.5305  0.4795
  425MPD2    C4 6340   4.190   3.137  17.492  0.2199 -0.0583 -0.0077
  425MPD2    C5 6341   4.312   3.153  17.538 -0.7213 -0.0341  0.4986
  425MPD2     H 6342   4.234   2.856  17.315 -1.0748  2.4765 -3.4409
  425MPD2    H1 6343   4.119   3.208  17.533  1.1579  0.5259  0.6147
  425MPD2    H2 6344   4.517   3.106  17.506  0.1772 -1.6824  2.7381
  425MPD2    H3 6345   4.341   3.233  17.605 -1.0057  0.8882 -0.4748
  425MPD2     N 6346   4.023   2.985  17.399 -0.3887 -0.2969 -0.2935
  425MPD2    H5 6347   4.002   2.896  17.354  0.9939 -3.3457  5.1790
  425MPD2    N1 6348   4.492   2.887  17.359 -0.6841 -0.4227 -0.4226
  425MPD2    H7 6349   4.582   2.897  17.406 -1.1605  1.2370  0.1238
  426TMC3    C1 6350   4.586   2.682  17.268 -0.4395  0.1291 -0.5465
  426TMC3    C2 6351   4.610   2.606  17.158  0.5220 -0.0614  0.2170
  426TMC3    C3 6352   4.678   2.486  17.172  0.0480 -0.3544 -0.0344
  426TMC3    C4 6353   4.638   2.643  17.392 -0.3769  0.1393  0.2180
  426TMC3    C5 6354   4.720   2.529  17.392  0.2745  0.1283  0.2074
  426TMC3    C6 6355   0.026   2.453  17.286  0.1641 -0.3486  0.0376
  426TMC3     C 6356   4.479   2.783  17.267 -0.8003 -0.1606  0.0136
  426TMC3     O 6357   4.390   2.754  17.191  0.4558 -0.1081  0.2081
  426TMC3     H 6358   4.571   2.644  17.064  3.4851 -0.9061 -1.3568
  426TMC3    H1 6359   4.617   2.706  17.477  0.0530  1.0503 -0.3620
  426TMC3    H2 6360   0.076   2.358  17.303  2.0941  0.7851  0.8050
  426TMC3    C7 6361   4.719   2.463  17.522  0.1393  0.0904  0.1318
  426TMC3    C8 6362   4.612   2.363  17.123  0.0401 -0.0395  0.1321
  426TMC3    O1 6363   0.092   2.405  17.562  0.3384 -0.6473  0.0774
  426TMC3    O2 6364   4.673   2.257  17.099 -0.0649 -0.3537  0.3916
  427MPD2     C 6365   2.727   0.069  14.618 -0.7772  0.1345  0.0179
  427MPD2    C1 6366   2.725   0.082  14.757 -0.1916  0.3430  0.2699
  427MPD2    C2 6367   2.604   0.111  14.825 -0.6185  0.0177  0.4729
  427MPD2    C3 6368   2.494   0.154  14.754  0.5669 -0.7116 -0.0911
  427MPD2    C4 6369   2.501   0.143  14.614  0.0657  0.1080  0.1600
  427MPD2    C5 6370   2.615   0.108  14.547  0.5094 -0.6630 -0.3405
  427MPD2     H 6371   2.616   0.128  14.932  2.4401 -0.2128  0.1608
  427MPD2    H1 6372   2.414   0.176  14.559 -0.7730 -0.2054  1.2914
  427MPD2    H2 6373   2.818   0.042  14.566 -1.2123  0.7034 -1.0343
  427MPD2    H3 6374   2.617   0.083  14.442 -0.2755  0.0807 -0.5321
  427MPD2     N 6375   2.381   0.213  14.818 -0.3971 -0.0475 -0.5413
  427MPD2    H5 6376   2.304   0.232  14.754 -1.0439 -0.7920  0.0263
  427MPD2    N1 6377   2.835   0.050  14.841  0.3120 -0.3280 -0.3891
  427MPD2    H7 6378   2.813   0.046  14.940  0.9935 -1.7002 -0.2891
  428TMC3    C1 6379   3.062   4.714  14.882  0.5231  0.4762  0.3296
  428TMC3    C2 6380   3.021   4.603  14.958 -0.0965  0.4648  0.6396
  428TMC3    C3 6381   3.125   4.514  14.985 -0.2881  0.3748  0.1346
  428TMC3    C4 6382   3.193   0.019  14.862 -0.3842  0.2765  0.8326
  428TMC3    C5 6383   3.290   4.656  14.895  0.4365 -0.2914 -0.3403
  428TMC3    C6 6384   3.255   4.534  14.952 -0.0756  0.4719 -0.2004
  428TMC3     C 6385   2.962   0.032  14.791 -0.5346 -0.0007 -0.0646
  428TMC3     O 6386   3.005   0.072  14.681 -0.4525 -0.1901  0.4083
  428TMC3     H 6387   2.917   4.575  14.970 -0.0947 -1.3719 -3.4500
  428TMC3    H1 6388   3.219   0.112  14.814  0.7346 -0.9403 -0.8987
  428TMC3    H2 6389   3.321   4.457  14.990 -0.7884  0.2853  0.6578
  428TMC3    C7 6390   3.414   4.711  14.954  1.0758  0.7748 -0.2337
  428TMC3    C8 6391   3.091   4.376  15.026  0.4319  0.1419 -0.4202
  428TMC3    O1 6392   3.450   4.674  15.061  0.1697 -0.1128 -0.1993
  428TMC3    O2 6393   3.162   4.288  14.979  0.2635 -0.3707 -0.2393
  429MPD2     C 6394   3.372   4.692  17.186 -0.3750 -0.5015  0.3513
  429MPD2    C1 6395   3.506   4.674  17.212  1.0999 -0.2364  0.7044
  429MPD2    C2 6396   3.601   0.009  17.134 -0.2145  0.5446  0.2836
  429MPD2    C3 6397   3.567   0.072  17.019  0.1865 -0.0211  0.3641
  429MPD2    C4 6398   3.429   0.089  16.988 -0.0932 -0.0434 -0.7156
  429MPD2    C5 6399   3.335   0.038  17.076 -0.3988 -0.0904 -0.4595
  429MPD2     H 6400   3.707   4.718  17.153  0.6428  4.0024 -1.3575
  429MPD2    H1 6401   3.386   0.130  16.897  0.3437  1.4998 -0.2207
  429MPD2    H2 6402   3.291   4.650  17.244 -0.3576  1.2432  1.6475
  429MPD2    H3 6403   3.230   0.041  17.051  0.1296 -1.9719 -2.8700
  429MPD2     N 6404   3.675   0.129  16.945 -0.1785  0.1466  0.3843
  429MPD2    H5 6405   3.771   0.138  16.977 -1.1891  1.2106  3.2074
  429MPD2    N1 6406   3.552   4.621  17.339 -0.0288  0.6321  0.0691
  429MPD2    H7 6407   3.649   4.607  17.366 -0.1622 -0.6081 -0.0958
  430TMC3    C1 6408   3.753   0.244  16.749  0.4133  0.1918 -0.3615
  430TMC3    C2 6409   3.740   0.270  16.613  0.2758 -0.3287 -0.6773
  430TMC3    C3 6410   3.829   0.368  16.565 -0.0527 -0.1304 -0.2408
  430TMC3    C4 6411   3.841   0.308  16.834 -0.4007 -0.0458 -0.2579
  430TMC3    C5 6412   3.932   0.395  16.776 -0.3969  0.9014  0.3331
  430TMC3    C6 6413   3.931   0.422  16.643 -0.1487 -0.3350  0.0708
  430TMC3     C 6414   3.652   0.169  16.812 -0.5887  0.3229  0.3438
  430TMC3     O 6415   3.553   0.144  16.744 -0.2952  0.1203 -0.2463
  430TMC3     H 6416   3.661   0.225  16.554 -0.5450 -1.6778  1.4790
  430TMC3    H1 6417   3.852   0.282  16.938  1.4048 -0.6101 -0.6006
  430TMC3    H2 6418   3.996   0.500  16.606  0.3423 -1.3772 -1.2658
  430TMC3    C7 6419   4.057   0.419  16.860 -0.1585  0.9521  0.3875
  430TMC3    C8 6420   3.806   0.408  16.432 -0.1417  0.6132  0.2192
  430TMC3    O1 6421   4.056   0.370  16.978 -0.2552  0.6757 -0.4422
  430TMC3    O2 6422   3.709   0.361  16.382 -0.2322  0.3935  0.0472
  431MPD2     C 6423   0.116   1.071  12.409  0.0933  0.0699  0.2554
  431MPD2    C1 6424   0.208   1.020  12.316  0.4685  0.6131  0.0059
  431MPD2    C2 6425   0.198   0.888  12.281  0.1984  0.5114  0.2703
  431MPD2    C3 6426   0.091   0.813  12.334  0.0595 -0.2188  0.5136
  431MPD2    C4 6427   4.718   0.874  12.411 -0.7316  0.1008 -0.6314
  431MPD2    C5 6428   0.005   1.005  12.452 -0.2072 -0.7071 -0.5079
  431MPD2     H 6429   0.270   0.848  12.211 -0.2340  0.4533 -0.1402
  431MPD2    H1 6430   4.626   0.823  12.435 -0.2191 -0.5455 -0.0192
  431MPD2    H2 6431   0.122   1.168  12.458 -1.7591  0.4551 -0.2771
  431MPD2    H3 6432   4.664   1.042  12.530 -1.4563  1.5356 -2.6237
  431MPD2     N 6433   0.071   0.676  12.322 -0.1877  0.3363  0.3663
  431MPD2    H5 6434   4.724   0.632  12.379 -0.1094 -4.4048 -3.2251
  431MPD2    N1 6435   0.322   1.097  12.272  0.2407  0.4642 -0.0495
  431MPD2    H7 6436   0.385   1.054  12.205  2.2515 -0.8088  2.6829
  432TMC3    C1 6437   0.093   0.458  12.234  0.1726 -0.2191  0.0722
  432TMC3    C2 6438   0.094   0.386  12.124  0.7191  1.0056  0.4115
  432TMC3    C3 6439   0.081   0.253  12.133 -0.3063 -0.3477  1.1932
  432TMC3    C4 6440   0.099   0.399  12.356  0.0266  0.1018 -0.3149
  432TMC3    C5 6441   0.099   0.267  12.368 -0.3916  0.1382 -0.7160
  432TMC3    C6 6442   0.091   0.197  12.255 -0.0145  0.0443  0.0371
  432TMC3     C 6443   0.136   0.594  12.230  0.4398 -0.5977  0.4504
  432TMC3     O 6444   0.219   0.621  12.147  0.0040 -0.4239 -0.0174
  432TMC3     H 6445   0.086   0.434  12.027 -0.5088  1.8427  0.9183
  432TMC3    H1 6446   0.101   0.468  12.440 -0.1288  0.7213 -0.8149
  432TMC3    H2 6447   0.091   0.090  12.266 -1.5904 -0.0155 -0.5292
  432TMC3    C7 6448   0.141   0.201  12.487  0.6311  0.5113 -0.4342
  432TMC3    C8 6449   0.131   0.189  12.009  0.3671 -0.8046  0.4398
  432TMC3    O1 6450   0.214   0.105  12.478  0.5260 -0.3374  0.6996
  432TMC3    O2 6451   0.072   0.227  11.909 -0.1093 -0.1737  0.0349
  433MPD2     C 6452   3.666   3.663  10.879  0.2903 -0.3599  0.2387
  433MPD2    C1 6453   3.795   3.697  10.904 -0.2528  0.8026  0.7036
  433MPD2    C2 6454   3.840   3.710  11.033 -0.0367  0.6209  0.0042
  433MPD2    C3 6455   3.760   3.678  11.137 -0.1911  0.3115  0.4334
  433MPD2    C4 6456   3.627   3.640  11.111  0.5733  0.0965 -0.3567
  433MPD2    C5 6457   3.585   3.633  10.980 -0.2209 -0.2639  0.6616
  433MPD2     H 6458   3.942   3.730  11.065  0.3737 -1.8828  0.2274
  433MPD2    H1 6459   3.556   3.618  11.190 -0.7695 -0.5170 -1.7432
  433MPD2    H2 6460   3.623   3.649  10.781 -0.1759 -0.0337  0.3943
  433MPD2    H3 6461   3.487   3.597  10.952  0.1578 -1.4332  0.8585
  433MPD2     N 6462   3.817   3.672  11.269  0.2195 -0.6448 -0.0864
  433MPD2    H5 6463   3.915   3.697  11.268  0.0404  0.0044 -1.9067
  433MPD2    N1 6464   3.885   3.695  10.792 -1.0368 -0.7398  0.2674
  433MPD2    H7 6465   3.840   3.667  10.705  0.1007 -0.6681 -0.3362
  434TMC3    C1 6466   4.096   3.617  10.723 -0.1016  1.2448  0.1837
  434TMC3    C2 6467   4.217   3.575  10.777 -0.5510  0.3570  0.4226
  434TMC3    C3 6468   4.267   3.454  10.744  0.0248 -0.4026  0.6922
  434TMC3    C4 6469   4.035   3.552  10.620 -0.3786 -0.2275 -0.0266
  434TMC3    C5 6470   4.094   3.433  10.583 -0.6528 -0.1994  0.4454
  434TMC3    C6 6471   4.204   3.377  10.648 -0.1936  0.4614 -0.4794
  434TMC3     C 6472   4.017   3.717  10.795 -0.4932 -0.0213 -0.8996
  434TMC3     O 6473   4.076   3.777  10.880  0.0103 -0.2443  0.2508
  434TMC3     H 6474   4.259   3.630  10.860  2.6376  0.0028 -0.9438
  434TMC3    H1 6475   3.940   3.585  10.579 -1.6367 -2.3074  1.2237
  434TMC3    H2 6476   4.246   3.278  10.634  1.7253  1.0561  1.1237
  434TMC3    C7 6477   4.003   3.343  10.509 -0.2509  0.6789  0.3290
  434TMC3    C8 6478   4.370   3.384  10.817  0.2755 -0.1392 -0.2632
  434TMC3    O1 6479   3.921   3.392  10.432 -0.0544 -0.3182  0.0344
  434TMC3    O2 6480   4.360   3.262  10.829 -0.0820 -0.4819 -0.0535
  435MPD2     C 6481   0.921   3.332  15.289 -0.4601  0.2834  0.5759
  435MPD2    C1 6482   0.905   3.337  15.426  0.6873  0.2380  0.3676
  435MPD2    C2 6483   1.017   3.325  15.507  0.1338 -0.3235  0.8306
  435MPD2    C3 6484   1.144   3.304  15.448 -0.5003  0.7875  0.4233
  435MPD2    C4 6485   1.153   3.306  15.310 -0.3165  0.0698  0.4435
  435MPD2    C5 6486   1.040   3.325  15.233  0.5388 -0.4227 -0.3157
  435MPD2     H 6487   1.012   3.337  15.615  0.6440  0.0822  0.8101
  435MPD2    H1 6488   1.246   3.286  15.257 -0.9354 -2.7230  0.4088
  435MPD2    H2 6489   0.836   3.335  15.221  0.8357 -1.5936 -1.1206
  435MPD2    H3 6490   1.041   3.315  15.125  1.6473  2.0528 -0.5285
  435MPD2     N 6491   1.254   3.284  15.530  0.5287 -0.0221  0.1267
  435MPD2    H5 6492   1.235   3.291  15.630  0.1635 -0.6653  0.1048
  435MPD2    N1 6493   0.779   3.351  15.493  0.2725  0.0428 -0.2890
  435MPD2    H7 6494   0.772   3.333  15.592  3.0044 -2.0192 -0.4808
  436TMC3    C1 6495   0.505   3.561  15.695 -0.4503 -0.7838  0.2020
  436TMC3    C2 6496   0.594   3.472  15.638 -0.8263  0.2875  0.5321
  436TMC3    C3 6497   0.556   3.403  15.528 -0.3465 -0.2109  0.5388
  436TMC3    C4 6498   0.387   3.586  15.643 -0.3184 -0.0473 -0.5451
  436TMC3    C5 6499   0.349   3.506  15.536 -0.2396  0.8481 -0.5498
  436TMC3    C6 6500   0.433   3.420  15.476  0.1959 -0.4659  0.4650
  436TMC3     C 6501   0.573   3.671  15.764  0.1258 -0.3970  0.2738
  436TMC3     O 6502   0.698   3.677  15.766  0.1417  0.2412 -0.0312
  436TMC3     H 6503   0.697   3.467  15.670 -0.5270 -0.5981 -0.5893
  436TMC3    H1 6504   0.323   3.665  15.680 -1.0110 -1.2532  0.8026
  436TMC3    H2 6505   0.400   3.356  15.395 -0.4077 -0.1185  0.4362
  436TMC3    C7 6506   0.225   3.533  15.470  0.1318 -0.1304  0.3350
  436TMC3    C8 6507   0.658   3.377  15.433 -0.2127 -0.1392  0.3079
  436TMC3    O1 6508   0.210   3.495  15.352  0.5912  0.3133  0.0238
  436TMC3    O2 6509   0.631   3.427  15.324 -0.1295  0.2165  0.0222
  437TMC3    C1 6510   4.397   1.065  12.765 -0.2526  0.1030 -0.0307
  437TMC3    C2 6511   4.306   0.992  12.691 -0.1176  0.1160 -0.4671
  437TMC3    C3 6512   4.288   1.035  12.560 -0.2384  0.3564  0.0059
  437TMC3    C4 6513   4.469   1.175  12.724  0.0394 -0.2150  0.0413
  437TMC3    C5 6514   4.455   1.208  12.588 -1.2158 -0.3412  0.2056
  437TMC3    C6 6515   4.368   1.136  12.512 -0.2203  0.3104 -0.4383
  437TMC3     C 6516   4.421   0.999  12.891 -0.5264  0.5524  0.3734
  437TMC3     O 6517   4.334   0.925  12.934  0.0555 -0.2314 -0.2038
  437TMC3     H 6518   4.272   0.895  12.725  0.4725  0.7007  1.7838
  437TMC3    H1 6519   4.540   1.230  12.784 -1.1256  0.9329  0.3688
  437TMC3    H2 6520   4.371   1.154  12.405  0.4400  3.0618  0.0166
  437TMC3    C7 6521   4.535   1.311  12.525 -0.3705  0.4681 -0.4807
  437TMC3    C8 6522   4.241   0.943  12.458  0.8524  0.1282  0.6001
  437TMC3    O1 6523   4.494   1.365  12.423 -0.5710  0.2915 -0.5096
  437TMC3    O2 6524   4.298   0.936  12.348  0.6651 -0.5463  0.0553
  438MPD2     C 6525   2.023   1.895  16.503 -0.2309 -0.2417 -0.0582
  438MPD2    C1 6526   2.117   1.826  16.573 -0.2954 -0.0037 -0.6726
  438MPD2    C2 6527   2.072   1.753  16.689 -0.1809 -0.0913 -0.0414
  438MPD2    C3 6528   1.941   1.755  16.729 -0.7453  0.3659 -1.0622
  438MPD2    C4 6529   1.846   1.822  16.655  0.7069  0.0467  0.7662
  438MPD2    C5 6530   1.887   1.887  16.541  0.6659 -0.5671  0.2699
  438MPD2     H 6531   2.147   1.695  16.742 -0.1990 -0.1109 -0.0376
  438MPD2    H1 6532   1.746   1.834  16.694  0.3729  1.8148 -0.6547
  438MPD2    H2 6533   2.051   1.960  16.421  0.6900 -0.1647  0.3206
  438MPD2    H3 6534   1.812   1.932  16.477  1.5084 -0.1550 -0.4368
  438MPD2     N 6535   1.888   1.685  16.841  0.4393  0.1299 -0.2763
  438MPD2    H5 6536   1.795   1.709  16.874  0.2942  2.2146 -2.1775
  438MPD2    N1 6537   2.255   1.833  16.543 -0.2597  0.2668  0.2459
  438MPD2    H7 6538   2.270   1.879  16.454  1.4197 -2.0706 -0.6557
  439TMC3    C1 6539   2.488   1.842  16.581  0.5882 -0.1580  0.9407
  439TMC3    C2 6540   2.535   1.758  16.490 -0.5114  0.0730  0.2706
  439TMC3    C3 6541   2.669   1.723  16.490 -0.0249 -0.3935 -0.8388
  439TMC3    C4 6542   2.572   1.874  16.687 -0.8215 -0.2703  0.5125
  439TMC3    C5 6543   2.698   1.826  16.692 -0.0633  0.3668  0.1942
  439TMC3    C6 6544   2.753   1.754  16.588 -0.3227  0.3659 -0.2258
  439TMC3     C 6545   2.355   1.813  16.637  0.2801  0.4205 -0.2269
  439TMC3     O 6546   2.353   1.776  16.756  0.0312 -0.3141 -0.2819
  439TMC3     H 6547   2.464   1.728  16.414 -0.0593 -0.9673  0.2512
  439TMC3    H1 6548   2.543   1.947  16.762 -0.7728 -0.1687  0.4332
  439TMC3    H2 6549   2.858   1.725  16.581 -1.1218 -2.4748 -0.0882
  439TMC3    C7 6550   2.772   1.842  16.813  0.0777 -0.5335  0.7958
  439TMC3    C8 6551   2.729   1.625  16.396  0.4859 -0.2742 -0.7675
  439TMC3    O1 6552   2.760   1.942  16.883 -0.4365  0.1996  0.0153
  439TMC3    O2 6553   2.826   1.559  16.437 -0.8967  0.0425  0.1087
  440MPD2     C 6554   0.469   2.276  15.310 -0.5182  0.2701  0.0544
  440MPD2    C1 6555   0.487   2.328  15.185  0.3756 -0.2720 -0.2511
  440MPD2    C2 6556   0.558   2.251  15.096  0.2188 -0.3412 -0.2777
  440MPD2    C3 6557   0.605   2.126  15.120 -0.3288  0.2675  0.2450
  440MPD2    C4 6558   0.582   2.075  15.248  0.0533 -0.1242 -0.3353
  440MPD2    C5 6559   0.513   2.149  15.341 -0.1071  0.0637  0.0069
  440MPD2     H 6560   0.567   2.279  14.992  0.6004  0.9491  0.1102
  440MPD2    H1 6561   0.602   1.971  15.268  0.2970 -0.3090 -1.5358
  440MPD2    H2 6562   0.424   2.335  15.389  0.5800  1.2142 -0.0256
  440MPD2    H3 6563   0.483   2.105  15.435 -1.2486  1.1423  0.1491
  440MPD2     N 6564   0.662   2.040  15.023  0.1289 -0.3488  0.1041
  440MPD2    H5 6565   0.668   1.941  15.046 -0.2913 -0.7032 -1.2815
  440MPD2    N1 6566   0.438   2.457  15.163 -0.0417 -0.2759  0.4934
  440MPD2    H7 6567   0.389   2.503  15.239  0.3434  0.6701  0.1748
  441TMC3    C1 6568   0.733   1.934  14.833 -0.5251  0.2803  0.1607
  441TMC3    C2 6569   0.764   1.958  14.700  0.1521  0.5857  0.3487
  441TMC3    C3 6570   0.883   1.908  14.653  0.1225  0.1597  0.4982
  441TMC3    C4 6571   0.814   1.858  14.913  0.0443  0.3096  0.2734
  441TMC3    C5 6572   0.928   1.819  14.865  0.0720 -1.2556  0.0928
  441TMC3    C6 6573   0.966   1.837  14.733  0.7508  0.6915 -0.4504
  441TMC3     C 6574   0.683   2.061  14.890  0.2913  0.5409  0.6798
  441TMC3     O 6575   0.689   2.166  14.825  0.5521  0.0029 -0.2313
  441TMC3     H 6576   0.694   2.001  14.630  0.4786 -0.1297 -0.4172
  441TMC3    H1 6577   0.802   1.841  15.020 -0.2850 -0.3020  0.1349
  441TMC3    H2 6578   1.064   1.811  14.695  0.1856  0.4376 -1.7495
  441TMC3    C7 6579   1.023   1.768  14.965 -0.4952  0.1784  0.2589
  441TMC3    C8 6580   0.955   1.999  14.561 -0.0421  0.0634  0.4609
  441TMC3    O1 6581   0.979   1.732  15.074  0.6882  0.3231 -0.1531
  441TMC3    O2 6582   1.062   1.955  14.515 -0.1839 -0.7942 -0.1999
  442MPD2     C 6583   3.744   2.846  16.525  0.1889 -0.2246 -0.7312
  442MPD2    C1 6584   3.701   2.778  16.641 -0.7322 -0.1869 -0.0993
  442MPD2    C2 6585   3.755   2.658  16.676  0.5274 -0.3280  0.3657
  442MPD2    C3 6586   3.855   2.600  16.602  0.0190  0.1070 -0.7463
  442MPD2    C4 6587   3.898   2.664  16.489 -0.2979 -0.2831  0.5741
  442MPD2    C5 6588   3.844   2.787  16.453  0.0184 -0.0290  0.0152
  442MPD2     H 6589   3.730   2.626  16.776 -0.7134  1.2268  0.5501
  442MPD2    H1 6590   3.974   2.625  16.422 -0.5016  1.0319 -0.4107
  442MPD2    H2 6591   3.691   2.927  16.477  0.3409  0.2406 -0.1135
  442MPD2    H3 6592   3.874   2.834  16.359  0.0866  0.4489  0.2731
  442MPD2     N 6593   3.917   2.472  16.629 -0.0006  0.0270 -0.0357
  442MPD2    H5 6594   3.987   2.442  16.562  0.2932 -1.3742  0.8921
  442MPD2    N1 6595   3.600   2.829  16.729 -0.0713 -0.3255 -0.1513
  442MPD2    H7 6596   3.554   2.771  16.798 -0.9904  1.4358  0.7071
  443TMC3    C1 6597   3.416   2.967  16.793  0.7559  0.3087  0.0675
  443TMC3    C2 6598   3.325   3.058  16.746  0.9642 -0.5360  0.1768
  443TMC3    C3 6599   3.194   3.063  16.796  1.2682  1.0801  0.1035
  443TMC3    C4 6600   3.375   2.881  16.892 -0.2628  0.0031  0.2713
  443TMC3    C5 6601   3.258   2.894  16.954 -0.2492  0.4659 -0.4499
  443TMC3    C6 6602   3.164   2.991  16.914 -0.6769  0.1465  0.6467
  443TMC3     C 6603   3.541   2.952  16.716 -0.2945 -0.6322  1.0740
  443TMC3     O 6604   3.582   3.052  16.656 -0.4443 -0.0932 -0.5071
  443TMC3     H 6605   3.351   3.119  16.660 -1.9967  3.5147  2.1554
  443TMC3    H1 6606   3.450   2.819  16.940  1.1162  0.6467 -1.0352
  443TMC3    H2 6607   3.066   2.998  16.960 -1.4416 -1.8450 -0.6722
  443TMC3    C7 6608   3.199   2.776  17.002  0.2867 -0.1085  0.3136
  443TMC3    C8 6609   3.104   3.155  16.746 -0.7194 -0.4707  0.3756
  443TMC3    O1 6610   3.161   2.775  17.118  0.1778  0.2243  0.3961
  443TMC3    O2 6611   3.044   3.226  16.825  0.0577  0.4677 -0.1671
  444MPD2     C 6612   4.691   1.975  17.240 -0.1524 -0.6335  0.0531
  444MPD2    C1 6613   4.626   1.860  17.273 -0.8672 -0.2174 -0.1376
  444MPD2    C2 6614   4.692   1.740  17.249  0.3582 -0.2820 -0.3073
  444MPD2    C3 6615   0.089   1.740  17.181 -0.3595 -0.3120 -0.4511
  444MPD2    C4 6616   0.141   1.866  17.138  0.1746  0.1034 -0.4397
  444MPD2    C5 6617   0.079   1.975  17.176  0.6527 -0.0287  0.1556
  444MPD2     H 6618   4.639   1.646  17.260 -0.0197 -0.1482 -0.9358
  444MPD2    H1 6619   0.235   1.881  17.085 -1.5022 -0.5495 -3.5731
  444MPD2    H2 6620   4.647   2.071  17.261  0.9035 -0.1968  0.2609
  444MPD2    H3 6621   0.126   2.068  17.145 -0.9551 -0.0410 -2.3435
  444MPD2     N 6622   0.154   1.618  17.147 -0.1897 -0.0028 -0.1826
  444MPD2    H5 6623   0.108   1.530  17.169 -1.0351  0.6100  0.4533
  444MPD2    N1 6624   4.484   1.860  17.316 -0.5856 -0.1404  0.5079
  444MPD2    H7 6625   4.440   1.770  17.332 -0.0374 -0.2996  1.1146
  445TMC3    C1 6626   0.317   1.479  17.049  0.6043 -0.0519 -0.1800
  445TMC3    C2 6627   0.267   1.375  17.121  0.5911  0.1426  0.0133
  445TMC3    C3 6628   0.317   1.256  17.091  0.5175  0.0174  0.4255
  445TMC3    C4 6629   0.418   1.463  16.959 -0.0262  0.0939  0.2942
  445TMC3    C5 6630   0.481   1.342  16.943 -0.6341 -0.9505 -0.0026
  445TMC3    C6 6631   0.428   1.237  17.013  0.4482 -0.7233  0.0278
  445TMC3     C 6632   0.274   1.614  17.081  0.4842 -0.7890  0.3456
  445TMC3     O 6633   0.356   1.701  17.051 -0.4274 -0.0181 -0.2055
  445TMC3     H 6634   0.211   1.386  17.213  0.4095 -2.6645  0.2467
  445TMC3    H1 6635   0.452   1.546  16.899  0.4925 -0.3636 -0.0434
  445TMC3    H2 6636   0.454   1.135  16.987  0.4487 -0.1506 -2.1967
  445TMC3    C7 6637   0.558   1.315  16.816 -0.3321  0.3350 -0.6273
  445TMC3    C8 6638   0.303   1.152  17.194  0.0434 -0.2788 -0.5697
  445TMC3    O1 6639   0.537   1.402  16.730 -0.5587 -0.1549  0.1655
  445TMC3    O2 6640   0.256   1.044  17.161 -0.0169 -0.0590 -0.2827
  446MPD2     C 6641   4.094   2.917  11.129  0.8417 -0.3167 -0.0377
  446MPD2    C1 6642   4.010   3.029  11.146 -0.0818 -0.0640 -0.6419
  446MPD2    C2 6643   4.071   3.150  11.167 -0.5271 -0.1484  0.6542
  446MPD2    C3 6644   4.211   3.164  11.183 -0.2025  0.2175 -0.1464
  446MPD2    C4 6645   4.290   3.053  11.160 -0.3000  0.2312 -0.3845
  446MPD2    C5 6646   4.231   2.929  11.136 -0.3948  0.0023 -0.0282
  446MPD2     H 6647   4.005   3.234  11.184 -1.7684 -1.3116  1.6040
  446MPD2    H1 6648   4.397   3.050  11.140 -0.2746 -1.0681 -0.0142
  446MPD2    H2 6649   4.044   2.825  11.101  0.1278 -0.1705  0.7753
  446MPD2    H3 6650   4.305   2.853  11.117  0.4997  0.5084  1.4224
  446MPD2     N 6651   4.266   3.284  11.212  0.0050  0.0209  0.7868
  446MPD2    H5 6652   4.208   3.367  11.204  0.7478  0.3434 -1.1949
  446MPD2    N1 6653   3.868   3.015  11.146  0.2173 -0.1106 -0.4854
  446MPD2    H7 6654   3.813   3.097  11.123  0.1344 -0.1639 -0.4741
  447TMC3    C1 6655   4.417   3.417  11.327  0.5687 -0.0059 -0.4170
  447TMC3    C2 6656   4.356   3.525  11.262  0.0683  0.6228 -0.3866
  447TMC3    C3 6657   4.426   3.645  11.257 -0.2583  0.4468 -0.2546
  447TMC3    C4 6658   4.529   3.430  11.408  0.3707  0.1834 -0.5073
  447TMC3    C5 6659   4.589   3.553  11.401  0.6077  0.2208 -0.1962
  447TMC3    C6 6660   4.537   3.659  11.327 -0.2561  0.1894 -0.0282
  447TMC3     C 6661   4.381   3.288  11.284  0.4205 -0.4046 -0.0996
  447TMC3     O 6662   4.448   3.199  11.337 -0.2010 -0.1286  0.1151
  447TMC3     H 6663   4.274   3.514  11.191 -1.5192  0.5136  1.4694
  447TMC3    H1 6664   4.558   3.340  11.461 -0.9830  0.7609  1.2201
  447TMC3    H2 6665   4.594   3.752  11.323  0.2921 -0.1803 -0.8007
  447TMC3    C7 6666   0.001   3.574  11.429 -0.0194  0.0747  0.9610
  447TMC3    C8 6667   4.400   3.734  11.144  1.1141 -0.0423  0.1409
  447TMC3    O1 6668   0.062   3.664  11.376  0.0314 -0.5639  0.2872
  447TMC3    O2 6669   4.324   3.691  11.058 -0.3573  0.4089 -0.2432
  448TMC3    C1 6670   1.755   3.205  16.960  0.2666 -0.3122  0.4222
  448TMC3    C2 6671   1.773   3.116  16.859 -0.5529 -0.3579  0.0314
  448TMC3    C3 6672   1.845   3.007  16.886  0.3677 -0.5709 -0.3990
  448TMC3    C4 6673   1.809   3.184  17.086  0.0205  0.0748  0.7286
  448TMC3    C5 6674   1.878   3.068  17.104 -0.3251  0.1308 -0.1905
  448TMC3    C6 6675   1.895   2.975  17.010  0.3002  1.2116  0.0294
  448TMC3     C 6676   1.661   3.322  16.938  0.8119  0.0032 -0.1688
  448TMC3     O 6677   1.657   3.368  16.822 -0.3001 -0.0585  0.5342
  448TMC3     H 6678   1.715   3.133  16.769 -1.2552  3.0050  1.1295
  448TMC3    H1 6679   1.799   3.245  17.176  0.7557 -0.7479  1.3749
  448TMC3    H2 6680   1.931   2.873  17.019 -0.5518  0.6871 -2.3583
  448TMC3    C7 6681   1.913   3.049  17.241 -0.2944 -0.0370 -0.1384
  448TMC3    C8 6682   1.865   2.907  16.775  0.3764 -0.7094 -0.7429
  448TMC3    O1 6683   1.944   3.150  17.307 -0.3151 -0.5884  0.7241
  448TMC3    O2 6684   1.893   2.791  16.805  0.4630  0.1344 -0.1715
  449MPD2     C 6685   3.482   1.099  14.230 -0.3617 -0.3015 -0.6077
  449MPD2    C1 6686   3.370   1.148  14.182 -0.4604 -0.2448 -0.3644
  449MPD2    C2 6687   3.248   1.101  14.224 -0.1867 -0.3957  0.4242
  449MPD2    C3 6688   3.234   1.004  14.321 -0.0538  0.4051 -0.1098
  449MPD2    C4 6689   3.349   0.953  14.371  0.2539  1.0671  0.2196
  449MPD2    C5 6690   3.472   0.997  14.325  0.0100  0.1917 -0.0558
  449MPD2     H 6691   3.159   1.149  14.185  0.3397 -1.8963 -2.5950
  449MPD2    H1 6692   3.359   0.876  14.447 -2.2748  0.2390 -0.2932
  449MPD2    H2 6693   3.580   1.141  14.208  0.1766 -0.9768  0.4862
  449MPD2    H3 6694   3.562   0.949  14.364 -1.3318 -1.9015  0.4844
  449MPD2     N 6695   3.109   0.985  14.380  0.1220 -0.1966  0.3416
  449MPD2    H5 6696   3.031   1.027  14.331  1.7613  0.4907 -1.6918
  449MPD2    N1 6697   3.364   1.255  14.094  0.3901 -0.1968  0.4022
  449MPD2    H7 6698   3.272   1.293  14.073  0.0726 -1.4355 -0.4213
  450TMC3    C1 6699   3.420   1.430  13.959  0.1608  0.4909 -0.7689
  450TMC3    C2 6700   3.478   1.460  13.836 -0.5338  0.1455  0.0635
  450TMC3    C3 6701   3.418   1.555  13.754 -0.6887 -0.5249 -1.0400
  450TMC3    C4 6702   3.309   1.497  13.994  0.7842  0.0234 -0.9350
  450TMC3    C5 6703   3.245   1.586  13.911 -0.2493  0.1357  0.7672
  450TMC3    C6 6704   3.302   1.616  13.789 -0.3813 -0.0728  0.0475
  450TMC3     C 6705   3.470   1.310  14.028  0.3658  0.4309 -0.5777
  450TMC3     O 6706   3.586   1.270  14.013  0.1049 -0.2078  0.0789
  450TMC3     H 6707   3.557   1.392  13.805 -1.0549 -0.9522  1.1390
  450TMC3    H1 6708   3.291   1.501  14.100  0.7354  1.6786 -1.0031
  450TMC3    H2 6709   3.260   1.686  13.718 -0.4945  0.1467  0.3304
  450TMC3    C7 6710   3.111   1.632  13.941  0.7093 -0.0942 -0.3823
  450TMC3    C8 6711   3.467   1.577  13.616 -0.4799 -0.7068  0.3564
  450TMC3    O1 6712   3.063   1.730  13.891 -0.7282  0.1222  0.1310
  450TMC3    O2 6713   3.413   1.666  13.552 -0.1090  0.5057 -0.0649
  451MPD2     C 6714   0.182   0.151   1.515  0.3506  1.1738 -0.1285
  451MPD2    C1 6715   0.214   0.162   1.382  0.0789 -0.4207  0.2442
  451MPD2    C2 6716   0.156   0.084   1.282  0.1102 -0.1610 -0.6923
  451MPD2    C3 6717   0.062   4.723   1.312  0.4985 -0.5868 -0.1442
  451MPD2    C4 6718   0.028   4.711   1.447 -0.0196 -0.1051  0.1077
  451MPD2    C5 6719   0.085   0.062   1.555  0.3113 -0.9239 -0.4422
  451MPD2     H 6720   0.183   0.085   1.177  1.4176 -0.3965 -0.3523
  451MPD2    H1 6721   4.679   4.641   1.481 -1.3110 -0.1759 -2.8892
  451MPD2    H2 6722   0.230   0.211   1.590 -0.9444 -0.0113  1.6471
  451MPD2    H3 6723   0.053   0.038   1.656  0.1734 -0.0662 -0.2820
  451MPD2     N 6724   4.722   4.643   1.221  0.2620  0.5309  0.3958
  451MPD2    H5 6725   4.648   4.586   1.262 -0.1665  0.9543  0.2162
  451MPD2    N1 6726   0.310   0.264   1.354 -0.5579  0.7282 -0.3641
  451MPD2    H7 6727   0.332   0.333   1.425  1.8828  0.0385 -0.4289
  452TMC3    C1 6728   4.656   4.523   1.020  0.5142 -0.0965  1.0463
  452TMC3    C2 6729   4.567   4.442   1.089  0.2719 -0.0952 -0.1831
  452TMC3    C3 6730   4.543   4.316   1.043 -0.3616  0.1654 -0.2897
  452TMC3    C4 6731   4.707   4.477   0.905  0.5455 -0.2719 -0.0439
  452TMC3    C5 6732   4.680   4.348   0.862 -0.1885  0.0350  0.4677
  452TMC3    C6 6733   4.597   4.267   0.930  0.4551 -0.0625  0.9154
  452TMC3     C 6734   0.016   4.626   1.082  0.3922 -0.4076 -0.1296
  452TMC3     O 6735   0.097   4.679   1.004 -0.2446  0.5167 -0.5355
  452TMC3     H 6736   4.518   4.476   1.180 -0.1576  1.9705 -1.1819
  452TMC3    H1 6737   0.057   4.534   0.852 -1.0747  2.3163  0.4629
  452TMC3    H2 6738   4.598   4.159   0.919  0.9224 -0.0472  0.8174
  452TMC3    C7 6739   0.045   4.308   0.756  0.1672  0.4850 -0.5319
  452TMC3    C8 6740   4.463   4.227   1.125 -0.1182  0.4394 -0.0218
  452TMC3    O1 6741   0.060   4.388   0.665  0.1206 -0.2116 -0.2416
  452TMC3    O2 6742   4.469   4.241   1.245 -0.3601 -0.5600  0.0481
  453TMC3    C1 6743   1.609   1.873  11.421 -0.0988  0.2287  1.1146
  453TMC3    C2 6744   1.497   1.828  11.478  0.1287  0.9492  0.0165
  453TMC3    C3 6745   1.383   1.833  11.401 -0.0553 -0.9669  0.1755
  453TMC3    C4 6746   1.613   1.920  11.296 -0.1215  0.4878 -0.5052
  453TMC3    C5 6747   1.499   1.935  11.223  0.6854  0.1578  0.4664
  453TMC3    C6 6748   1.381   1.890  11.276  0.2405  0.4738 -0.4173
  453TMC3     C 6749   1.733   1.883  11.498 -0.0919 -0.5587  0.2383
  453TMC3     O 6750   1.824   1.947  11.445  0.1828  0.6975  0.6008
  453TMC3     H 6751   1.493   1.806  11.585 -1.8525  0.9606 -0.0603
  453TMC3    H1 6752   1.700   1.975  11.262  1.5367 -1.5629  0.4264
  453TMC3    H2 6753   1.283   1.893  11.231  0.8884 -0.4991 -1.9051
  453TMC3    C7 6754   1.508   2.003  11.097  0.3155  0.1651 -0.0710
  453TMC3    C8 6755   1.262   1.773  11.456  0.3988 -0.7166  0.1298
  453TMC3    O1 6756   1.413   2.058  11.039  0.2779  0.6127 -0.1254
  453TMC3    O2 6757   1.163   1.839  11.428  0.6677 -0.3548  0.3868
  454MPD2     C 6758   0.196   1.258  16.718 -0.2798 -0.0020 -0.1452
  454MPD2    C1 6759   0.145   1.387  16.730 -0.2354  0.8805 -0.4843
  454MPD2    C2 6760   0.047   1.406  16.825 -0.4581 -0.1587  0.2440
  454MPD2    C3 6761   4.709   1.300  16.883 -0.7965  0.0329  0.7158
  454MPD2    C4 6762   0.036   1.176  16.866  0.5006 -0.4650  0.2978
  454MPD2    C5 6763   0.144   1.157  16.791 -0.0865  0.2163 -0.5577
  454MPD2     H 6764   0.021   1.510  16.842 -1.1084 -0.5958  1.8767
  454MPD2    H1 6765   4.705   1.090  16.899 -1.2568  1.2931  1.8646
  454MPD2    H2 6766   0.278   1.253  16.647  1.9448  3.8945  2.1507
  454MPD2    H3 6767   0.188   1.060  16.772 -1.0783 -0.5303  0.9562
  454MPD2     N 6768   4.608   1.311  16.986  0.7850  0.6735  0.2994
  454MPD2    H5 6769   4.589   1.227  17.039 -0.0592  0.7740  0.1627
  454MPD2    N1 6770   0.185   1.505  16.653 -0.3035 -0.5932 -0.3808
  454MPD2    H7 6771   0.157   1.596  16.686 -2.2749 -1.4192  0.2318
  455TMC3    C1 6772   4.505   1.530  16.929  0.7661 -0.1700  0.5009
  455TMC3    C2 6773   4.486   1.660  16.978 -0.2259 -0.0032  0.3848
  455TMC3    C3 6774   4.436   1.752  16.888 -0.2919  0.0425  0.6931
  455TMC3    C4 6775   4.466   1.496  16.803 -0.0461 -0.5310 -0.5416
  455TMC3    C5 6776   4.426   1.599  16.716 -0.5955 -0.2771  0.3078
  455TMC3    C6 6777   4.406   1.728  16.753  0.0248  0.3569  0.4313
  455TMC3     C 6778   4.538   1.427  17.027 -0.5910  0.0277  0.4703
  455TMC3     O 6779   4.496   1.443  17.142 -0.9981 -0.3268  0.5065
  455TMC3     H 6780   4.535   1.690  17.070 -1.5106 -1.0469  1.3914
  455TMC3    H1 6781   4.480   1.395  16.766  1.7681  0.5406 -2.8181
  455TMC3    H2 6782   4.378   1.808  16.687 -2.0822 -1.1731 -0.5314
  455TMC3    C7 6783   4.419   1.570  16.577 -0.3681 -0.7104  0.8023
  455TMC3    C8 6784   4.456   1.890  16.916  0.1178  0.3805  0.7572
  455TMC3    O1 6785   4.472   1.475  16.522  0.0775 -0.0658 -0.0918
  455TMC3    O2 6786   4.573   1.923  16.906 -0.5397  0.3612 -0.3500
  456MPD2     C 6787   2.734   2.189  15.946 -0.4123  0.4455  0.0655
  456MPD2    C1 6788   2.730   2.101  16.047 -0.0621  0.4725  0.4050
  456MPD2    C2 6789   2.620   2.117  16.136 -0.2168  0.6145 -0.5995
  456MPD2    C3 6790   2.516   2.205  16.105  0.1947  0.1594 -0.0606
  456MPD2    C4 6791   2.524   2.293  16.000 -0.4100 -0.1957 -0.6055
  456MPD2    C5 6792   2.636   2.282  15.915  0.3781 -0.6068  0.8369
  456MPD2     H 6793   2.605   2.056  16.224 -2.5721  0.3936 -1.1715
  456MPD2    H1 6794   2.451   2.370  15.981 -1.8092 -1.8869 -2.0193
  456MPD2    H2 6795   2.819   2.189  15.878 -0.1768  0.0882  0.3631
  456MPD2    H3 6796   2.637   2.353  15.833 -0.6068 -0.8070  0.6602
  456MPD2     N 6797   2.425   2.230  16.206 -0.8716 -0.1135  0.3042
  456MPD2    H5 6798   2.422   2.162  16.282 -0.5163 -1.8822 -1.2750
  456MPD2    N1 6799   2.832   2.009  16.074 -0.2286  0.2853  0.0745
  456MPD2    H7 6800   2.898   2.004  15.996 -1.2203  0.1547 -0.7576
  457TMC3    C1 6801   2.231   2.314  16.317  0.3142  0.6989  0.0653
  457TMC3    C2 6802   2.096   2.359  16.299  0.3424  0.1560 -0.0020
  457TMC3    C3 6803   2.024   2.363  16.414 -0.0497  0.2875 -0.1512
  457TMC3    C4 6804   2.273   2.255  16.433 -0.3911 -0.7674 -0.3734
  457TMC3    C5 6805   2.178   2.233  16.529  0.9394 -0.3827  0.8443
  457TMC3    C6 6806   2.051   2.292  16.526  0.6657 -0.2924  0.3027
  457TMC3     C 6807   2.317   2.323  16.202 -0.7599  0.7317  0.1984
  457TMC3     O 6808   2.275   2.387  16.106 -0.1162 -0.1642 -0.7908
  457TMC3     H 6809   2.074   2.425  16.215 -0.7895  1.1189  1.0379
  457TMC3    H1 6810   2.379   2.250  16.456 -0.0106 -1.2621 -2.2519
  457TMC3    H2 6811   1.968   2.281  16.594 -1.1406  2.0164 -1.5075
  457TMC3    C7 6812   2.231   2.226  16.664 -0.3659  0.2559 -0.2061
  457TMC3    C8 6813   1.968   2.492  16.462  0.2761  0.0946  0.4394
  457TMC3    O1 6814   2.340   2.178  16.692  0.1278  0.3216  0.1412
  457TMC3    O2 6815   1.975   2.509  16.581  0.1072  0.0209 -0.0260
  458MPD2     C 6816   0.242   1.588  12.513 -0.6479  0.1132  0.4592
  458MPD2    C1 6817   0.250   1.501  12.616  0.8317  0.5504  0.0637
  458MPD2    C2 6818   0.139   1.423  12.643  0.0563 -0.1661  0.0431
  458MPD2    C3 6819   0.023   1.425  12.560  0.4332  0.2225  0.5170
  458MPD2    C4 6820   0.026   1.500  12.442  0.7807  1.0099 -0.1557
  458MPD2    C5 6821   0.136   1.585  12.428  0.6206  0.5525  0.3913
  458MPD2     H 6822   0.128   1.363  12.732 -1.5128  0.4096  0.2415
  458MPD2    H1 6823   4.676   1.502  12.364  2.6618 -0.4371 -1.9991
  458MPD2    H2 6824   0.315   1.666  12.497  0.1469 -0.4509  1.3257
  458MPD2    H3 6825   0.142   1.653  12.344 -0.1671 -1.0174 -0.9409
  458MPD2     N 6826   4.650   1.334  12.597  0.0313  0.4956 -0.8825
  458MPD2    H5 6827   4.671   1.269  12.672  1.1872  1.4088 -0.4251
  458MPD2    N1 6828   0.367   1.505  12.694 -0.2734 -0.0569  0.2677
  458MPD2    H7 6829   0.434   1.575  12.664 -1.7398  1.5289  0.7637
  459TMC3    C1 6830   0.496   1.456  12.885  0.1337  0.3207 -0.6182
  459TMC3    C2 6831   0.607   1.501  12.830 -0.6842 -0.5134 -0.0585
  459TMC3    C3 6832   0.723   1.482  12.903 -0.3603 -0.3502  0.4588
  459TMC3    C4 6833   0.487   1.387  13.005 -0.6958 -0.6250  0.5053
  459TMC3    C5 6834   0.606   1.367  13.071 -0.4414  0.2802 -0.0653
  459TMC3    C6 6835   0.722   1.405  13.017  0.2631 -0.1662 -0.4440
  459TMC3     C 6836   0.390   1.416  12.794 -0.2487 -0.2739  0.5940
  459TMC3     O 6837   0.324   1.325  12.844  0.0782 -0.7984 -0.5900
  459TMC3     H 6838   0.611   1.527  12.725  0.0225  0.1671  0.1394
  459TMC3    H1 6839   0.388   1.376  13.048 -1.0689  3.0425  0.6302
  459TMC3    H2 6840   0.811   1.377  13.072  0.9921  1.4096 -0.8030
  459TMC3    C7 6841   0.611   1.265  13.175 -0.5534 -0.3310  0.5204
  459TMC3    C8 6842   0.846   1.538  12.856 -0.0834 -0.2945 -0.4026
  459TMC3    O1 6843   0.712   1.193  13.174  0.1860  0.0537  0.1178
  459TMC3    O2 6844   0.939   1.536  12.935 -0.4618 -0.0898 -0.3871
  460MPD2     C 6845   4.553   4.061  11.026 -0.1588  0.1726  0.0824
  460MPD2    C1 6846   4.493   3.931  11.024 -0.1613  0.5380  0.1518
  460MPD2    C2 6847   4.455   3.891  10.899 -0.4395  0.3087  0.1528
  460MPD2    C3 6848   4.456   3.974  10.782 -0.1973  0.2861  0.3402
  460MPD2    C4 6849   4.515   4.098  10.793  0.0621 -0.3143  0.0697
  460MPD2    C5 6850   4.559   4.138  10.916  1.2424 -0.7805 -0.2203
  460MPD2     H 6851   4.405   3.796  10.887 -0.1389  0.2728 -0.7965
  460MPD2    H1 6852   4.508   4.170  10.712 -1.8425 -1.6058 -0.9192
  460MPD2    H2 6853   4.585   4.105  11.120 -0.7535  1.5562 -0.3643
  460MPD2    H3 6854   4.611   4.232  10.929  0.3004 -0.3827  0.6706
  460MPD2     N 6855   4.396   3.935  10.659 -0.8805 -0.1592 -0.4842
  460MPD2    H5 6856   4.378   4.005  10.587 -1.2040 -0.6511 -0.8899
  460MPD2    N1 6857   4.483   3.840  11.138 -0.5113 -0.3019  0.0626
  460MPD2    H7 6858   4.529   3.877  11.220 -0.1584  1.1717 -0.7899
  461TMC3    C1 6859   4.289   3.803  10.500 -0.1853 -0.4186 -0.2232
  461TMC3    C2 6860   4.283   3.690  10.431 -0.1661  0.1883  1.1036
  461TMC3    C3 6861   4.179   3.664  10.352  0.0142  0.2782  0.3865
  461TMC3    C4 6862   4.182   3.890  10.501 -0.9075  0.4652  0.2863
  461TMC3    C5 6863   4.080   3.869  10.413  0.5296  0.0062 -0.5719
  461TMC3    C6 6864   4.082   3.757  10.334  0.0653 -0.2706  0.2157
  461TMC3     C 6865   4.380   3.807  10.618 -0.5885  0.2244  0.6366
  461TMC3     O 6866   4.436   3.708  10.659  0.0957 -0.3632  0.0311
  461TMC3     H 6867   4.363   3.617  10.429 -0.4247 -0.0647  0.0531
  461TMC3    H1 6868   4.169   3.960  10.583 -2.9243 -0.0002  0.3571
  461TMC3    H2 6869   4.012   3.729  10.256  2.2366  0.1295 -1.8614
  461TMC3    C7 6870   3.980   3.979  10.399 -0.4590  0.1576  0.4622
  461TMC3    C8 6871   4.196   3.572  10.238 -0.3585  0.4770 -0.3751
  461TMC3    O1 6872   3.985   4.071  10.483 -0.3788  0.2927  0.3979
  461TMC3    O2 6873   4.310   3.544  10.208 -0.2592 -0.6917  0.0216
  462TMC3    C1 6874   4.417   4.227  17.652  0.4883  0.0521  0.8104
  462TMC3    C2 6875   4.451   4.118  17.583 -0.7570  0.0186 -0.2163
  462TMC3    C3 6876   4.392   3.999  17.610 -0.1427  0.3394 -0.5331
  462TMC3    C4 6877   4.329   4.220   0.059  0.0327 -0.4089 -0.6751
  462TMC3    C5 6878   4.287   4.094   0.096  0.8750 -1.0758 -0.1564
  462TMC3    C6 6879   4.325   3.982   0.023 -0.4211  0.6751  0.2809
  462TMC3     C 6880   4.494   4.348  17.632  0.5354 -0.5538 -0.0166
  462TMC3     O 6881   4.533   4.379  17.521 -0.5059  0.2245 -0.2468
  462TMC3     H 6882   4.532   4.133  17.513  1.8940  0.7939  3.0625
  462TMC3    H1 6883   4.277   4.307   0.099  2.1820 -0.2446  1.7869
  462TMC3    H2 6884   4.281   3.884   0.032  0.0618  0.2762 -1.5959
  462TMC3    C7 6885   4.183   4.067   0.196  0.4146  0.1896  0.5048
  462TMC3    C8 6886   4.413   3.885  17.521  0.4373  0.1211  0.6183
  462TMC3    O1 6887   4.169   3.950   0.226  0.0628  0.0584  0.6001
  462TMC3    O2 6888   4.353   3.785  17.552  0.3173  0.9170  0.1669
  463MPD2     C 6889   4.094   3.492   1.795  0.7677 -0.1943  0.2870
  463MPD2    C1 6890   4.063   3.457   1.667 -0.3885  0.3289 -0.1680
  463MPD2    C2 6891   4.123   3.519   1.558  0.3707 -0.2231 -0.0035
  463MPD2    C3 6892   4.220   3.619   1.581  0.2324 -0.3312 -0.3051
  463MPD2    C4 6893   4.254   3.650   1.716 -0.7460  0.2168  0.5615
  463MPD2    C5 6894   4.193   3.589   1.817 -0.5209  0.4710 -0.2460
  463MPD2     H 6895   4.093   3.493   1.457  0.8352  1.3922 -0.5583
  463MPD2    H1 6896   4.330   3.725   1.736  1.4554 -1.8383 -0.0923
  463MPD2    H2 6897   4.043   3.448   1.880  0.1634  0.5473  0.3190
  463MPD2    H3 6898   4.222   3.613   1.919  0.0602 -3.4418  0.5332
  463MPD2     N 6899   4.295   3.675   1.482 -0.6514  0.5920 -0.4783
  463MPD2    H5 6900   4.369   3.739   1.512  0.1451  1.0389 -3.4227
  463MPD2    N1 6901   3.955   3.367   1.642  0.1360  1.1565 -0.6238
  463MPD2    H7 6902   3.941   3.352   1.542 -1.6244  1.2564 -0.3899
  464TMC3    C1 6903   3.813   3.181   1.677  0.3948 -0.6644  0.1405
  464TMC3    C2 6904   3.779   3.164   1.546  0.3409 -0.2190 -0.6347
  464TMC3    C3 6905   3.724   3.046   1.511  0.0479 -0.2390 -0.5540
  464TMC3    C4 6906   3.786   3.078   1.763  0.0043 -0.0202 -0.1491
  464TMC3    C5 6907   3.723   2.963   1.720  0.1329  0.6329  0.5528
  464TMC3    C6 6908   3.701   2.934   1.590  0.0954  0.4975 -0.4660
  464TMC3     C 6909   3.881   3.297   1.730 -0.1240  0.1680  0.3573
  464TMC3     O 6910   3.880   3.305   1.851 -0.3676  0.0139  0.1057
  464TMC3     H 6911   3.799   3.243   1.475  0.5419  1.6537  1.5040
  464TMC3    H1 6912   3.803   3.089   1.870  1.4475 -1.2221 -0.2608
  464TMC3    H2 6913   3.668   2.838   1.553  0.5946 -0.3575  1.3664
  464TMC3    C7 6914   3.690   2.863   1.816 -0.7942  0.3417  0.0516
  464TMC3    C8 6915   3.673   3.037   1.373  0.0556  0.5801 -0.3460
  464TMC3    O1 6916   3.680   2.901   1.930 -0.3970  0.7296 -0.1213
  464TMC3    O2 6917   3.717   3.115   1.288 -0.4696  0.2089  0.3187
  465MPD2     C 6918   1.737   1.374  16.741  0.9998 -0.6348 -0.1708
  465MPD2    C1 6919   1.635   1.434  16.808 -0.0364 -0.8082 -0.8711
  465MPD2    C2 6920   1.568   1.537  16.745  0.5813 -0.8581 -0.4865
  465MPD2    C3 6921   1.595   1.569  16.616  0.1634 -0.4468 -0.2778
  465MPD2    C4 6922   1.698   1.506  16.553 -0.2980 -1.0134 -0.6121
  465MPD2    C5 6923   1.771   1.406  16.614 -0.5751  0.9948  0.4726
  465MPD2     H 6924   1.495   1.604  16.790  0.9701 -1.6993  1.3962
  465MPD2    H1 6925   1.723   1.527  16.449 -0.2779 -1.0989 -0.6245
  465MPD2    H2 6926   1.785   1.288  16.787 -0.0953 -1.1712 -0.0166
  465MPD2    H3 6927   1.849   1.353  16.559 -1.5533 -0.2467  0.2763
  465MPD2     N 6928   1.514   1.675  16.562 -0.2466  0.3430 -0.0646
  465MPD2    H5 6929   1.460   1.724  16.632 -1.3050  0.6897 -1.1185
  465MPD2    N1 6930   1.599   1.404  16.941 -0.1622  0.4870  0.4094
  465MPD2    H7 6931   1.541   1.473  16.987  1.7718  1.5185  1.3015
  466TMC3    C1 6932   1.177   1.865  16.459  0.0836 -0.4958  0.1617
  466TMC3    C2 6933   1.176   1.979  16.380 -0.4442 -0.2244  0.2152
  466TMC3    C3 6934   1.294   2.001  16.320 -0.9094  0.0811  0.9429
  466TMC3    C4 6935   1.282   1.781  16.479 -1.0733  0.3631 -0.4041
  466TMC3    C5 6936   1.397   1.800  16.412  0.0832 -1.1618 -0.5794
  466TMC3    C6 6937   1.399   1.904  16.321  0.1454  0.1042  0.3240
  466TMC3     C 6938   1.080   1.857  16.564  0.3505 -1.0400 -0.2030
  466TMC3     O 6939   1.117   1.810  16.671 -0.0286 -0.4897 -0.3663
  466TMC3     H 6940   1.094   2.049  16.373 -0.6900 -0.3903  1.4695
  466TMC3    H1 6941   1.269   1.695  16.544 -2.2628  2.3453  1.9671
  466TMC3    H2 6942   1.482   1.922  16.253 -0.3353  0.1788 -0.2458
  466TMC3    C7 6943   1.506   1.712  16.426 -0.6006 -0.7420 -0.2086
  466TMC3    C8 6944   1.306   2.136  16.284  0.1624  1.0501  0.3929
  466TMC3    O1 6945   1.596   1.701  16.340 -0.5907 -0.0593  0.0711
  466TMC3    O2 6946   1.353   2.146  16.175  0.2945  0.7355  0.1043
  467TMC3    C1 6947   2.617   0.639  13.475 -0.2789  0.4304 -0.5136
  467TMC3    C2 6948   2.632   0.713  13.586  0.2990  0.0552 -0.4049
  467TMC3    C3 6949   2.555   0.685  13.699  0.5911  0.0069  0.1927
  467TMC3    C4 6950   2.528   0.539  13.472 -0.6677  0.4524  0.2703
  467TMC3    C5 6951   2.440   0.526  13.575 -0.6855 -0.4003 -0.4271
  467TMC3    C6 6952   2.453   0.593  13.690 -0.5458 -0.2638 -0.1701
  467TMC3     C 6953   2.747   0.609  13.430 -0.4130 -0.1737 -0.1734
  467TMC3     O 6954   2.810   0.712  13.403  0.1099  0.7119 -0.3455
  467TMC3     H 6955   2.714   0.782  13.597  1.7648 -1.8757  0.7951
  467TMC3    H1 6956   2.518   0.472  13.387  1.6015 -0.4402  0.7193
  467TMC3    H2 6957   2.386   0.590  13.776 -0.5614  0.5799 -0.1518
  467TMC3    C7 6958   2.311   0.476  13.538 -0.0856  0.0130  0.2292
  467TMC3    C8 6959   2.598   0.746  13.826 -0.0819  0.6105  0.2452
  467TMC3    O1 6960   2.276   0.500  13.423  0.3414 -0.1540 -0.1569
  467TMC3    O2 6961   2.693   0.819  13.830 -0.2777 -0.4886  0.4977
  468MPD2     C 6962   1.238   2.914  10.738 -0.0463  0.6183  0.1095
  468MPD2    C1 6963   1.374   2.950  10.742 -0.0700 -0.4987  0.0229
  468MPD2    C2 6964   1.463   2.857  10.788 -0.1581 -0.2131  1.2381
  468MPD2    C3 6965   1.430   2.726  10.819 -0.2282 -0.4649  0.5598
  468MPD2    C4 6966   1.300   2.691  10.794 -0.5139  0.5709 -0.4656
  468MPD2    C5 6967   1.201   2.784  10.766  0.6185  0.3192 -0.8501
  468MPD2     H 6968   1.567   2.887  10.790  0.3060 -1.7099 -0.1038
  468MPD2    H1 6969   1.266   2.591  10.818  0.1186  0.3026 -0.6989
  468MPD2    H2 6970   1.161   2.988  10.717  0.9756  1.9448  1.0556
  468MPD2    H3 6971   1.099   2.749  10.774  0.8368 -0.3459 -0.9791
  468MPD2     N 6972   1.520   2.624  10.858 -0.2193  0.5082 -0.0522
  468MPD2    H5 6973   1.482   2.530  10.870  0.5649  0.1304 -0.4912
  468MPD2    N1 6974   1.430   3.070  10.693 -0.4810 -0.1548 -0.4174
  468MPD2    H7 6975   1.527   3.078  10.724 -0.9243 -1.8727  1.4271
  469TMC3    C1 6976   1.449   3.290  10.604 -0.0359  0.2319 -0.5067
  469TMC3    C2 6977   1.582   3.256  10.585 -0.5179 -0.7995  0.5279
  469TMC3    C3 6978   1.676   3.350  10.590  0.3081 -0.1881  0.3180
  469TMC3    C4 6979   1.408   3.419  10.635  0.0227 -0.2654 -0.0730
  469TMC3    C5 6980   1.510   3.512  10.651  0.5803  0.6485  0.1210
  469TMC3    C6 6981   1.640   3.478  10.637 -0.4029  0.0354  0.3637
  469TMC3     C 6982   1.365   3.179  10.647  0.6797  0.8315  0.1162
  469TMC3     O 6983   1.245   3.195  10.623  0.1357  0.0059  0.5807
  469TMC3     H 6984   1.607   3.157  10.547 -0.5260 -0.0200 -1.5222
  469TMC3    H1 6985   1.313   3.440  10.683 -0.1985  0.4825 -0.8369
  469TMC3    H2 6986   1.714   3.553  10.664 -1.2189  1.0048 -0.0711
  469TMC3    C7 6987   1.490   3.656  10.687 -0.4154  0.1634 -0.0388
  469TMC3    C8 6988   1.803   3.302  10.658  0.5568 -0.4007 -0.2527
  469TMC3    O1 6989   1.588   3.719  10.723 -0.0106 -0.2053 -0.2251
  469TMC3    O2 6990   1.871   3.214  10.604 -0.0914 -0.3873  0.2897
  470TMC3    C1 6991   3.998   4.188   0.938  0.2628 -0.0940 -0.1838
  470TMC3    C2 6992   4.077   4.287   0.883  0.0190  0.7338 -0.2359
  470TMC3    C3 6993   4.113   4.386   0.969  0.6205 -0.2055  0.5066
  470TMC3    C4 6994   3.965   4.179   1.077 -0.0426 -0.5406 -0.4789
  470TMC3    C5 6995   4.011   4.279   1.158 -0.0343  0.5070 -0.4953
  470TMC3    C6 6996   4.081   4.383   1.105 -0.4138  0.5314  0.0733
  470TMC3     C 6997   3.969   4.069   0.849 -0.1353 -0.6022  0.1693
  470TMC3     O 6998   4.039   4.065   0.748 -0.1856  0.1639 -0.3236
  470TMC3     H 6999   4.097   4.283   0.776 -0.3276  0.2159 -0.2806
  470TMC3    H1 7000   3.919   4.090   1.119  1.0822 -1.1911 -0.6346
  470TMC3    H2 7001   4.126   4.465   1.160 -0.9214 -0.7436  2.3950
  470TMC3    C7 7002   3.996   4.277   1.303  0.3638 -0.6599  0.0525
  470TMC3    C8 7003   4.172   4.507   0.927 -0.5350  0.6248  0.8346
  470TMC3    O1 7004   4.060   4.360   1.361 -0.0529  0.1010 -0.7841
  470TMC3    O2 7005   4.131   4.603   0.981  0.3294 -0.1324  0.5489
  471MPD2     C 7006   3.916   0.598  15.976 -0.5917  0.2406 -0.0698
  471MPD2    C1 7007   3.832   0.496  16.020 -0.4345 -0.5245 -0.3122
  471MPD2    C2 7008   3.842   0.451  16.147  0.2847  1.0195  0.0284
  471MPD2    C3 7009   3.919   0.514  16.245 -0.1698 -0.3294  0.0690
  471MPD2    C4 7010   4.010   0.612  16.201 -0.1598 -0.3918  0.4642
  471MPD2    C5 7011   3.999   0.654  16.068  0.1134 -0.5726 -0.0394
  471MPD2     H 7012   3.787   0.358  16.156  0.2838  1.0704  0.5117
  471MPD2    H1 7013   4.065   0.680  16.265  0.1034 -0.7706  0.6373
  471MPD2    H2 7014   3.904   0.638  15.876  1.5100 -1.2152 -0.9109
  471MPD2    H3 7015   4.059   0.738  16.034 -1.8832  0.9065  0.0834
  471MPD2     N 7016   3.904   0.486  16.379 -0.2611  0.3409  0.1988
  471MPD2    H5 7017   3.985   0.513  16.435  1.8313 -2.7325 -1.3525
  471MPD2    N1 7018   3.737   0.434  15.936  0.1602  0.1703 -0.0045
  471MPD2    H7 7019   3.688   0.351  15.967 -0.7306  1.3559  1.7925
  472TMC3    C1 7020   3.584   0.393  15.761 -0.1109 -0.5539 -0.9977
  472TMC3    C2 7021   3.459   0.446  15.756 -0.1664  0.4016 -0.0222
  472TMC3    C3 7022   3.362   0.374  15.818 -0.1291  0.4309  0.3551
  472TMC3    C4 7023   3.603   0.259  15.796 -0.4113 -0.6902 -0.5016
  472TMC3    C5 7024   3.501   0.192  15.853  0.1788 -0.6032 -0.7360
  472TMC3    C6 7025   3.378   0.247  15.867  0.5779  0.3163  0.1731
  472TMC3     C 7026   3.691   0.479  15.815 -0.6321 -0.1175  0.4372
  472TMC3     O 7027   3.727   0.581  15.756 -0.1226 -0.1866  0.1045
  472TMC3     H 7028   3.453   0.554  15.742 -3.9165  0.6106  3.0069
  472TMC3    H1 7029   3.698   0.207  15.784 -0.0032  0.5088 -2.3596
  472TMC3    H2 7030   3.294   0.188  15.903  0.5929  1.8609  2.7882
  472TMC3    C7 7031   3.529   0.061  15.910  0.1408 -0.6424 -0.3428
  472TMC3    C8 7032   3.233   0.449  15.818  0.4112  0.4864 -0.3897
  472TMC3    O1 7033   3.632   0.008  15.872  0.5705 -0.2685 -0.2774
  472TMC3    O2 7034   3.229   0.560  15.765  0.1486 -0.2743  0.4361
  473MPD2     C 7035   3.908   2.922  13.983 -0.1151  0.1543 -0.1042
  473MPD2    C1 7036   3.802   2.972  14.050  0.1810  1.3647  0.0265
  473MPD2    C2 7037   3.835   3.043  14.167  0.4577 -0.0228  0.6020
  473MPD2    C3 7038   3.964   3.076  14.194 -0.5706 -0.1415 -0.0760
  473MPD2    C4 7039   4.071   3.040  14.115  0.2023 -0.3760  0.0358
  473MPD2    C5 7040   4.039   2.945  14.022 -0.0981  0.4102 -0.8931
  473MPD2     H 7041   3.755   3.089  14.225 -0.4024  0.3439 -0.8919
  473MPD2    H1 7042   4.174   3.068  14.133  0.0198 -1.4274  2.6844
  473MPD2    H2 7043   3.897   2.863  13.892  1.6856  0.4014 -0.4991
  473MPD2    H3 7044   4.118   2.891  13.971 -0.3475 -1.0564  0.3084
  473MPD2     N 7045   3.997   3.167  14.294 -0.0729  0.1374  0.2742
  473MPD2    H5 7046   3.914   3.207  14.338  1.4426  0.5111  2.8213
  473MPD2    N1 7047   3.672   2.954  14.005  0.5614 -0.3630  0.4982
  473MPD2    H7 7048   3.603   3.011  14.053 -1.1341 -1.9992 -0.0210
  474TMC3    C1 7049   4.093   3.325  14.425  0.7399 -0.3850  0.0648
  474TMC3    C2 7050   3.975   3.392  14.411 -0.7736  0.5379 -0.0388
  474TMC3    C3 7051   3.946   3.486  14.499 -0.1587  0.0382 -0.3423
  474TMC3    C4 7052   4.181   3.347  14.527 -0.3164 -0.0667  0.1658
  474TMC3    C5 7053   4.145   3.451  14.614  1.0501  0.2927  0.2584
  474TMC3    C6 7054   4.035   3.518  14.597 -0.6421  0.6747  0.3564
  474TMC3     C 7055   4.119   3.205  14.349  0.2693  0.7836 -0.3058
  474TMC3     O 7056   4.230   3.150  14.347 -0.0607 -0.0058  0.4474
  474TMC3     H 7057   3.907   3.374  14.328 -0.5062 -0.2669 -0.0864
  474TMC3    H1 7058   4.275   3.292  14.524  0.0909  0.6330 -0.2640
  474TMC3    H2 7059   4.025   3.614  14.647 -3.8094 -0.1235  1.2513
  474TMC3    C7 7060   4.258   3.518  14.682  0.0795 -0.3103 -0.0846
  474TMC3    C8 7061   3.831   3.570  14.461  0.0753  0.1762  0.4977
  474TMC3    O1 7062   4.363   3.469  14.641  0.1099 -0.0058  0.2828
  474TMC3    O2 7063   3.735   3.510  14.420  0.2327  0.6740  0.4678
  475MPD2     C 7064   2.182   1.006  10.797  0.2710  0.5160  0.1453
  475MPD2    C1 7065   2.229   1.139  10.768 -0.0389 -0.3550  0.0956
  475MPD2    C2 7066   2.146   1.231  10.706  1.0330  0.7657  0.6174
  475MPD2    C3 7067   2.025   1.184  10.651 -0.1672 -0.0825  0.3467
  475MPD2    C4 7068   1.984   1.054  10.671  0.2489 -0.0212  0.1857
  475MPD2    C5 7069   2.052   0.978  10.759  0.0539  0.0747  0.6044
  475MPD2     H 7070   2.171   1.335  10.688  0.4389  0.8521  0.3159
  475MPD2    H1 7071   1.885   1.017  10.647  0.0657  0.9894 -0.6231
  475MPD2    H2 7072   2.243   0.939  10.856  0.5374  0.0320 -0.6816
  475MPD2    H3 7073   2.002   0.888  10.793 -1.4326  0.2431 -1.1444
  475MPD2     N 7074   1.944   1.272  10.581  0.1589  0.1078 -0.0320
  475MPD2    H5 7075   1.989   1.357  10.551 -0.4585  1.1038  1.8592
  475MPD2    N1 7076   2.358   1.172  10.793 -0.0019 -0.0806  0.0757
  475MPD2    H7 7077   2.416   1.090  10.810 -0.2732 -0.6501 -1.6843
  476TMC3    C1 7078   2.535   1.284  10.744  0.2587  0.0137  0.7870
  476TMC3    C2 7079   2.540   1.218  10.619 -0.4139 -0.2162  0.6222
  476TMC3    C3 7080   2.615   1.285  10.522  0.2545  0.7636  0.9334
  476TMC3    C4 7081   2.613   1.390  10.772 -0.9490 -0.6568  0.4699
  476TMC3    C5 7082   2.685   1.452  10.676  0.7888 -0.2308  0.5297
  476TMC3    C6 7083   2.690   1.392  10.553  0.3729 -0.2431  0.5389
  476TMC3     C 7084   2.409   1.296  10.793 -0.5700  0.0062 -0.5097
  476TMC3     O 7085   2.362   1.414  10.800  0.1603 -0.2146  0.0301
  476TMC3     H 7086   2.475   1.133  10.601  0.4570 -0.6233 -0.6066
  476TMC3    H1 7087   2.589   1.448  10.860 -0.5516  2.8309 -1.6982
  476TMC3    H2 7088   2.753   1.438  10.478 -1.8154 -0.9871 -1.7643
  476TMC3    C7 7089   2.805   1.518  10.701 -0.3365  0.5011 -0.6447
  476TMC3    C8 7090   2.537   1.314  10.410 -1.0841  0.2135 -0.3980
  476TMC3    O1 7091   2.904   1.486  10.633 -0.5922 -0.0171  0.2774
  476TMC3    O2 7092   2.562   1.419  10.348 -0.5862  0.1609  0.6482
  477MPD2     C 7093   0.304   3.033  11.826 -0.5535 -0.5612 -0.0310
  477MPD2    C1 7094   0.254   2.913  11.788  0.3053  0.8290  0.1426
  477MPD2    C2 7095   0.256   2.805  11.882  0.5241 -0.1707  0.1168
  477MPD2    C3 7096   0.286   2.836  12.013 -0.1650  0.2253 -0.3320
  477MPD2    C4 7097   0.328   2.965  12.046 -0.3601  0.1958 -0.4827
  477MPD2    C5 7098   0.348   3.057  11.954  0.0596 -0.7113 -0.1246
  477MPD2     H 7099   0.226   2.704  11.860  1.0099 -0.6109  1.4655
  477MPD2    H1 7100   0.342   3.001  12.147 -0.6635  0.4930 -0.5440
  477MPD2    H2 7101   0.315   3.113  11.754 -0.4259  0.3008  0.9402
  477MPD2    H3 7102   0.378   3.158  11.979  0.6257 -0.2740 -2.5582
  477MPD2     N 7103   0.269   2.737  12.108  1.0117 -0.0632 -0.2199
  477MPD2    H5 7104   0.259   2.641  12.077  0.5208 -0.6386  1.7268
  477MPD2    N1 7105   0.206   2.895  11.653 -0.3086 -0.1428 -0.5723
  477MPD2    H7 7106   0.193   2.978  11.595  0.9980  0.6710  0.3011
  478TMC3    C1 7107   0.073   2.807  11.468 -0.0535 -0.2404 -0.6545
  478TMC3    C2 7108   4.663   2.766  11.480 -0.0377 -0.7147 -0.5442
  478TMC3    C3 7109   4.575   2.846  11.415 -0.0969 -0.3027 -0.8242
  478TMC3    C4 7110   0.109   2.909  11.387 -0.3692 -0.0500  0.3062
  478TMC3    C5 7111   0.018   2.977  11.317  0.1379  0.1471 -0.2998
  478TMC3    C6 7112   4.611   2.944  11.327 -0.7022 -0.3236  0.1413
  478TMC3     C 7113   0.140   2.781  11.601 -0.8238 -0.6776 -0.2685
  478TMC3     O 7114   0.098   2.682  11.661  0.1415  0.1143 -0.1073
  478TMC3     H 7115   4.644   2.682  11.545 -1.2558 -0.3667 -0.4556
  478TMC3    H1 7116   0.211   2.942  11.375  0.3678 -2.2213  0.6484
  478TMC3    H2 7117   4.536   2.992  11.265 -1.1547 -1.5249 -0.2324
  478TMC3    C7 7118   0.063   3.100  11.249 -0.4585 -0.2077  0.0775
  478TMC3    C8 7119   4.463   2.865  11.499 -0.5871  0.3100  0.4955
  478TMC3    O1 7120   0.172   3.146  11.282 -0.2900 -0.7104  0.3767
  478TMC3    O2 7121   4.415   2.771  11.561  0.1080 -0.2417  0.4583
  479MPD2     C 7122   3.613   0.267  14.808  1.0294  0.5402 -0.1305
  479MPD2    C1 7123   3.570   0.180  14.906 -0.7962  0.1224  0.7930
  479MPD2    C2 7124   3.617   0.202  15.037 -0.2901 -0.5415 -0.8095
  479MPD2    C3 7125   3.684   0.319  15.060 -0.3555 -0.1921  0.2373
  479MPD2    C4 7126   3.734   0.400  14.959  0.2576  0.0386  0.2780
  479MPD2    C5 7127   3.696   0.371  14.832 -0.1104 -0.1287  0.1602
  479MPD2     H 7128   3.585   0.136  15.117  0.0539 -1.2309 -1.2376
  479MPD2    H1 7129   3.798   0.484  14.985  2.2065 -1.3606 -0.0013
  479MPD2    H2 7130   3.578   0.261  14.706  0.3243 -1.8293  0.2316
  479MPD2    H3 7131   3.717   0.439  14.750  1.6506  0.0873  0.7957
  479MPD2     N 7132   3.712   0.355  15.193 -0.8122  0.7950 -0.1325
  479MPD2    H5 7133   3.781   0.428  15.206  0.0637  0.3187 -2.1727
  479MPD2    N1 7134   3.478   0.077  14.870  0.2749 -0.6750 -0.4202
  479MPD2    H7 7135   3.435   0.100  14.781 -0.5279  1.3530  0.4839
  480TMC3    C1 7136   3.355   0.148  15.441  0.1492  0.1873 -0.4364
  480TMC3    C2 7137   3.260   0.179  15.351 -0.0608  0.4230  0.8232
  480TMC3    C3 7138   3.297   0.253  15.245  0.9442  0.1850 -0.1672
  480TMC3    C4 7139   3.483   0.177  15.430 -0.1212 -0.1977 -0.9003
  480TMC3    C5 7140   3.520   0.251  15.319 -0.1198 -0.3373 -0.6332
  480TMC3    C6 7141   3.426   0.297  15.237 -1.4507  0.2469  0.6516
  480TMC3     C 7142   3.312   0.086  15.564  0.0368 -0.0607  0.4564
  480TMC3     O 7143   3.388   0.029  15.645 -0.3313 -0.6426  0.1797
  480TMC3     H 7144   3.164   0.129  15.356 -0.1037  0.5605  1.3769
  480TMC3    H1 7145   3.558   0.134  15.496  0.9552  0.5062 -1.6626
  480TMC3    H2 7146   3.441   0.387  15.177 -0.4722  0.3763  1.0807
  480TMC3    C7 7147   3.656   0.312  15.317  0.3500  0.2156  0.0675
  480TMC3    C8 7148   3.219   0.248  15.120  0.6781 -0.0270  0.0669
  480TMC3    O1 7149   3.708   0.334  15.428  0.3051  0.0776 -0.3511
  480TMC3    O2 7150   3.117   0.184  15.127  0.1196 -0.1566 -0.0954
  481MPD2     C 7151   0.338   4.608  14.242  0.4094  0.2993 -0.2300
  481MPD2    C1 7152   0.234   4.532  14.283  0.5219  0.1485  0.0538
  481MPD2    C2 7153   0.177   4.558  14.404 -0.2081  0.2486 -0.3348
  481MPD2    C3 7154   0.231   4.658  14.492  0.2583 -0.1102 -0.3825
  481MPD2    C4 7155   0.343   4.715  14.454  0.3254  0.3637  0.9098
  481MPD2    C5 7156   0.391   4.700  14.325  1.2379 -0.1494  0.2734
  481MPD2     H 7157   0.084   4.506  14.421  0.0519 -0.2973 -0.5838
  481MPD2    H1 7158   0.393   0.065  14.513  0.2188  1.1352  0.0153
  481MPD2    H2 7159   0.383   4.595  14.145  1.3864  0.0333  0.2558
  481MPD2    H3 7160   0.483   0.027  14.300  0.7103  0.5920 -0.1037
  481MPD2     N 7161   0.178   4.698  14.617 -0.0326 -0.1145 -0.5325
  481MPD2    H5 7162   0.226   0.054  14.655 -0.8520  0.0607  0.1195
  481MPD2    N1 7163   0.176   4.450  14.186  0.2782  0.1247  0.0099
  481MPD2    H7 7164   0.215   4.464  14.094 -0.4242 -1.2540 -0.4870
  482TMC3    C1 7165   0.024   4.267  14.110 -0.5388  0.0741  0.1765
  482TMC3    C2 7166   4.679   4.160  14.153 -0.2720 -0.2723 -0.1580
  482TMC3    C3 7167   4.545   4.145  14.119  0.4972  0.1240 -0.2292
  482TMC3    C4 7168   4.694   4.356  14.015  0.1659  0.3433 -0.4273
  482TMC3    C5 7169   4.564   4.336  13.972  0.1068  0.7306 -0.3650
  482TMC3    C6 7170   4.489   4.238  14.030 -0.1341  0.4620 -0.1425
  482TMC3     C 7171   0.112   4.324  14.212  0.3651  0.0099  0.4168
  482TMC3     O 7172   0.107   4.264  14.317 -0.2953  0.2593  0.0402
  482TMC3     H 7173   4.717   4.083  14.220 -1.2431  0.5610  1.3750
  482TMC3    H1 7174   0.034   4.428  13.967 -0.1026  1.2770  0.5949
  482TMC3    H2 7175   4.390   4.219  13.992 -0.5462 -0.3319  1.3501
  482TMC3    C7 7176   4.541   4.346  13.825  0.5418 -0.2945  0.0493
  482TMC3    C8 7177   4.485   4.017  14.139 -0.2329  0.3403 -0.2697
  482TMC3    O1 7178   4.474   4.255  13.777  0.2867  0.5325 -0.2617
  482TMC3    O2 7179   4.558   3.925  14.166 -0.0862  0.0461 -0.5151
  483TMC3    C1 7180   2.344   3.384   0.295  1.0030 -0.3660  0.5094
  483TMC3    C2 7181   2.447   3.471   0.334 -0.0113 -0.0693 -0.2554
  483TMC3    C3 7182   2.507   3.461   0.457  0.3850  0.0194 -0.4000
  483TMC3    C4 7183   2.295   3.289   0.387 -0.2161 -0.2623  0.0649
  483TMC3    C5 7184   2.354   3.295   0.515  0.6099 -0.6495 -0.5881
  483TMC3    C6 7185   2.456   3.377   0.550  0.2326  0.5584 -0.0382
  483TMC3     C 7186   2.337   3.354   0.154 -0.0237  0.4289  0.4392
  483TMC3     O 7187   2.341   3.449   0.078 -0.9762 -0.0395 -0.8224
  483TMC3     H 7188   2.491   3.538   0.260 -2.2973  2.1312  0.4028
  483TMC3    H1 7189   2.209   3.226   0.369 -0.8981  0.6489  0.1125
  483TMC3    H2 7190   2.487   3.373   0.654  0.6000  1.3843 -0.1146
  483TMC3    C7 7191   2.323   3.187   0.617 -0.3315  0.0426  0.7223
  483TMC3    C8 7192   2.626   3.544   0.483 -0.4096  0.0460 -0.8800
  483TMC3    O1 7193   2.206   3.146   0.630 -0.8140  0.0726  0.2892
  483TMC3    O2 7194   2.684   3.586   0.386  0.6718 -0.3211  0.5422
  484MPD2     C 7195   0.934   1.732  12.561 -0.0144 -0.1237  0.4542
  484MPD2    C1 7196   0.961   1.661  12.674 -0.2640 -0.2937  0.0605
  484MPD2    C2 7197   1.081   1.689  12.743  0.3843  0.4973  0.0561
  484MPD2    C3 7198   1.172   1.781  12.686  0.4870  0.0916 -0.4121
  484MPD2    C4 7199   1.144   1.847  12.573 -0.3994 -0.4301 -0.1286
  484MPD2    C5 7200   1.024   1.814  12.507  0.0980  0.0044  0.2127
  484MPD2     H 7201   1.099   1.644  12.840 -1.7111  0.4446  0.4156
  484MPD2    H1 7202   1.212   1.920  12.530 -1.6102  0.6626 -0.1657
  484MPD2    H2 7203   0.840   1.727  12.507  0.9911 -2.1469 -1.0824
  484MPD2    H3 7204   0.997   1.871  12.419  2.0420  0.0476 -0.3705
  484MPD2     N 7205   1.299   1.812  12.738 -0.0443 -0.4493  0.8453
  484MPD2    H5 7206   1.349   1.884  12.687  1.4673 -2.0325  0.1185
  484MPD2    N1 7207   0.849   1.599  12.735 -0.1539 -0.2293 -0.2135
  484MPD2    H7 7208   0.762   1.600  12.683  0.6475  2.5588 -1.4640
  485TMC3    C1 7209   1.496   1.809  12.870  0.3076 -0.1988  0.1311
  485TMC3    C2 7210   1.559   1.767  12.987 -0.0630 -0.3111  0.2821
  485TMC3    C3 7211   1.694   1.792  12.996 -0.2449 -0.0057  0.0989
  485TMC3    C4 7212   1.567   1.874  12.767 -0.0421  0.0957 -0.0676
  485TMC3    C5 7213   1.694   1.907  12.786 -0.0687  0.1601 -0.5039
  485TMC3    C6 7214   1.757   1.870  12.904  0.1252 -0.2536 -1.3327
  485TMC3     C 7215   1.357   1.765  12.851  0.1789 -0.4860 -0.9725
  485TMC3     O 7216   1.315   1.681  12.933  0.8322  0.2924 -0.2373
  485TMC3     H 7217   1.503   1.713  13.063  0.7016 -0.6453  0.6155
  485TMC3    H1 7218   1.515   1.924  12.686 -1.2562 -0.1269  0.5652
  485TMC3    H2 7219   1.857   1.910  12.916  0.8657 -2.3978 -0.4808
  485TMC3    C7 7220   1.781   1.864  12.674  0.0056  0.1916 -0.3864
  485TMC3    C8 7221   1.777   1.685  13.040 -0.5851  0.1842 -0.1472
  485TMC3    O1 7222   1.896   1.825  12.701  0.5773 -0.6300 -0.6925
  485TMC3    O2 7223   1.890   1.688  12.993  0.0793 -0.5911 -0.0247
  486MPD2     C 7224   3.255   0.534  12.937  0.6986  0.5356 -0.1966
  486MPD2    C1 7225   3.132   0.517  12.883 -0.8019  0.3123 -0.0471
  486MPD2    C2 7226   3.047   0.628  12.885  0.5161 -0.0131  0.2494
  486MPD2    C3 7227   3.077   0.754  12.921  0.4015  0.2243 -0.2160
  486MPD2    C4 7228   3.202   0.771  12.986  0.2714  0.9191  0.8565
  486MPD2    C5 7229   3.285   0.657  12.992 -0.2382  0.2057  0.1252
  486MPD2     H 7230   2.947   0.609  12.847  0.6290 -0.2754  0.0841
  486MPD2    H1 7231   3.242   0.865  13.022  0.1753  1.6841 -1.0641
  486MPD2    H2 7232   3.336   0.462  12.940  1.1883  1.1332  0.8920
  486MPD2    H3 7233   3.382   0.672  13.038 -0.2513 -1.7865  0.7672
  486MPD2     N 7234   2.992   0.858  12.896  0.7246 -0.1208 -0.0293
  486MPD2    H5 7235   2.915   0.837  12.833  0.9243 -0.8251 -0.0448
  486MPD2    N1 7236   3.107   0.391  12.829 -0.5567  0.2464  0.6958
  486MPD2    H7 7237   3.181   0.323  12.819  0.8625  2.0579 -1.1426
  487TMC3    C1 7238   2.986   0.208  12.743  0.0247  0.1301  0.0401
  487TMC3    C2 7239   2.857   0.161  12.716 -0.4581 -0.0312  0.3820
  487TMC3    C3 7240   2.840   0.024  12.700 -0.4333  0.8576  0.4122
  487TMC3    C4 7241   3.096   0.134  12.752 -0.6206  0.0046  0.2339
  487TMC3    C5 7242   3.078   4.721  12.743  0.7268 -0.1565 -0.3305
  487TMC3    C6 7243   2.949   4.667  12.717 -0.3227  0.7624 -0.3614
  487TMC3     C 7244   2.983   0.344  12.801  0.2269 -0.3624  0.0397
  487TMC3     O 7245   2.872   0.384  12.836  0.1852 -0.2356  0.1592
  487TMC3     H 7246   2.782   0.236  12.694 -2.9885 -2.5602  0.3805
  487TMC3    H1 7247   3.195   0.177  12.763 -0.1660 -0.9362 -0.1808
  487TMC3    H2 7248   2.936   4.560  12.713 -0.4332  0.6788  2.2686
  487TMC3    C7 7249   3.177   4.639  12.813  0.3628 -0.6070 -0.5372
  487TMC3    C8 7250   2.720   4.691  12.759 -0.1472  0.1988  0.3237
  487TMC3    O1 7251   3.271   4.703  12.868  0.1447 -0.1235 -0.5465
  487TMC3    O2 7252   2.738   4.591  12.833  0.6896 -0.0785  0.2585
  488MPD2     C 7253   3.468   2.089  16.943 -0.4098 -0.3065  0.3597
  488MPD2    C1 7254   3.385   2.204  16.925 -0.0492 -0.0746  0.6316
  488MPD2    C2 7255   3.278   2.224  17.012 -0.9285 -0.3315 -0.0227
  488MPD2    C3 7256   3.261   2.145  17.119 -0.8665 -0.0646  0.7448
  488MPD2    C4 7257   3.343   2.034  17.132 -0.5816 -0.3894  0.5827
  488MPD2    C5 7258   3.446   2.002  17.046  0.1724  0.0195  0.2577
  488MPD2     H 7259   3.208   2.304  16.990  0.7442  1.9738  2.8975
  488MPD2    H1 7260   3.336   1.964  17.215  0.2255  1.1062  1.8958
  488MPD2    H2 7261   3.543   2.054  16.872 -1.9194 -1.0486 -0.8699
  488MPD2    H3 7262   3.515   1.919  17.050  0.3810  0.1947  0.3259
  488MPD2     N 7263   3.156   2.174  17.207 -0.4765  0.2705 -0.7751
  488MPD2    H5 7264   3.090   2.249  17.189  0.0460  1.3849  2.0704
  488MPD2    N1 7265   3.398   2.287  16.813 -0.3667  0.4092  0.1570
  488MPD2    H7 7266   3.352   2.377  16.813  0.1065  0.6523 -0.9731
  489TMC3    C1 7267   3.012   2.147  17.385  0.2819  0.8702 -0.5927
  489TMC3    C2 7268   2.922   2.201  17.296 -0.4423  0.1235 -0.5043
  489TMC3    C3 7269   2.843   2.308  17.325  0.5703 -0.4517  0.9481
  489TMC3    C4 7270   3.014   2.191  17.507 -0.1427 -0.3310  0.1231
  489TMC3    C5 7271   2.924   2.291  17.543  0.4725 -0.0610  0.5658
  489TMC3    C6 7272   2.837   2.354  17.454  0.3317 -0.1942  0.3497
  489TMC3     C 7273   3.136   2.101  17.323  0.3047 -0.0900  0.3772
  489TMC3     O 7274   3.199   2.015  17.380 -0.5996  0.4190 -0.2628
  489TMC3     H 7275   2.929   2.165  17.194 -0.4302 -0.4955 -0.2844
  489TMC3    H1 7276   3.095   2.159  17.572 -1.2151  0.3569  1.7803
  489TMC3    H2 7277   2.765   2.433  17.472 -0.0592 -0.6967  1.0097
  489TMC3    C7 7278   2.916   2.323  17.685  0.1727  0.0175 -0.5044
  489TMC3    C8 7279   2.865   2.416  17.234  0.6498 -0.5769 -0.2439
  489TMC3    O1 7280   2.864   2.430  17.701 -0.1463 -0.1984 -0.3505
  489TMC3    O2 7281   2.889   2.526  17.282 -0.3628  0.0751 -0.3484
  490MPD2     C 7282   4.503   0.803   0.228 -0.0012  0.4687 -0.2515
  490MPD2    C1 7283   4.417   0.907   0.225 -0.2035 -0.1832  0.3841
  490MPD2    C2 7284   4.453   1.019   0.297 -0.2182  0.4891  0.1150
  490MPD2    C3 7285   4.572   1.024   0.365  1.1339  0.2363 -0.0989
  490MPD2    C4 7286   4.660   0.925   0.367  0.4511 -0.3208 -0.6988
  490MPD2    C5 7287   4.623   0.810   0.295  0.2221  0.0616  0.5372
  490MPD2     H 7288   4.384   1.103   0.296 -0.2540  0.4579  0.0084
  490MPD2    H1 7289   0.036   0.936   0.404  0.7179 -0.4743 -1.3732
  490MPD2    H2 7290   4.486   0.708   0.179  2.7168  0.1481 -0.6003
  490MPD2    H3 7291   4.693   0.728   0.282  2.0196  2.2411 -3.5838
  490MPD2     N 7292   4.611   1.142   0.428  0.0219  0.7815  1.0334
  490MPD2    H5 7293   4.709   1.145   0.455 -0.3900 -0.5604  2.6536
  490MPD2    N1 7294   4.299   0.911   0.146  0.4550 -0.3316  0.1042
  490MPD2    H7 7295   4.262   1.005   0.141 -0.8687 -1.0655 -3.2946
  491TMC3    C1 7296   4.139   0.849  17.679 -0.1958  0.7101 -0.4229
  491TMC3    C2 7297   4.064   0.962   0.008 -0.0883  0.2556  0.1044
  491TMC3    C3 7298   3.999   1.026  17.611  0.5290  0.2062 -0.0713
  491TMC3    C4 7299   4.123   0.775  17.567 -0.2359 -0.1185  0.7908
  491TMC3    C5 7300   4.045   0.839  17.474 -0.1018  0.0946 -0.1676
  491TMC3    C6 7301   3.999   0.967  17.489 -0.0592  0.1619  0.1379
  491TMC3     C 7302   4.253   0.814   0.054  0.4627 -0.2209  0.1327
  491TMC3     O 7303   4.307   0.713   0.016 -0.7751 -0.5393 -0.3447
  491TMC3     H 7304   4.069   1.001   0.109 -2.1503  2.5725 -0.6940
  491TMC3    H1 7305   4.160   0.674  17.550  0.3644 -0.0015  1.4046
  491TMC3    H2 7306   3.932   1.010  17.415  0.1578  0.7757  0.2946
  491TMC3    C7 7307   3.958   0.756  17.402  0.1350 -0.5293  0.1635
  491TMC3    C8 7308   3.888   1.114  17.641 -0.3532  1.0678 -0.2585
  491TMC3    O1 7309   3.889   0.814  17.321 -0.0440  0.0982 -0.1761
  491TMC3    O2 7310   3.792   1.111  17.562 -0.0224  0.1550 -0.2392
  492MPD2     C 7311   4.645   1.132  11.402 -0.0236 -0.6080 -0.2373
  492MPD2    C1 7312   4.525   1.153  11.340 -0.1061 -0.5762  0.5201
  492MPD2    C2 7313   4.419   1.085  11.388 -0.3660 -0.3727 -0.2197
  492MPD2    C3 7314   4.437   0.996  11.497 -0.8258  0.5405  0.4495
  492MPD2    C4 7315   4.553   0.982  11.561  0.1808 -0.1231  0.1279
  492MPD2    C5 7316   4.663   1.042  11.506  0.6349 -0.0987  0.4116
  492MPD2     H 7317   4.324   1.105  11.341 -2.0520 -1.0967  2.9305
  492MPD2    H1 7318   4.553   0.910  11.642  1.9123  1.2669  1.3832
  492MPD2    H2 7319   0.001   1.188  11.357 -0.8454  0.5068 -0.3294
  492MPD2    H3 7320   0.036   1.037  11.550  0.0660 -1.9781  1.4737
  492MPD2     N 7321   4.323   0.937  11.560 -0.1297  0.5960  0.5352
  492MPD2    H5 7322   4.335   0.905  11.656 -0.3785  1.1726  0.7543
  492MPD2    N1 7323   4.522   1.242  11.226  0.1691 -0.0199  0.4537
  492MPD2    H7 7324   4.606   1.298  11.218 -0.4238  0.8992  0.6530
  493TMC3    C1 7325   4.421   1.406  11.077  0.8677 -0.3508 -0.1284
  493TMC3    C2 7326   4.532   1.486  11.091 -0.2230 -0.1835  0.1435
  493TMC3    C3 7327   4.541   1.601  11.019  0.3088 -0.2132  0.5853
  493TMC3    C4 7328   4.322   1.441  10.992 -0.2107  0.0295  0.4831
  493TMC3    C5 7329   4.345   1.550  10.908 -0.7008 -0.2183 -0.6688
  493TMC3    C6 7330   4.455   1.631  10.921 -0.2949  0.0012  0.0216
  493TMC3     C 7331   4.408   1.277  11.158  0.4836 -0.7572  0.0648
  493TMC3     O 7332   4.296   1.221  11.150 -0.0596  0.9457 -0.4431
  493TMC3     H 7333   4.605   1.471  11.170  0.6046 -0.5837 -0.6910
  493TMC3    H1 7334   4.232   1.381  10.993 -1.7740  2.3749  2.7620
  493TMC3    H2 7335   4.479   1.720  10.864 -1.7185 -0.6294 -1.5651
  493TMC3    C7 7336   4.243   1.561  10.802 -0.0756 -0.2405 -0.3164
  493TMC3    C8 7337   4.663   1.676  11.040 -0.1220  0.3073  0.2529
  493TMC3    O1 7338   4.160   1.473  10.807 -0.3886  0.0420  0.2218
  493TMC3    O2 7339   0.026   1.622  11.105  0.1729  0.5849  0.1545
  494TMC3    C1 7340   4.582   2.995   0.381 -0.2248  0.0334  0.3370
  494TMC3    C2 7341   4.698   2.932   0.426 -0.2100  0.1941  0.2471
  494TMC3    C3 7342   0.070   2.919   0.329  0.3408 -0.5089  0.2145
  494TMC3    C4 7343   4.570   3.035   0.255 -0.1386 -0.1294  0.5733
  494TMC3    C5 7344   4.674   3.035   0.174  0.2945 -0.0377  0.3163
  494TMC3    C6 7345   0.062   2.970   0.205 -0.7617  0.2587  0.4770
  494TMC3     C 7346   4.453   2.978   0.444  0.2319 -0.6753  0.1721
  494TMC3     O 7347   4.366   3.064   0.427 -0.1063  0.2463  0.1007
  494TMC3     H 7348   4.713   2.909   0.530 -0.5724 -3.7784 -0.5889
  494TMC3    H1 7349   4.472   3.063   0.218  1.2822  1.5481 -1.9047
  494TMC3    H2 7350   0.136   2.952   0.127 -1.1930 -0.0470  0.1354
  494TMC3    C7 7351   4.676   3.112   0.055  0.1495 -0.2439  0.7323
  494TMC3    C8 7352   0.206   2.870   0.360 -0.4964 -0.4067 -0.3356
  494TMC3    O1 7353   0.014   3.070  17.664  0.4025 -0.0987  0.6911
  494TMC3    O2 7354   0.296   2.902   0.287 -0.0878 -0.5434  0.0219
  495TMC3    C1 7355   3.480   0.438  14.256 -0.1434  0.2171 -0.3830
  495TMC3    C2 7356   3.381   0.496  14.182 -0.0416 -0.5062 -0.2394
  495TMC3    C3 7357   3.296   0.593  14.229 -0.2241  0.6049 -0.8012
  495TMC3    C4 7358   3.495   0.483  14.386 -0.1075  0.4538  0.5541
  495TMC3    C5 7359   3.412   0.583  14.435  0.4208 -0.6632 -0.6308
  495TMC3    C6 7360   3.304   0.636  14.358 -0.9246  0.4647  0.3053
  495TMC3     C 7361   3.483   0.288  14.247  0.4326  0.1022 -0.3841
  495TMC3     O 7362   3.432   0.237  14.150 -0.8802  0.3956 -0.8877
  495TMC3     H 7363   3.349   0.447  14.091 -0.2197 -1.2986  0.2426
  495TMC3    H1 7364   3.573   0.449  14.455 -0.7785 -1.9997  0.1010
  495TMC3    H2 7365   3.237   0.712  14.396 -1.1700  1.3600 -1.9565
  495TMC3    C7 7366   3.388   0.560  14.579  0.2779 -0.5494  0.2179
  495TMC3    C8 7367   3.165   0.613  14.176  0.8399 -0.9803 -0.0390
  495TMC3    O1 7368   3.488   0.536  14.648 -0.0385 -0.3603 -0.0137
  495TMC3    O2 7369   3.076   0.625  14.266  0.4808 -0.5895  0.0965
  496MPD2     C 7370   1.048   0.496  15.308  0.2194  1.0756 -0.2822
  496MPD2    C1 7371   0.989   0.371  15.326 -0.2742  0.2214 -0.6021
  496MPD2    C2 7372   0.919   0.333  15.441 -0.5402 -0.0057 -0.6425
  496MPD2    C3 7373   0.898   0.429  15.542  0.2151 -0.2676  0.2061
  496MPD2    C4 7374   0.946   0.555  15.519  0.8175  0.6657 -0.1534
  496MPD2    C5 7375   1.021   0.586  15.409 -0.5837  0.2875 -0.7067
  496MPD2     H 7376   0.886   0.231  15.460  0.0371 -0.4291 -1.8568
  496MPD2    H1 7377   0.931   0.637  15.588  0.9399  1.6947 -1.3632
  496MPD2    H2 7378   1.095   0.527  15.216  2.5603 -0.1010  0.5259
  496MPD2    H3 7379   1.055   0.688  15.401  1.5809 -0.2747  1.2686
  496MPD2     N 7380   0.828   0.393  15.657 -0.1310  0.1997 -0.4191
  496MPD2    H5 7381   0.775   0.306  15.663  2.4089 -1.4356 -1.9744
  496MPD2    N1 7382   1.023   0.285  15.222 -0.8020  0.5540  0.0708
  496MPD2    H7 7383   1.083   0.319  15.149 -0.1959  0.2342  0.4177
  497TMC3    C1 7384   0.794   0.386  15.884  0.2240  0.4418  0.3084
  497TMC3    C2 7385   0.659   0.365  15.871 -0.2993 -0.7320 -0.2005
  497TMC3    C3 7386   0.602   0.344  15.992 -0.4537 -0.3692  0.5912
  497TMC3    C4 7387   0.860   0.395  16.000 -0.0998  0.7042  0.3975
  497TMC3    C5 7388   0.796   0.386  16.120  0.2959  0.1746  0.9351
  497TMC3    C6 7389   0.663   0.358  16.117 -0.3791 -0.0103  0.2703
  497TMC3     C 7390   0.852   0.457  15.777  0.2127 -0.1029 -0.2722
  497TMC3     O 7391   0.938   0.542  15.806  0.6145 -0.4495  0.1045
  497TMC3     H 7392   0.603   0.341  15.781 -0.6667 -0.8428  0.0575
  497TMC3    H1 7393   0.965   0.423  16.000  0.2614 -0.6465  1.2550
  497TMC3    H2 7394   0.606   0.334  16.206 -2.0879  0.1035 -0.7933
  497TMC3    C7 7395   0.859   0.396  16.250 -0.7716 -0.1827 -0.6918
  497TMC3    C8 7396   0.472   0.277  15.992 -0.7803 -0.4718 -0.2695
  497TMC3    O1 7397   0.775   0.405  16.338 -0.4268 -0.5819  0.1011
  497TMC3    O2 7398   0.400   0.282  16.095 -0.2260  0.0431  0.3420
  498MPD2     C 7399   2.241   0.989   9.872 -0.1752 -0.5998 -0.4404
  498MPD2    C1 7400   2.182   1.120   9.881 -0.2545  0.4352 -0.3121
  498MPD2    C2 7401   2.047   1.142   9.847  0.3264 -0.0329 -0.3235
  498MPD2    C3 7402   1.962   1.037   9.806  0.2994  0.1588 -0.3698
  498MPD2    C4 7403   2.016   0.907   9.816 -0.1172  0.2290 -0.0636
  498MPD2    C5 7404   2.148   0.890   9.842 -0.0005  0.2051  0.0978
  498MPD2     H 7405   2.006   1.242   9.839 -0.7117 -0.2085  2.7958
  498MPD2    H1 7406   1.955   0.818   9.805 -0.5458  0.4765  0.2908
  498MPD2    H2 7407   2.343   0.965   9.902 -0.0590 -0.3883 -0.6660
  498MPD2    H3 7408   2.184   0.788   9.841  1.4780  0.7340 -1.9606
  498MPD2     N 7409   1.832   1.061   9.772  0.2645 -0.0492 -0.0726
  498MPD2    H5 7410   1.791   1.154   9.773 -1.9272 -1.0163 -1.3709
  498MPD2    N1 7411   2.261   1.231   9.932 -0.7342  0.3730 -0.2556
  498MPD2    H7 7412   2.210   1.319   9.939 -1.9980 -0.3300 -0.5109
  499TMC3    C1 7413   2.454   1.362   9.976  0.0401  0.1384 -0.3527
  499TMC3    C2 7414   2.570   1.372  10.047  0.2114 -0.4711  0.2130
  499TMC3    C3 7415   2.622   1.498  10.079  0.2368 -0.2325 -0.1350
  499TMC3    C4 7416   2.378   1.473   9.943  0.7848 -0.2422 -0.5242
  499TMC3    C5 7417   2.438   1.593   9.965 -0.1921 -0.5095  0.4312
  499TMC3    C6 7418   2.551   1.605  10.043  0.6356 -0.8742 -0.4336
  499TMC3     C 7419   2.396   1.228   9.957 -0.0007  0.0673  0.7474
  499TMC3     O 7420   2.467   1.132   9.959 -0.1385 -0.1009 -0.0555
  499TMC3     H 7421   2.634   1.286  10.057  1.8241  0.5776 -1.1420
  499TMC3    H1 7422   2.289   1.467   9.881 -0.0661  0.8341  0.6100
  499TMC3    H2 7423   2.593   1.704  10.060 -2.3668  0.4321 -0.5924
  499TMC3    C7 7424   2.410   1.704   9.874  0.0968  0.0097 -0.1003
  499TMC3    C8 7425   2.763   1.512  10.097  0.6792  0.2185 -0.2750
  499TMC3    O1 7426   2.499   1.787   9.851 -0.2878 -0.1940 -0.3090
  499TMC3    O2 7427   2.822   1.609  10.058 -0.4441 -0.6380 -0.1167
  500MPD2     C 7428   3.405   2.432  11.026  0.7952 -0.1239  0.2756
  500MPD2    C1 7429   3.480   2.447  10.912  0.1425 -0.3549  0.0894
  500MPD2    C2 7430   3.417   2.411  10.792 -0.2037  0.0482  0.2715
  500MPD2    C3 7431   3.284   2.369  10.789 -0.2685 -0.1817 -0.1513
  500MPD2    C4 7432   3.211   2.359  10.905  0.1140 -0.1959  0.3322
  500MPD2    C5 7433   3.275   2.394  11.017 -0.0627 -0.3907  0.4735
  500MPD2     H 7434   3.481   2.424  10.706  2.6771 -1.3778  2.1847
  500MPD2    H1 7435   3.106   2.335  10.907  0.5050 -2.2370 -3.0735
  500MPD2    H2 7436   3.437   2.442  11.129  1.1622 -1.6502  0.3110
  500MPD2    H3 7437   3.214   2.390  11.107  2.4379 -0.8034  2.1452
  500MPD2     N 7438   3.204   2.339  10.672 -0.4593 -0.4485  0.4203
  500MPD2    H5 7439   3.106   2.318  10.686  0.0916 -3.0810  0.2555
  500MPD2    N1 7440   3.616   2.482  10.910 -0.3074 -0.3859  0.4137
  500MPD2    H7 7441   3.665   2.496  10.822  1.4669  1.0196  1.6195
  501TMC3    C1 7442   3.825   2.546  10.987 -1.0078  0.4877  0.4500
  501TMC3    C2 7443   3.845   2.621  10.878  0.3809 -0.7241  0.3541
  501TMC3    C3 7444   3.975   2.649  10.836 -0.0944  0.9460  0.3860
  501TMC3    C4 7445   3.930   2.511  11.068 -0.3047  0.4377  0.4150
  501TMC3    C5 7446   4.055   2.521  11.010 -0.2277  0.1250 -0.5077
  501TMC3    C6 7447   4.086   2.601  10.900 -0.0274 -0.4831  0.4184
  501TMC3     C 7448   3.693   2.497  11.019  0.3772  0.2338  0.2268
  501TMC3     O 7449   3.675   2.445  11.130 -0.3984  0.0350 -0.6498
  501TMC3     H 7450   3.758   2.667  10.833 -0.2906 -2.5030 -0.1958
  501TMC3    H1 7451   3.922   2.449  11.156  2.3811  1.0931  1.1157
  501TMC3    H2 7452   4.185   2.627  10.863  0.8119 -0.9162  2.3119
  501TMC3    C7 7453   4.167   2.447  11.075 -0.0732  0.6343 -0.6619
  501TMC3    C8 7454   3.998   2.746  10.735  0.6370 -0.3090  0.0892
  501TMC3    O1 7455   4.252   2.393  11.006 -0.0405 -0.0229 -0.0568
  501TMC3    O2 7456   4.113   2.798  10.738  0.0485  0.2905 -0.7695
  502TMC3    C1 7457   3.318   1.149  15.103  0.1396  0.2265 -0.1520
  502TMC3    C2 7458   3.293   1.278  15.144 -0.2227  0.6633 -0.1887
  502TMC3    C3 7459   3.170   1.294  15.193 -0.6090 -0.4852  0.0697
  502TMC3    C4 7460   3.229   1.049  15.113 -0.5354 -0.0441 -0.1093
  502TMC3    C5 7461   3.099   1.075  15.150 -0.0366  0.5931  0.5644
  502TMC3    C6 7462   3.069   1.203  15.192  1.1614 -0.0998 -0.0978
  502TMC3     C 7463   3.457   1.115  15.148 -0.2087  0.5852 -1.3845
  502TMC3     O 7464   3.550   1.184  15.115  0.0203 -0.2450  0.4269
  502TMC3     H 7465   3.368   1.354  15.161  1.5876 -1.0583 -0.5759
  502TMC3    H1 7466   3.252   0.948  15.080  1.0839  0.4772 -0.5926
  502TMC3    H2 7467   2.972   1.236  15.228  1.2688 -1.9354  1.8608
  502TMC3    C7 7468   2.992   1.010  15.081 -0.4352 -0.0660  0.0359
  502TMC3    C8 7469   3.142   1.429  15.241  0.6727 -0.2033 -0.1496
  502TMC3    O1 7470   3.023   0.948  14.977  0.0907  0.2486 -0.2881
  502TMC3    O2 7471   3.177   1.521  15.166 -0.5370 -0.5273  0.0670
  503MPD2     C 7472   0.348   1.960  16.366  0.3493 -0.0849 -0.5173
  503MPD2    C1 7473   0.379   1.986  16.493 -0.6228 -0.4117 -0.1660
  503MPD2    C2 7474   0.461   1.902  16.568  0.2594  0.6005  0.1825
  503MPD2    C3 7475   0.534   1.805  16.506  0.3046  0.0256 -0.0816
  503MPD2    C4 7476   0.515   1.778  16.366 -0.3882 -0.6429 -0.4243
  503MPD2    C5 7477   0.420   1.860  16.306 -0.8361 -0.3405 -0.3457
  503MPD2     H 7478   0.496   1.915  16.670 -1.7512  1.8207  0.7053
  503MPD2    H1 7479   0.572   1.704  16.310 -0.7469  0.2919 -2.0365
  503MPD2    H2 7480   0.285   2.023  16.304  1.4274  2.3088  0.8422
  503MPD2    H3 7481   0.389   1.835  16.205  1.2131 -0.9657 -0.8089
  503MPD2     N 7482   0.625   1.732  16.589  0.4145 -0.3713 -0.1261
  503MPD2    H5 7483   0.628   1.754  16.688  1.6112 -1.1453  0.0049
  503MPD2    N1 7484   0.333   2.107  16.562  0.4487  0.7478 -0.5161
  503MPD2    H7 7485   0.358   2.111  16.661  1.6912  4.2929 -0.9945
  504TMC3    C1 7486   0.792   1.577  16.657  0.2155  0.4146 -0.2385
  504TMC3    C2 7487   0.758   1.599  16.792 -0.6188  0.2017  0.2882
  504TMC3    C3 7488   0.855   1.567  16.884 -0.2727 -0.0261  0.6591
  504TMC3    C4 7489   0.912   1.521  16.623  0.3800  0.1748  0.0681
  504TMC3    C5 7490   0.998   1.479  16.720  0.0172  0.5509  0.5206
  504TMC3    C6 7491   0.977   1.508  16.858  0.1136  0.6438  0.0870
  504TMC3     C 7492   0.711   1.636  16.550  0.3164 -0.5948  0.4580
  504TMC3     O 7493   0.735   1.602  16.435  0.5912  0.2798 -0.4785
  504TMC3     H 7494   0.662   1.639  16.822 -1.7049 -1.9386 -0.4119
  504TMC3    H1 7495   0.935   1.503  16.518  0.4091 -2.4347  0.5279
  504TMC3    H2 7496   1.049   1.481  16.934  2.7237 -1.7822 -3.2508
  504TMC3    C7 7497   1.120   1.421  16.664 -0.2221 -0.1770 -0.3640
  504TMC3    C8 7498   0.820   1.585  17.028 -0.6703 -0.5711  0.4955
  504TMC3    O1 7499   1.159   1.456  16.552  0.8368 -0.0343  0.0026
  504TMC3    O2 7500   0.732   1.666  17.048  0.1309 -0.9175  0.5502
  505MPD2     C 7501   0.499   1.597   9.542  0.5012  0.3760 -0.8881
  505MPD2    C1 7502   0.449   1.500   9.618 -0.1386 -0.0926  0.9499
  505MPD2    C2 7503   0.466   1.508   9.757 -0.5012  0.5495  0.1216
  505MPD2    C3 7504   0.549   1.603   9.813 -0.5497 -0.0050  0.1257
  505MPD2    C4 7505   0.601   1.699   9.730  0.1211  0.2850 -0.0666
  505MPD2    C5 7506   0.563   1.703   9.593  0.1434  0.2834  0.3444
  505MPD2     H 7507   0.422   1.438   9.827  1.0828 -0.0120  0.5552
  505MPD2    H1 7508   0.668   1.776   9.766 -1.0015  1.0507  0.3838
  505MPD2    H2 7509   0.493   1.587   9.434  2.8546 -1.1897 -0.8653
  505MPD2    H3 7510   0.591   1.783   9.526 -0.6284  1.0015  0.8692
  505MPD2     N 7511   0.590   1.582   9.944 -0.3748  0.5256  0.5202
  505MPD2    H5 7512   0.559   1.498   9.991 -1.7930 -0.3266 -1.9419
  505MPD2    N1 7513   0.394   1.397   9.547 -0.4740 -0.7701  0.5085
  505MPD2    H7 7514   0.403   1.397   9.446 -0.1386 -1.5179  0.5373
  506TMC3    C1 7515   0.347   1.173   9.502  0.4710  0.0789 -0.0167
  506TMC3    C2 7516   0.456   1.166   9.414  0.5716  0.7339 -0.0771
  506TMC3    C3 7517   0.519   1.050   9.391 -0.0996 -0.3382 -0.3258
  506TMC3    C4 7518   0.323   1.059   9.583  0.5205 -0.7233  0.3413
  506TMC3    C5 7519   0.397   0.946   9.552  0.6834  0.2910 -0.1418
  506TMC3    C6 7520   0.479   0.928   9.440  0.1345  0.0443  0.5420
  506TMC3     C 7521   0.355   1.274   9.603 -0.4373  0.3156  0.4832
  506TMC3     O 7522   0.352   1.234   9.720  0.1170 -0.2884  0.4194
  506TMC3     H 7523   0.485   1.248   9.350 -0.7851  1.3221  0.0681
  506TMC3    H1 7524   0.232   1.060   9.641  0.7816 -0.4986  0.7412
  506TMC3    H2 7525   0.542   0.842   9.421  0.8879  0.7166 -0.0161
  506TMC3    C7 7526   0.456   0.880   9.667  0.6345  0.0572  0.6444
  506TMC3    C8 7527   0.644   1.067   9.310  0.0713 -0.6022  0.1372
  506TMC3    O1 7528   0.507   0.769   9.648  0.1558  0.3518  0.0870
  506TMC3    O2 7529   0.649   1.150   9.219 -0.3023 -0.7464 -0.5444
  507TMC3    C1 7530   1.056   1.432  15.212 -0.3982  0.1917 -0.6078
  507TMC3    C2 7531   0.920   1.414  15.211  0.3097 -0.2078 -0.6630
  507TMC3    C3 7532   0.866   1.348  15.104 -0.6722  0.1630  0.0223
  507TMC3    C4 7533   1.146   1.395  15.117 -0.0101  0.3405  0.2633
  507TMC3    C5 7534   1.093   1.332  15.007  0.3947  0.1051 -0.0602
  507TMC3    C6 7535   0.960   1.295  15.014 -0.0816 -0.2860  0.1256
  507TMC3     C 7536   1.110   1.472  15.339 -0.0785  0.0955  0.1399
  507TMC3     O 7537   1.225   1.441  15.355  0.2142  0.2705 -0.1801
  507TMC3     H 7538   0.855   1.462  15.283  0.4244 -0.2475 -0.5351
  507TMC3    H1 7539   1.245   1.438  15.122 -0.3147  0.9921  0.6161
  507TMC3    H2 7540   0.923   1.228  14.937 -0.8116  2.5492 -1.9715
  507TMC3    C7 7541   1.127   1.371  14.868  0.5449 -0.9574  0.5833
  507TMC3    C8 7542   0.758   1.424  15.035 -0.2710 -0.0936 -0.0372
  507TMC3    O1 7543   1.035   1.364  14.788  0.0192 -0.1922 -0.1700
  507TMC3    O2 7544   0.667   1.466  15.106  0.7137  0.0426 -0.3056
  508MPD2     C 7545   2.371   4.036  16.208  0.2891 -0.1216 -0.2392
  508MPD2    C1 7546   2.260   4.108  16.188  0.1067 -0.3283 -0.0125
  508MPD2    C2 7547   2.200   4.116  16.061  0.4716  0.0748  0.4541
  508MPD2    C3 7548   2.249   4.051  15.948 -0.1022 -0.0369  0.4486
  508MPD2    C4 7549   2.361   3.968  15.967  0.1642  0.5065  0.4455
  508MPD2    C5 7550   2.419   3.968  16.101  0.5241  0.0506 -0.0657
  508MPD2     H 7551   2.109   4.173  16.044  0.5352  0.5163  1.5823
  508MPD2    H1 7552   2.412   3.922  15.883  2.2738  1.5875  1.1182
  508MPD2    H2 7553   2.428   4.041  16.300 -1.7066  0.1144  0.9895
  508MPD2    H3 7554   2.515   3.920  16.112  0.8776  0.6374 -0.5854
  508MPD2     N 7555   2.184   4.066  15.823 -0.1533 -0.6696  0.1448
  508MPD2    H5 7556   2.101   4.124  15.829 -0.4608 -1.2869  1.9073
  508MPD2    N1 7557   2.214   4.180  16.295  0.1830  0.1571  1.0320
  508MPD2    H7 7558   2.273   4.171  16.378 -0.4991 -0.0389  1.4894
  509TMC3    C1 7559   2.021   4.216  15.489  0.1149 -0.2394 -0.3102
  509TMC3    C2 7560   2.099   4.226  15.377 -0.3960 -0.1697 -0.4600
  509TMC3    C3 7561   2.204   4.142  15.366 -0.0470 -0.8078  0.0753
  509TMC3    C4 7562   2.060   4.132  15.599 -0.0253 -0.1375  0.0070
  509TMC3    C5 7563   2.173   4.057  15.588  0.2103 -0.0004 -0.0619
  509TMC3    C6 7564   2.246   4.067  15.474  0.0450  0.0804  0.0428
  509TMC3     C 7565   1.932   4.327  15.515 -0.0342 -0.7443 -0.0193
  509TMC3     O 7566   1.885   4.329  15.630 -0.2219 -0.0066 -0.0495
  509TMC3     H 7567   2.061   4.279  15.291  1.5366  2.5141  0.3513
  509TMC3    H1 7568   2.003   4.138  15.691 -0.1447 -2.3914  0.0682
  509TMC3    H2 7569   2.335   4.006  15.463  0.2324 -0.0506  2.2218
  509TMC3    C7 7570   2.238   4.019  15.710 -0.3572 -0.0861  0.1924
  509TMC3    C8 7571   2.304   4.184  15.272  0.6651 -0.0679 -0.0398
  509TMC3    O1 7572   2.319   3.933  15.685 -0.6444  0.1056 -0.0584
  509TMC3    O2 7573   2.345   4.092  15.200  0.2508  0.3583 -0.1059
  510MPD2     C 7574   0.184   0.939  14.365  0.2086  0.2121 -0.1133
  510MPD2    C1 7575   0.264   0.926  14.471  0.3619 -0.3833 -0.3013
  510MPD2    C2 7576   0.400   0.942  14.452  0.0475 -0.7081 -0.2649
  510MPD2    C3 7577   0.466   0.952  14.329 -0.2627 -0.1390 -0.2855
  510MPD2    C4 7578   0.376   0.946  14.223  0.0167  0.0646  0.1466
  510MPD2    C5 7579   0.243   0.954  14.244 -0.1922  0.3654 -0.1000
  510MPD2     H 7580   0.465   0.934  14.538  0.2395 -1.3161 -0.4662
  510MPD2    H1 7581   0.404   0.951  14.118 -0.0818  1.5326  0.1928
  510MPD2    H2 7582   0.077   0.952  14.369  0.2145  0.7529 -1.7596
  510MPD2    H3 7583   0.172   0.950  14.162 -0.9670  1.6246  0.5181
  510MPD2     N 7584   0.604   0.949  14.321  0.3515  0.3245 -0.0296
  510MPD2    H5 7585   0.644   0.955  14.414 -1.1719 -0.7844  0.6980
  510MPD2    N1 7586   0.204   0.906  14.600 -0.3254 -0.9805 -0.2651
  510MPD2    H7 7587   0.105   0.885  14.602 -0.2707 -1.2184  0.0110
  511TMC3    C1 7588   0.201   0.787  14.802  1.1965  0.5353 -0.1665
  511TMC3    C2 7589   0.149   0.840  14.916  0.1523 -0.0964  0.1177
  511TMC3    C3 7590   0.076   0.761  14.996  0.2618 -0.1164 -0.1439
  511TMC3    C4 7591   0.174   0.661  14.758  0.8735  0.2121  0.0159
  511TMC3    C5 7592   0.091   0.583  14.837  0.4229  0.6263 -0.0793
  511TMC3    C6 7593   0.038   0.638  14.953  0.0780 -0.0157  0.2473
  511TMC3     C 7594   0.277   0.873  14.714 -0.4165 -0.4342 -0.1957
  511TMC3     O 7595   0.373   0.927  14.763 -0.6043 -0.4798 -0.2676
  511TMC3     H 7596   0.181   0.939  14.949 -0.4784 -0.7786  2.7985
  511TMC3    H1 7597   0.221   0.621  14.669 -0.0922  3.2500 -1.8177
  511TMC3    H2 7598   4.690   0.588  15.016  0.4812 -0.0559  0.6770
  511TMC3    C7 7599   0.038   0.465  14.780  0.7776  0.0435 -0.5626
  511TMC3    C8 7600   0.008   0.825  15.109 -0.5801 -0.4415  0.2069
  511TMC3    O1 7601   0.072   0.444  14.662 -0.0433 -0.0949 -0.2118
  511TMC3    O2 7602   4.716   0.944  15.100  0.0790  0.2236  0.4047
  512TMC3    C1 7603   3.902   0.345  13.295  0.6848 -0.1713 -0.1598
  512TMC3    C2 7604   3.994   0.279  13.371  0.0455 -0.1873 -0.1741
  512TMC3    C3 7605   4.014   0.144  13.355  0.3026  1.0077 -0.4401
  512TMC3    C4 7606   3.819   0.266  13.214 -0.2169  0.1510  0.0676
  512TMC3    C5 7607   3.830   0.132  13.207 -0.4089 -1.3608 -0.2709
  512TMC3    C6 7608   3.936   0.067  13.274  1.1685  0.6325 -0.1937
  512TMC3     C 7609   3.883   0.492  13.297 -0.5228 -0.0169  0.0846
  512TMC3     O 7610   3.953   0.547  13.382 -0.1944 -0.2265  0.2228
  512TMC3     H 7611   4.061   0.338  13.432  0.4062  0.2120 -0.9656
  512TMC3    H1 7612   3.751   0.312  13.144 -0.8950  0.1830  0.7469
  512TMC3    H2 7613   3.977   4.696  13.244  1.6117  1.8368 -3.4209
  512TMC3    C7 7614   3.754   0.068  13.105  0.0141 -0.3759 -0.1392
  512TMC3    C8 7615   4.098   0.078  13.461 -0.7133 -0.8195  1.1099
  512TMC3    O1 7616   3.671   0.127  13.034 -0.2374  0.3331 -0.7841
  512TMC3    O2 7617   4.129   4.685  13.443  0.4655 -0.2515  0.2464
  513MPD2     C 7618   0.626   4.347  13.562 -0.1126  0.6489 -0.0910
  513MPD2    C1 7619   0.616   4.418  13.446  0.5021 -0.2503  0.2519
  513MPD2    C2 7620   0.692   4.534  13.444 -0.5862 -0.6418  0.3010
  513MPD2    C3 7621   0.767   4.589  13.548  0.3909 -0.0897  0.5517
  513MPD2    C4 7622   0.776   4.508  13.661 -0.7818 -0.4380 -0.4757
  513MPD2    C5 7623   0.707   4.388  13.663 -0.0978  0.9635 -0.3815
  513MPD2     H 7624   0.685   4.594  13.354  3.6308 -0.6433 -0.0269
  513MPD2    H1 7625   0.833   4.534  13.749 -1.7246  0.4677 -0.1290
  513MPD2    H2 7626   0.581   4.249  13.572 -0.9035  1.2493  2.3435
  513MPD2    H3 7627   0.717   4.320  13.748 -3.1340  2.2778  1.0438
  513MPD2     N 7628   0.820   4.718  13.536 -0.3499  0.5609  0.3666
  513MPD2    H5 7629   0.825   0.032  13.442 -2.0879 -0.7546 -0.2789
  513MPD2    N1 7630   0.530   4.372  13.343  0.2505  0.1246 -0.6084
  513MPD2    H7 7631   0.494   4.277  13.350 -0.4492  0.3801 -0.7409
  514TMC3    C1 7632   0.472   4.380  13.121  0.2655  0.2472 -0.3557
  514TMC3    C2 7633   0.449   4.457  13.007  0.1144  0.1262 -1.1876
  514TMC3    C3 7634   0.503   4.418  12.888  0.3330  0.4809  0.7875
  514TMC3    C4 7635   0.546   4.263  13.111 -0.5086 -0.3479 -0.3518
  514TMC3    C5 7636   0.611   4.241  13.000 -0.2931  0.9030  0.0258
  514TMC3    C6 7637   0.593   4.316  12.888  0.2890 -0.9760  0.8323
  514TMC3     C 7638   0.491   4.453  13.239 -0.1793  0.6230 -0.2038
  514TMC3     O 7639   0.500   4.575  13.227 -0.2821  0.1353 -0.4195
  514TMC3     H 7640   0.392   4.549  13.016  0.8258  0.3346  1.2145
  514TMC3    H1 7641   0.577   4.203  13.195  3.1943  0.8823 -0.8415
  514TMC3    H2 7642   0.644   4.286  12.798 -1.5140 -1.4014 -0.0391
  514TMC3    C7 7643   0.752   4.229  13.021 -0.5882 -0.7035 -0.3152
  514TMC3    C8 7644   0.489   4.508  12.773  0.2028  0.0369  0.6333
  514TMC3    O1 7645   0.799   4.115  13.028 -0.0046 -0.0280 -0.5273
  514TMC3    O2 7646   0.415   4.598  12.803 -0.2035 -0.2211 -0.3128
  515MPD2     C 7647   3.370   2.101  15.298  0.1463  0.3243  0.2007
  515MPD2    C1 7648   3.484   2.085  15.210  0.4229 -0.4421  0.8031
  515MPD2    C2 7649   3.615   2.088  15.269 -0.5206  0.4674 -0.2438
  515MPD2    C3 7650   3.629   2.101  15.403  0.5287 -0.3774  0.0169
  515MPD2    C4 7651   3.522   2.118  15.482  0.1605 -0.3326 -0.3112
  515MPD2    C5 7652   3.394   2.118  15.433  0.0938 -0.3241  0.3226
  515MPD2     H 7653   3.707   2.076  15.213 -1.1256 -0.3605 -1.0703
  515MPD2    H1 7654   3.537   2.125  15.589  0.9048 -0.1954 -0.4196
  515MPD2    H2 7655   3.266   2.102  15.268 -0.2605  4.5212  1.8214
  515MPD2    H3 7656   3.310   2.119  15.502 -0.3655  0.3104 -0.2434
  515MPD2     N 7657   3.750   2.114  15.473  0.2789  0.1062  0.8182
  515MPD2    H5 7658   3.743   2.112  15.574  1.9784  2.0385  0.9774
  515MPD2    N1 7659   3.472   2.061  15.072  0.0792  0.2856  0.1535
  515MPD2    H7 7660   3.552   2.028  15.019 -0.6280  0.4110 -0.9992
  516TMC3    C1 7661   3.372   2.066  14.859  0.7821 -0.1124 -0.4851
  516TMC3    C2 7662   3.269   2.131  14.783  0.4740 -0.1061 -0.4751
  516TMC3    C3 7663   3.230   2.073  14.672 -0.3837 -0.1330  0.1945
  516TMC3    C4 7664   3.416   1.939  14.828 -0.2795 -0.5957 -0.0088
  516TMC3    C5 7665   3.358   1.878  14.719  0.2465 -0.8442  0.9858
  516TMC3    C6 7666   3.265   1.941  14.642  0.0197 -0.2521 -0.3126
  516TMC3     C 7667   3.363   2.108  15.000  0.1964 -0.3279 -0.7146
  516TMC3     O 7668   3.261   2.169  15.032 -0.0447 -0.3576  0.1342
  516TMC3     H 7669   3.218   2.218  14.824 -2.5132 -2.2927  0.4635
  516TMC3    H1 7670   3.468   1.879  14.902 -1.9060 -1.0953  0.7281
  516TMC3    H2 7671   3.221   1.887  14.559 -1.0481 -1.1735  0.8519
  516TMC3    C7 7672   3.376   1.735  14.715 -0.5423 -0.2270 -0.1300
  516TMC3    C8 7673   3.129   2.140  14.590 -0.4379  0.8463 -0.1391
  516TMC3    O1 7674   3.472   1.688  14.772 -0.7554 -0.3326 -0.0723
  516TMC3    O2 7675   3.084   2.246  14.628 -0.0079 -0.2509  0.0344
  517MPD2     C 7676   3.245   3.197  17.657 -0.4235 -0.3070 -0.4754
  517MPD2    C1 7677   3.376   3.212  17.697  0.4618 -0.0477  1.2508
  517MPD2    C2 7678   3.414   3.326   0.070 -0.0830 -0.6809 -0.0354
  517MPD2    C3 7679   3.322   3.412   0.116  0.2965  0.3414 -0.6522
  517MPD2    C4 7680   3.190   3.388   0.072  0.1650  0.5602  0.4507
  517MPD2    C5 7681   3.156   3.292  17.684  0.4755  0.5054 -0.1874
  517MPD2     H 7682   3.519   3.336   0.099  0.3785 -0.6908 -1.7137
  517MPD2    H1 7683   3.105   3.441   0.115  0.2520  1.2453 -0.2322
  517MPD2    H2 7684   3.214   3.118  17.589 -1.0293 -0.8434  0.4342
  517MPD2    H3 7685   3.054   3.272  17.655  1.1858  0.3245 -2.5694
  517MPD2     N 7686   3.343   3.525   0.194  0.2845 -0.4846 -0.3949
  517MPD2    H5 7687   3.264   3.587   0.210 -0.4702 -1.3623 -0.7627
  517MPD2    N1 7688   3.479   3.127  17.655  0.5533 -0.6820 -0.0446
  517MPD2    H7 7689   3.573   3.154  17.684  0.5849  0.2546 -1.0035
  518TMC3    C1 7690   3.584   2.942  17.550 -0.2049 -1.0368 -0.1745
  518TMC3    C2 7691   3.587   2.808  17.557 -0.3497  0.2689 -0.0614
  518TMC3    C3 7692   3.710   2.750  17.531 -0.4015 -0.8427  0.7594
  518TMC3    C4 7693   3.680   3.026  17.503  0.0956 -0.1972  0.4498
  518TMC3    C5 7694   3.794   2.960  17.471  0.2456 -0.1042  0.0200
  518TMC3    C6 7695   3.814   2.828  17.491  0.4866 -0.6455  0.1154
  518TMC3     C 7696   3.461   3.000  17.605 -0.5675 -0.0658 -0.1708
  518TMC3     O 7697   3.354   2.940  17.611  0.9702 -0.6013  0.7840
  518TMC3     H 7698   3.509   2.755  17.611 -1.2140  1.7182  0.1089
  518TMC3    H1 7699   3.659   3.130  17.482  0.8242 -0.0255  0.5533
  518TMC3    H2 7700   3.912   2.785  17.476  0.8824  0.3513 -0.1363
  518TMC3    C7 7701   3.912   3.048  17.449  0.1668  0.3432  0.0544
  518TMC3    C8 7702   3.741   2.606  17.529  0.0871 -0.5785  0.4181
  518TMC3    O1 7703   3.905   3.157  17.508  0.8801  0.8589 -0.1141
  518TMC3    O2 7704   3.842   2.569  17.472 -0.6022 -0.3529  0.2117
  519MPD2     C 7705   0.035   1.738  14.752  0.1873 -0.7021  0.6998
  519MPD2    C1 7706   0.036   1.759  14.614 -0.3318 -0.0242 -0.2210
  519MPD2    C2 7707   0.125   1.685  14.538  1.5285 -0.3054  0.5861
  519MPD2    C3 7708   0.210   1.592  14.597 -0.1403 -0.2897 -0.3100
  519MPD2    C4 7709   0.204   1.575  14.730 -0.1063 -0.2206 -0.8578
  519MPD2    C5 7710   0.124   1.653  14.808 -0.0957 -0.4181  0.1870
  519MPD2     H 7711   0.119   1.707  14.432 -2.6423 -0.1218  0.8536
  519MPD2    H1 7712   0.269   1.505  14.781  1.2637  1.9995  0.4452
  519MPD2    H2 7713   4.690   1.793  14.813  0.6422  2.1853 -1.3838
  519MPD2    H3 7714   0.123   1.633  14.915 -0.2375  0.7384  0.4039
  519MPD2     N 7715   0.285   1.502  14.519  0.6702  0.0166 -0.6584
  519MPD2    H5 7716   0.350   1.439  14.566 -0.4548 -1.0873 -0.5947
  519MPD2    N1 7717   4.659   1.840  14.565 -1.0938  0.6449 -0.3492
  519MPD2    H7 7718   4.588   1.865  14.632  0.7309  3.7931  0.3924
  520TMC3    C1 7719   0.343   1.371  14.326  0.4531 -0.6400  0.4075
  520TMC3    C2 7720   0.295   1.337  14.198 -0.4039  0.3733 -0.3842
  520TMC3    C3 7721   0.374   1.262  14.113  0.3447  0.3515  0.3034
  520TMC3    C4 7722   0.469   1.356  14.361 -0.5358  0.0955 -0.2180
  520TMC3    C5 7723   0.544   1.289  14.266  0.0533  0.1788  0.3218
  520TMC3    C6 7724   0.501   1.240  14.146  0.1918  0.5405 -1.0200
  520TMC3     C 7725   0.274   1.486  14.385 -0.2256 -0.4383 -0.0654
  520TMC3     O 7726   0.189   1.532  14.312  0.6225  0.9224 -0.0557
  520TMC3     H 7727   0.190   1.356  14.176 -0.3578 -0.1403 -1.0722
  520TMC3    H1 7728   0.512   1.380  14.457  0.4574  1.4292 -0.9988
  520TMC3    H2 7729   0.550   1.161  14.090  0.5931  0.5061 -0.6265
  520TMC3    C7 7730   0.684   1.271  14.282 -0.3160  0.3049 -0.8980
  520TMC3    C8 7731   0.336   1.274  13.971  0.1119 -0.6739  0.3352
  520TMC3    O1 7732   0.721   1.289  14.397  0.3833  0.2479 -0.1161
  520TMC3    O2 7733   0.438   1.301  13.907 -0.2232  0.0925  0.2249
  521MPD2     C 7734   0.683   4.656  17.321 -0.0501  0.1467 -0.5245
  521MPD2    C1 7735   0.652   4.529  17.284 -0.2238 -0.3836 -0.6100
  521MPD2    C2 7736   0.751   4.440  17.245 -0.3591 -0.3165  0.6162
  521MPD2    C3 7737   0.880   4.470  17.259 -0.0014 -0.3560  0.6866
  521MPD2    C4 7738   0.914   4.601  17.300  0.4095 -0.0737  0.2925
  521MPD2    C5 7739   0.814   4.695  17.322  0.0097 -0.0346 -0.3392
  521MPD2     H 7740   0.719   4.343  17.208  0.5927 -0.5292  0.3624
  521MPD2    H1 7741   1.016   4.639  17.298  0.1036  0.5851 -3.3996
  521MPD2    H2 7742   0.603   4.723  17.349 -0.1448 -0.5229  0.8243
  521MPD2    H3 7743   0.840   0.071  17.351  0.4981 -0.0031 -0.8820
  521MPD2     N 7744   0.977   4.369  17.232  0.2917  0.3056  0.1602
  521MPD2    H5 7745   0.948   4.279  17.197 -0.7556  1.1354 -1.1131
  521MPD2    N1 7746   0.527   4.463  17.305  0.1418 -0.4470 -0.8089
  521MPD2    H7 7747   0.519   4.364  17.282  0.9680 -0.6835 -0.1007
  522TMC3    C1 7748   1.185   4.282  17.179  0.2752 -0.0596 -0.3435
  522TMC3    C2 7749   1.313   4.275  17.211 -0.2856  0.5234 -0.0129
  522TMC3    C3 7750   1.404   4.202  17.138 -0.0416  0.2494  0.1561
  522TMC3    C4 7751   1.137   4.230  17.066  0.1758  0.0250 -0.0714
  522TMC3    C5 7752   1.232   4.163  16.991  0.6293 -0.5547  0.5200
  522TMC3    C6 7753   1.361   4.137  17.025  0.2513 -0.0956  0.1241
  522TMC3     C 7754   1.114   4.389  17.241  0.2401  0.0520 -0.3378
  522TMC3     O 7755   1.175   4.473  17.308  0.2470 -0.6520 -0.5357
  522TMC3     H 7756   1.342   4.319  17.305 -0.0303 -0.1018  0.2039
  522TMC3    H1 7757   1.034   4.244  17.036 -0.5602 -1.4967  1.7513
  522TMC3    H2 7758   1.429   4.097  16.951 -1.6302 -2.5079 -0.2913
  522TMC3    C7 7759   1.200   4.124  16.859 -0.0305 -0.3932  0.2691
  522TMC3    C8 7760   1.532   4.195  17.201 -0.4497 -0.2203  0.7804
  522TMC3    O1 7761   1.231   4.011  16.847 -0.0243  0.4484  0.4973
  522TMC3    O2 7762   1.546   4.208  17.322  0.6306 -0.7114  0.2594
  523MPD2     C 7763   3.728   4.007  10.134  0.4252 -0.1757  1.3556
  523MPD2    C1 7764   3.794   4.049  10.248  0.2242  0.4461 -0.0135
  523MPD2    C2 7765   3.777   4.173  10.299 -0.2562  0.4368  0.9066
  523MPD2    C3 7766   3.693   4.257  10.231  0.4701  0.6873 -0.3342
  523MPD2    C4 7767   3.624   4.221  10.117 -1.0035  0.3198 -0.5818
  523MPD2    C5 7768   3.649   4.095  10.065  0.1600  0.3986  0.0687
  523MPD2     H 7769   3.819   4.193  10.397 -0.2636 -1.1868  1.2445
  523MPD2    H1 7770   3.554   4.289  10.070 -2.1667 -0.5031 -0.0407
  523MPD2    H2 7771   3.749   3.909  10.093  1.8835  0.7605 -0.1075
  523MPD2    H3 7772   3.597   4.061   9.977  0.6893 -0.4712  0.1019
  523MPD2     N 7773   3.676   4.391  10.272  0.0122 -0.6157 -0.3408
  523MPD2    H5 7774   3.619   4.455  10.218  0.6411  0.8424  0.7456
  523MPD2    N1 7775   3.889   3.955  10.296  0.6968 -0.3633 -0.3413
  523MPD2    H7 7776   3.901   3.867  10.247 -0.3606 -0.3113 -0.7038
  524TMC3    C1 7777   3.732   4.592  10.365 -0.1260  0.1781  0.7228
  524TMC3    C2 7778   3.839   4.663  10.398 -0.0680  0.1607 -0.0099
  524TMC3    C3 7779   3.818   0.077  10.394  0.0743  0.3970 -0.3947
  524TMC3    C4 7780   3.607   4.643  10.341 -0.1731  0.3396 -0.5538
  524TMC3    C5 7781   3.592   0.056  10.344 -0.3143  0.4905 -0.0432
  524TMC3    C6 7782   3.696   0.139  10.370 -0.0247 -0.2348  0.5915
  524TMC3     C 7783   3.757   4.451  10.364 -0.1373  0.0070  0.0747
  524TMC3     O 7784   3.861   4.417  10.420  0.0928  0.3677 -0.3570
  524TMC3     H 7785   3.938   4.621  10.391 -1.4249 -3.1758  0.7878
  524TMC3    H1 7786   3.518   4.590  10.307  1.5433 -2.5591 -0.6034
  524TMC3    H2 7787   3.684   0.246  10.358 -1.4371 -0.4981 -0.3781
  524TMC3    C7 7788   3.462   0.098  10.370  0.2301 -0.0424 -0.3722
  524TMC3    C8 7789   3.928   0.164  10.419  0.2830  0.0470  0.8871
  524TMC3    O1 7790   3.383   0.011  10.406  0.1504 -0.2462  0.4034
  524TMC3    O2 7791   3.897   0.283  10.413  0.0211 -0.4296  0.0940
  525MPD2     C 7792   1.711   1.118  14.659  0.2185  0.0438  0.2094
  525MPD2    C1 7793   1.822   1.110  14.739 -0.1150 -0.3222 -0.4556
  525MPD2    C2 7794   1.877   1.232  14.781 -0.1083 -0.3026 -0.0497
  525MPD2    C3 7795   1.815   1.352  14.755  0.1873  0.7367  0.4595
  525MPD2    C4 7796   1.691   1.354  14.692  0.3572 -0.2508 -0.1509
  525MPD2    C5 7797   1.641   1.236  14.641 -0.2260 -0.1022  0.6247
  525MPD2     H 7798   1.975   1.231  14.828  0.3890  0.9832 -1.0286
  525MPD2    H1 7799   1.626   1.440  14.698  0.6057  0.0412 -1.6297
  525MPD2    H2 7800   1.669   1.027  14.617 -0.7062  0.5243  0.1038
  525MPD2    H3 7801   1.541   1.237  14.600 -0.8129 -0.0035  2.0448
  525MPD2     N 7802   1.879   1.474  14.794  0.4340 -0.2800  0.1802
  525MPD2    H5 7803   1.971   1.460  14.835  1.3453  0.7527 -1.5060
  525MPD2    N1 7804   1.888   0.990  14.777  0.0599  0.4199  0.3285
  525MPD2    H7 7805   1.970   1.005  14.835  1.0153 -0.4126 -0.8345
  526TMC3    C1 7806   1.892   0.791  14.887 -0.0287 -0.1471  0.3899
  526TMC3    C2 7807   1.849   0.765  15.016  0.2633  0.3553  0.0761
  526TMC3    C3 7808   1.942   0.714  15.105 -0.8362  0.4623 -0.0851
  526TMC3    C4 7809   2.020   0.757  14.845  0.0525  0.4121 -0.2527
  526TMC3    C5 7810   2.107   0.699  14.940 -0.6342 -0.5270  0.3778
  526TMC3    C6 7811   2.071   0.680  15.072 -0.0185  0.0837  0.3505
  526TMC3     C 7812   1.813   0.884  14.813 -0.8900 -0.4983 -0.1144
  526TMC3     O 7813   1.694   0.864  14.805  0.0832 -0.7605  0.4703
  526TMC3     H 7814   1.747   0.797  15.036 -0.1391 -2.0186  1.8433
  526TMC3    H1 7815   2.040   0.787  14.743 -1.0288  1.9820  0.0100
  526TMC3    H2 7816   2.140   0.636  15.143  2.5978  1.6313 -1.1980
  526TMC3    C7 7817   2.243   0.659  14.908  0.1134 -0.0798 -0.0733
  526TMC3    C8 7818   1.919   0.744  15.246 -0.7134  0.0622 -0.3637
  526TMC3    O1 7819   2.311   0.626  15.004  0.4310 -0.7162 -0.3954
  526TMC3    O2 7820   2.017   0.737  15.318 -0.0980  0.7922 -0.6556
  527MPD2     C 7821   3.698   3.295   0.568 -0.2184 -0.0555  0.0668
  527MPD2    C1 7822   3.747   3.267   0.699  0.6948  0.8275  0.4453
  527MPD2    C2 7823   3.875   3.236   0.728 -0.8408 -0.1994  0.3551
  527MPD2    C3 7824   3.967   3.244   0.625  0.0767 -0.2911 -0.0172
  527MPD2    C4 7825   3.916   3.269   0.497 -0.2593 -0.1674 -0.0859
  527MPD2    C5 7826   3.784   3.289   0.463 -0.4491 -0.9321  0.6218
  527MPD2     H 7827   3.919   3.221   0.826 -1.3858  3.3957  1.1410
  527MPD2    H1 7828   3.972   3.256   0.405 -0.9685  0.0817 -0.5475
  527MPD2    H2 7829   3.594   3.318   0.551  0.2459 -0.1874 -2.9872
  527MPD2    H3 7830   3.747   3.306   0.363 -1.1511  2.0914  1.3938
  527MPD2     N 7831   4.102   3.240   0.659 -0.1723 -0.3509  0.4799
  527MPD2    H5 7832   4.124   3.205   0.752  1.9606  0.9603  0.4725
  527MPD2    N1 7833   3.661   3.263   0.812  0.8365 -0.4091 -0.4072
  527MPD2    H7 7834   3.706   3.247   0.901  4.1908  1.4296 -1.7863
  528TMC3    C1 7835   3.471   3.271   0.943 -0.1883 -0.1043  0.7017
  528TMC3    C2 7836   3.543   3.333   1.045 -0.0387  0.2778  0.8409
  528TMC3    C3 7837   3.481   3.358   1.157  0.0400 -0.2880  0.4731
  528TMC3    C4 7838   3.347   3.222   0.962  0.1087  0.1533 -0.1139
  528TMC3    C5 7839   3.294   3.246   1.082  0.7451 -0.5845  0.1932
  528TMC3    C6 7840   3.353   3.309   1.179 -0.0292 -0.0443  0.2167
  528TMC3     C 7841   3.520   3.276   0.808 -0.3486  0.0710 -0.2349
  528TMC3     O 7842   3.435   3.268   0.717  0.3910  0.1809 -0.0339
  528TMC3     H 7843   3.641   3.378   1.032 -0.0139 -0.3493 -1.0861
  528TMC3    H1 7844   3.300   3.162   0.885  0.2026 -0.1793  0.0920
  528TMC3    H2 7845   3.296   3.336   1.268  1.0558 -0.2533  0.9646
  528TMC3    C7 7846   3.154   3.225   1.097 -0.0455 -0.0936  0.0088
  528TMC3    C8 7847   3.556   3.411   1.271  0.0241 -0.3008  0.0408
  528TMC3    O1 7848   3.114   3.204   1.213  0.5762 -0.3429 -0.1378
  528TMC3    O2 7849   3.658   3.470   1.237 -0.3564 -0.3874 -0.1261
  529MPD2     C 7850   1.615   1.802   0.613  0.3622  0.5037 -0.5877
  529MPD2    C1 7851   1.741   1.846   0.578  0.1954  0.0259 -0.5859
  529MPD2    C2 7852   1.756   1.958   0.505  0.4178  0.5922  0.7324
  529MPD2    C3 7853   1.650   2.026   0.453  0.5669  0.4226 -0.1556
  529MPD2    C4 7854   1.521   1.978   0.482  0.4392 -0.2543 -0.0317
  529MPD2    C5 7855   1.503   1.870   0.561  0.6546  0.4905 -0.4393
  529MPD2     H 7856   1.856   1.998   0.493  0.3343  1.3519  2.6006
  529MPD2    H1 7857   1.435   2.038   0.455  2.3310  1.2189 -2.7651
  529MPD2    H2 7858   1.610   1.719   0.683  0.4885 -0.9970 -2.3410
  529MPD2    H3 7859   1.401   1.840   0.583  0.9520 -0.8847 -0.9118
  529MPD2     N 7860   1.649   2.152   0.389 -0.0577  0.4752  0.0977
  529MPD2    H5 7861   1.566   2.171   0.334  1.0616 -0.1077 -1.7872
  529MPD2    N1 7862   1.857   1.778   0.604  0.7681  0.2627  0.0979
  529MPD2    H7 7863   1.947   1.822   0.587 -0.0069  1.8264 -0.0084
  530TMC3    C1 7864   2.000   1.620   0.665 -0.4928 -0.5160  0.6010
  530TMC3    C2 7865   2.091   1.703   0.733 -0.1329 -0.7972 -0.0999
  530TMC3    C3 7866   2.209   1.649   0.777 -0.2930  0.0892 -0.0920
  530TMC3    C4 7867   2.031   1.487   0.647  0.1987 -0.3319 -0.1901
  530TMC3    C5 7868   2.148   1.439   0.687 -0.5177 -0.5058  0.2717
  530TMC3    C6 7869   2.239   1.514   0.754 -0.8916 -0.3504  0.0843
  530TMC3     C 7870   1.865   1.657   0.659  0.9333 -0.0938 -0.3869
  530TMC3     O 7871   1.775   1.573   0.666  0.1049 -0.2843 -0.1989
  530TMC3     H 7872   2.063   1.807   0.741 -2.7718 -1.6681  2.2545
  530TMC3    H1 7873   1.968   1.424   0.585 -0.0387 -1.0190  0.7666
  530TMC3    H2 7874   2.328   1.463   0.788 -2.1714 -0.8123  2.7232
  530TMC3    C7 7875   2.170   1.298   0.703 -0.4877 -0.6284  0.1843
  530TMC3    C8 7876   2.261   1.716   0.892  0.4142  0.1591  0.7237
  530TMC3    O1 7877   2.284   1.250   0.715 -0.6070  0.6359  0.4001
  530TMC3    O2 7878   2.192   1.803   0.949 -0.4855 -0.2047  0.2759
  531MPD2     C 7879   1.175   4.463  13.190 -0.6066  0.6912 -0.3198
  531MPD2    C1 7880   1.073   4.555  13.193  0.6061 -0.3766  0.0896
  531MPD2    C2 7881   0.946   4.515  13.148  1.5609 -0.6473 -0.0513
  531MPD2    C3 7882   0.932   4.381  13.099  0.5632 -0.5255 -0.3566
  531MPD2    C4 7883   1.031   4.290  13.102 -0.1408  0.3169  0.2753
  531MPD2    C5 7884   1.154   4.336  13.143 -0.0154  0.0654  0.6041
  531MPD2     H 7885   0.859   4.578  13.134  0.4859 -2.2613 -0.5896
  531MPD2    H1 7886   1.021   4.190  13.062  2.1720 -0.3703  1.4219
  531MPD2    H2 7887   1.278   4.490  13.211 -0.6743 -0.5322  1.6094
  531MPD2    H3 7888   1.240   4.270  13.135 -1.6498 -1.9248 -0.8731
  531MPD2     N 7889   0.798   4.357  13.059 -0.4628 -0.0716  1.0351
  531MPD2    H5 7890   0.732   4.432  13.069 -0.1739  0.6056 -1.9579
  531MPD2    N1 7891   1.106   4.686  13.240  0.1479  0.2141  0.3090
  531MPD2    H7 7892   1.198   4.689  13.283  0.5501  1.2155 -0.6140
  532TMC3    C1 7893   1.054   0.158  13.351 -0.7578 -1.1426  0.5696
  532TMC3    C2 7894   0.949   0.169  13.440 -0.0599 -0.4182  0.5147
  532TMC3    C3 7895   0.977   0.162  13.577 -0.3965 -0.4236  0.0960
  532TMC3    C4 7896   1.184   0.144  13.392  1.6273  0.2617  0.2401
  532TMC3    C5 7897   1.213   0.145  13.524  0.5546  0.0387  0.8135
  532TMC3    C6 7898   1.116   0.151  13.616  1.3692  0.6901 -0.0075
  532TMC3     C 7899   1.015   0.063  13.249  0.1318  0.1300  0.4220
  532TMC3     O 7900   0.898   0.053  13.220 -0.0401 -0.3080  0.4320
  532TMC3     H 7901   0.854   0.201  13.399  0.7005 -0.3311 -1.1856
  532TMC3    H1 7902   1.266   0.151  13.322  1.0071 -0.1902 -0.5380
  532TMC3    H2 7903   1.140   0.146  13.721 -0.6070 -1.3260  0.3502
  532TMC3    C7 7904   1.340   0.103  13.569  0.8086  0.3256 -0.1806
  532TMC3    C8 7905   0.894   0.061  13.635 -0.3387 -0.2210  0.6456
  532TMC3    O1 7906   1.403   0.185  13.636 -0.5862 -0.2475  0.4357
  532TMC3    O2 7907   0.925   0.013  13.741  0.3034 -0.2402  0.3464
  533TMC3    C1 7908   1.912   1.701  14.824 -0.3479 -0.0269  0.0519
  533TMC3    C2 7909   2.039   1.696  14.794  0.3861 -0.7720 -0.1272
  533TMC3    C3 7910   2.126   1.781  14.856  0.5708 -0.2524 -0.1319
  533TMC3    C4 7911   1.864   1.799  14.907  0.5397 -0.2854  0.9442
  533TMC3    C5 7912   1.948   1.885  14.962 -0.3154 -0.1035 -0.2824
  533TMC3    C6 7913   2.085   1.877  14.945  0.4348 -0.2946  0.3057
  533TMC3     C 7914   1.823   1.599  14.777 -0.2039 -0.0042  0.0489
  533TMC3     O 7915   1.707   1.644  14.769  0.7775  0.3354 -0.1392
  533TMC3     H 7916   2.079   1.617  14.732  1.5877  0.6766 -1.2041
  533TMC3    H1 7917   1.759   1.811  14.934 -0.0451 -0.2073 -1.3317
  533TMC3    H2 7918   2.144   1.962  14.979 -0.0859  0.1727  0.0422
  533TMC3    C7 7919   1.902   1.926  15.098 -0.3795  0.3809 -0.2992
  533TMC3    C8 7920   2.248   1.816  14.788 -0.3567  0.1825  0.3617
  533TMC3    O1 7921   1.793   1.980  15.100  0.7203 -0.5449 -0.4112
  533TMC3    O2 7922   2.270   1.759  14.683  0.4599  0.3631 -0.5301
  534MPD2     C 7923   3.527   2.639   1.952 -0.8123  0.0191 -0.6968
  534MPD2    C1 7924   3.596   2.637   1.829 -0.4815 -0.0631  0.4838
  534MPD2    C2 7925   3.600   2.513   1.764 -0.1190 -0.6320  0.3260
  534MPD2    C3 7926   3.538   2.399   1.815  0.3908 -0.2868  0.6873
  534MPD2    C4 7927   3.470   2.404   1.934 -0.0338  0.0112 -0.1836
  534MPD2    C5 7928   3.464   2.529   1.996 -0.7075  0.1201  0.8058
  534MPD2     H 7929   3.656   2.515   1.671 -2.8771 -2.3809 -1.3551
  534MPD2    H1 7930   3.416   2.321   1.977 -1.6428  0.8237 -0.6408
  534MPD2    H2 7931   3.511   2.730   2.009 -2.5442 -0.4298 -0.4800
  534MPD2    H3 7932   3.411   2.530   2.091 -0.8509  2.6447  0.6977
  534MPD2     N 7933   3.542   2.278   1.751 -0.0811  0.6182 -0.1017
  534MPD2    H5 7934   3.465   2.214   1.767  2.1037 -1.5770  1.6450
  534MPD2    N1 7935   3.656   2.742   1.762  0.5096 -0.4986 -0.3816
  534MPD2    H7 7936   3.687   2.727   1.667 -0.1494  0.7454 -0.7967
  535TMC3    C1 7937   3.594   2.130   1.567  0.2468 -0.1868  0.0141
  535TMC3    C2 7938   3.453   2.119   1.563 -0.1308 -0.5238  0.0062
  535TMC3    C3 7939   3.395   2.119   1.439  0.2454 -0.5054 -0.3171
  535TMC3    C4 7940   3.671   2.125   1.454 -0.0616 -0.5742  0.0482
  535TMC3    C5 7941   3.599   2.150   1.341  0.1362  0.8236 -0.2216
  535TMC3    C6 7942   3.467   2.140   1.329 -0.0396 -0.3682  0.1588
  535TMC3     C 7943   3.635   2.242   1.657  0.0482  0.5089  0.0867
  535TMC3     O 7944   3.729   2.306   1.613  0.4651 -0.6726  0.0546
  535TMC3     H 7945   3.396   2.099   1.653  1.0617  2.2703  1.3757
  535TMC3    H1 7946   3.778   2.139   1.463  0.1021 -0.2438 -2.5265
  535TMC3    H2 7947   3.420   2.149   1.232 -0.2841 -0.6059  0.2545
  535TMC3    C7 7948   3.668   2.238   1.251 -0.2645  0.4741  0.1198
  535TMC3    C8 7949   3.253   2.112   1.417  0.1414  0.1330  0.2641
  535TMC3    O1 7950   3.788   2.225   1.247 -0.3924  0.6872 -0.5921
  535TMC3    O2 7951   3.230   2.074   1.303  0.1023  0.0637  0.8794
  536MPD2     C 7952   3.844   0.805  16.425  0.0724 -0.7814 -0.0952
  536MPD2    C1 7953   3.712   0.792  16.449 -0.0669  1.0382 -0.8326
  536MPD2    C2 7954   3.626   0.873  16.371  0.9909  0.1439 -0.5121
  536MPD2    C3 7955   3.673   0.953  16.269  0.1403 -0.0568 -0.5446
  536MPD2    C4 7956   3.808   0.962  16.248 -0.4709 -0.1032  0.1982
  536MPD2    C5 7957   3.885   0.881  16.318 -0.0779  0.4731 -0.0388
  536MPD2     H 7958   3.521   0.872  16.395  0.8270  0.0714 -1.2325
  536MPD2    H1 7959   3.848   1.039  16.183 -2.0836 -0.9461 -1.8132
  536MPD2    H2 7960   3.928   0.761  16.478 -0.8079 -3.2385 -0.7401
  536MPD2    H3 7961   3.989   0.908  16.303  0.9851 -2.8622  1.4163
  536MPD2     N 7962   3.588   1.029  16.190 -0.5714 -0.3172 -0.7369
  536MPD2    H5 7963   3.619   1.062  16.099 -0.2934 -0.3073 -0.6392
  536MPD2    N1 7964   3.676   0.706  16.558 -0.6077  0.4948 -0.6139
  536MPD2    H7 7965   3.748   0.679  16.624  2.1826  2.0400 -3.0262
  537TMC3    C1 7966   3.524   0.578  16.678 -0.2198  0.9340  0.0104
  537TMC3    C2 7967   3.573   0.611  16.797 -0.8242 -0.8258  0.6359
  537TMC3    C3 7968   3.524   0.548  16.908 -0.1015 -0.0894  0.3637
  537TMC3    C4 7969   3.419   0.486  16.663 -0.1887 -0.5332  0.4089
  537TMC3    C5 7970   3.373   0.419  16.776 -0.1158 -0.3589  0.2963
  537TMC3    C6 7971   3.431   0.451  16.895 -0.0480 -0.4529 -0.2686
  537TMC3     C 7972   3.554   0.654  16.563  0.0213 -0.1000  0.5417
  537TMC3     O 7973   3.468   0.647  16.475 -0.0478  0.2747 -0.5510
  537TMC3     H 7974   3.634   0.700  16.804  0.1515 -1.3794 -0.8089
  537TMC3    H1 7975   3.377   0.459  16.567 -1.0939 -0.6384  0.8402
  537TMC3    H2 7976   3.408   0.395  16.985 -2.7500  0.6594 -0.2722
  537TMC3    C7 7977   3.250   0.345  16.762 -0.0512  0.2306  0.1003
  537TMC3    C8 7978   3.614   0.569  17.019  0.0427  0.1888  1.0009
  537TMC3    O1 7979   3.209   0.317  16.646 -0.0501 -0.1975  0.2587
  537TMC3    O2 7980   3.694   0.660  17.014 -0.2069  0.5001 -0.2794
  538TMC3    C1 7981   0.167   4.498  10.895 -0.3556  0.3557  0.2936
  538TMC3    C2 7982   0.249   4.433  10.797  0.4392  0.4487 -0.2866
  538TMC3    C3 7983   0.198   4.417  10.673  0.2993 -0.8891  0.0715
  538TMC3    C4 7984   0.041   4.529  10.866  0.3692 -0.3605  0.1034
  538TMC3    C5 7985   4.718   4.512  10.739 -0.0523 -0.2494  0.7810
  538TMC3    C6 7986   0.073   4.448  10.640 -0.1448  0.0952  0.0817
  538TMC3     C 7987   0.175   4.466  11.040  0.2189  0.1248  0.6306
  538TMC3     O 7988   0.080   4.437  11.108  0.0305 -0.9319 -0.2559
  538TMC3     H 7989   0.345   4.391  10.826  0.5535  0.4657 -0.6415
  538TMC3    H1 7990   4.715   4.586  10.942 -2.7459 -0.2422 -2.0920
  538TMC3    H2 7991   0.035   4.436  10.540  1.8177 -0.8464 -0.5456
  538TMC3    C7 7992   4.578   4.480  10.737  0.0601 -0.7888 -0.1995
  538TMC3    C8 7993   0.265   4.326  10.585 -0.9802  0.1634  0.4304
  538TMC3    O1 7994   4.518   4.451  10.840  0.1310 -0.0176  0.0720
  538TMC3    O2 7995   0.201   4.251  10.520  0.4976 -0.3066 -0.2260
  539MPD2     C 7996   4.369   2.986  11.740  0.6765 -0.4920 -0.4503
  539MPD2    C1 7997   4.352   3.046  11.616  0.5569 -0.1615  0.3261
  539MPD2    C2 7998   4.290   3.169  11.615 -0.0476 -0.2211  0.0570
  539MPD2    C3 7999   4.224   3.227  11.724 -0.5834 -0.6440  0.4595
  539MPD2    C4 8000   4.228   3.149  11.836 -0.3007  0.2716  0.0792
  539MPD2    C5 8001   4.297   3.032  11.849  0.0221 -0.9405  0.1669
  539MPD2     H 8002   4.296   3.228  11.524  0.8219 -0.1807  0.1442
  539MPD2    H1 8003   4.175   3.174  11.927  0.9919 -2.7686  1.6864
  539MPD2    H2 8004   4.434   2.900  11.752  1.1091 -0.3197 -1.5094
  539MPD2    H3 8005   4.290   2.989  11.948  0.7419 -2.0312 -0.2563
  539MPD2     N 8006   4.155   3.351  11.711 -0.6204 -0.1864  0.5027
  539MPD2    H5 8007   4.085   3.355  11.785  0.7439  0.8041  1.7510
  539MPD2    N1 8008   4.430   2.999  11.511 -0.1837  0.8427 -0.3818
  539MPD2    H7 8009   4.466   3.069  11.447 -0.1161 -1.1289 -2.4902
  540TMC3    C1 8010   4.022   3.525  11.615  0.1557 -0.5687  0.1062
  540TMC3    C2 8011   3.967   3.570  11.500 -0.4795 -0.8962  0.0562
  540TMC3    C3 8012   3.844   3.633  11.507  0.0753  0.5023  1.0640
  540TMC3    C4 8013   3.959   3.535  11.736  0.2956  0.3204  0.0134
  540TMC3    C5 8014   3.833   3.596  11.739 -0.6934 -0.2239  0.0111
  540TMC3    C6 8015   3.775   3.630  11.625  0.0021 -0.0998 -0.6846
  540TMC3     C 8016   4.135   3.428  11.604 -0.8123 -0.4526  0.7973
  540TMC3     O 8017   4.207   3.439  11.505 -0.1882  0.0420  0.4004
  540TMC3     H 8018   4.021   3.564  11.406 -1.4609  0.9574 -0.6315
  540TMC3    H1 8019   4.003   3.490  11.824 -1.0796  0.2546  0.6546
  540TMC3    H2 8020   3.672   3.665  11.627 -0.1643 -0.5423 -1.6119
  540TMC3    C7 8021   3.746   3.575  11.849 -0.5606  0.7507 -1.3408
  540TMC3    C8 8022   3.754   3.637  11.386  0.1100  0.0627  0.1640
  540TMC3    O1 8023   3.626   3.574  11.824 -0.0847 -0.1493  0.3888
  540TMC3    O2 8024   3.644   3.589  11.405  0.0632 -0.0701 -0.3916
  541MPD2     C 8025   2.851   4.581  13.216  0.5948  0.5862 -0.1698
  541MPD2    C1 8026   2.728   4.639  13.241 -0.6371 -0.8343 -0.1552
  541MPD2    C2 8027   2.684   0.034  13.189  0.4276 -0.1702  0.5710
  541MPD2    C3 8028   2.769   0.106  13.109  0.2993 -0.7472  0.4220
  541MPD2    C4 8029   2.896   0.063  13.087 -0.5524 -0.4047  0.2306
  541MPD2    C5 8030   2.934   4.666  13.143 -0.2356 -0.1752 -0.2403
  541MPD2     H 8031   2.585   0.075  13.200 -0.2119 -1.2647 -1.1743
  541MPD2    H1 8032   2.977   0.119  13.040 -0.6223 -1.0046 -0.5890
  541MPD2    H2 8033   2.891   4.488  13.253 -0.7945 -0.5086 -1.4078
  541MPD2    H3 8034   3.036   4.637  13.122  0.4597 -0.5491  3.6911
  541MPD2     N 8035   2.736   0.237  13.058 -0.1001 -0.3791 -0.7788
  541MPD2    H5 8036   2.782   0.269  12.974  0.1031 -0.4784 -0.7042
  541MPD2    N1 8037   2.624   4.563  13.308 -0.2546  0.8439  0.2701
  541MPD2    H7 8038   2.544   4.625  13.310  0.5280  1.9069 -0.9435
  542TMC3    C1 8039   2.597   0.410  12.990 -0.0733 -0.1955  0.0691
  542TMC3    C2 8040   2.600   0.388  12.856  0.1288  0.2700 -0.5629
  542TMC3    C3 8041   2.554   0.487  12.769  0.2838  0.4821 -0.0203
  542TMC3    C4 8042   2.550   0.531  13.043  0.6639  0.3698  0.1348
  542TMC3    C5 8043   2.507   0.623  12.945  0.6022  0.1274  0.0223
  542TMC3    C6 8044   2.515   0.610  12.808 -0.0166  0.2634 -0.1815
  542TMC3     C 8045   2.625   0.307  13.088 -0.1794 -0.9909 -0.0932
  542TMC3     O 8046   2.548   0.295  13.181  0.6025 -0.0317 -0.2982
  542TMC3     H 8047   2.621   0.289  12.818  1.5354  1.1288 -2.0033
  542TMC3    H1 8048   2.532   0.537  13.150 -1.7946 -1.1436 -0.1956
  542TMC3    H2 8049   2.489   0.692  12.741 -2.4936 -0.4020 -0.0192
  542TMC3    C7 8050   2.457   0.750  12.993 -0.5979  0.4085  0.4250
  542TMC3    C8 8051   2.587   0.476  12.628 -0.3380 -0.3793  0.5043
  542TMC3    O1 8052   2.345   0.785  12.951  0.2772  0.2133  0.4492
  542TMC3    O2 8053   2.507   0.405  12.569  0.0564  0.1117  0.1436
  543TMC3    C1 8054   1.911   1.544  17.029 -0.1673  0.3540  0.0255
  543TMC3    C2 8055   1.960   1.429  17.075 -0.2088  0.2853  0.1280
  543TMC3    C3 8056   1.991   1.411  17.207  0.2372  0.4143 -0.4149
  543TMC3    C4 8057   1.884   1.648  17.114 -0.3491 -0.5333  0.1120
  543TMC3    C5 8058   1.906   1.632  17.246 -0.0810  0.4534 -0.7089
  543TMC3    C6 8059   1.954   1.513  17.294  0.5923  0.4258 -0.4176
  543TMC3     C 8060   1.959   1.578  16.895 -0.4838  0.7442  0.0979
  543TMC3     O 8061   2.055   1.521  16.852  0.4164  0.1964  0.8921
  543TMC3     H 8062   1.982   1.353  17.000  2.8431  1.4490 -0.1875
  543TMC3    H1 8063   1.869   1.750  17.080 -1.5991 -0.4155  1.0511
  543TMC3    H2 8064   1.972   1.499  17.400  1.3819 -1.6805 -0.8273
  543TMC3    C7 8065   1.916   1.759  17.323 -0.5208  0.0347  0.1194
  543TMC3    C8 8066   2.026   1.275  17.250  0.8324  0.2156 -0.4749
  543TMC3    O1 8067   1.884   1.859  17.264 -0.2556  0.8277  0.2411
  543TMC3    O2 8068   2.013   1.188  17.164  0.4483  0.2396  0.8128
  544MPD2     C 8069   2.290   0.945  17.549 -0.3961 -0.3989 -0.1836
  544MPD2    C1 8070   2.244   0.935  17.423  0.1416  0.3951  0.3195
  544MPD2    C2 8071   2.176   1.042  17.364 -0.1221 -0.1960  0.0264
  544MPD2    C3 8072   2.153   1.160  17.431  0.0955  0.4271  0.0640
  544MPD2    C4 8073   2.216   1.176  17.558  0.0474  0.9732  0.6097
  544MPD2    C5 8074   2.282   1.070  17.617  0.4354  0.2863  0.1915
  544MPD2     H 8075   2.146   1.021  17.262  0.1360  0.3695 -0.1614
  544MPD2    H1 8076   2.221   1.273  17.607  0.0853  0.3874  1.7556
  544MPD2    H2 8077   2.351   0.872  17.599 -0.8351 -0.2975  0.5053
  544MPD2    H3 8078   2.336   1.086   0.007  0.6636 -0.6726  0.2254
  544MPD2     N 8079   2.081   1.269  17.372  0.1170 -0.2156  0.5250
  544MPD2    H5 8080   2.083   1.355  17.425 -0.1133  0.1880 -0.1266
  544MPD2    N1 8081   2.274   0.820  17.338  0.3106  0.1252 -0.0017
  544MPD2    H7 8082   2.233   0.811  17.245  0.3680 -1.0130  0.0854
  545TMC3    C1 8083   2.318   0.588  17.289 -0.3996  0.5529  0.0033
  545TMC3    C2 8084   2.324   0.634  17.161 -0.4893 -0.5479 -0.3153
  545TMC3    C3 8085   2.266   0.556  17.067  0.2340  0.3853  0.2588
  545TMC3    C4 8086   2.268   0.458  17.319  0.3758  0.2547  0.3800
  545TMC3    C5 8087   2.223   0.382  17.214 -0.4404 -0.4318 -0.3093
  545TMC3    C6 8088   2.224   0.424  17.082 -0.6055  0.1368 -0.2134
  545TMC3     C 8089   2.311   0.695  17.394  0.1594 -0.0709 -0.1811
  545TMC3     O 8090   2.321   0.658  17.512 -0.4841  0.5115  0.2809
  545TMC3     H 8091   2.365   0.731  17.134 -2.3777  0.8330  1.7997
  545TMC3    H1 8092   2.250   0.425  17.420  2.5289 -1.3685  0.2486
  545TMC3    H2 8093   2.192   0.367  16.996  1.4787 -1.4526  0.0700
  545TMC3    C7 8094   2.144   0.256  17.229  0.2573  0.5440  0.4683
  545TMC3    C8 8095   2.260   0.616  16.938  0.8131  0.4022 -0.1570
  545TMC3    O1 8096   2.065   0.238  17.142 -0.4956 -0.1701  0.2224
  545TMC3    O2 8097   2.349   0.689  16.898  1.3702  0.7217  0.0261
  546MPD2     C 8098   4.015   1.179  17.195 -0.0191 -0.7084  0.1259
  546MPD2    C1 8099   3.919   1.277  17.173 -0.1561 -0.0091 -0.0237
  546MPD2    C2 8100   3.955   1.415  17.193 -0.1263  0.0626  0.0015
  546MPD2    C3 8101   4.085   1.453  17.228  0.6266  0.3748  0.0901
  546MPD2    C4 8102   4.176   1.357  17.242  0.0281  0.8196 -0.5377
  546MPD2    C5 8103   4.134   1.226  17.228 -0.1458 -0.2614  0.2311
  546MPD2     H 8104   3.892   1.500  17.170  0.6867  0.5891 -0.3048
  546MPD2    H1 8105   4.280   1.373  17.266  0.2873  1.5707 -2.1815
  546MPD2    H2 8106   4.004   1.072  17.185  0.7249 -0.7214 -0.5187
  546MPD2    H3 8107   4.212   1.154  17.249 -1.4854 -1.8998 -0.4539
  546MPD2     N 8108   4.119   1.589  17.245 -0.2168 -0.0257  0.0379
  546MPD2    H5 8109   4.214   1.613  17.268  0.5096 -0.0459 -2.8771
  546MPD2    N1 8110   3.794   1.247  17.115  0.1347 -0.1020 -0.2958
  546MPD2    H7 8111   3.768   1.149  17.108  2.8442 -0.6053 -3.0563
  547TMC3    C1 8112   3.589   1.268  16.985 -0.1980 -0.1461  0.2856
  547TMC3    C2 8113   3.493   1.360  16.950  0.7212  0.4523  0.6227
  547TMC3    C3 8114   3.374   1.318  16.887 -0.0586 -0.0109 -0.2255
  547TMC3    C4 8115   3.568   1.129  16.963 -0.3700 -0.2939 -0.1266
  547TMC3    C5 8116   3.453   1.096  16.897  0.0903 -0.2086 -0.3487
  547TMC3    C6 8117   3.363   1.188  16.849 -0.2483  0.2631 -0.6648
  547TMC3     C 8118   3.702   1.329  17.056  0.3566 -0.0530  0.2771
  547TMC3     O 8119   3.702   1.451  17.051  0.3446  0.1338 -0.2791
  547TMC3     H 8120   3.505   1.467  16.962 -0.5229  0.4860  1.4661
  547TMC3    H1 8121   3.635   1.051  16.995 -2.8857 -2.1714  0.5710
  547TMC3    H2 8122   3.274   1.154  16.797 -1.7630 -0.9535  2.7584
  547TMC3    C7 8123   3.393   0.972  16.945 -0.0023  0.3150 -0.3832
  547TMC3    C8 8124   3.268   1.412  16.870  0.4065 -0.5199 -0.2268
  547TMC3    O1 8125   3.423   0.948  17.060  0.1102 -0.6930 -0.5030
  547TMC3    O2 8126   3.192   1.388  16.777  0.0702  0.2606  0.0005
  548MPD2     C 8127   3.344   2.243  12.372 -0.2518  0.4178  0.2223
  548MPD2    C1 8128   3.310   2.162  12.479  0.9109  0.0066  0.0670
  548MPD2    C2 8129   3.386   2.044  12.500  0.0797  0.8054  0.3650
  548MPD2    C3 8130   3.475   2.007  12.403 -0.2762 -0.5037  0.6453
  548MPD2    C4 8131   3.489   2.076  12.291  0.0888  0.1668  0.3543
  548MPD2    C5 8132   3.435   2.196  12.277  0.4086  0.6807 -0.4098
  548MPD2     H 8133   3.383   1.996  12.597 -1.8409  0.8946  0.3592
  548MPD2    H1 8134   3.550   2.038  12.209 -0.0864  0.2120  0.2033
  548MPD2    H2 8135   3.303   2.341  12.351  1.3373  1.5262  2.2196
  548MPD2    H3 8136   3.450   2.246  12.182  0.2695 -1.1195 -1.3712
  548MPD2     N 8137   3.535   1.879  12.424  0.1067 -0.1167  0.0031
  548MPD2    H5 8138   3.549   1.839  12.516  2.6853  2.2020  0.6383
  548MPD2    N1 8139   3.205   2.204  12.565 -0.3843 -0.2691 -0.2421
  548MPD2    H7 8140   3.162   2.293  12.545  0.9318 -0.1410 -2.5367
  549TMC3    C1 8141   3.037   2.189  12.730 -0.8713  0.2386 -0.0184
  549TMC3    C2 8142   2.958   2.282  12.673 -0.1004 -0.1871 -0.2082
  549TMC3    C3 8143   2.841   2.323  12.733 -0.3640 -0.9182  0.5910
  549TMC3    C4 8144   3.000   2.140  12.848  0.0894  0.2101  0.8422
  549TMC3    C5 8145   2.884   2.180  12.910 -0.1027 -0.1274 -0.5103
  549TMC3    C6 8146   2.799   2.269  12.852 -0.4649  0.1081 -0.5973
  549TMC3     C 8147   3.156   2.134  12.666  0.2910  0.4230  0.6850
  549TMC3     O 8148   3.196   2.032  12.727 -0.0886  0.1412  0.0464
  549TMC3     H 8149   2.982   2.319  12.574 -1.8218  0.9189 -0.1976
  549TMC3    H1 8150   3.064   2.078  12.911  1.6312  1.2655  0.3305
  549TMC3    H2 8151   2.700   2.288  12.892  0.1815  0.5817  0.7839
  549TMC3    C7 8152   2.818   2.090  12.987  0.4296  0.1482  0.5668
  549TMC3    C8 8153   2.738   2.371  12.638  0.0942 -0.1325 -0.0976
  549TMC3    O1 8154   2.760   2.139  13.082 -0.3751 -0.9193 -0.1250
  549TMC3    O2 8155   2.756   2.346  12.520  0.5478  0.1217 -0.3518
  550TMC3    C1 8156   2.159   4.689  12.334 -0.6399  0.2262  0.0884
  550TMC3    C2 8157   2.136   0.050  12.437  0.6666  0.6611 -0.6373
  550TMC3    C3 8158   2.006   0.067  12.481  0.0089  0.0753  0.7316
  550TMC3    C4 8159   2.060   4.619  12.271 -0.3843  0.2438 -0.2761
  550TMC3    C5 8160   1.936   4.644  12.320  0.3351  0.0750 -0.1206
  550TMC3    C6 8161   1.904   0.004  12.424 -0.4458 -1.3113  0.8050
  550TMC3     C 8162   2.299   4.679  12.309 -0.3313 -0.7910 -0.3266
  550TMC3     O 8163   2.386   4.724  12.384 -0.0452 -0.2526 -0.5470
  550TMC3     H 8164   2.218   0.108  12.477  0.1436  0.8317  0.1931
  550TMC3    H1 8165   2.088   4.549  12.194  0.6156 -0.7067  0.9413
  550TMC3    H2 8166   1.806   0.003  12.470 -0.3009 -1.1769  1.1149
  550TMC3    C7 8167   1.822   4.593  12.253 -0.5568 -0.1591  0.2342
  550TMC3    C8 8168   1.974   0.169  12.570 -0.3194 -0.0412 -0.1640
  550TMC3    O1 8169   1.717   4.590  12.320 -0.0850  0.0849 -0.1097
  550TMC3    O2 8170   1.893   0.145  12.655 -0.6502 -0.5042  0.5162
  551TMC3    C1 8171   4.322   2.678  13.339  0.6749  0.1402  0.2301
  551TMC3    C2 8172   4.401   2.753  13.255 -0.5417 -0.8356 -0.4020
  551TMC3    C3 8173   4.467   2.856  13.317 -0.0801 -0.3129 -0.0965
  551TMC3    C4 8174   4.310   2.707  13.469  0.4192 -0.4156 -0.3491
  551TMC3    C5 8175   4.375   2.814  13.519 -0.0111 -0.5092  0.7877
  551TMC3    C6 8176   4.464   2.885  13.448  0.5512 -0.4954 -0.0618
  551TMC3     C 8177   4.209   2.630  13.268  0.1622  0.0262 -0.4550
  551TMC3     O 8178   4.216   2.624  13.145 -0.0037  0.4747 -0.2140
  551TMC3     H 8179   4.395   2.749  13.147  2.2378 -1.5202 -0.5346
  551TMC3    H1 8180   4.261   2.638  13.537 -1.8614  1.2555 -0.2921
  551TMC3    H2 8181   4.529   2.962  13.489 -0.4574  0.0332  0.5586
  551TMC3    C7 8182   4.350   2.835  13.659  0.2168 -0.0004 -0.2643
  551TMC3    C8 8183   4.571   2.919  13.240  0.8619 -0.4000 -0.3022
  551TMC3    O1 8184   4.287   2.749  13.716 -0.1765 -0.4709 -0.3768
  551TMC3    O2 8185   4.631   2.840  13.172 -0.0490  0.2966  0.4573
  552MPD2     C 8186   0.991   4.477  14.039  0.4003  0.5377  0.7622
  552MPD2    C1 8187   0.999   4.376  14.129 -0.6447  0.5011 -0.5686
  552MPD2    C2 8188   1.096   4.384  14.229  0.2103  0.1069  0.0974
  552MPD2    C3 8189   1.200   4.477  14.221 -0.2019 -0.0220 -0.1445
  552MPD2    C4 8190   1.192   4.569  14.119  0.3527  0.1919  0.3584
  552MPD2    C5 8191   1.088   4.572  14.028 -0.0896  0.3875  0.2827
  552MPD2     H 8192   1.087   4.307  14.305  1.5219  1.2964  1.4743
  552MPD2    H1 8193   1.264   4.648  14.103  2.2701 -1.6246 -0.0685
  552MPD2    H2 8194   0.911   4.481  13.966  1.6792  0.6268 -0.6432
  552MPD2    H3 8195   1.067   4.635  13.943 -1.1208  1.2841  1.1955
  552MPD2     N 8196   1.303   4.497  14.315  0.2486  0.6569  0.7039
  552MPD2    H5 8197   1.366   4.574  14.296 -1.7237  1.1451 -3.8857
  552MPD2    N1 8198   0.918   4.259  14.132 -0.5936  0.0248 -0.2531
  552MPD2    H7 8199   0.936   4.191  14.205 -0.0841  0.5859  0.1451
  553TMC3    C1 8200   0.774   4.096  14.049 -0.5756  0.8368 -0.3360
  553TMC3    C2 8201   0.690   4.065  13.954  0.2223  0.2959  0.3613
  553TMC3    C3 8202   0.691   3.947  13.892  0.3928 -0.1035  1.0245
  553TMC3    C4 8203   0.859   4.000  14.099 -0.1690 -0.4660 -0.3982
  553TMC3    C5 8204   0.868   3.888  14.031  0.8304 -0.5884  0.9438
  553TMC3    C6 8205   0.777   3.854  13.932  0.3614 -0.3957 -0.1891
  553TMC3     C 8206   0.834   4.226  14.038  0.6426 -0.4879 -0.2779
  553TMC3     O 8207   0.791   4.297  13.951  0.5660 -0.3484 -0.2577
  553TMC3     H 8208   0.633   4.147  13.913  0.2617 -0.7961 -1.9200
  553TMC3    H1 8209   0.923   4.021  14.184  0.4359  1.4955 -1.3344
  553TMC3    H2 8210   0.776   3.761  13.877 -2.0541 -1.6486  1.9589
  553TMC3    C7 8211   0.994   3.874  13.967  0.1510  0.1173  0.1320
  553TMC3    C8 8212   0.690   3.961  13.745 -0.5485  1.3652  0.5695
  553TMC3    O1 8213   1.002   3.837  13.850 -0.2951  0.2916  0.6411
  553TMC3    O2 8214   0.580   3.988  13.696 -0.8554  0.7246  0.1647
  554TMC3    C1 8215   3.124   3.423  11.472 -0.0451 -0.2270 -0.1046
  554TMC3    C2 8216   3.093   3.358  11.356  0.7069 -0.7417 -0.3730
  554TMC3    C3 8217   3.157   3.407  11.248  0.6424 -0.0360 -0.2357
  554TMC3    C4 8218   3.203   3.531  11.485 -0.7134 -0.1627  0.5852
  554TMC3    C5 8219   3.268   3.577  11.375 -0.4411 -0.4995  0.3972
  554TMC3    C6 8220   3.249   3.504  11.257 -0.2224 -0.5489 -0.4181
  554TMC3     C 8221   3.104   3.355  11.594  0.4202 -0.0224  0.5085
  554TMC3     O 8222   3.002   3.287  11.609 -0.2912 -0.0063 -0.0189
  554TMC3     H 8223   3.041   3.263  11.348 -1.3697  0.3527  0.2486
  554TMC3    H1 8224   3.207   3.586  11.578 -1.9765  0.5435  0.2138
  554TMC3    H2 8225   3.311   3.541  11.176 -0.4832 -0.4350 -0.5666
  554TMC3    C7 8226   3.317   3.716  11.362 -0.2095 -0.1264 -0.3979
  554TMC3    C8 8227   3.124   3.374  11.111 -0.1723  0.5975  0.0912
  554TMC3    O1 8228   3.293   3.754  11.249 -0.3159  0.1491 -0.3872
  554TMC3    O2 8229   3.212   3.392  11.026  0.2353 -0.1238  0.2439
  555TMC3    C1 8230   2.233   3.189  15.268  0.3480 -0.2001 -0.2928
  555TMC3    C2 8231   2.185   3.280  15.363  0.4061  0.1977 -0.2385
  555TMC3    C3 8232   2.228   3.260  15.491  0.2214 -0.4285 -0.0458
  555TMC3    C4 8233   2.290   3.075  15.302 -1.3639 -0.4819 -1.0522
  555TMC3    C5 8234   2.321   3.046  15.435 -0.5134 -0.2131  0.0783
  555TMC3    C6 8235   2.283   3.140  15.528 -0.6538  0.1574 -0.3217
  555TMC3     C 8236   2.258   3.236  15.131  0.0617 -0.3825  0.0662
  555TMC3     O 8237   2.370   3.218  15.086  0.7352  0.2009  0.2082
  555TMC3     H 8238   2.157   3.379  15.329 -0.2093 -0.4272 -1.5309
  555TMC3    H1 8239   2.315   3.009  15.220  1.7686 -0.2771 -0.2852
  555TMC3    H2 8240   2.299   3.111  15.631 -2.0536  1.2277  0.1979
  555TMC3    C7 8241   2.375   2.914  15.472 -0.5834  0.3157 -0.1660
  555TMC3    C8 8242   2.194   3.365  15.590  0.0617  1.4241  0.4317
  555TMC3    O1 8243   2.343   2.866  15.581  0.5069  0.3595  0.1712
  555TMC3    O2 8244   2.108   3.445  15.556  0.2206 -0.5129  0.0355
  556MPD2     C 8245   0.671   0.274  10.664 -0.2436 -0.0368  0.0258
  556MPD2    C1 8246   0.701   0.159  10.731  0.2193  0.1084 -0.6688
  556MPD2    C2 8247   0.812   0.075  10.699 -1.3929  0.0188 -0.1363
  556MPD2    C3 8248   0.896   0.122  10.596 -0.6047 -0.3063  0.8060
  556MPD2    C4 8249   0.878   0.249  10.535 -0.1285 -0.4389 -0.0873
  556MPD2    C5 8250   0.762   0.318  10.571 -0.3068 -0.6047  0.1489
  556MPD2     H 8251   0.829   4.701  10.739 -0.8375  0.6011  1.0667
  556MPD2    H1 8252   0.939   0.283  10.451 -1.8774 -0.1121 -1.2235
  556MPD2    H2 8253   0.583   0.332  10.688  0.0992  0.5552 -0.1433
  556MPD2    H3 8254   0.741   0.414  10.525  3.6060 -0.0907 -0.5920
  556MPD2     N 8255   0.999   0.031  10.557 -0.5719  0.3816 -0.4611
  556MPD2    H5 8256   0.983   4.659  10.579 -1.9674  0.5971 -0.5161
  556MPD2    N1 8257   0.623   0.112  10.841 -0.0667  0.0399  0.0456
  556MPD2    H7 8258   0.660   0.026  10.881  1.2087 -0.1459 -1.5471
  557TMC3    C1 8259   1.140   4.656  10.399 -0.1116 -0.5195 -0.2182
  557TMC3    C2 8260   1.139   4.676  10.263  0.3385 -0.3846 -0.5358
  557TMC3    C3 8261   1.067   4.584  10.190  0.2399 -0.2018  0.4265
  557TMC3    C4 8262   1.100   4.535  10.456  0.4201  0.0977  0.4921
  557TMC3    C5 8263   1.028   4.450  10.384  0.2877  0.6173  0.1912
  557TMC3    C6 8264   1.013   4.470  10.250  0.5464 -0.2264 -0.1179
  557TMC3     C 8265   1.100   0.053  10.467 -1.0183 -0.1498 -0.2007
  557TMC3     O 8266   1.136   0.163  10.425 -0.4057 -0.0952 -0.3597
  557TMC3     H 8267   1.176   0.043  10.220  2.0123 -0.2332  1.2571
  557TMC3    H1 8268   1.111   4.519  10.562 -1.5937 -0.4636  0.6117
  557TMC3    H2 8269   0.963   4.398  10.187  0.7253 -0.1224 -0.3794
  557TMC3    C7 8270   0.912   4.404  10.462  0.1463  0.5841  0.3241
  557TMC3    C8 8271   1.047   4.614  10.045  0.2042 -0.5660 -0.1595
  557TMC3    O1 8272   0.882   4.464  10.560 -0.4479 -0.1857 -0.4945
  557TMC3    O2 8273   1.117   4.702  10.001  0.0392 -0.6826  0.4242
  558TMC3    C1 8274   3.149   2.270  10.463 -0.4504 -0.9771  0.3121
  558TMC3    C2 8275   3.050   2.189  10.511  0.2135 -0.4467  0.0690
  558TMC3    C3 8276   2.924   2.196  10.455  1.2538  0.4133 -0.9522
  558TMC3    C4 8277   3.121   2.338  10.348 -0.5469  0.0769  0.0047
  558TMC3    C5 8278   2.997   2.324  10.284  0.4796  0.3440  0.0267
  558TMC3    C6 8279   2.892   2.259  10.340 -0.6641 -1.1169 -0.2039
  558TMC3     C 8280   3.251   2.326  10.548  0.8740 -0.7918  0.2687
  558TMC3     O 8281   3.360   2.357  10.497  0.2823  0.3057  0.0227
  558TMC3     H 8282   3.060   2.130  10.602  0.1855  1.7358  1.4839
  558TMC3    H1 8283   3.202   2.401  10.314 -1.0975 -0.0225 -1.4906
  558TMC3    H2 8284   2.789   2.275  10.310 -0.3125  1.1375 -0.1976
  558TMC3    C7 8285   2.961   2.436  10.188  0.1114 -0.1391 -0.2071
  558TMC3    C8 8286   2.816   2.120  10.523 -0.0073  0.2952  0.0218
  558TMC3    O1 8287   3.013   2.543  10.223 -0.2537 -0.1732  0.0183
  558TMC3    O2 8288   2.739   2.062  10.451  0.2391  0.6114  0.6902
  559MPD2     C 8289   3.270   2.670  10.415  0.2296  0.5839  0.4006
  559MPD2    C1 8290   3.171   2.739  10.490 -0.1253 -0.5234  0.6607
  559MPD2    C2 8291   3.207   2.808  10.608 -0.5432 -0.0589  0.5866
  559MPD2    C3 8292   3.341   2.804  10.659  0.1057  0.5865 -0.4527
  559MPD2    C4 8293   3.438   2.726  10.596  0.1617  0.0103  0.5584
  559MPD2    C5 8294   3.398   2.656  10.478  0.3392  0.4445 -0.1294
  559MPD2     H 8295   3.132   2.858  10.667 -0.3222  1.8805 -0.7612
  559MPD2    H1 8296   3.538   2.710  10.635  0.3892  0.4354  0.1442
  559MPD2    H2 8297   3.249   2.625  10.319  1.5839  0.1349  0.3043
  559MPD2    H3 8298   3.470   2.592  10.428  1.1449  1.8466 -0.7541
  559MPD2     N 8299   3.374   2.864  10.786 -0.1005  0.2596  0.7776
  559MPD2    H5 8300   3.296   2.893  10.845 -0.7668 -1.4201  0.7190
  559MPD2    N1 8301   3.041   2.732  10.434  0.9899 -1.2180 -0.1143
  559MPD2    H7 8302   3.023   2.677  10.350 -1.9971  0.6102 -0.6680
  560TMC3    C1 8303   3.504   2.902  10.980 -0.3626  0.5954 -0.1475
  560TMC3    C2 8304   3.414   2.844  11.058  0.5417 -0.0226 -0.7212
  560TMC3    C3 8305   3.466   2.797  11.177  0.1193 -0.2214 -0.0724
  560TMC3    C4 8306   3.627   2.943  11.018 -0.1446 -0.1685 -0.9887
  560TMC3    C5 8307   3.670   2.913  11.143  0.2572 -0.3471 -0.0124
  560TMC3    C6 8308   3.585   2.840  11.224  0.0915  0.4549  0.4344
  560TMC3     C 8309   3.502   2.876  10.835  0.5224 -1.3454  0.2625
  560TMC3     O 8310   3.612   2.884  10.783  0.7323  0.4108  0.6464
  560TMC3     H 8311   3.315   2.811  11.031 -1.0660  2.1148  2.6590
  560TMC3    H1 8312   3.696   2.994  10.952  0.2382 -1.7390 -1.8038
  560TMC3    H2 8313   3.624   2.811  11.320  2.0908 -0.7763 -0.7384
  560TMC3    C7 8314   3.801   2.905  11.185 -0.3630  0.3851 -0.2165
  560TMC3    C8 8315   3.393   2.691  11.247 -0.5277 -0.3249 -0.1459
  560TMC3    O1 8316   3.838   2.811  11.248  0.2260 -0.0483 -0.5008
  560TMC3    O2 8317   3.277   2.678  11.219  0.2162  0.3121  0.2514
  561TMC3    C1 8318   0.932   2.037  11.633 -0.0658  0.1956  0.4704
  561TMC3    C2 8319   0.862   2.004  11.748 -0.2830 -0.3171 -0.0850
  561TMC3    C3 8320   0.946   1.980  11.859 -0.3336  0.5290 -0.2515
  561TMC3    C4 8321   1.063   2.048  11.621  0.2191 -0.3555  0.2869
  561TMC3    C5 8322   1.137   2.045  11.739 -0.5574  1.1189 -0.1996
  561TMC3    C6 8323   1.081   2.005  11.855 -0.5456  0.4658 -0.4666
  561TMC3     C 8324   0.857   2.034  11.512  0.3985  0.7336 -0.2068
  561TMC3     O 8325   0.746   2.093  11.519  0.3609  0.1194  0.0302
  561TMC3     H 8326   0.754   1.994  11.747 -0.1950 -1.0202 -1.8694
  561TMC3    H1 8327   1.116   2.076  11.531 -1.0605  0.7659 -0.1303
  561TMC3    H2 8328   1.140   2.001  11.946  0.7612  0.7320 -1.2864
  561TMC3    C7 8329   1.283   2.070  11.741  0.5738  0.0397  0.3300
  561TMC3    C8 8330   0.889   1.985  11.990  0.1472 -0.2271 -0.4654
  561TMC3    O1 8331   1.343   2.039  11.846 -0.2178 -0.0544  0.1991
  561TMC3    O2 8332   0.962   1.941  12.079 -0.6518  0.4189  0.0011
  562TMC3    C1 8333   2.095   3.416  16.165 -0.1756 -0.2175 -0.3209
  562TMC3    C2 8334   2.008   3.483  16.086 -0.0032  0.0731 -0.1891
  562TMC3    C3 8335   1.951   3.411  15.990 -0.6519 -0.0182 -0.1786
  562TMC3    C4 8336   2.123   3.285  16.153 -0.3959 -0.1457 -0.0970
  562TMC3    C5 8337   2.072   3.220  16.045 -0.6255 -0.3596  0.5324
  562TMC3    C6 8338   1.977   3.274  15.969  0.1045 -0.0085  0.2574
  562TMC3     C 8339   2.101   3.469  16.297  0.3890  0.3994  0.3530
  562TMC3     O 8340   2.199   3.438  16.366 -0.1606  0.4721  0.3296
  562TMC3     H 8341   1.977   3.586  16.103 -2.7742 -0.8498  0.2861
  562TMC3    H1 8342   2.183   3.250  16.236  1.0729  0.3802 -0.9424
  562TMC3    H2 8343   1.926   3.215  15.894 -0.5782  1.2964 -0.3142
  562TMC3    C7 8344   2.114   3.087  16.021 -0.0179  0.7793 -0.6391
  562TMC3    C8 8345   1.812   3.449  15.983  0.2938  0.6785  0.8460
  562TMC3    O1 8346   2.103   3.047  15.905  0.6315 -0.4375  1.4762
  562TMC3    O2 8347   1.762   3.480  16.089 -0.0661  0.1122  0.3514
  563MPD2     C 8348   4.165   3.875  16.065  0.8326 -0.5922 -0.0045
  563MPD2    C1 8349   4.181   3.988  16.146  0.5686  0.4688  0.3705
  563MPD2    C2 8350   4.303   4.054  16.140 -0.1058 -0.1277 -0.0477
  563MPD2    C3 8351   4.404   4.010  16.054 -0.4095 -0.8704  0.7054
  563MPD2    C4 8352   4.383   3.902  15.972 -0.0710 -0.0378 -0.3667
  563MPD2    C5 8353   4.264   3.833  15.979 -0.5625  0.4086  0.0503
  563MPD2     H 8354   4.325   4.135  16.209 -1.7068  0.4244 -0.1696
  563MPD2    H1 8355   4.457   3.861  15.905  0.8966  0.1172  0.6121
  563MPD2    H2 8356   4.072   3.820  16.073  0.5161 -0.2864 -1.5214
  563MPD2    H3 8357   4.247   3.755  15.906 -0.1786 -2.1786  2.7388
  563MPD2     N 8358   4.521   4.088  16.055  0.0117 -0.4855 -0.7951
  563MPD2    H5 8359   4.515   4.159  16.126  2.2591 -2.1261  1.0126
  563MPD2    N1 8360   4.079   4.041  16.234 -0.2177 -0.2944 -0.4765
  563MPD2    H7 8361   4.105   4.128  16.280 -0.3598  0.4681 -1.8258
  564TMC3    C1 8362   3.863   4.083  16.293  0.2583 -0.0257 -0.1275
  564TMC3    C2 8363   3.821   4.039  16.420  0.4823 -0.3415  0.5999
  564TMC3    C3 8364   3.818   4.129  16.524 -0.2768  0.2358 -0.2784
  564TMC3    C4 8365   3.904   4.213  16.288  0.1370  0.0674  0.4517
  564TMC3    C5 8366   3.906   4.300  16.397  0.2636 -0.3351  0.4953
  564TMC3    C6 8367   3.849   4.261  16.510 -0.4033 -0.4191 -0.2193
  564TMC3     C 8368   3.957   3.990  16.237 -0.0636 -0.3922 -0.3936
  564TMC3     O 8369   3.914   3.874  16.224 -0.1586  0.1248 -0.6587
  564TMC3     H 8370   3.806   3.932  16.436  0.9163 -0.5580 -0.3902
  564TMC3    H1 8371   3.947   4.242  16.193 -0.4672  0.9345  0.4393
  564TMC3    H2 8372   3.841   4.325  16.597 -1.0240 -0.5073 -0.2070
  564TMC3    C7 8373   4.047   4.334  16.407  0.0163  0.2123  0.5174
  564TMC3    C8 8374   3.790   4.089  16.661  0.3721  0.4464  0.1764
  564TMC3    O1 8375   4.120   4.298  16.316 -0.5559  0.1214  0.2835
  564TMC3    O2 8376   3.852   4.155  16.742 -0.2853  0.5487  0.0896
  565TMC3    C1 8377   4.622   1.727  10.059 -0.2030  0.0855 -1.0789
  565TMC3    C2 8378   4.638   1.624  10.140 -0.6423  0.2600  0.4739
  565TMC3    C3 8379   4.579   1.506  10.106 -0.2606 -0.5077 -0.6477
  565TMC3    C4 8380   4.539   1.718   9.950  0.4989  0.4634  0.7094
  565TMC3    C5 8381   4.471   1.601   9.923 -0.0401  0.8044 -0.4092
  565TMC3    C6 8382   4.496   1.488   9.995 -0.0712  0.2989  0.4926
  565TMC3     C 8383   4.681   1.857  10.096 -0.6293  0.3414  0.6950
  565TMC3     O 8384   4.693   1.938  10.005 -0.3732  0.1787  0.3662
  565TMC3     H 8385   4.703   1.633  10.227 -0.1189 -1.5643  0.2722
  565TMC3    H1 8386   4.522   1.809   9.894 -0.0465  0.0372  0.1859
  565TMC3    H2 8387   4.431   1.402  10.000  0.8875 -0.3321  2.0314
  565TMC3    C7 8388   4.378   1.586   9.812  0.0557  0.4055  0.3137
  565TMC3    C8 8389   4.593   1.396  10.198  0.1022 -0.2053  0.0605
  565TMC3    O1 8390   4.347   1.470   9.783 -0.0130 -0.8126  0.0388
  565TMC3    O2 8391   4.628   1.416  10.314 -0.0181  0.4435 -0.0584
  566MPD2     C 8392   2.154   3.307  14.459 -0.1102 -0.3283 -0.4565
  566MPD2    C1 8393   2.145   3.353  14.325  0.8026 -0.1173 -0.1196
  566MPD2    C2 8394   2.038   3.324  14.250 -0.2077 -0.0492  0.4641
  566MPD2    C3 8395   1.933   3.248  14.299  0.0847 -0.5828 -0.7457
  566MPD2    C4 8396   1.943   3.200  14.434  0.2837 -0.1824  0.4510
  566MPD2    C5 8397   2.054   3.225  14.508 -0.1520 -0.8821 -0.7413
  566MPD2     H 8398   2.035   3.335  14.142 -0.1440 -0.6779  0.3963
  566MPD2    H1 8399   1.866   3.132  14.469 -0.9377  0.0938 -1.6841
  566MPD2    H2 8400   2.233   3.328  14.530 -0.1214  0.1626 -0.5878
  566MPD2    H3 8401   2.063   3.185  14.608  2.1690  1.6326  0.0618
  566MPD2     N 8402   1.819   3.208  14.228  0.8671  0.0465  0.7234
  566MPD2    H5 8403   1.744   3.157  14.276  0.2607 -1.7490 -2.1526
  566MPD2    N1 8404   2.244   3.439  14.276  0.1811  0.2349 -0.0828
  566MPD2    H7 8405   2.305   3.473  14.349 -0.5969  0.3413  0.5221
  567TMC3    C1 8406   2.261   3.386  14.034  0.0795 -0.1265  0.2351
  567TMC3    C2 8407   2.266   3.436  13.904 -0.1767 -0.1471  0.1012
  567TMC3    C3 8408   2.285   3.345  13.803 -0.0487  0.4665 -0.1234
  567TMC3    C4 8409   2.291   3.255  14.065  0.3077 -0.1453 -0.0699
  567TMC3    C5 8410   2.288   3.169  13.954 -0.3776 -0.4110 -0.6167
  567TMC3    C6 8411   2.299   3.214  13.827 -0.6456 -0.1707 -0.6446
  567TMC3     C 8412   2.272   3.481  14.147  0.5399 -0.5415 -0.3577
  567TMC3     O 8413   2.327   3.591  14.119 -0.0568  0.2220 -0.2853
  567TMC3     H 8414   2.240   3.540  13.886 -0.7270 -0.6333 -2.0079
  567TMC3    H1 8415   2.309   3.223  14.167 -1.8449 -0.1739  0.2970
  567TMC3    H2 8416   2.316   3.144  13.746 -1.3361 -0.8322 -0.2139
  567TMC3    C7 8417   2.225   3.043  13.968 -0.1663 -0.0509 -0.9276
  567TMC3    C8 8418   2.306   3.384  13.663  0.6770  0.3229 -0.6220
  567TMC3    O1 8419   2.214   2.974  13.869 -0.1115  0.3521  0.2251
  567TMC3    O2 8420   2.285   3.303  13.573 -0.7454 -0.0461 -0.5752
  568MPD2     C 8421   4.299   3.561  16.749  0.0210  0.1357 -0.1430
  568MPD2    C1 8422   4.222   3.497  16.841  1.2223 -0.1267 -0.3179
  568MPD2    C2 8423   4.166   3.577  16.944 -0.3492  0.0189 -0.1329
  568MPD2    C3 8424   4.197   3.704  16.969 -0.6197 -0.1168 -0.2946
  568MPD2    C4 8425   4.281   3.766  16.875 -0.0622  0.2111 -0.9138
  568MPD2    C5 8426   4.327   3.690  16.765 -0.2185 -0.1993 -0.4365
  568MPD2     H 8427   4.109   3.538  17.028  1.9748 -2.7482  0.1511
  568MPD2    H1 8428   4.322   3.866  16.889  1.7688 -0.4034 -1.7980
  568MPD2    H2 8429   4.342   3.509  16.664 -0.5296  4.0562 -2.8417
  568MPD2    H3 8430   4.398   3.738  16.699 -1.0358 -0.3947 -1.4467
  568MPD2     N 8431   4.139   3.769  17.081  0.1567 -0.3040 -0.2323
  568MPD2    H5 8432   4.071   3.712  17.129 -0.1193 -0.9814 -1.4438
  568MPD2    N1 8433   4.180   3.361  16.825  0.3519  0.1380 -0.0207
  568MPD2    H7 8434   4.195   3.326  16.731 -0.7026 -1.3795  0.3603
  569TMC3    C1 8435   4.078   3.936  17.231  0.1204  0.2996 -0.0659
  569TMC3    C2 8436   4.100   4.049  17.301 -0.2734 -0.1339 -0.8148
  569TMC3    C3 8437   3.999   4.096  17.383  0.0562 -1.0490  0.9501
  569TMC3    C4 8438   3.954   3.880  17.233  0.5174  0.7582 -0.3067
  569TMC3    C5 8439   3.855   3.928  17.314 -0.1404  0.0195 -0.3193
  569TMC3    C6 8440   3.878   4.034  17.399 -0.4927  0.3840  0.0376
  569TMC3     C 8441   4.169   3.897  17.129  0.6157  0.2309  1.1063
  569TMC3     O 8442   4.249   3.981  17.094  0.6751  0.4455 -0.1546
  569TMC3     H 8443   4.201   4.089  17.298 -0.8684  1.2431 -2.1870
  569TMC3    H1 8444   3.931   3.802  17.162  0.9120 -0.2785  0.7053
  569TMC3    H2 8445   3.799   4.074  17.461  0.4836 -1.9157  2.7699
  569TMC3    C7 8446   3.715   3.920  17.279 -0.4123  0.1207 -0.0806
  569TMC3    C8 8447   4.035   4.194  17.478 -0.6954  0.8039  0.1606
  569TMC3    O1 8448   3.647   3.834  17.335  0.6614  0.6041 -0.1445
  569TMC3    O2 8449   3.961   4.209  17.576 -0.1807 -0.2529  0.1243
  570TMC3    C1 8450   3.472   2.371  16.600 -0.5784 -0.3691 -0.1699
  570TMC3    C2 8451   3.551   2.357  16.486  0.0452  0.1208 -0.1013
  570TMC3    C3 8452   3.571   2.463  16.403  0.1413 -0.0743 -0.3537
  570TMC3    C4 8453   3.400   2.486  16.615 -0.5130  0.2298  0.1275
  570TMC3    C5 8454   3.410   2.585  16.516  0.6854  0.4343  0.4283
  570TMC3    C6 8455   3.492   2.577  16.412 -0.1169  0.3867 -0.7296
  570TMC3     C 8456   3.481   2.267  16.702 -0.2514 -0.2601 -0.0528
  570TMC3     O 8457   3.533   2.164  16.671  0.1240 -0.2255 -0.5056
  570TMC3     H 8458   3.605   2.263  16.479  0.6781  0.3694  1.3414
  570TMC3    H1 8459   3.338   2.497  16.703  1.7319  2.1175  1.4565
  570TMC3    H2 8460   3.507   2.654  16.337  1.0126  1.0810  0.1862
  570TMC3    C7 8461   3.320   2.694  16.532  0.2370  0.5560  0.2254
  570TMC3    C8 8462   3.679   2.461  16.314 -0.3262  0.4220 -0.1420
  570TMC3    O1 8463   3.290   2.711  16.647  0.1172 -0.1219 -0.4410
  570TMC3    O2 8464   3.681   2.549  16.225  0.0821  0.1569  0.0122
  571MPD2     C 8465   1.579   3.499  17.561 -0.0839  0.4714 -0.2897
  571MPD2    C1 8466   1.543   3.451  17.685 -0.4263 -0.2331  0.0224
  571MPD2    C2 8467   1.516   3.548   0.079 -0.1895 -0.2958  0.5417
  571MPD2    C3 8468   1.530   3.686   0.046  0.0893  0.4296  0.2756
  571MPD2    C4 8469   1.562   3.727  17.624  1.0481  0.3677 -0.7058
  571MPD2    C5 8470   1.573   3.633  17.528  0.1509  0.0311 -0.1023
  571MPD2     H 8471   1.478   3.517   0.175 -0.4158 -0.5014  0.3853
  571MPD2    H1 8472   1.585   3.832  17.603 -0.8287  0.9579  0.2395
  571MPD2    H2 8473   1.601   3.433  17.478  0.7701 -0.7082  0.8636
  571MPD2    H3 8474   1.586   3.660  17.424 -0.5573 -0.1968 -0.2484
  571MPD2     N 8475   1.524   3.790   0.143 -0.9762 -0.0552  0.5036
  571MPD2    H5 8476   1.543   3.884   0.109  1.8968 -0.3712  1.2676
  571MPD2    N1 8477   1.560   3.313   0.008  0.7847 -0.2177 -0.3794
  571MPD2    H7 8478   1.593   3.256  17.634 -0.6417 -1.5069 -0.0427
  572TMC3    C1 8479   1.568   3.895   0.355 -0.5685 -0.5138 -0.0796
  572TMC3    C2 8480   1.507   3.898   0.477 -0.2449 -0.0413  0.3119
  572TMC3    C3 8481   1.551   3.990   0.567 -0.4052 -0.0183 -0.0365
  572TMC3    C4 8482   1.635   4.001   0.302 -0.1635 -0.7857  0.2272
  572TMC3    C5 8483   1.654   4.105   0.383  0.4154  0.1359 -0.0391
  572TMC3    C6 8484   1.621   4.097   0.518 -0.0380 -0.1214 -0.2583
  572TMC3     C 8485   1.518   3.776   0.277  0.8495 -0.3618 -0.0748
  572TMC3     O 8486   1.495   3.674   0.344  0.3032 -0.5341  0.0452
  572TMC3     H 8487   1.468   3.808   0.524 -0.1999  0.4648  1.3342
  572TMC3    H1 8488   1.674   3.999   0.201 -1.2472  0.9330 -0.2180
  572TMC3    H2 8489   1.649   4.172   0.591 -1.0044  0.0543 -0.0681
  572TMC3    C7 8490   1.742   4.212   0.331  0.4503 -0.1773  0.2283
  572TMC3    C8 8491   1.527   3.984   0.706 -0.2619  0.3258  0.6174
  572TMC3    O1 8492   1.746   4.217   0.207 -0.3674  0.0951 -0.0466
  572TMC3    O2 8493   1.586   4.068   0.778  0.0151  0.1473 -0.0358
  573MPD2     C 8494   1.863   3.779   0.546  0.3427  0.2546 -0.1566
  573MPD2    C1 8495   1.893   3.884   0.625 -0.4113  0.4230  0.0467
  573MPD2    C2 8496   1.962   3.995   0.569  0.1468  0.3675 -0.0820
  573MPD2    C3 8497   2.007   3.989   0.438  0.0919  0.1052  0.1560
  573MPD2    C4 8498   1.961   3.884   0.365  0.0064 -0.0588  0.2619
  573MPD2    C5 8499   1.890   3.776   0.416 -0.2796  0.2647 -0.4807
  573MPD2     H 8500   1.994   4.080   0.629 -1.6310  0.7125  0.3918
  573MPD2    H1 8501   1.978   3.873   0.258 -1.3651 -2.6436  0.3035
  573MPD2    H2 8502   1.819   3.688   0.585 -1.1058  1.1601  0.3180
  573MPD2    H3 8503   1.862   3.692   0.353 -0.4774  0.5535 -0.7729
  573MPD2     N 8504   2.086   4.084   0.379 -0.0323 -0.0361 -0.0228
  573MPD2    H5 8505   2.084   4.084   0.278 -0.2316  0.7126 -0.0186
  573MPD2    N1 8506   1.849   3.871   0.764 -0.4578  0.4237 -0.7797
  573MPD2    H7 8507   1.787   3.794   0.787  1.3176 -0.9840 -0.6775
  574TMC3    C1 8508   2.164   4.294   0.347  0.6536 -0.4525  0.3105
  574TMC3    C2 8509   2.103   4.305   0.229 -0.3491  0.3607 -0.3083
  574TMC3    C3 8510   2.144   4.407   0.151  0.4185 -0.0680 -0.0828
  574TMC3    C4 8511   2.270   4.374   0.386  0.7694 -0.0163 -0.3703
  574TMC3    C5 8512   2.318   4.462   0.291 -0.2548 -0.3973  1.2539
  574TMC3    C6 8513   2.264   4.470   0.166 -0.6513  0.5059  0.1369
  574TMC3     C 8514   2.132   4.196   0.442 -0.1114  0.0921 -0.3164
  574TMC3     O 8515   2.170   4.215   0.557 -0.3890  0.1804 -0.5122
  574TMC3     H 8516   2.005   4.262   0.212 -0.2304  0.9008 -2.3252
  574TMC3    H1 8517   2.311   4.371   0.486  1.0597 -0.0438 -0.4917
  574TMC3    H2 8518   2.303   4.553   0.108 -1.7957  1.8582  1.2886
  574TMC3    C7 8519   2.453   4.513   0.325  0.7938  0.3824 -0.3066
  574TMC3    C8 8520   2.059   4.455   0.045 -0.7067  0.8386 -0.1423
  574TMC3    O1 8521   2.529   4.449   0.397  0.6052 -0.4521  0.1092
  574TMC3    O2 8522   1.956   4.391   0.019 -0.1744  0.8755  0.4494
  575TMC3    C1 8523   0.380   1.171  10.785 -0.2092 -0.1813  0.0737
  575TMC3    C2 8524   0.421   1.047  10.830 -0.3953 -1.0687  0.2942
  575TMC3    C3 8525   0.325   0.949  10.814 -0.1288 -0.2171  0.8434
  575TMC3    C4 8526   0.270   1.195  10.716 -0.0062  0.2643  0.6089
  575TMC3    C5 8527   0.188   1.089  10.685 -0.0160  0.8243  0.6371
  575TMC3    C6 8528   0.211   0.964  10.738 -0.3372  0.0858 -0.1468
  575TMC3     C 8529   0.460   1.289  10.822  0.2314  0.1905 -0.2166
  575TMC3     O 8530   0.416   1.399  10.798 -0.3137  0.5438  0.0632
  575TMC3     H 8531   0.512   1.035  10.886 -0.5695 -0.6677  0.6626
  575TMC3    H1 8532   0.246   1.296  10.685  0.0793  0.5030  1.3162
  575TMC3    H2 8533   0.142   0.884  10.716  0.3126 -0.7361  0.8281
  575TMC3    C7 8534   0.099   1.113  10.578 -0.0337 -0.5501 -0.9079
  575TMC3    C8 8535   0.355   0.814  10.865  0.7495 -0.3167  0.0713
  575TMC3    O1 8536   0.105   1.229  10.544 -0.3408  0.3908  0.1633
  575TMC3    O2 8537   0.286   0.720  10.834 -0.0336  0.1157  0.4049
  576MPD2     C 8538   4.442   2.633  12.724 -0.0008 -0.1300 -0.5636
  576MPD2    C1 8539   4.539   2.719  12.677 -0.0005  0.3535  0.0965
  576MPD2    C2 8540   4.533   2.850  12.728  0.3526 -0.3009 -0.1911
  576MPD2    C3 8541   4.443   2.891  12.825 -0.2420 -0.2855 -0.2394
  576MPD2    C4 8542   4.346   2.792  12.863  0.7701  0.3896 -0.1836
  576MPD2    C5 8543   4.345   2.669  12.809 -0.2360 -0.0214 -0.6371
  576MPD2     H 8544   4.604   2.926  12.697  1.1025 -0.4461  1.1674
  576MPD2    H1 8545   4.268   2.819  12.934 -0.0984  0.0740 -1.0190
  576MPD2    H2 8546   4.451   2.532  12.686 -0.4044  0.0573 -1.1693
  576MPD2    H3 8547   4.276   2.599  12.854 -0.2806  1.2721  1.3392
  576MPD2     N 8548   4.439   3.022  12.879  0.4266  0.1434  0.0279
  576MPD2    H5 8549   4.515   3.085  12.853 -0.8297  1.3597 -0.6710
  576MPD2    N1 8550   4.655   2.680  12.604  0.3853 -0.2594 -0.4536
  576MPD2    H7 8551   4.711   2.757  12.570 -0.7476  0.9204  0.3539
  577TMC3    C1 8552   0.101   2.562  12.499 -0.2433  0.8455 -0.1127
  577TMC3    C2 8553   0.170   2.443  12.473  0.2029  0.1286 -0.6073
  577TMC3    C3 8554   0.251   2.424  12.362 -0.1375  0.5062  0.6214
  577TMC3    C4 8555   0.117   2.668  12.413  0.0935  0.3942  0.3078
  577TMC3    C5 8556   0.204   2.652  12.312  0.0076  0.2649 -0.0947
  577TMC3    C6 8557   0.272   2.532  12.283  0.6811 -0.0260 -0.1120
  577TMC3     C 8558   4.708   2.554  12.584  0.1389 -0.3319 -0.0921
  577TMC3     O 8559   4.667   2.446  12.621  0.0560 -0.3489 -0.0227
  577TMC3     H 8560   0.155   2.360  12.542  1.0469  0.0205 -0.5545
  577TMC3    H1 8561   0.070   2.766  12.417 -1.8090 -0.5055  0.2063
  577TMC3    H2 8562   0.352   2.543  12.210  0.3489 -1.4100 -0.6802
  577TMC3    C7 8563   0.235   2.768  12.234 -0.2297  0.6944  0.2600
  577TMC3    C8 8564   0.328   2.299  12.360  0.6595  0.5130 -0.3088
  577TMC3    O1 8565   0.201   2.876  12.280 -0.9770 -0.5825  0.1994
  577TMC3    O2 8566   0.305   2.218  12.447  0.8142 -0.0035 -0.2164
  578MPD2     C 8567   2.150   2.594   0.414 -0.5330 -0.3306  0.0791
  578MPD2    C1 8568   2.240   2.499   0.375 -0.4165  0.5396 -0.2599
  578MPD2    C2 8569   2.330   2.443   0.464  0.2260 -0.2660  0.3550
  578MPD2    C3 8570   2.323   2.482   0.597 -0.2932 -0.3113 -0.9206
  578MPD2    C4 8571   2.233   2.586   0.637 -0.2925  0.3190 -0.4127
  578MPD2    C5 8572   2.152   2.642   0.540 -0.4491  0.5576  0.3304
  578MPD2     H 8573   2.402   2.374   0.423  0.4162 -0.6119  1.2788
  578MPD2    H1 8574   2.226   2.623   0.739  1.6101  0.2968 -0.2788
  578MPD2    H2 8575   2.082   2.647   0.348 -1.7896 -1.2530  0.6519
  578MPD2    H3 8576   2.079   2.716   0.570 -0.9788  0.7342 -1.3826
  578MPD2     N 8577   2.411   2.417   0.680  0.0684 -0.4099  0.5154
  578MPD2    H5 8578   2.473   2.353   0.631 -0.9066 -0.2893 -0.8796
  578MPD2    N1 8579   2.240   2.473   0.236  0.0766  0.8039  0.6789
  578MPD2    H7 8580   2.168   2.516   0.180  0.8795  0.0202 -0.9526
  579TMC3    C1 8581   2.535   2.377   0.882  0.1752 -0.1740  0.6957
  579TMC3    C2 8582   2.553   2.390   1.019 -0.5333  0.7115  0.1897
  579TMC3    C3 8583   2.679   2.369   1.072 -0.0404  0.0263  0.2797
  579TMC3    C4 8584   2.642   2.345   0.804  0.2738  0.3404  0.1025
  579TMC3    C5 8585   2.763   2.323   0.856 -0.0724  0.2319 -0.0562
  579TMC3    C6 8586   2.779   2.331   0.991  0.2804 -0.5264  0.1601
  579TMC3     C 8587   2.419   2.437   0.819 -0.3776  0.4094  0.0432
  579TMC3     O 8588   2.322   2.468   0.890 -0.6853  0.0982 -0.2745
  579TMC3     H 8589   2.477   2.429   1.087  0.1411 -0.3909  1.5820
  579TMC3    H1 8590   2.628   2.333   0.698 -0.7298 -1.4925  0.4346
  579TMC3    H2 8591   2.878   2.312   1.029  0.5739 -1.9610 -1.3553
  579TMC3    C7 8592   2.846   2.220   0.797 -0.3005 -0.4989 -0.1579
  579TMC3    C8 8593   2.684   2.327   1.211 -0.4828 -0.0275 -0.5796
  579TMC3    O1 8594   2.968   2.217   0.820  0.0451 -0.3925  0.0051
  579TMC3    O2 8595   2.573   2.322   1.269  0.3151 -0.3954  0.0853
  580TMC3    C1 8596   2.513   1.588  12.071  0.4181 -0.4371  0.5902
  580TMC3    C2 8597   2.508   1.530  11.950 -1.0728  0.5364  0.2407
  580TMC3    C3 8598   2.424   1.428  11.929 -0.6156  0.7212 -0.5817
  580TMC3    C4 8599   2.433   1.544  12.173  0.5450 -0.6558 -0.2987
  580TMC3    C5 8600   2.357   1.436  12.149 -0.5192  0.2417 -0.8566
  580TMC3    C6 8601   2.350   1.376  12.027  0.7941  0.2963  0.6064
  580TMC3     C 8602   2.609   1.700  12.096 -0.1095  0.1169  0.5693
  580TMC3     O 8603   2.698   1.711  12.014  0.5752 -0.0213  0.0713
  580TMC3     H 8604   2.558   1.578  11.866 -0.4115  0.4907  0.6033
  580TMC3    H1 8605   2.465   1.560  12.276 -1.9605 -2.4642  0.7753
  580TMC3    H2 8606   2.285   1.291  12.011  0.0464  0.7866  1.0730
  580TMC3    C7 8607   2.314   1.360  12.265  0.1338 -0.0149 -0.1399
  580TMC3    C8 8608   2.446   1.340  11.814 -0.6645 -0.0564  0.0304
  580TMC3    O1 8609   2.298   1.431  12.362  0.7866  0.2265 -0.1048
  580TMC3    O2 8610   2.352   1.269  11.779  0.6649  1.2562  0.2189
  581MPD2     C 8611   0.123   1.211  14.740 -0.0074  0.3646 -0.4154
  581MPD2    C1 8612   0.093   1.248  14.866 -0.1275 -0.3746  0.7362
  581MPD2    C2 8613   4.702   1.330  14.878 -0.0204  0.7337 -0.0017
  581MPD2    C3 8614   4.619   1.360  14.774  0.7325  0.2984 -0.2255
  581MPD2    C4 8615   4.648   1.300  14.653  0.0815 -0.0801 -0.5284
  581MPD2    C5 8616   0.035   1.227  14.637  0.1042  0.0902  1.3717
  581MPD2     H 8617   4.672   1.362  14.977 -1.9484  1.8718 -0.9442
  581MPD2    H1 8618   4.569   1.294  14.579  0.4404 -0.0488 -0.9134
  581MPD2    H2 8619   0.214   1.155  14.724  0.7038  2.0530 -2.2900
  581MPD2    H3 8620   0.066   1.180  14.544 -2.4277  0.3321  0.4248
  581MPD2     N 8621   4.496   1.433  14.788  0.3096 -0.3590 -0.3787
  581MPD2    H5 8622   4.426   1.431  14.715 -0.9878 -1.4741  0.8980
  581MPD2    N1 8623   0.180   1.209  14.968 -0.0811  0.2594 -0.2838
  581MPD2    H7 8624   0.271   1.176  14.938  0.1381 -0.2152  0.9085
  582TMC3    C1 8625   0.258   1.168  15.181 -0.0576  0.6099 -0.2104
  582TMC3    C2 8626   0.390   1.188  15.157 -0.1975  0.1113 -0.3541
  582TMC3    C3 8627   0.477   1.117  15.233  0.2155  0.9378 -0.2392
  582TMC3    C4 8628   0.211   1.100  15.285  0.3931  0.3172  0.1903
  582TMC3    C5 8629   0.295   1.032  15.365 -1.1242 -0.4355 -0.3777
  582TMC3    C6 8630   0.430   1.039  15.338  0.4329 -0.1452 -0.2700
  582TMC3     C 8631   0.153   1.228  15.104 -0.2928  0.6739  0.2795
  582TMC3     O 8632   0.049   1.262  15.162 -0.0874  0.2064 -0.4452
  582TMC3     H 8633   0.414   1.255  15.075 -0.5758 -1.7412 -1.9826
  582TMC3    H1 8634   0.104   1.086  15.296  0.3984  0.2217  0.1156
  582TMC3    H2 8635   0.503   0.991  15.402  1.0547  0.2691 -0.6672
  582TMC3    C7 8636   0.254   1.059  15.495  0.1424 -0.2962 -0.1346
  582TMC3    C8 8637   0.585   1.187  15.294  0.1995 -0.2923  0.6128
  582TMC3    O1 8638   0.286   0.980  15.582  0.1426  0.0675  0.5779
  582TMC3    O2 8639   0.556   1.289  15.349 -0.1704 -0.2329  0.1344
  583MPD2     C 8640   0.679   2.810  16.806  0.2120  0.2794  0.0862
  583MPD2    C1 8641   0.632   2.891  16.700  0.0070 -0.6864 -0.0529
  583MPD2    C2 8642   0.531   2.979  16.730  0.5204 -0.5078  0.0675
  583MPD2    C3 8643   0.482   2.988  16.861 -0.3107  0.2667 -0.9942
  583MPD2    C4 8644   0.529   2.905  16.962 -0.2486  0.0089 -0.3097
  583MPD2    C5 8645   0.626   2.816  16.931  0.0603 -0.8463 -0.7824
  583MPD2     H 8646   0.506   3.043  16.645  1.5576  0.0008  0.1493
  583MPD2    H1 8647   0.490   2.902  17.063  0.7240 -1.0888  0.0454
  583MPD2    H2 8648   0.756   2.736  16.788 -0.4413 -0.4144  0.1379
  583MPD2    H3 8649   0.665   2.764  17.018  1.6467  1.1152 -0.3170
  583MPD2     N 8650   0.383   3.082  16.898  0.0921  0.2302  0.0116
  583MPD2    H5 8651   0.363   3.149  16.824  1.0296  0.7716  0.2590
  583MPD2    N1 8652   0.662   2.876  16.565  0.0559 -0.3006  0.3042
  583MPD2    H7 8653   0.613   2.936  16.500  2.0384 -0.3686 -1.2426
  584TMC3    C1 8654   0.215   3.208  17.006  0.1350  0.5885 -0.1895
  584TMC3    C2 8655   0.263   3.326  16.965 -0.1041 -0.4723  0.0713
  584TMC3    C3 8656   0.210   3.444  16.997  0.3327 -0.3648  0.7291
  584TMC3    C4 8657   0.117   3.208  17.100 -0.1796 -0.0503  0.2009
  584TMC3    C5 8658   0.066   3.325  17.150 -0.0013 -0.0996 -0.0467
  584TMC3    C6 8659   0.102   3.448  17.086 -0.4009  0.4524 -0.0404
  584TMC3     C 8660   0.308   3.095  17.014 -0.4051  0.0522  1.0759
  584TMC3     O 8661   0.294   3.021  17.108 -0.3282 -0.1794 -0.1353
  584TMC3     H 8662   0.356   3.322  16.910 -1.1710  1.2011 -1.8721
  584TMC3    H1 8663   0.084   3.111  17.136 -0.9182 -0.3877 -1.4142
  584TMC3    H2 8664   0.048   3.540  17.103 -1.2290  0.1780 -1.2340
  584TMC3    C7 8665   4.720   3.309  17.271 -0.3048 -0.1773 -0.2513
  584TMC3    C8 8666   0.263   3.564  16.932  0.4714 -0.4140 -0.3429
  584TMC3    O1 8667   4.658   3.208  17.303  0.2816 -0.1735  0.3364
  584TMC3    O2 8668   0.329   3.547  16.828 -0.4079 -0.5348  0.0183
  585MPD2     C 8669   4.091   1.949   0.805  0.0273 -0.6630 -0.1791
  585MPD2    C1 8670   4.186   2.004   0.724  0.2741  0.2236 -0.0878
  585MPD2    C2 8671   4.287   1.922   0.672  0.3696 -0.0376 -0.7555
  585MPD2    C3 8672   4.279   1.785   0.688 -0.2704  0.5983  0.1403
  585MPD2    C4 8673   4.166   1.729   0.749 -0.0435  0.1864 -0.2214
  585MPD2    C5 8674   4.080   1.811   0.816 -0.9454 -0.4849  0.8562
  585MPD2     H 8675   4.365   1.959   0.607 -0.1008 -1.1424 -1.9515
  585MPD2    H1 8676   4.148   1.623   0.760 -0.4014  0.2660 -0.0376
  585MPD2    H2 8677   4.007   2.005   0.843  2.2015  2.7174 -0.3206
  585MPD2    H3 8678   3.992   1.762   0.857 -1.0210  0.4556  1.7838
  585MPD2     N 8679   4.360   1.683   0.626 -0.3364  0.6247 -0.5738
  585MPD2    H5 8680   4.328   1.589   0.645  1.2151  0.2888  0.4191
  585MPD2    N1 8681   4.177   2.143   0.701 -0.0234  0.0796  0.1321
  585MPD2    H7 8682   4.083   2.173   0.726 -1.3483 -1.9099 -2.4458
  586TMC3    C1 8683   4.546   1.604   0.505 -0.3211 -0.7066  0.2433
  586TMC3    C2 8684   4.668   1.628   0.459 -0.1352 -0.4077  0.1154
  586TMC3    C3 8685   0.030   1.524   0.449  0.2257 -0.0895  0.4381
  586TMC3    C4 8686   4.501   1.475   0.526  0.7287 -0.0587 -0.4176
  586TMC3    C5 8687   4.590   1.370   0.509 -0.7276 -0.1337  0.2053
  586TMC3    C6 8688   4.723   1.389   0.482  0.0817  0.8670  0.2330
  586TMC3     C 8689   4.467   1.717   0.546 -0.2059 -0.4520  0.4530
  586TMC3     O 8690   4.498   1.822   0.490 -0.4541 -0.2234  0.2873
  586TMC3     H 8691   4.715   1.725   0.450 -1.2452  0.1225 -0.0057
  586TMC3    H1 8692   4.401   1.446   0.555  0.6678  0.0098 -0.5559
  586TMC3    H2 8693   0.072   1.312   0.470 -0.0047  1.1491 -2.2304
  586TMC3    C7 8694   4.531   1.239   0.480 -0.1458 -0.0267 -0.6422
  586TMC3    C8 8695   0.125   1.519   0.338 -0.2563  0.9875 -0.3980
  586TMC3    O1 8696   4.412   1.216   0.514 -0.2839 -0.4154  0.1814
  586TMC3    O2 8697   0.184   1.423   0.297 -0.0269 -0.1647 -0.3982
  587TMC3    C1 8698   2.751   0.580  16.411  0.0798 -0.9179  0.8922
  587TMC3    C2 8699   2.683   0.675  16.337  0.2707 -0.0532  0.7034
  587TMC3    C3 8700   2.731   0.735  16.223  0.2306  0.0601 -0.1668
  587TMC3    C4 8701   2.876   0.551  16.374  0.4304  0.5411 -0.2972
  587TMC3    C5 8702   2.928   0.605  16.260 -0.0980  0.8299 -0.5314
  587TMC3    C6 8703   2.854   0.698  16.184 -0.1216  0.1308 -0.6026
  587TMC3     C 8704   2.682   0.513  16.529 -0.2162  0.0302  0.0337
  587TMC3     O 8705   2.734   0.518  16.642 -0.2534  0.1249  1.0174
  587TMC3     H 8706   2.585   0.699  16.376 -0.9493  1.2205 -3.1857
  587TMC3    H1 8707   2.921   0.483  16.446  0.1989 -0.3312 -0.9829
  587TMC3    H2 8708   2.903   0.734  16.094  0.4562  0.1771 -0.2727
  587TMC3    C7 8709   3.074   0.588  16.242  1.2065  0.5761  0.0555
  587TMC3    C8 8710   2.678   0.857  16.160 -0.4101  0.6893  1.0321
  587TMC3    O1 8711   3.119   0.509  16.323 -0.2737  0.4125  0.3254
  587TMC3    O2 8712   2.745   0.905  16.066  0.1396 -0.3445  0.1656
  588TMC3    C1 8713   4.632   3.386   9.959 -0.3625 -0.8228  0.5492
  588TMC3    C2 8714   4.562   3.266   9.970  0.3273 -0.0461 -0.1904
  588TMC3    C3 8715   4.633   3.148   9.982 -0.8605  0.2414  1.1177
  588TMC3    C4 8716   0.041   3.379   9.971 -0.0123  0.1695  0.4762
  588TMC3    C5 8717   0.107   3.263   9.997 -0.2218 -0.4121  0.4218
  588TMC3    C6 8718   0.042   3.143  10.005  0.5732 -0.4090 -0.0995
  588TMC3     C 8719   4.568   3.518   9.926  0.4381  0.5350 -0.6723
  588TMC3     O 8720   4.460   3.523   9.868 -0.9917 -0.6424 -0.5400
  588TMC3     H 8721   4.455   3.258   9.960  0.1350  3.1682 -0.8396
  588TMC3    H1 8722   0.099   3.463   9.934 -0.3574 -0.4490 -1.4199
  588TMC3    H2 8723   0.099   3.053  10.024 -0.9697 -1.0599  1.4572
  588TMC3    C7 8724   0.252   3.264   9.997 -0.3148 -0.0571 -0.0263
  588TMC3    C8 8725   4.552   3.028   9.993 -0.1049  0.4292  1.3064
  588TMC3    O1 8726   0.313   3.160   9.986 -0.0681 -0.0779  0.3412
  588TMC3    O2 8727   4.460   3.005   9.919 -0.3858 -0.5089 -0.3197
  589TMC3    C1 8728   4.062   0.623   0.726 -0.2685 -0.2221 -0.5613
  589TMC3    C2 8729   4.140   0.709   0.803 -0.4938  0.1164  1.1957
  589TMC3    C3 8730   4.258   0.665   0.848  0.3060  1.0385  0.1969
  589TMC3    C4 8731   4.095   0.495   0.704  0.4471  0.3104  0.0111
  589TMC3    C5 8732   4.207   0.445   0.767  1.0375  0.3616 -0.0068
  589TMC3    C6 8733   4.292   0.537   0.824 -0.5490  0.1067  0.6316
  589TMC3     C 8734   3.930   0.666   0.674  0.4018 -0.0952  0.0138
  589TMC3     O 8735   3.864   0.583   0.614  0.1402  0.1420  0.7036
  589TMC3     H 8736   4.105   0.808   0.828  0.7426  0.9970 -0.5226
  589TMC3    H1 8737   4.027   0.433   0.647  1.0538 -0.2027 -0.1531
  589TMC3    H2 8738   4.382   0.495   0.869  0.1375  0.1537 -0.7007
  589TMC3    C7 8739   4.229   0.299   0.779  0.1799  0.7360  0.6001
  589TMC3    C8 8740   4.354   0.758   0.909  0.3133 -0.7158  0.0415
  589TMC3    O1 8741   4.125   0.233   0.767  0.1618  0.0229  0.1670
  589TMC3    O2 8742   4.297   0.857   0.947 -0.4122  0.1040 -0.2815
  590MPD2     C 8743   2.687   4.216  16.806 -0.1554 -0.0586  0.2765
  590MPD2    C1 8744   2.642   4.254  16.680  0.2883  0.0183  0.8071
  590MPD2    C2 8745   2.725   4.251  16.570 -0.1559  0.5491  0.7739
  590MPD2    C3 8746   2.860   4.222  16.591 -0.2257  0.0692 -0.1782
  590MPD2    C4 8747   2.911   4.198  16.721  0.0571 -0.2162  0.2758
  590MPD2    C5 8748   2.817   4.180  16.824  0.1162 -0.2874 -0.4802
  590MPD2     H 8749   2.689   4.295  16.478 -0.2983 -0.0385  0.5538
  590MPD2    H1 8750   3.016   4.187  16.745 -0.0693  0.3292  1.0557
  590MPD2    H2 8751   2.624   4.212  16.894  1.0035 -2.6631  1.0084
  590MPD2    H3 8752   2.857   4.145  16.918 -0.3180  0.3867 -0.0481
  590MPD2     N 8753   2.940   4.242  16.479 -0.1084 -0.0894  0.2579
  590MPD2    H5 8754   2.887   4.270  16.397  0.3176 -1.4077 -0.4601
  590MPD2    N1 8755   2.502   4.283  16.673  0.1339  0.0849  0.0263
  590MPD2    H7 8756   2.465   4.312  16.763 -0.9823 -2.4033  0.3600
  591TMC3    C1 8757   3.133   4.257  16.354 -0.0240 -0.4280 -0.8312
  591TMC3    C2 8758   3.209   4.172  16.284 -0.5373 -0.0178  0.1641
  591TMC3    C3 8759   3.247   4.207  16.156 -0.1965 -0.0607  0.2575
  591TMC3    C4 8760   3.076   4.371  16.304 -0.3304 -0.2325  0.0821
  591TMC3    C5 8761   3.125   4.412  16.178  0.0195 -0.4470 -0.3329
  591TMC3    C6 8762   3.214   4.333  16.106  0.2080 -0.3118 -0.8333
  591TMC3     C 8763   3.074   4.204  16.474  0.4176  0.8379  0.7917
  591TMC3     O 8764   3.148   4.138  16.553 -0.2818 -0.0470  0.9057
  591TMC3     H 8765   3.224   4.079  16.337 -0.2554  0.2582  0.5666
  591TMC3    H1 8766   3.025   4.445  16.366 -2.1004 -1.2666 -0.1409
  591TMC3    H2 8767   3.234   4.355  16.002  1.3203  3.6158  0.2246
  591TMC3    C7 8768   3.049   4.518  16.108 -0.4551 -0.6943  0.3043
  591TMC3    C8 8769   3.332   4.114  16.085  0.0536  0.3518  0.9390
  591TMC3    O1 8770   2.937   4.548  16.153  0.1631  0.3418 -0.2825
  591TMC3    O2 8771   3.395   4.028  16.147 -0.1177  0.3111 -1.1208
  592MPD2     C 8772   3.441   0.888  11.538 -0.1151  0.4722  0.5720
  592MPD2    C1 8773   3.477   0.918  11.668 -0.5202  0.0059  0.6697
  592MPD2    C2 8774   3.417   0.844  11.770  0.1010  0.0266 -0.1700
  592MPD2    C3 8775   3.307   0.773  11.757  0.2492 -0.1713  0.2452
  592MPD2    C4 8776   3.260   0.746  11.635 -0.0008  0.3903 -0.3073
  592MPD2    C5 8777   3.335   0.796  11.526 -0.6364  0.0644 -0.5640
  592MPD2     H 8778   3.435   0.852  11.877 -0.4636 -2.1320  0.0858
  592MPD2    H1 8779   3.181   0.678  11.606  1.6176 -1.4103 -0.5083
  592MPD2    H2 8780   3.482   0.931  11.447  1.6743 -1.3199  0.5255
  592MPD2    H3 8781   3.292   0.774  11.428 -1.2443 -1.0782 -0.0424
  592MPD2     N 8782   3.239   0.734  11.882  0.0747 -0.4030 -0.3955
  592MPD2    H5 8783   3.273   0.773  11.969 -2.6511  0.8745  0.0941
  592MPD2    N1 8784   3.569   1.024  11.688  0.2214 -0.3651 -0.2736
  592MPD2    H7 8785   3.600   1.082  11.610  1.9396 -1.0712 -0.1174
  593TMC3    C1 8786   3.691   1.197  11.815 -0.0010  0.5172  0.5703
  593TMC3    C2 8787   3.681   1.295  11.914  0.7362 -0.3813 -0.0680
  593TMC3    C3 8788   3.794   1.364  11.947 -0.5777 -0.6500 -1.0656
  593TMC3    C4 8789   3.789   1.196  11.723  0.0168 -0.0563  0.4154
  593TMC3    C5 8790   3.879   1.294  11.739  0.2032 -0.5378 -0.7079
  593TMC3    C6 8791   3.889   1.366  11.853 -0.6042  0.1285  0.2458
  593TMC3     C 8792   3.590   1.090  11.814 -0.1977 -0.3269  0.0850
  593TMC3     O 8793   3.536   1.066  11.923 -0.2075  1.1758  0.4727
  593TMC3     H 8794   3.609   1.284  11.994 -0.2944 -2.8549 -1.3372
  593TMC3    H1 8795   3.782   1.125  11.642  1.2427  3.1785 -2.5357
  593TMC3    H2 8796   3.977   1.429  11.863  0.1718 -0.8736 -0.2627
  593TMC3    C7 8797   3.999   1.300  11.655 -0.4836  0.0628  0.0362
  593TMC3    C8 8798   3.785   1.485  12.032 -0.7713 -0.4859 -0.0750
  593TMC3    O1 8799   3.995   1.329  11.533 -0.3743  0.3351  0.4666
  593TMC3    O2 8800   3.674   1.524  12.048 -0.1428  0.0419  0.6124
  594MPD2     C 8801   1.797   4.552  13.982  0.5382  0.1919  0.2426
  594MPD2    C1 8802   1.846   4.557  14.111 -0.7047 -0.0438 -0.2736
  594MPD2    C2 8803   1.959   4.624  14.142  0.8502  0.8599  0.0841
  594MPD2    C3 8804   2.028   4.677  14.037  0.2394 -0.3812  0.4094
  594MPD2    C4 8805   1.985   4.660  13.908  0.7907 -0.3690 -0.2989
  594MPD2    C5 8806   1.873   4.592  13.878 -1.0602  0.9185 -0.4888
  594MPD2     H 8807   1.986   4.628  14.247  0.8077 -2.1906  0.2140
  594MPD2    H1 8808   2.048   4.687  13.824 -0.1506  0.0887 -0.8511
  594MPD2    H2 8809   1.706   4.496  13.960 -0.0908  1.4528 -0.3821
  594MPD2    H3 8810   1.842   4.573  13.776 -0.8793 -2.4226  0.0510
  594MPD2     N 8811   2.147   0.024  14.072  0.2698 -0.2316  0.4036
  594MPD2    H5 8812   2.168   0.031  14.171 -1.9948  0.2322  0.8647
  594MPD2    N1 8813   1.765   4.507  14.216 -0.4198 -0.2769  0.5549
  594MPD2    H7 8814   1.673   4.476  14.186  0.1114 -0.4613 -0.8993
  595TMC3    C1 8815   2.529   0.294  14.022 -0.0294 -0.4956  0.1786
  595TMC3    C2 8816   2.441   0.206  13.971 -0.3961  0.7359 -0.3159
  595TMC3    C3 8817   2.323   0.172  14.038 -0.7352  0.1413 -0.0066
  595TMC3    C4 8818   2.499   0.365  14.131 -0.5624  0.0550 -0.1479
  595TMC3    C5 8819   2.374   0.330  14.194 -0.0786  0.6456 -0.6669
  595TMC3    C6 8820   2.287   0.230  14.155  0.3090  0.2361 -0.2219
  595TMC3     C 8821   2.619   0.353  13.931  0.0103 -0.3278 -0.2904
  595TMC3     O 8822   2.588   0.343  13.811  0.7662  0.4970 -0.4161
  595TMC3     H 8823   2.474   0.157  13.880  2.4380  1.7302  0.1798
  595TMC3    H1 8824   2.564   0.442  14.171  1.7109 -0.3850 -3.0133
  595TMC3    H2 8825   2.195   0.215  14.211 -0.0528  3.4124  0.0407
  595TMC3    C7 8826   2.367   0.374  14.334 -0.4567 -0.3937 -0.0362
  595TMC3    C8 8827   2.239   0.075  13.979 -0.7168  0.5724  0.4216
  595TMC3    O1 8828   2.260   0.368  14.382  0.5481 -0.0052  0.2391
  595TMC3    O2 8829   2.252   0.058  13.860 -0.0448 -0.1273  0.4158
  596MPD2     C 8830   1.457   2.906  16.835 -0.3527  0.0351  0.8040
  596MPD2    C1 8831   1.454   2.997  16.723  0.5923 -0.1247  0.1549
  596MPD2    C2 8832   1.478   2.949  16.595  0.7994  0.1785  1.1971
  596MPD2    C3 8833   1.510   2.818  16.573 -0.1173  0.1863 -0.3652
  596MPD2    C4 8834   1.530   2.738  16.684  0.4739 -0.0054  0.1304
  596MPD2    C5 8835   1.494   2.777  16.809 -0.0325 -0.0198 -0.1476
  596MPD2     H 8836   1.460   3.021  16.516  1.9682  1.2312  1.8969
  596MPD2    H1 8837   1.555   2.633  16.677 -1.9358 -0.4541 -1.9574
  596MPD2    H2 8838   1.417   2.920  16.934 -0.4813  0.5637  0.6800
  596MPD2    H3 8839   1.503   2.709  16.893 -4.4125 -0.3861  0.0465
  596MPD2     N 8840   1.523   2.763  16.442 -0.0218  0.3986  0.2583
  596MPD2    H5 8841   1.544   2.665  16.430 -0.6624  0.2708  0.1812
  596MPD2    N1 8842   1.394   3.127  16.723  0.4008  0.1200  0.8625
  596MPD2    H7 8843   1.402   3.188  16.642  0.0156  0.5050  1.1161
  597TMC3    C1 8844   1.279   3.308  16.819 -0.3266 -0.6447  0.4651
  597TMC3    C2 8845   1.268   3.360  16.698  0.7053  0.8204  0.2384
  597TMC3    C3 8846   1.180   3.465  16.682  0.1938  0.0857 -0.0884
  597TMC3    C4 8847   1.204   3.351  16.924  0.0112  0.7012  0.3910
  597TMC3    C5 8848   1.112   3.452  16.913  0.2534  0.1916 -0.0525
  597TMC3    C6 8849   1.106   3.515  16.792 -0.4873 -0.3113  0.1007
  597TMC3     C 8850   1.349   3.181  16.837  0.2073 -0.5229  0.5712
  597TMC3     O 8851   1.349   3.140  16.951 -0.0057 -0.2385 -0.3910
  597TMC3     H 8852   1.330   3.332  16.614 -1.0349  1.3418 -1.2076
  597TMC3    H1 8853   1.209   3.295  17.017 -2.5384 -1.0475 -0.5398
  597TMC3    H2 8854   1.019   3.574  16.764  0.5732  0.7827 -0.9147
  597TMC3    C7 8855   0.988   3.428  16.986 -0.6134 -0.0179 -0.2555
  597TMC3    C8 8856   1.210   3.555  16.569  0.0037 -1.2019  0.2311
  597TMC3    O1 8857   0.960   3.313  17.003 -0.4639  0.6195  0.1300
  597TMC3    O2 8858   1.126   3.643  16.552 -0.4571  0.4122 -0.3973
  598TMC3    C1 8859   4.278   4.647  15.361 -0.4041  0.0405  0.2572
  598TMC3    C2 8860   4.209   4.532  15.377 -0.2189  0.1126  0.3343
  598TMC3    C3 8861   4.148   4.479  15.270 -0.2897 -0.2375 -0.0164
  598TMC3    C4 8862   4.298   4.709  15.243  0.0427  0.4470  0.8380
  598TMC3    C5 8863   4.250   4.650  15.131  0.6381 -0.3194 -0.2705
  598TMC3    C6 8864   4.179   4.528  15.146  0.4754  0.1833  0.4105
  598TMC3     C 8865   4.339   4.715  15.468 -0.1373 -0.9172  0.8356
  598TMC3     O 8866   4.433   0.061  15.430 -1.1471  0.2853 -0.1979
  598TMC3     H 8867   4.200   4.487  15.475 -1.6756 -0.0285  0.1405
  598TMC3    H1 8868   4.349   0.079  15.233  0.3102  0.3355  1.1791
  598TMC3    H2 8869   4.150   4.476  15.056 -0.6531  0.5844  0.5513
  598TMC3    C7 8870   4.289   4.688  14.996 -0.6359 -1.0426  0.5446
  598TMC3    C8 8871   4.068   4.364  15.288  0.7911  0.3227 -0.5344
  598TMC3    O1 8872   4.255   4.612  14.907 -0.4699 -0.3749  0.3752
  598TMC3    O2 8873   4.055   4.289  15.194 -0.4308  0.2867 -0.4269
  599MPD2     C 8874   4.646   2.189  16.306 -0.3700 -0.1279 -0.3851
  599MPD2    C1 8875   4.620   2.077  16.372  0.3351 -0.4207  0.3484
  599MPD2    C2 8876   4.496   2.073  16.436  0.3446 -0.3506  0.0908
  599MPD2    C3 8877   4.396   2.173  16.422 -0.2245  0.7807  0.1961
  599MPD2    C4 8878   4.433   2.285  16.356  0.0672  0.2218 -0.6000
  599MPD2    C5 8879   4.553   2.285  16.296  0.0772  1.2172  0.2876
  599MPD2     H 8880   4.474   1.984  16.494 -1.7312 -0.6142 -1.0721
  599MPD2    H1 8881   4.374   2.374  16.336 -2.7922 -1.4290  0.5401
  599MPD2    H2 8882   0.021   2.197  16.264  0.4607 -0.2861  1.5710
  599MPD2    H3 8883   4.568   2.368  16.228  1.5101 -0.2683 -1.2303
  599MPD2     N 8884   4.277   2.184  16.494  0.4176  0.4597 -0.0123
  599MPD2    H5 8885   4.229   2.274  16.493 -1.8363 -0.7451 -2.1567
  599MPD2    N1 8886   4.716   1.973  16.378 -0.2486 -0.1215  0.3580
  599MPD2    H7 8887   0.064   1.974  16.308 -0.2536  0.9461  0.3629
  600TMC3    C1 8888   4.087   2.115  16.608 -0.2912 -0.2656 -0.4401
  600TMC3    C2 8889   4.013   2.007  16.626 -0.1458  0.8084 -0.2469
  600TMC3    C3 8890   3.893   2.034  16.687  0.0262  0.3133  0.1863
  600TMC3    C4 8891   4.059   2.243  16.648  0.1170  0.0929  0.1516
  600TMC3    C5 8892   3.943   2.258  16.720 -0.3898 -0.4493  0.1556
  600TMC3    C6 8893   3.859   2.153  16.751 -0.0924  0.4406 -0.3061
  600TMC3     C 8894   4.212   2.078  16.546 -0.0200  0.1560  0.2543
  600TMC3     O 8895   4.253   1.964  16.554  0.0630  0.5461 -0.2251
  600TMC3     H 8896   4.041   1.914  16.579 -1.5224  0.6307 -0.7284
  600TMC3    H1 8897   4.129   2.326  16.642 -0.0163  0.4137  2.8765
  600TMC3    H2 8898   3.762   2.160  16.799  0.5166 -1.7581  1.2408
  600TMC3    C7 8899   3.872   2.385  16.725  0.2788  0.2244  0.2749
  600TMC3    C8 8900   3.815   1.909  16.705 -0.0244 -0.0437  0.4159
  600TMC3    O1 8901   3.765   2.388  16.784 -0.1018  0.5446  0.4372
  600TMC3    O2 8902   3.876   1.803  16.708 -0.6905  0.1726  0.0970
  601MPD2     C 8903   1.947   4.675   0.365  0.6739 -0.0283 -0.6315
  601MPD2    C1 8904   1.867   4.620   0.271 -0.4591  0.3057 -0.2893
  601MPD2    C2 8905   1.827   4.492   0.293  0.0368  0.0329  0.5409
  601MPD2    C3 8906   1.859   4.420   0.403 -0.1554  0.3505  0.3335
  601MPD2    C4 8907   1.941   4.482   0.494  0.3272 -0.2124  1.5491
  601MPD2    C5 8908   1.984   4.607   0.476  0.2680 -0.5926  0.5069
  601MPD2     H 8909   1.760   4.454   0.215 -1.2197  0.6110  1.3399
  601MPD2    H1 8910   1.967   4.436   0.589  1.2003 -0.5614  1.1423
  601MPD2    H2 8911   1.980   0.053   0.360  0.8173 -0.0163  0.5122
  601MPD2    H3 8912   2.037   4.667   0.549 -0.5359 -0.4960  1.0143
  601MPD2     N 8913   1.799   4.297   0.424 -0.2193 -0.0798 -0.3892
  601MPD2    H5 8914   1.805   4.262   0.519 -0.1364 -0.6247 -0.5941
  601MPD2    N1 8915   1.829   4.680   0.148  0.3340  0.0195  0.8699
  601MPD2    H7 8916   1.766   4.625   0.090  0.2343 -0.6158  1.5773
  602TMC3    C1 8917   1.820   0.120  17.690  0.6798 -0.0554 -0.8522
  602TMC3    C2 8918   1.889   0.220  17.627  0.1413 -0.4135 -0.3903
  602TMC3    C3 8919   1.835   0.283  17.520  0.0416  0.8064  0.3702
  602TMC3    C4 8920   1.701   0.071  17.639  0.2377 -0.8867  0.0351
  602TMC3    C5 8921   1.656   0.133  17.521 -0.6796  0.1791  0.7650
  602TMC3    C6 8922   1.725   0.238  17.459  0.3342  0.0045 -0.3955
  602TMC3     C 8923   1.871   0.081   0.117 -0.6038  0.1516  0.4024
  602TMC3     O 8924   1.959   0.159   0.159 -0.4857  0.7282 -0.4803
  602TMC3     H 8925   1.986   0.255  17.661  1.3626 -1.3992 -2.8363
  602TMC3    H1 8926   1.644   4.713  17.677 -1.8442  0.1072 -0.8861
  602TMC3    H2 8927   1.678   0.307  17.389 -1.3938  2.1628  2.8653
  602TMC3    C7 8928   1.522   0.096  17.474 -0.1959 -0.9647  0.1149
  602TMC3    C8 8929   1.905   0.394  17.454  0.1296  0.0537 -0.9301
  602TMC3    O1 8930   1.448   0.051  17.558  0.1654 -0.0022 -0.1757
  602TMC3    O2 8931   1.978   0.468  17.523 -0.3099  0.0863 -0.6080
  603TMC3    C1 8932   0.165   0.589  11.166 -0.1816  0.3049  0.1786
  603TMC3    C2 8933   0.194   0.561  11.297  0.2027 -0.4708 -0.2608
  603TMC3    C3 8934   0.202   0.655  11.388 -0.0769  0.5144  0.2230
  603TMC3    C4 8935   0.146   0.717  11.129 -0.3275 -0.4822 -0.4867
  603TMC3    C5 8936   0.170   0.818  11.230  0.1665 -0.1468 -0.7939
  603TMC3    C6 8937   0.208   0.786  11.356  0.0033  0.0631  0.0954
  603TMC3     C 8938   0.131   0.477  11.076 -0.1496 -0.0843  0.3234
  603TMC3     O 8939   0.085   0.376  11.126  0.9648  0.4859  0.4833
  603TMC3     H 8940   0.180   0.458  11.329  1.7245 -0.3540  0.7688
  603TMC3    H1 8941   0.117   0.745  11.029  0.7202 -0.6783 -0.8439
  603TMC3    H2 8942   0.209   0.860  11.435  3.0999 -1.7461  1.7459
  603TMC3    C7 8943   0.169   0.962  11.199  0.0114  0.5615  0.2791
  603TMC3    C8 8944   0.142   0.623  11.521  0.8775  0.2355 -0.3439
  603TMC3    O1 8945   0.262   1.038  11.231 -0.6797 -0.1108  0.0082
  603TMC3    O2 8946   0.113   0.506  11.537  0.6305 -0.5138 -0.4470
  604MPD2     C 8947   0.555   4.126  15.996  0.2497  0.0749 -0.0413
  604MPD2    C1 8948   0.445   4.059  16.036  0.6458 -0.3716  0.1889
  604MPD2    C2 8949   0.423   3.937  15.977  0.7339 -0.4982  0.0322
  604MPD2    C3 8950   0.511   3.882  15.885 -0.1438 -0.1946 -0.1268
  604MPD2    C4 8951   0.626   3.951  15.854 -0.4740 -0.4236  0.4889
  604MPD2    C5 8952   0.642   4.077  15.906 -0.6442 -0.0371 -1.4370
  604MPD2     H 8953   0.334   3.880  16.002  0.0337  1.6251  2.4143
  604MPD2    H1 8954   0.705   3.908  15.793 -1.0606  0.9657 -1.2612
  604MPD2    H2 8955   0.575   4.227  16.033 -0.2403  0.2704 -0.3107
  604MPD2    H3 8956   0.727   4.137  15.876 -0.7892  0.0874 -1.5962
  604MPD2     N 8957   0.482   3.755  15.828 -0.2447  0.2433 -0.2773
  604MPD2    H5 8958   0.386   3.722  15.831 -0.1848  0.0952 -0.0268
  604MPD2    N1 8959   0.368   4.116  16.139  0.2540 -0.1826  0.2595
  604MPD2    H7 8960   0.409   4.199  16.182  1.7592 -0.8276  0.0599
  605TMC3    C1 8961   0.202   4.155  16.298 -0.0116 -0.3036 -0.3503
  605TMC3    C2 8962   0.288   4.248  16.350  0.4911 -0.0025  0.0021
  605TMC3    C3 8963   0.244   4.358  16.415  0.8721  0.0256 -0.7399
  605TMC3    C4 8964   0.071   4.173  16.318 -0.4299  0.2703  0.1100
  605TMC3    C5 8965   0.025   4.292  16.370  0.2952 -0.1105 -0.2238
  605TMC3    C6 8966   0.111   4.387  16.425 -0.6501 -0.0965  0.4367
  605TMC3     C 8967   0.256   4.067  16.200  0.0069 -0.3639 -0.3962
  605TMC3     O 8968   0.187   3.973  16.164  0.2128 -0.0434 -0.0941
  605TMC3     H 8969   0.395   4.231  16.346  0.6139  1.1568 -1.7100
  605TMC3    H1 8970   0.008   4.091  16.284  0.7638 -0.5484 -0.1003
  605TMC3    H2 8971   0.079   4.486  16.453  0.2829  0.4357 -0.3620
  605TMC3    C7 8972   4.605   4.309  16.393 -0.5238  0.4933  0.3468
  605TMC3    C8 8973   0.325   4.475  16.390 -0.1559 -0.2641  0.9632
  605TMC3    O1 8974   4.527   4.255  16.316  0.2763 -0.2049 -0.0014
  605TMC3    O2 8975   0.423   4.460  16.318  0.2143 -0.1089 -1.3124
  606TMC3    C1 8976   1.218   3.097  17.526 -0.2174 -0.4239  0.1294
  606TMC3    C2 8977   1.155   3.032  17.632  0.1562  0.0714  0.2041
  606TMC3    C3 8978   1.081   2.925  17.609 -0.0247  0.6825  0.4017
  606TMC3    C4 8979   1.224   3.039  17.402 -0.3580  0.2021  0.2419
  606TMC3    C5 8980   1.166   2.920  17.381  0.0505 -0.0894 -0.4261
  606TMC3    C6 8981   1.091   2.864  17.481 -0.1903 -0.1227  0.4860
  606TMC3     C 8982   1.221   3.243  17.549  0.6774 -0.2007 -0.2529
  606TMC3     O 8983   1.253   3.273  17.663  0.7882 -0.3893 -0.7167
  606TMC3     H 8984   1.141   3.089   0.021 -0.0930 -1.0871  0.8882
  606TMC3    H1 8985   1.281   3.090  17.326 -1.8722 -0.8063 -1.5960
  606TMC3    H2 8986   1.024   2.783  17.452 -0.7830  0.2218  0.8854
  606TMC3    C7 8987   1.234   2.829  17.292  0.4599  0.1379  0.1790
  606TMC3    C8 8988   1.111   2.828   0.008  0.3712 -0.1618  0.1716
  606TMC3    O1 8989   1.304   2.871  17.194 -0.1920 -0.1786 -0.1556
  606TMC3    O2 8990   1.214   2.853   0.070  0.5256 -0.2484  0.4770
  607MPD2     C 8991   3.546   0.532  11.590 -0.3695 -0.0889  0.8793
  607MPD2    C1 8992   3.620   0.569  11.696  0.0838 -0.0595 -0.5208
  607MPD2    C2 8993   3.590   0.523  11.822  0.0190  0.0732  0.5416
  607MPD2    C3 8994   3.483   0.444  11.846  0.1248  0.3370 -0.2749
  607MPD2    C4 8995   3.400   0.403  11.742 -0.4388  0.3850 -0.3287
  607MPD2    C5 8996   3.432   0.456  11.618  0.6844  0.2975  0.5892
  607MPD2     H 8997   3.649   0.562  11.904  1.2172 -0.7278  0.0579
  607MPD2    H1 8998   3.305   0.351  11.753 -0.3484  0.5110  1.0204
  607MPD2    H2 8999   3.562   0.562  11.487  1.9220 -1.8079  0.7281
  607MPD2    H3 9000   3.366   0.438  11.535  2.3301  0.0144 -0.6522
  607MPD2     N 9001   3.453   0.408  11.977 -0.2294 -0.0487 -0.7181
  607MPD2    H5 9002   3.512   0.453  12.046  0.9145 -0.1652 -1.6121
  607MPD2    N1 9003   3.726   0.662  11.694  0.0298 -0.2125 -0.0689
  607MPD2    H7 9004   3.796   0.670  11.768  0.1221 -1.8602  0.0167
  608TMC3    C1 9005   3.871   0.820  11.625  0.0411  0.1004  0.3368
  608TMC3    C2 9006   3.877   0.856  11.758  0.1276 -0.2807 -0.0825
  608TMC3    C3 9007   3.989   0.915  11.808  0.4200 -0.7756 -0.3651
  608TMC3    C4 9008   3.980   0.831  11.545  0.1500 -0.1051 -0.1235
  608TMC3    C5 9009   4.096   0.888  11.601  0.0721  0.1522  1.1948
  608TMC3    C6 9010   4.104   0.933  11.731  0.2465 -0.3307 -1.1695
  608TMC3     C 9011   3.765   0.734  11.585 -0.3751  0.3672 -0.2241
  608TMC3     O 9012   3.712   0.742  11.474 -0.0262  1.0076  0.1653
  608TMC3     H 9013   3.783   0.862  11.812  1.2734 -0.6486  1.9201
  608TMC3    H1 9014   3.984   0.791  11.445 -1.0197 -1.2865  0.3155
  608TMC3    H2 9015   4.197   0.976  11.766  0.2389 -2.1968  1.1174
  608TMC3    C7 9016   4.196   0.938  11.511  0.0206 -0.1590  0.1180
  608TMC3    C8 9017   3.983   0.960  11.943 -0.4901 -0.3140 -0.1486
  608TMC3    O1 9018   4.157   0.961  11.398  0.0172 -0.4032 -0.3875
  608TMC3    O2 9019   4.043   1.058  11.974  0.7548  0.6367  0.2960
  609TMC3    C1 9020   2.298   0.351   9.186 -0.3135  0.1962  0.5433
  609TMC3    C2 9021   2.338   0.479   9.209 -0.1379  0.2586 -0.5409
  609TMC3    C3 9022   2.477   0.489   9.230 -0.0126  0.0579 -0.2792
  609TMC3    C4 9023   2.389   0.247   9.166  1.0248  0.1775  0.1552
  609TMC3    C5 9024   2.520   0.265   9.192 -0.3043  0.1792 -0.1377
  609TMC3    C6 9025   2.566   0.387   9.226  0.2232 -0.8692 -0.2228
  609TMC3     C 9026   2.175   0.311   9.251  0.1430  0.1979 -0.4357
  609TMC3     O 9027   2.170   0.192   9.273  0.3016  0.6764 -0.1799
  609TMC3     H 9028   2.276   0.566   9.228  1.4201  0.8013  2.0552
  609TMC3    H1 9029   2.349   0.151   9.134  0.7203 -0.9417  3.9075
  609TMC3    H2 9030   2.673   0.407   9.234 -0.0888  0.2927  1.1790
  609TMC3    C7 9031   2.608   0.151   9.209 -0.4411  0.0894 -0.0092
  609TMC3    C8 9032   2.534   0.627   9.236 -0.4804 -0.1976 -0.1206
  609TMC3    O1 9033   2.713   0.164   9.270  0.4773 -0.6163 -0.4643
  609TMC3    O2 9034   2.655   0.630   9.246 -0.6549 -0.1968 -0.2535
  610TMC3    C1 9035   3.910   4.440  12.627 -0.5825 -0.2572 -0.5099
  610TMC3    C2 9036   3.798   4.495  12.585  0.0807 -0.2973 -0.2261
  610TMC3    C3 9037   3.758   4.615  12.636  0.6949  0.2874 -0.3638
  610TMC3    C4 9038   3.986   4.501  12.726  0.2543 -0.2574  0.3462
  610TMC3    C5 9039   3.945   4.629  12.769 -1.2005 -0.1341 -0.0791
  610TMC3    C6 9040   3.827   4.683  12.725 -0.4100 -0.1871  0.9020
  610TMC3     C 9041   3.927   4.302  12.590 -0.0795 -0.0703 -0.7242
  610TMC3     O 9042   3.817   4.253  12.554  0.0393  0.3011  0.1135
  610TMC3     H 9043   3.752   4.463  12.492  0.6891  0.7223 -0.8838
  610TMC3    H1 9044   4.082   4.467  12.763 -0.7617 -1.1952  2.0742
  610TMC3    H2 9045   3.789   0.054  12.759  0.3054  0.2395  0.4873
  610TMC3    C7 9046   4.018   4.710  12.867  0.2599  0.2695 -0.2083
  610TMC3    C8 9047   3.627   4.672  12.601 -0.0892  0.0588 -0.5601
  610TMC3    O1 9048   4.097   4.648  12.938 -0.5650 -0.1961 -0.2013
  610TMC3    O2 9049   3.598   0.064  12.644 -0.4475  0.2466  0.3655
  611MPD2     C 9050   4.160   0.493  10.602  0.4623 -0.2753  0.6233
  611MPD2    C1 9051   4.064   0.583  10.557  0.4620 -0.0467  0.0896
  611MPD2    C2 9052   4.112   0.711  10.520 -0.2295  0.6410 -0.0912
  611MPD2    C3 9053   4.248   0.741  10.527 -0.2723  0.3454 -0.0793
  611MPD2    C4 9054   4.341   0.639  10.556 -0.7792  0.1487  0.0107
  611MPD2    C5 9055   4.293   0.520  10.607 -0.3767  0.5724 -0.3986
  611MPD2     H 9056   4.044   0.795  10.513 -0.1252  0.6349 -1.1934
  611MPD2    H1 9057   4.446   0.662  10.567 -0.8688  0.5001  0.1714
  611MPD2    H2 9058   4.125   0.393  10.621  0.8242 -0.9082 -1.9884
  611MPD2    H3 9059   4.366   0.447  10.640  1.3066  2.0259 -0.8725
  611MPD2     N 9060   4.301   0.867  10.507 -0.2300 -0.4282 -0.0660
  611MPD2    H5 9061   4.397   0.874  10.541  0.1039 -0.9805 -0.9109
  611MPD2    N1 9062   3.928   0.559  10.582  0.1991  0.5576  0.0696
  611MPD2    H7 9063   3.908   0.471  10.629  0.7187  0.3831 -0.0335
  612TMC3    C1 9064   4.303   1.098  10.459  0.2676 -0.1863 -0.1753
  612TMC3    C2 9065   4.367   1.139  10.573 -0.1519  0.2388 -0.4209
  612TMC3    C3 9066   4.402   1.269  10.579 -0.3160  0.6141  0.5682
  612TMC3    C4 9067   4.261   1.191  10.371  1.1450  0.2820 -0.0283
  612TMC3    C5 9068   4.294   1.319  10.377  0.1045 -0.6769  0.0320
  612TMC3    C6 9069   4.378   1.360  10.479 -0.1557  0.0864  0.5029
  612TMC3     C 9070   4.230   0.971  10.454 -0.3719 -0.2978  0.3093
  612TMC3     O 9071   4.122   0.978  10.398 -0.4126  0.2365  0.1187
  612TMC3     H 9072   4.379   1.067  10.653 -1.7030 -0.2340 -0.6041
  612TMC3    H1 9073   4.202   1.150  10.289  0.9254 -0.5665  0.5492
  612TMC3    H2 9074   4.422   1.459  10.487  1.0961 -0.3697 -0.6602
  612TMC3    C7 9075   4.250   1.423  10.289 -0.4148  0.9616 -0.6849
  612TMC3    C8 9076   4.504   1.315  10.682 -0.1473  0.4609  0.0951
  612TMC3    O1 9077   4.302   1.537  10.303 -0.2775  0.2489  0.0092
  612TMC3    O2 9078   4.525   1.434  10.692  0.1468  0.6662 -0.4924
  613MPD2     C 9079   2.285   3.366  16.915 -0.8195  0.0951  0.0104
  613MPD2    C1 9080   2.335   3.299  16.806  0.3666 -0.0738  0.1649
  613MPD2    C2 9081   2.320   3.163  16.801  0.5975  0.0357  0.4224
  613MPD2    C3 9082   2.255   3.090  16.898  0.0222 -0.1249 -0.0273
  613MPD2    C4 9083   2.215   3.159  17.011  0.9598  0.0383 -0.4007
  613MPD2    C5 9084   2.230   3.296  17.016  0.9254 -0.2447 -0.2274
  613MPD2     H 9085   2.361   3.113  16.713  1.1318  0.8263  0.2159
  613MPD2    H1 9086   2.172   3.108  17.096 -1.1074 -0.5551 -1.8118
  613MPD2    H2 9087   2.293   3.474  16.923 -1.0262  0.1083  0.0224
  613MPD2    H3 9088   2.193   3.353  17.100 -0.6662 -0.5149 -0.7334
  613MPD2     N 9089   2.237   2.953  16.907 -0.7024  0.1122 -0.4227
  613MPD2    H5 9090   2.222   2.905  16.995 -1.8536  0.8435 -0.2075
  613MPD2    N1 9091   2.402   3.355  16.700  0.1155 -0.4368 -0.2198
  613MPD2    H7 9092   2.436   3.295  16.625 -1.0403 -0.0960 -1.0157
  614TMC3    C1 9093   2.534   3.499  16.577 -0.6655 -0.0095  0.3033
  614TMC3    C2 9094   2.630   3.418  16.592 -0.5189  0.1605  0.0475
  614TMC3    C3 9095   2.691   3.358  16.485  0.1594  0.3769 -0.1014
  614TMC3    C4 9096   2.487   3.524  16.460 -0.0029  0.3166  0.8838
  614TMC3    C5 9097   2.543   3.465  16.350 -0.0475  0.7057 -0.0078
  614TMC3    C6 9098   2.660   3.389  16.362 -0.4783  0.2061  0.3793
  614TMC3     C 9099   2.439   3.489  16.684  0.0431 -0.4208  0.3417
  614TMC3     O 9100   2.397   3.585  16.745 -0.2899 -0.1257  0.4103
  614TMC3     H 9101   2.664   3.402  16.694 -0.6253  2.1600  0.3918
  614TMC3    H1 9102   2.395   3.581  16.448 -0.7253 -0.6248  1.9793
  614TMC3    H2 9103   2.712   3.340  16.281 -2.1839 -1.3448  0.2229
  614TMC3    C7 9104   2.512   3.535  16.231  0.0932 -0.2848  0.1256
  614TMC3    C8 9105   2.730   3.222  16.530  0.5341 -0.3237 -0.0465
  614TMC3    O1 9106   2.508   3.659  16.237 -0.6795 -0.1352  0.3983
  614TMC3    O2 9107   2.674   3.188  16.633  0.4356 -0.0680 -0.3102
  615MPD2     C 9108   1.888   3.954  16.111  0.8430  0.1325  0.3448
  615MPD2    C1 9109   1.759   3.993  16.081 -0.7993 -0.1655 -0.4161
  615MPD2    C2 9110   1.716   3.968  15.951  0.4226  0.1264  0.7425
  615MPD2    C3 9111   1.797   3.903  15.857 -0.2042 -0.3139  0.2075
  615MPD2    C4 9112   1.927   3.872  15.889 -0.8184  0.1748 -0.9865
  615MPD2    C5 9113   1.972   3.895  16.018  0.4173 -0.9248  0.1585
  615MPD2     H 9114   1.615   3.993  15.921  0.9817 -0.2850 -1.5174
  615MPD2    H1 9115   1.993   3.819  15.821 -1.6280  0.1144 -1.7320
  615MPD2    H2 9116   1.928   3.965  16.211  1.2123  0.3821  0.1683
  615MPD2    H3 9117   2.071   3.878  16.057  0.0799  2.2816  2.4684
  615MPD2     N 9118   1.761   3.875  15.722 -0.6207 -0.0556 -0.4967
  615MPD2    H5 9119   1.828   3.820  15.669 -0.0778 -1.5346  1.7372
  615MPD2    N1 9120   1.678   4.069  16.166 -0.0745  0.5887  0.1418
  615MPD2    H7 9121   1.592   4.107  16.128 -0.9880 -0.8611  0.7166
  616TMC3    C1 9122   1.653   4.235  16.319  0.0213  0.7948 -0.4066
  616TMC3    C2 9123   1.742   4.335  16.282 -0.4501  0.5912 -0.3419
  616TMC3    C3 9124   1.752   4.451  16.357  0.1565 -0.5162 -0.4769
  616TMC3    C4 9125   1.580   4.244  16.436 -1.0946  0.4780 -0.5517
  616TMC3    C5 9126   1.606   4.351  16.517 -0.7884  0.5742  0.3571
  616TMC3    C6 9127   1.689   4.450  16.482 -1.7266  0.3281  0.3827
  616TMC3     C 9128   1.706   4.101  16.296 -0.1857  0.3044  0.6624
  616TMC3     O 9129   1.797   4.063  16.371 -0.7613 -0.4510 -0.0702
  616TMC3     H 9130   1.805   4.319  16.196  0.3359  0.3429  0.2732
  616TMC3    H1 9131   1.533   4.150  16.464 -1.8127  1.0560  0.2046
  616TMC3    H2 9132   1.696   4.539  16.543 -1.9876  1.1546 -0.7866
  616TMC3    C7 9133   1.522   4.376  16.630 -0.2739 -0.2736 -0.4825
  616TMC3    C8 9134   1.863   4.544  16.336 -0.0665 -0.0133 -0.0483
  616TMC3    O1 9135   1.410   4.420  16.595  0.7628 -0.3664 -0.1652
  616TMC3    O2 9136   1.886   4.612  16.433 -0.2258 -0.6452  0.1093
  617MPD2     C 9137   4.707   2.506  13.699  0.1700  0.2097  0.4935
  617MPD2    C1 9138   4.716   2.459  13.830 -0.2618 -0.2275  0.0130
  617MPD2    C2 9139   4.603   2.426  13.900  0.1043 -0.1109  0.3138
  617MPD2    C3 9140   4.479   2.445  13.841  0.2301 -0.3472 -0.0058
  617MPD2    C4 9141   4.470   2.484  13.708 -0.5800  0.1114  0.6474
  617MPD2    C5 9142   4.582   2.512  13.635 -0.0167 -0.9253  0.4935
  617MPD2     H 9143   4.615   2.398  14.004 -1.4675  1.5206  0.9345
  617MPD2    H1 9144   4.369   2.494  13.671 -0.8979  3.0353  2.3298
  617MPD2    H2 9145   0.067   2.528  13.638  0.6261 -0.8775  0.7336
  617MPD2    H3 9146   4.574   2.540  13.530  2.7345  0.5780  0.6757
  617MPD2     N 9147   4.360   2.410  13.910  0.3711 -0.3512  0.2203
  617MPD2    H5 9148   4.270   2.432  13.868  0.1175 -1.3144  0.2714
  617MPD2    N1 9149   0.126   2.449  13.881 -0.1818  0.1214 -0.3330
  617MPD2    H7 9150   0.202   2.468  13.816 -0.2186 -0.0107 -0.4155
  618TMC3    C1 9151   0.297   2.412  14.036 -0.0577  0.5304 -0.1570
  618TMC3    C2 9152   0.370   2.301  14.016 -0.4601 -0.1697  0.3188
  618TMC3    C3 9153   0.502   2.309  13.991  0.5880 -0.3100 -0.6387
  618TMC3    C4 9154   0.355   2.534  14.032 -0.1581  0.2277 -0.6545
  618TMC3    C5 9155   0.483   2.541  13.998 -0.3390  0.1620 -0.1734
  618TMC3    C6 9156   0.562   2.431  13.989  0.1245 -0.0851 -0.0590
  618TMC3     C 9157   0.156   2.406  14.008  0.6409  0.3391 -0.2277
  618TMC3     O 9158   0.085   2.339  14.082  0.0604 -0.0890  0.7188
  618TMC3     H 9159   0.311   2.210  14.016 -0.1636 -0.3570 -0.6888
  618TMC3    H1 9160   0.297   2.625  14.027  0.1296  0.4274 -0.3775
  618TMC3    H2 9161   0.666   2.447  13.961 -0.0080  1.0441  0.0912
  618TMC3    C7 9162   0.540   2.674  14.007  0.2247 -0.0653  0.5158
  618TMC3    C8 9163   0.557   2.199  13.914  0.2899  0.4858 -0.1857
  618TMC3    O1 9164   0.513   2.736  14.109  0.0332  0.1342 -0.2319
  618TMC3    O2 9165   0.478   2.112  13.888  0.1732  0.1958 -0.2441
  619MPD2     C 9166   1.602   3.788  13.949 -0.6124  0.4076 -0.3749
  619MPD2    C1 9167   1.522   3.733  13.851 -0.3366  0.9093 -0.7484
  619MPD2    C2 9168   1.431   3.638  13.879  0.6548  0.3059 -1.0862
  619MPD2    C3 9169   1.391   3.618  14.004  0.1021 -0.1267 -0.2380
  619MPD2    C4 9170   1.460   3.684  14.110  0.8257  0.4924 -0.7109
  619MPD2    C5 9171   1.570   3.759  14.079  0.7008  0.0539  0.2677
  619MPD2     H 9172   1.387   3.582  13.797 -2.8465 -0.1774  1.1232
  619MPD2    H1 9173   1.431   3.676  14.214  0.3240  0.8302 -0.8266
  619MPD2    H2 9174   1.676   3.865  13.931 -0.5992  0.4800 -0.0023
  619MPD2    H3 9175   1.619   3.816  14.157 -1.2574  2.3619 -0.1856
  619MPD2     N 9176   1.277   3.537  14.017  0.1353 -0.2949  0.1993
  619MPD2    H5 9177   1.225   3.505  13.937 -0.4584  0.3522  0.3179
  619MPD2    N1 9178   1.532   3.763  13.715  0.4440 -0.3847  0.5637
  619MPD2    H7 9179   1.470   3.715  13.650  2.4272 -3.0515  0.6434
  620TMC3    C1 9180   1.591   3.885  13.519 -1.0722  0.5111  0.1698
  620TMC3    C2 9181   1.484   3.807  13.467  0.1661 -0.2771  0.1442
  620TMC3    C3 9182   1.388   3.869  13.396  0.1838  0.0630  0.4344
  620TMC3    C4 9183   1.615   4.010  13.475  0.5337 -0.1291  0.1522
  620TMC3    C5 9184   1.520   4.066  13.391  0.1988  0.2688  0.4437
  620TMC3    C6 9185   1.412   3.999  13.341 -0.5416 -0.3542 -0.1000
  620TMC3     C 9186   1.624   3.850  13.656  0.3329  0.9009  0.0585
  620TMC3     O 9187   1.720   3.912  13.704 -0.3202  0.4842 -0.1485
  620TMC3     H 9188   1.452   3.707  13.497  0.3894  0.1120  1.6920
  620TMC3    H1 9189   1.696   4.065  13.521  0.2920  0.3521  0.0137
  620TMC3    H2 9190   1.342   4.058  13.284  1.1534  1.2639 -0.5209
  620TMC3    C7 9191   1.494   4.206  13.428 -0.1227 -0.3919  0.7297
  620TMC3    C8 9192   1.258   3.853  13.448  0.1935 -0.1957  0.3373
  620TMC3    O1 9193   1.374   4.239  13.417  0.5669 -0.0178 -0.3149
  620TMC3    O2 9194   1.241   3.798  13.557 -0.4349  1.3123 -0.1382
  621MPD2     C 9195   2.312   4.284   9.743  0.5154  0.0633  0.3123
  621MPD2    C1 9196   2.335   4.201   9.849 -0.6973  1.0768 -0.1703
  621MPD2    C2 9197   2.423   4.243   9.943  0.4578 -0.3670 -0.8624
  621MPD2    C3 9198   2.476   4.370   9.947 -0.5604  0.1348 -0.0723
  621MPD2    C4 9199   2.456   4.458   9.842  0.1854 -0.5596 -0.0461
  621MPD2    C5 9200   2.373   4.405   9.738 -0.4836  0.3518  0.3082
  621MPD2     H 9201   2.460   4.169  10.012 -1.5460 -2.3766 -1.9362
  621MPD2    H1 9202   2.483   4.563   9.841  1.6816 -0.9415  0.3625
  621MPD2    H2 9203   2.257   4.271   9.651 -1.0524  0.3389  1.2115
  621MPD2    H3 9204   2.353   4.455   9.644  0.4794 -0.6667 -0.4337
  621MPD2     N 9205   2.560   4.397  10.057 -0.1859  0.1344 -0.3654
  621MPD2    H5 9206   2.567   4.335  10.137 -0.2383  2.0629  1.1250
  621MPD2    N1 9207   2.288   4.070   9.852 -0.0167 -0.2392 -1.0104
  621MPD2    H7 9208   2.316   4.016   9.933  1.4678  0.2217 -1.2169
  622TMC3    C1 9209   2.204   3.850   9.781  0.0599  0.1139 -0.0867
  622TMC3    C2 9210   2.202   3.799   9.906 -0.7450  0.0512  0.0418
  622TMC3    C3 9211   2.181   3.658   9.916 -0.6302  0.5872  0.0966
  622TMC3    C4 9212   2.165   3.783   9.658 -0.8417 -0.1621  0.2890
  622TMC3    C5 9213   2.134   3.653   9.684 -0.0512 -0.3870 -0.2068
  622TMC3    C6 9214   2.141   3.592   9.804  0.1602  0.1663  0.8268
  622TMC3     C 9215   2.221   4.001   9.756 -0.7573 -0.5808  0.1636
  622TMC3     O 9216   2.166   4.044   9.657  0.2315  0.2442 -0.2148
  622TMC3     H 9217   2.225   3.855   9.996  1.7285  1.3445 -1.4175
  622TMC3    H1 9218   2.171   3.833   9.562  0.7365  1.8679  1.4431
  622TMC3    H2 9219   2.097   3.495   9.825  0.3822  0.2458  1.6648
  622TMC3    C7 9220   2.069   3.576   9.575  0.1725  0.8286 -0.3746
  622TMC3    C8 9221   2.149   3.605  10.042 -0.9567  0.5766  1.1780
  622TMC3    O1 9222   2.039   3.458   9.590 -0.0123  0.0897  0.1489
  622TMC3    O2 9223   2.174   3.487  10.061  0.1613  0.0839 -0.5512
  623MPD2     C 9224   0.564   4.326  15.687 -0.1001  0.2034  0.4461
  623MPD2    C1 9225   0.515   4.394  15.796 -0.3970 -0.2137 -0.4158
  623MPD2    C2 9226   0.603   4.471  15.869  0.1105  0.4216 -0.0227
  623MPD2    C3 9227   0.736   4.481  15.837 -0.1492 -0.2055 -0.1008
  623MPD2    C4 9228   0.781   4.412  15.727  0.6600 -0.2979 -0.8781
  623MPD2    C5 9229   0.690   4.345  15.647 -0.2829  0.5010  0.7925
  623MPD2     H 9230   0.575   4.509  15.966  0.7153 -0.9528  0.6780
  623MPD2    H1 9231   0.883   4.418  15.692  0.4202 -0.2034 -1.5642
  623MPD2    H2 9232   0.499   4.259  15.631  1.9086 -0.7860 -0.6713
  623MPD2    H3 9233   0.724   4.293  15.558  1.6937  3.8509 -0.4036
  623MPD2     N 9234   0.815   4.557  15.919  0.6872 -0.4196 -0.2340
  623MPD2    H5 9235   0.771   4.615  15.990  1.2155  0.3405 -0.5201
  623MPD2    N1 9236   0.378   4.388  15.840  0.0968 -0.2464  0.3695
  623MPD2    H7 9237   0.342   4.456  15.906 -1.9448  1.0452 -2.0455
  624TMC3    C1 9238   1.023   4.626  16.250 -0.2415 -0.0809 -0.1389
  624TMC3    C2 9239   0.914   4.703  16.284  0.6082 -0.2310  0.6342
  624TMC3    C3 9240   0.846   0.052  16.183  0.1505 -0.2137 -0.1808
  624TMC3    C4 9241   1.047   4.596  16.118  0.1484 -0.6516 -0.1339
  624TMC3    C5 9242   0.975   4.659  16.021 -0.2903  0.3637  0.3189
  624TMC3    C6 9243   0.871   0.021  16.051  0.2506 -0.1661 -0.2467
  624TMC3     C 9244   1.074   4.541  16.356  0.2821  0.1555  0.3021
  624TMC3     O 9245   1.086   4.597  16.462  0.0475 -0.4793 -0.3710
  624TMC3     H 9246   0.883   4.709  16.388 -2.8222 -1.9181 -0.3091
  624TMC3    H1 9247   1.124   4.523  16.092  0.4697  0.0686 -1.2362
  624TMC3    H2 9248   0.836   0.090  15.975  0.3106  1.5438  1.2586
  624TMC3    C7 9249   0.949   4.579  15.908 -0.4168  0.5769 -0.1599
  624TMC3    C8 9250   0.711   0.054  16.204  0.3199 -0.0592 -0.1867
  624TMC3    O1 9251   1.039   4.504  15.867  0.0143  0.4093 -0.0915
  624TMC3    O2 9252   0.641   0.007  16.113 -0.3762  0.0553  0.1913
  625MPD2     C 9253   0.927   0.529   0.171  0.8918 -0.7142 -0.0427
  625MPD2    C1 9254   1.039   0.606   0.205  0.7656 -0.7059 -0.1368
  625MPD2    C2 9255   1.132   0.550   0.291 -0.0059 -0.3511  0.2003
  625MPD2    C3 9256   1.128   0.418   0.345  0.4249 -0.2003  0.0653
  625MPD2    C4 9257   1.025   0.343   0.304 -0.5632 -0.0534 -0.2971
  625MPD2    C5 9258   0.924   0.402   0.222  0.3168 -0.1675 -0.6915
  625MPD2     H 9259   1.207   0.625   0.314 -0.0553  0.8663 -3.7240
  625MPD2    H1 9260   1.033   0.236   0.317 -2.8629 -0.2175 -0.2853
  625MPD2    H2 9261   0.841   0.558   0.112  0.1784  0.5427  1.6310
  625MPD2    H3 9262   0.837   0.339   0.203  2.3400 -3.0769 -0.1845
  625MPD2     N 9263   1.226   0.382   0.440  0.0247 -0.1335 -0.3038
  625MPD2    H5 9264   1.294   0.456   0.457  1.2904 -1.1647 -0.8428
  625MPD2    N1 9265   1.066   0.739   0.163  0.4104  0.0830 -0.6765
  625MPD2    H7 9266   1.149   0.789   0.193  0.4059  0.1568 -0.7883
  626TMC3    C1 9267   1.036   0.945   0.081 -0.2749 -0.3551 -0.0700
  626TMC3    C2 9268   0.973   1.023  17.687  0.0458  0.0191 -0.0153
  626TMC3    C3 9269   1.007   1.154  17.685  0.1397 -0.2791  0.2964
  626TMC3    C4 9270   1.126   0.994   0.176 -0.9476 -0.6508  0.0752
  626TMC3    C5 9271   1.152   1.134   0.163 -0.0323 -0.5110 -0.4128
  626TMC3    C6 9272   1.095   1.212   0.071  0.1752 -0.0163  0.8061
  626TMC3     C 9273   0.993   0.812   0.075  0.1119  0.4441  0.3639
  626TMC3     O 9274   0.887   0.787   0.019  0.0321  0.1610 -0.2705
  626TMC3     H 9275   0.917   0.994  17.599 -0.1580 -1.3164  0.5613
  626TMC3    H1 9276   1.153   0.946   0.269 -3.4542 -0.3029  1.0090
  626TMC3    H2 9277   1.142   1.308   0.054  2.7056 -1.7583 -1.9575
  626TMC3    C7 9278   1.226   1.178   0.274 -0.6808 -0.3194 -0.9172
  626TMC3    C8 9279   0.973   1.219  17.559 -1.0423 -0.3980 -0.0484
  626TMC3    O1 9280   1.309   1.099   0.313 -0.1541  0.8314  0.1134
  626TMC3    O2 9281   0.932   1.154  17.467  0.5307  0.2714  0.5612
  627MPD2     C 9282   3.811   1.364  14.601  0.0996 -0.2460 -0.5723
  627MPD2    C1 9283   3.932   1.318  14.656  0.6339  0.5938 -0.0564
  627MPD2    C2 9284   3.970   1.185  14.643 -0.4998 -0.3637 -0.9444
  627MPD2    C3 9285   3.903   1.103  14.564 -0.1734  0.6046 -0.2864
  627MPD2    C4 9286   3.781   1.150  14.510  0.0520  0.6774  0.0340
  627MPD2    C5 9287   3.733   1.279  14.528  0.2510  0.5251 -0.3366
  627MPD2     H 9288   4.068   1.155  14.680 -1.3870 -1.8957  0.1528
  627MPD2    H1 9289   3.713   1.087  14.454  2.7182 -1.5861 -0.6805
  627MPD2    H2 9290   3.775   1.461  14.633 -1.3951 -1.6207  1.9581
  627MPD2    H3 9291   3.635   1.309  14.493  0.2370  0.4871 -0.3302
  627MPD2     N 9292   3.947   0.976  14.548  0.1772 -0.4014 -0.2572
  627MPD2    H5 9293   4.028   0.948  14.603  0.9159  1.1140 -0.5652
  627MPD2    N1 9294   4.021   1.411  14.730  0.5532  0.4424 -0.5074
  627MPD2    H7 9295   4.108   1.375  14.768 -1.6314 -1.4325  2.7180
  628TMC3    C1 9296   4.119   1.596  14.819  0.2423  0.4689 -0.0785
  628TMC3    C2 9297   4.234   1.520  14.831  0.1894  0.4750 -0.7149
  628TMC3    C3 9298   4.339   1.586  14.886 -0.1173 -0.0059  0.0840
  628TMC3    C4 9299   4.117   1.733  14.846  0.0947  0.0566  0.1876
  628TMC3    C5 9300   4.230   1.794  14.892  0.1581 -1.0251  0.7492
  628TMC3    C6 9301   4.345   1.722  14.906  0.4788 -0.0679 -0.2708
  628TMC3     C 9302   4.002   1.541  14.753  0.3608 -0.1170  0.1875
  628TMC3     O 9303   3.909   1.615  14.719  0.3164  0.2450 -0.5788
  628TMC3     H 9304   4.242   1.415  14.805 -1.6483 -0.4114  2.2466
  628TMC3    H1 9305   4.020   1.781  14.842  0.5287  1.2198  4.1150
  628TMC3    H2 9306   4.441   1.764  14.933  0.6299 -1.4249  1.3280
  628TMC3    C7 9307   4.239   1.938  14.889  0.2217 -0.1465 -0.3058
  628TMC3    C8 9308   4.468   1.516  14.900  0.5761  0.8435 -0.2043
  628TMC3    O1 9309   4.338   1.990  14.936  0.5291  0.3313 -0.4943
  628TMC3    O2 9310   4.534   1.540  15.001 -0.1963 -0.7134  0.5117
  629MPD2     C 9311   2.194   0.046  16.001  0.0089  0.1553 -0.0176
  629MPD2    C1 9312   2.202   0.018  16.135  0.0184  0.3474  0.5950
  629MPD2    C2 9313   2.097   4.682  16.199  0.3171  0.3681  0.1335
  629MPD2    C3 9314   1.978   4.648  16.140  0.6005  0.0635  0.3066
  629MPD2    C4 9315   1.965   4.680  16.002  0.1582 -0.3393  0.0308
  629MPD2    C5 9316   2.074   0.023  15.942  0.1918 -0.0784 -0.0345
  629MPD2     H 9317   2.104   4.669  16.307  3.8199  0.4846 -0.0788
  629MPD2    H1 9318   1.872   4.650  15.953  0.4768 -1.8487  0.3391
  629MPD2    H2 9319   2.266   0.080  15.927  1.2360 -0.5830  0.8197
  629MPD2    H3 9320   2.075   0.035  15.834  2.1404 -2.0882 -0.2301
  629MPD2     N 9321   1.878   4.570  16.202  0.2381 -0.2493 -0.1532
  629MPD2    H5 9322   1.811   4.519  16.144  0.2828 -0.5200  0.0336
  629MPD2    N1 9323   2.327   0.034  16.199  0.2225  0.9238 -0.1209
  629MPD2    H7 9324   2.401   0.066  16.137 -0.5998  0.1288 -1.4985
  630TMC3    C1 9325   2.505   0.037  16.347  0.0637 -0.0352 -0.4345
  630TMC3    C2 9326   2.565   0.150  16.292 -0.1104 -0.3480 -0.2327
  630TMC3    C3 9327   2.700   0.157  16.313 -0.3521 -0.0367  0.7481
  630TMC3    C4 9328   2.571   4.681  16.438  0.2624 -0.3024 -0.1300
  630TMC3    C5 9329   2.709   4.685  16.449  0.8182 -0.6471 -0.7370
  630TMC3    C6 9330   2.768   0.080  16.405 -0.0047  0.7933 -0.0879
  630TMC3     C 9331   2.358   0.027  16.335  0.4864  0.4125  0.6803
  630TMC3     O 9332   2.297   4.719  16.434  0.0160 -0.1148  0.1601
  630TMC3     H 9333   2.506   0.214  16.226 -0.1927 -0.5555 -0.3614
  630TMC3    H1 9334   2.529   4.584  16.461 -2.0563  0.8894  0.6290
  630TMC3    H2 9335   2.872   0.096  16.431 -0.5081  1.2016  1.6848
  630TMC3    C7 9336   2.771   4.615  16.560 -0.3260 -0.8718 -0.0579
  630TMC3    C8 9337   2.790   0.234  16.226  0.8728  0.5371  0.7301
  630TMC3    O1 9338   2.693   4.606  16.653  0.0978  0.5664  0.6722
  630TMC3    O2 9339   2.908   0.213  16.257 -0.5622  0.5878 -0.7231
  631MPD2     C 9340   0.990   4.227  15.320  0.6635 -0.8500 -0.0422
  631MPD2    C1 9341   1.104   4.265  15.252 -0.6237  0.5099 -0.0013
  631MPD2    C2 9342   1.209   4.184  15.258  0.3409  0.2512 -0.0135
  631MPD2    C3 9343   1.207   4.065  15.334 -0.5251 -0.2971 -0.2668
  631MPD2    C4 9344   1.095   4.033  15.407 -0.2507  0.0732  0.0475
  631MPD2    C5 9345   0.986   4.117  15.399  0.3646  0.7773  0.7943
  631MPD2     H 9346   1.305   4.217  15.220 -0.8429  3.2348 -0.3815
  631MPD2    H1 9347   1.089   3.947  15.472  0.1155  2.0282  2.6681
  631MPD2    H2 9348   0.900   4.287  15.314  0.6168 -0.9271 -0.1136
  631MPD2    H3 9349   0.896   4.088  15.453 -3.4640  2.1483 -4.8869
  631MPD2     N 9350   1.318   3.975  15.334  0.5788 -0.6211 -0.1835
  631MPD2    H5 9351   1.318   3.900  15.402 -0.7386 -0.6968 -0.2659
  631MPD2    N1 9352   1.112   4.396  15.189 -0.1828 -0.2345 -0.0865
  631MPD2    H7 9353   1.028   4.452  15.186  0.8784  1.3681 -0.2644
  632TMC3    C1 9354   1.210   4.596  15.108 -0.6956 -0.0585 -0.9391
  632TMC3    C2 9355   1.107   4.669  15.159 -0.3610 -0.2767  0.3407
  632TMC3    C3 9356   1.114   0.079  15.150 -0.5368  0.5583 -0.5232
  632TMC3    C4 9357   1.327   4.653  15.059 -0.3163  0.2654  0.0091
  632TMC3    C5 9358   1.330   0.066  15.061  0.1909 -0.5883  0.5664
  632TMC3    C6 9359   1.225   0.143  15.098  0.2969  0.2576 -0.0440
  632TMC3     C 9360   1.226   4.458  15.136 -0.0864  0.2908 -0.1686
  632TMC3     O 9361   1.339   4.417  15.123  0.0148 -0.2453  0.7163
  632TMC3     H 9362   1.017   4.627  15.203 -3.1274  1.9767 -3.1511
  632TMC3    H1 9363   1.407   4.598  15.011  0.7115  0.2873  1.6992
  632TMC3    H2 9364   1.228   0.251  15.093  1.2608  0.2728  0.8588
  632TMC3    C7 9365   1.438   0.138  15.000 -0.5845  0.0805 -0.2326
  632TMC3    C8 9366   1.012   0.149  15.231 -0.3407 -0.2645 -0.0974
  632TMC3    O1 9367   1.416   0.221  14.913  0.0613  0.3576 -0.4155
  632TMC3    O2 9368   0.950   0.080  15.311  0.0917  0.5499  0.1203
  633MPD2     C 9369   0.797   2.770  17.314  0.0902 -0.6607  0.4242
  633MPD2    C1 9370   0.850   2.685  17.219 -0.2586  0.0803  0.0954
  633MPD2    C2 9371   0.836   2.547  17.235  0.6983 -0.6857 -0.7183
  633MPD2    C3 9372   0.776   2.499  17.351  0.1815  1.1093  0.1552
  633MPD2    C4 9373   0.739   2.587  17.447  0.0036  0.6968  0.4024
  633MPD2    C5 9374   0.751   2.719  17.428  0.9337 -0.5167 -0.1890
  633MPD2     H 9375   0.875   2.479  17.159  1.1417  0.8040 -1.8107
  633MPD2    H1 9376   0.694   2.563  17.542 -0.9771  0.4779 -0.1162
  633MPD2    H2 9377   0.794   2.875  17.289 -2.1507 -0.4491  1.6643
  633MPD2    H3 9378   0.711   2.782  17.507  1.5945 -0.4135  0.0646
  633MPD2     N 9379   0.748   2.367  17.378  0.1895  0.5358 -0.4892
  633MPD2    H5 9380   0.731   2.347  17.476  0.9673 -0.4453 -0.5485
  633MPD2    N1 9381   0.917   2.723  17.099 -0.0764 -0.4543 -0.1387
  633MPD2    H7 9382   0.941   2.647  17.036 -1.4032  0.1718 -1.4052
  634TMC3    C1 9383   1.012   2.858  16.922  0.0611 -0.6328  0.2532
  634TMC3    C2 9384   1.086   2.762  16.869  0.0895 -0.0001  0.5569
  634TMC3    C3 9385   1.128   2.776  16.744  0.4271  0.2392  0.6104
  634TMC3    C4 9386   0.991   2.973  16.856 -0.5094 -0.1178  0.0963
  634TMC3    C5 9387   1.052   2.994  16.736  0.8576 -0.1541  1.0070
  634TMC3    C6 9388   1.114   2.890  16.671 -0.4390  0.3200  1.0479
  634TMC3     C 9389   0.950   2.852  17.053  0.2237  0.4206 -0.5676
  634TMC3     O 9390   0.923   2.953  17.112 -0.3471 -0.4089 -0.0001
  634TMC3     H 9391   1.094   2.673  16.931 -1.5176  0.5096  1.4974
  634TMC3    H1 9392   0.921   3.045  16.895 -1.2042 -0.8769  0.2374
  634TMC3    H2 9393   1.155   2.899  16.571  0.2575  0.6712  1.3658
  634TMC3    C7 9394   0.976   3.078  16.644  0.2074  0.3996 -0.8321
  634TMC3    C8 9395   1.165   2.657  16.666  0.0558 -0.2445 -0.7837
  634TMC3    O1 9396   1.002   3.048  16.526 -0.1951 -0.1639  0.1904
  634TMC3    O2 9397   1.163   2.547  16.720 -0.1022 -0.7064  0.0924
  635TMC3    C1 9398   1.575   3.112   0.114  0.3103  0.6402 -0.1310
  635TMC3    C2 9399   1.536   3.058  17.700  0.0763  0.6156 -0.2603
  635TMC3    C3 9400   1.562   2.925  17.679  1.1059  0.0409  0.2453
  635TMC3    C4 9401   1.663   3.048   0.201  0.5231 -0.4850  0.3515
  635TMC3    C5 9402   1.690   2.919   0.172 -0.8336 -0.8920  0.0608
  635TMC3    C6 9403   1.643   2.856   0.058 -0.2247 -0.1109 -0.5181
  635TMC3     C 9404   1.550   3.246   0.133 -0.4245  0.1119 -0.4947
  635TMC3     O 9405   1.550   3.299   0.247 -0.5402  0.4969 -0.4031
  635TMC3     H 9406   1.464   3.107  17.635 -1.5561  0.7161  1.6198
  635TMC3    H1 9407   1.702   3.094   0.291  0.2636  0.6437 -0.1046
  635TMC3    H2 9408   1.678   2.757   0.032  1.0237  0.2377 -0.2136
  635TMC3    C7 9409   1.722   2.830   0.278  0.4622  0.0877 -0.3405
  635TMC3    C8 9410   1.548   2.881  17.541  0.0341  0.9764  0.2667
  635TMC3    O1 9411   1.673   2.720   0.278 -0.3783  0.1102  0.1475
  635TMC3    O2 9412   1.528   2.964  17.455  0.1452  0.2014 -0.2267
  636MPD2     C 9413   2.214   2.810  16.058  0.0442  0.1601  0.0034
  636MPD2    C1 9414   2.192   2.901  16.164 -0.0544  0.3884 -0.1750
  636MPD2    C2 9415   2.221   2.876  16.293  0.0872 -0.6287  0.5287
  636MPD2    C3 9416   2.277   2.752  16.325 -0.0383  0.7365  0.1657
  636MPD2    C4 9417   2.321   2.673  16.219  0.2683  0.1849 -0.1414
  636MPD2    C5 9418   2.293   2.707  16.092  0.6920 -0.0256 -0.2979
  636MPD2     H 9419   2.199   2.940  16.377  0.4047 -1.3640  1.1769
  636MPD2    H1 9420   2.379   2.581  16.227 -1.2381 -0.6987  0.6871
  636MPD2    H2 9421   2.196   2.825  15.953 -2.3545  0.7480  0.4928
  636MPD2    H3 9422   2.330   2.642  16.014  0.6671 -0.1823 -0.1791
  636MPD2     N 9423   2.296   2.712  16.459 -0.0621  0.3175  0.4765
  636MPD2    H5 9424   2.263   2.775  16.531 -2.1804 -1.7613  1.3350
  636MPD2    N1 9425   2.137   3.025  16.144 -0.7348 -1.0198  0.3716
  636MPD2    H7 9426   2.119   3.080  16.227 -0.0586  0.4013 -0.4226
  637TMC3    C1 9427   2.359   2.590  16.644 -0.2921 -0.5391 -0.7203
  637TMC3    C2 9428   2.261   2.657  16.713  0.2327 -0.2201  0.4256
  637TMC3    C3 9429   2.290   2.730  16.825  0.3713 -0.0376 -0.4602
  637TMC3    C4 9430   2.480   2.574  16.698  0.9548  0.1548 -0.0977
  637TMC3    C5 9431   2.514   2.656  16.802 -0.1979  0.0012  1.3003
  637TMC3    C6 9432   2.419   2.720  16.881 -0.4087 -0.4214  0.4917
  637TMC3     C 9433   2.358   2.596  16.503 -0.1141 -0.3109 -0.6098
  637TMC3     O 9434   2.431   2.521  16.444 -0.4754 -0.1649 -0.6432
  637TMC3     H 9435   2.160   2.681  16.683  0.8961  0.9991 -0.8583
  637TMC3    H1 9436   2.551   2.526  16.632  0.7702 -1.0151  0.5632
  637TMC3    H2 9437   2.458   2.793  16.950 -2.9695  2.3929 -1.0370
  637TMC3    C7 9438   2.611   2.748  16.757  0.1363  0.4893 -0.3048
  637TMC3    C8 9439   2.245   2.871  16.797  0.6452  0.4136  0.1854
  637TMC3    O1 9440   2.615   2.856  16.814  0.6836 -0.1813 -0.1285
  637TMC3    O2 9441   2.221   2.904  16.681  0.3476 -0.1991  0.3198
  638MPD2     C 9442   1.829   1.852  15.368 -0.5324 -0.4419 -0.6778
  638MPD2    C1 9443   1.942   1.812  15.312  0.7415 -0.2306  0.2688
  638MPD2    C2 9444   2.007   1.699  15.368  0.2698 -0.7755 -0.3629
  638MPD2    C3 9445   1.946   1.620  15.466  0.3078 -0.1176 -0.0247
  638MPD2    C4 9446   1.828   1.668  15.517 -0.8987 -0.2938  0.7285
  638MPD2    C5 9447   1.774   1.783  15.471  0.3711  0.5807  0.1261
  638MPD2     H 9448   2.089   1.657  15.311 -0.1769 -0.3270 -1.3492
  638MPD2    H1 9449   1.764   1.601  15.574  0.3321 -1.0440  1.2263
  638MPD2    H2 9450   1.767   1.931  15.327 -2.9342 -2.3672 -0.7305
  638MPD2    H3 9451   1.678   1.827  15.497 -1.4705 -1.9859 -2.3321
  638MPD2     N 9452   1.989   1.491  15.504  0.2122 -0.9249 -0.4535
  638MPD2    H5 9453   1.922   1.436  15.557 -1.4384  1.2393 -0.2959
  638MPD2    N1 9454   1.990   1.862  15.189  0.1748  0.3436  0.4451
  638MPD2    H7 9455   2.081   1.834  15.153  0.2612 -0.3341  1.1965
  639TMC3    C1 9456   2.105   1.290  15.439  0.2075  0.6925 -0.8987
  639TMC3    C2 9457   1.989   1.246  15.386 -0.2625  0.3287  0.3165
  639TMC3    C3 9458   1.996   1.152  15.285  0.0246 -0.4346  0.4653
  639TMC3    C4 9459   2.222   1.250  15.388 -0.2436  0.3611 -0.4790
  639TMC3    C5 9460   2.230   1.158  15.288  0.4025 -0.0701 -0.1513
  639TMC3    C6 9461   2.117   1.105  15.228  0.7393 -0.2059 -0.2772
  639TMC3     C 9462   2.112   1.433  15.468  0.0047 -0.2352  0.0197
  639TMC3     O 9463   2.203   1.485  15.407 -0.2398 -0.4394 -0.5072
  639TMC3     H 9464   1.896   1.288  15.424 -0.3067 -0.8900  1.5434
  639TMC3    H1 9465   2.312   1.287  15.436 -0.8558  0.5521  0.5236
  639TMC3    H2 9466   2.115   1.022  15.157 -2.2105 -0.2887 -0.0728
  639TMC3    C7 9467   2.366   1.131  15.245  0.0003 -0.7778  0.4725
  639TMC3    C8 9468   1.881   1.136  15.198 -0.4659  0.7736 -0.4920
  639TMC3    O1 9469   2.453   1.187  15.311 -0.0740 -0.2252  0.2624
  639TMC3    O2 9470   1.911   1.091  15.085  0.2666  0.8127  0.6673
  640MPD2     C 9471   2.310   0.331   9.856 -0.4652  0.5754 -0.3138
  640MPD2    C1 9472   2.343   0.446   9.919 -0.2232  0.0329 -1.2438
  640MPD2    C2 9473   2.239   0.520   9.970 -0.4929  0.8165 -0.2446
  640MPD2    C3 9474   2.108   0.475   9.955 -0.2611 -0.5526  0.6287
  640MPD2    C4 9475   2.076   0.369   9.874 -0.1241 -0.0397 -0.4531
  640MPD2    C5 9476   2.183   0.296   9.833 -0.1415 -0.1105 -0.5580
  640MPD2     H 9477   2.263   0.613  10.019 -0.5713  0.2535  0.8694
  640MPD2    H1 9478   1.974   0.335   9.862 -0.1366 -0.4290  0.7845
  640MPD2    H2 9479   2.389   0.269   9.814 -0.2807 -0.3686  1.4055
  640MPD2    H3 9480   2.160   0.199   9.793 -0.5914 -0.2283 -0.0188
  640MPD2     N 9481   1.998   0.555  10.003  0.3633  0.0753 -0.4920
  640MPD2    H5 9482   1.910   0.555   9.953 -0.2235 -0.2513  0.5594
  640MPD2    N1 9483   2.478   0.492   9.921 -0.3614  0.9593  0.3382
  640MPD2    H7 9484   2.533   0.446   9.850  0.2250  0.8892  0.8328
  641TMC3    C1 9485   2.659   0.619   9.930  0.7761  0.1765 -0.7345
  641TMC3    C2 9486   2.733   0.507   9.921 -0.3209  0.0959  0.7079
  641TMC3    C3 9487   2.868   0.518   9.902 -0.5158  0.4035 -0.8993
  641TMC3    C4 9488   2.709   0.746   9.896  0.5959 -0.3689  0.0858
  641TMC3    C5 9489   2.846   0.749   9.866  0.0506 -0.7560  0.1063
  641TMC3    C6 9490   2.930   0.638   9.869 -0.2918 -0.0506 -0.3689
  641TMC3     C 9491   2.524   0.612   9.970  0.3541 -0.4664  0.1624
  641TMC3     O 9492   2.464   0.705  10.024  0.0755  0.4142 -0.0148
  641TMC3     H 9493   2.694   0.410   9.948  0.9887 -0.1760  1.6170
  641TMC3    H1 9494   2.653   0.838   9.906  1.0078  0.0998 -1.8010
  641TMC3    H2 9495   3.033   0.636   9.837 -0.8635 -0.6807 -2.2458
  641TMC3    C7 9496   2.876   0.833   9.751  0.4712 -0.5426  0.2618
  641TMC3    C8 9497   2.949   0.399   9.915  0.8293 -0.6794 -0.9760
  641TMC3    O1 9498   2.794   0.919   9.724  0.2073 -0.1646  0.2014
  641TMC3    O2 9499   2.882   0.298   9.923  0.7650 -0.2613  0.2508
  642TMC3    C1 9500   3.610   1.665  12.380  0.6824 -0.4461 -0.6537
  642TMC3    C2 9501   3.706   1.679  12.483 -0.2231  0.4372 -0.9958
  642TMC3    C3 9502   3.740   1.562  12.548 -0.4426  0.6592 -0.1492
  642TMC3    C4 9503   3.560   1.544  12.339  0.3575  0.6098 -0.4294
  642TMC3    C5 9504   3.595   1.434  12.416 -0.5520  0.8017  0.5028
  642TMC3    C6 9505   3.692   1.438  12.512 -0.5066  0.1287  0.2587
  642TMC3     C 9506   3.547   1.783  12.325  0.9453 -0.3759 -0.5318
  642TMC3     O 9507   3.491   1.783  12.215  0.1926 -0.8067  0.1250
  642TMC3     H 9508   3.734   1.779  12.510 -2.9978  1.5124 -2.0824
  642TMC3    H1 9509   3.482   1.536  12.264  0.5558  0.3869 -0.6132
  642TMC3    H2 9510   3.718   1.351  12.571  1.2431  1.7993  1.9590
  642TMC3    C7 9511   3.521   1.313  12.390  0.2402 -0.0997 -0.3933
  642TMC3    C8 9512   3.832   1.567  12.659 -0.0948 -0.0295  0.7000
  642TMC3    O1 9513   3.441   1.308  12.299  0.4814  0.2550  0.3134
  642TMC3    O2 9514   3.856   1.466  12.721 -0.4001  0.0338  0.3174
  643TMC3    C1 9515   2.843   0.919  17.542 -0.1044 -0.9848 -0.5261
  643TMC3    C2 9516   2.724   0.953  17.482  0.5419  0.9939 -0.1840
  643TMC3    C3 9517   2.716   0.929  17.344 -0.5917 -0.6979 -0.5361
  643TMC3    C4 9518   2.946   0.871  17.476  0.3154 -0.1380 -0.1036
  643TMC3    C5 9519   2.925   0.844  17.340  0.0141  0.0199 -0.2428
  643TMC3    C6 9520   2.816   0.874  17.269 -0.0608 -0.1074 -0.4765
  643TMC3     C 9521   2.849   0.936  17.683  0.1736 -0.4663  0.1068
  643TMC3     O 9522   2.745   0.944   0.046  0.7470  0.8039 -0.3502
  643TMC3     H 9523   2.638   0.988  17.538  0.6316 -0.3998  0.8359
  643TMC3    H1 9524   3.037   0.828  17.518  0.0827  0.3032  0.8481
  643TMC3    H2 9525   2.800   0.866  17.162  0.0914 -3.1688 -0.2686
  643TMC3    C7 9526   3.041   0.773  17.277 -0.0649 -0.9333  0.5292
  643TMC3    C8 9527   2.600   0.975  17.276  0.4707 -1.1111 -0.5914
  643TMC3    O1 9528   3.153   0.797  17.320  0.2001 -0.0484  0.0553
  643TMC3    O2 9529   2.570   0.927  17.168 -0.0811 -0.2932 -0.4723
  644MPD2     C 9530   2.930   1.409   9.778  0.0994  0.0073  0.0570
  644MPD2    C1 9531   2.877   1.290   9.832  0.7996  0.1102 -0.4188
  644MPD2    C2 9532   2.751   1.243   9.796  0.8208 -0.4890  0.2228
  644MPD2    C3 9533   2.678   1.329   9.720  0.0140 -0.0237 -0.3498
  644MPD2    C4 9534   2.724   1.452   9.680  0.4563 -0.2243  0.0729
  644MPD2    C5 9535   2.850   1.490   9.702 -0.0906 -0.0184 -0.6336
  644MPD2     H 9536   2.712   1.144   9.811  0.0509 -0.0477  1.1228
  644MPD2    H1 9537   2.667   1.514   9.612 -1.9222 -1.9014  0.5472
  644MPD2    H2 9538   3.032   1.437   9.797  0.9114 -1.9567 -1.4179
  644MPD2    H3 9539   2.876   1.592   9.678  0.9976  0.1231  1.0540
  644MPD2     N 9540   2.552   1.287   9.669  0.2259 -0.1247 -0.8204
  644MPD2    H5 9541   2.523   1.190   9.680 -1.9309  0.7539  1.4586
  644MPD2    N1 9542   2.962   1.219   9.919 -0.0240  0.6779 -0.4073
  644MPD2    H7 9543   3.059   1.246   9.933  0.3304 -0.6289 -0.2799
  645TMC3    C1 9544   2.341   1.293   9.578  0.4930  0.8683 -0.4227
  645TMC3    C2 9545   2.346   1.156   9.554 -0.0993  0.3256 -0.2864
  645TMC3    C3 9546   2.222   1.097   9.531 -0.0169  0.3875  0.3815
  645TMC3    C4 9547   2.230   1.366   9.563  0.9004 -0.0688  0.9064
  645TMC3    C5 9548   2.112   1.303   9.531 -0.3389  0.2583 -0.1724
  645TMC3    C6 9549   2.107   1.168   9.514  0.3937  0.8760  0.7945
  645TMC3     C 9550   2.452   1.368   9.625 -0.2065  0.0538  0.4023
  645TMC3     O 9551   2.445   1.490   9.629  0.2287 -0.1599 -0.3555
  645TMC3     H 9552   2.444   1.109   9.555  0.8585  2.3745  0.8650
  645TMC3    H1 9553   2.216   1.467   9.601 -1.5133  0.7374 -2.0850
  645TMC3    H2 9554   2.019   1.112   9.484  1.0094  1.2093 -1.6818
  645TMC3    C7 9555   1.980   1.369   9.562 -0.1525  0.0063  0.3246
  645TMC3    C8 9556   2.205   0.950   9.527  0.3518 -0.5054 -0.2646
  645TMC3    O1 9557   1.987   1.441   9.660  0.3298 -0.0545 -0.3738
  645TMC3    O2 9558   2.109   0.899   9.472 -0.1679  0.2777 -0.1122
  646MPD2     C 9559   1.939   0.455  14.491 -0.1586 -0.7720  0.0768
  646MPD2    C1 9560   1.886   0.464  14.620  0.0282  0.1969 -0.1400
  646MPD2    C2 9561   1.781   0.561  14.637  0.7585 -0.0477  0.0411
  646MPD2    C3 9562   1.731   0.637  14.533 -0.1807 -0.1427  0.0778
  646MPD2    C4 9563   1.784   0.612  14.403 -0.1131  0.5258  0.6233
  646MPD2    C5 9564   1.885   0.523  14.386 -0.7482 -0.1167  0.3379
  646MPD2     H 9565   1.736   0.569  14.735  0.6048  1.7899 -0.1686
  646MPD2    H1 9566   1.749   0.670  14.318 -0.1139 -2.0247 -1.1034
  646MPD2    H2 9567   2.017   0.384  14.467 -1.9212 -2.1946 -1.4863
  646MPD2    H3 9568   1.927   0.515  14.287  1.0729  0.6163  1.0418
  646MPD2     N 9569   1.643   0.746  14.567  0.3105 -0.1969  0.1352
  646MPD2    H5 9570   1.638   0.773  14.665  0.1659  0.9811 -0.1959
  646MPD2    N1 9571   1.950   0.393  14.724  0.6377  0.6766 -1.0123
  646MPD2    H7 9572   2.020   0.328  14.689  1.4581  0.6798  0.6511
  647TMC3    C1 9573   2.018   0.323  14.940 -0.4023 -0.5116 -0.6194
  647TMC3    C2 9574   1.977   0.285  15.062  0.2032  0.2422 -0.3292
  647TMC3    C3 9575   2.071   0.265  15.152  0.4735 -0.0843  1.1074
  647TMC3    C4 9576   2.147   0.326  14.900 -0.1488 -0.6347  0.3087
  647TMC3    C5 9577   2.241   0.285  14.987  0.1417  0.1650  0.7209
  647TMC3    C6 9578   2.206   0.273  15.120 -0.2113  0.3226 -0.5815
  647TMC3     C 9579   1.928   0.400  14.856 -0.2321 -0.2063  0.3561
  647TMC3     O 9580   1.835   0.455  14.918  0.6369  0.3744 -0.2163
  647TMC3     H 9581   1.870   0.276  15.073  0.0248  1.5817 -0.9946
  647TMC3    H1 9582   2.173   0.357  14.799 -1.7692  2.7770  0.9176
  647TMC3    H2 9583   2.283   0.252  15.193  0.1710  1.5015 -0.6350
  647TMC3    C7 9584   2.375   0.245  14.953  0.0675 -0.4943 -0.7955
  647TMC3    C8 9585   2.042   0.162  15.242 -0.0605 -0.1597  0.2996
  647TMC3    O1 9586   2.457   0.233  15.040  0.3677  1.0570  0.4484
  647TMC3    O2 9587   2.143   0.098  15.266 -0.4336 -0.7206 -0.3697
  648TMC3    C1 9588   1.507   2.727  16.215 -0.4630 -0.8708  0.4387
  648TMC3    C2 9589   1.567   2.606  16.226 -0.0222  0.5850 -0.1353
  648TMC3    C3 9590   1.567   2.522  16.118  0.2035 -0.5164 -0.2196
  648TMC3    C4 9591   1.464   2.772  16.093 -0.0597 -0.1430 -0.4196
  648TMC3    C5 9592   1.473   2.688  15.986  0.1676  0.1710  0.4174
  648TMC3    C6 9593   1.531   2.560  15.995 -0.1720  0.2153  0.5328
  648TMC3     C 9594   1.496   2.820  16.322 -0.8142 -0.9540  0.2556
  648TMC3     O 9595   1.447   2.928  16.298 -0.0335 -0.2868 -0.2622
  648TMC3     H 9596   1.624   2.578  16.314  1.3271 -1.6841 -1.7403
  648TMC3    H1 9597   1.411   2.867  16.088 -1.7462 -1.0584  0.1542
  648TMC3    H2 9598   1.540   2.491  15.912  0.4223  2.0066 -0.9023
  648TMC3    C7 9599   1.388   2.721  15.871 -0.3157 -0.2450  0.3502
  648TMC3    C8 9600   1.629   2.394  16.155  0.1765  0.1855  0.6136
  648TMC3    O1 9601   1.368   2.626  15.798  0.1331  0.3537 -0.0734
  648TMC3    O2 9602   1.616   2.351  16.267  0.2922 -0.3734  0.6081
  649TMC3    C1 9603   0.482   3.871  12.952 -0.5278  0.2481 -0.3472
  649TMC3    C2 9604   0.612   3.841  12.945  0.1779 -0.2549 -0.0868
  649TMC3    C3 9605   0.668   3.765  13.048  0.6296  0.3238  0.5877
  649TMC3    C4 9606   0.403   3.831  13.056  0.4800 -0.4176  0.2830
  649TMC3    C5 9607   0.463   3.754  13.158  0.1230 -0.5166  0.1182
  649TMC3    C6 9608   0.599   3.727  13.156 -0.0537  0.7876  0.2086
  649TMC3     C 9609   0.409   3.955  12.859  0.4849  0.1340  0.0859
  649TMC3     O 9610   0.321   4.022  12.917 -0.4667 -0.0267  0.0814
  649TMC3     H 9611   0.673   3.879  12.863  0.2004 -0.8044 -0.3236
  649TMC3    H1 9612   0.299   3.861  13.057  1.2230  2.1041  0.2680
  649TMC3    H2 9613   0.652   3.670  13.231  2.1201  2.1460 -0.2967
  649TMC3    C7 9614   0.368   3.672  13.240 -0.0009 -0.0658  0.3101
  649TMC3    C8 9615   0.809   3.729  13.048 -0.4986 -0.1813 -0.3035
  649TMC3    O1 9616   0.253   3.718  13.262 -0.5001 -0.0172  0.0421
  649TMC3    O2 9617   0.847   3.635  13.113 -0.2059  0.6481  0.2573
  650TMC3    C1 9618   2.890   1.072  12.895  0.1667  0.0614 -0.5352
  650TMC3    C2 9619   2.910   1.212  12.876  0.3242 -0.5904 -0.8651
  650TMC3    C3 9620   2.792   1.287  12.874  0.1281  0.6698  0.1041
  650TMC3    C4 9621   2.765   1.022  12.880  0.8520  0.3358 -1.2117
  650TMC3    C5 9622   2.659   1.097  12.851 -0.1377 -0.2340  0.0353
  650TMC3    C6 9623   2.668   1.234  12.850  0.1067 -0.4639  0.2312
  650TMC3     C 9624   3.002   0.986  12.936  0.2646 -0.4200  0.0944
  650TMC3     O 9625   3.090   1.039  13.002 -0.3930  0.3002  0.7705
  650TMC3     H 9626   2.997   1.268  12.911 -0.8828  0.2146  0.8600
  650TMC3    H1 9627   2.757   0.914  12.876  2.2416  0.1865 -0.1881
  650TMC3    H2 9628   2.591   1.304  12.817  1.4295  0.2200 -1.3901
  650TMC3    C7 9629   2.557   1.033  12.772 -0.1602 -0.5461  1.1802
  650TMC3    C8 9630   2.800   1.433  12.882 -0.9314 -0.0873  0.0493
  650TMC3    O1 9631   2.565   0.915  12.761 -0.2372 -0.2382  0.6077
  650TMC3    O2 9632   2.879   1.489  12.805  0.2514 -0.1733  0.1521
  651MPD2     C 9633   2.277   2.268  10.831  0.0761 -0.1552  0.1145
  651MPD2    C1 9634   2.232   2.401  10.814 -0.1456 -0.4311  0.0682
  651MPD2    C2 9635   2.305   2.483  10.729  0.7774 -0.6286  0.2898
  651MPD2    C3 9636   2.405   2.441  10.653 -0.9778 -0.6456 -0.2823
  651MPD2    C4 9637   2.439   2.309  10.658 -0.1670 -0.1746  0.1520
  651MPD2    C5 9638   2.379   2.228  10.750  0.1486 -0.4097 -0.3122
  651MPD2     H 9639   2.270   2.584  10.714 -3.4641 -1.8104  2.3507
  651MPD2    H1 9640   2.516   2.265  10.596  1.0247  1.5044  0.4427
  651MPD2    H2 9641   2.237   2.188  10.892  1.2607 -0.1920  0.8419
  651MPD2    H3 9642   2.406   2.123  10.745 -0.5004 -0.5906 -0.0378
  651MPD2     N 9643   2.476   2.536  10.578 -0.6742  0.2708  0.3318
  651MPD2    H5 9644   2.444   2.632  10.565 -0.9316  0.1774  0.2665
  651MPD2    N1 9645   2.115   2.448  10.884 -0.5131  0.0757 -0.0043
  651MPD2    H7 9646   2.079   2.532  10.839 -1.8273  0.0554  1.0191
  652TMC3    C1 9647   2.814   2.772  10.419 -0.4732  0.5286 -0.3778
  652TMC3    C2 9648   2.781   2.645  10.445 -0.0442  0.1277 -0.2938
  652TMC3    C3 9649   2.644   2.616  10.434 -0.3476  0.2699  0.4475
  652TMC3    C4 9650   2.724   2.878  10.402 -0.7642  0.4194 -1.0112
  652TMC3    C5 9651   2.597   2.841  10.388  0.6118  0.5392 -0.5391
  652TMC3    C6 9652   2.551   2.711  10.393 -0.0881  0.3459 -0.0057
  652TMC3     C 9653   2.941   2.810  10.484  0.5421 -0.3011 -0.4037
  652TMC3     O 9654   2.930   2.897  10.573  0.6436  0.0862 -0.2558
  652TMC3     H 9655   2.852   2.567  10.472  1.3135  1.7367  0.7834
  652TMC3    H1 9656   2.760   2.981  10.401  0.6018 -0.0704 -1.4236
  652TMC3    H2 9657   2.447   2.681  10.385 -0.1438  0.9111 -1.4498
  652TMC3    C7 9658   2.491   2.943  10.378 -0.1216 -0.4006 -0.8285
  652TMC3    C8 9659   2.602   2.509  10.519 -0.0374  0.0264 -0.1368
  652TMC3    O1 9660   2.381   2.900  10.342  0.0751  0.0189 -0.2391
  652TMC3    O2 9661   2.677   2.413  10.550 -0.2472  0.1215  0.4923
  653MPD2     C 9662   0.414   2.642  17.393 -0.3699  0.3407  0.3911
  653MPD2    C1 9663   0.387   2.743  17.306 -1.1286  0.4141 -0.2343
  653MPD2    C2 9664   0.345   2.708  17.183 -0.0406 -0.4314 -0.6753
  653MPD2    C3 9665   0.356   2.577  17.136  0.6304  0.9703  0.8307
  653MPD2    C4 9666   0.399   2.483  17.222 -0.3157 -0.2959 -0.0373
  653MPD2    C5 9667   0.405   2.516  17.352 -0.2250 -0.1245 -0.2013
  653MPD2     H 9668   0.298   2.777  17.114 -2.2002 -1.2228  0.0273
  653MPD2    H1 9669   0.390   2.377  17.199 -1.0959  0.2590 -2.3137
  653MPD2    H2 9670   0.454   2.669  17.490 -0.6750 -0.5915  0.7733
  653MPD2    H3 9671   0.424   2.436  17.423  2.1667 -0.4185 -1.1848
  653MPD2     N 9672   0.305   2.544  17.009  0.5973 -0.1061 -0.5692
  653MPD2    H5 9673   0.245   2.608  16.959  0.3016  1.1158  1.3445
  653MPD2    N1 9674   0.384   2.879  17.345  0.5481 -0.2438  0.8870
  653MPD2    H7 9675   0.353   2.945  17.274  1.3591 -0.0095  0.7573
  654TMC3    C1 9676   0.252   2.398  16.832 -0.0219 -0.3653  0.5630
  654TMC3    C2 9677   0.140   2.467  16.817  0.5166  0.5080  0.3841
  654TMC3    C3 9678   0.075   2.461  16.697  0.0463 -0.5004 -0.4174
  654TMC3    C4 9679   0.303   2.315  16.733 -0.2487 -0.3526 -0.0784
  654TMC3    C5 9680   0.239   2.316  16.615  0.2282  0.2318  0.4528
  654TMC3    C6 9681   0.125   2.391  16.596 -0.2041  0.3893 -0.1003
  654TMC3     C 9682   0.322   2.415  16.960  0.4518 -0.0566 -0.3152
  654TMC3     O 9683   0.394   2.325  16.991 -0.4925 -0.3994  0.8482
  654TMC3     H 9684   0.098   2.529  16.896  0.8673 -1.3910  2.0392
  654TMC3    H1 9685   0.392   2.255  16.750 -0.1030 -0.1670 -0.1930
  654TMC3    H2 9686   0.072   2.379  16.502  2.2015  2.9985 -1.7921
  654TMC3    C7 9687   0.256   2.209  16.510  0.1005 -0.1051  0.3385
  654TMC3    C8 9688   4.667   2.531  16.686 -0.2593  0.8674 -0.7533
  654TMC3    O1 9689   0.211   2.231  16.396  0.2466  0.4760 -0.4048
  654TMC3    O2 9690   4.620   2.572  16.790 -0.6617 -0.4779  0.4263
  655MPD2     C 9691   1.972   2.831  15.491  0.0292 -0.6117  0.1023
  655MPD2    C1 9692   1.903   2.941  15.440  0.1863 -0.9594  0.1462
  655MPD2    C2 9693   1.929   2.989  15.310  0.0474  0.6372  0.3713
  655MPD2    C3 9694   2.006   2.918  15.220 -0.0359 -0.3145  0.7030
  655MPD2    C4 9695   2.075   2.807  15.269  0.1009 -0.7182 -0.0436
  655MPD2    C5 9696   2.051   2.760  15.400  0.0196 -0.0490 -0.3726
  655MPD2     H 9697   1.865   3.073  15.284  0.8060  0.8007 -0.9114
  655MPD2    H1 9698   2.135   2.745  15.204  0.4684  0.5327 -0.8987
  655MPD2    H2 9699   1.960   2.797  15.593 -0.0030 -1.5543 -0.2135
  655MPD2    H3 9700   2.103   2.671  15.433 -0.9970 -0.3186  0.4934
  655MPD2     N 9701   1.999   2.941  15.079 -0.2099  0.3022  0.7192
  655MPD2    H5 9702   2.038   2.875  15.014 -1.1290  1.1152 -0.6510
  655MPD2    N1 9703   1.826   3.030  15.514  0.4833  0.4808 -0.1209
  655MPD2    H7 9704   1.792   3.115  15.469 -0.0085 -0.3364 -1.2917
  656TMC3    C1 9705   1.657   3.092  15.660  0.8156  0.9824 -0.4353
  656TMC3    C2 9706   1.616   3.101  15.786  0.3504  0.1253  0.1148
  656TMC3    C3 9707   1.526   3.203  15.816  0.1796 -0.0347  0.1533
  656TMC3    C4 9708   1.590   3.156  15.565  0.8594 -0.0422  0.3859
  656TMC3    C5 9709   1.481   3.233  15.596 -0.5120 -0.0725 -0.1391
  656TMC3    C6 9710   1.444   3.263  15.724  0.2303  0.3489 -0.5420
  656TMC3     C 9711   1.763   2.995  15.632 -0.2715  0.5097 -0.0660
  656TMC3     O 9712   1.769   2.894  15.703 -0.7159 -0.5619 -0.7968
  656TMC3     H 9713   1.670   3.046  15.862 -0.6847 -0.1474  0.6565
  656TMC3    H1 9714   1.614   3.144  15.460  0.2194 -1.2634  0.3705
  656TMC3    H2 9715   1.366   3.334  15.748 -1.0387 -1.4066  0.5518
  656TMC3    C7 9716   1.384   3.261  15.492  0.2230  0.0350 -0.7314
  656TMC3    C8 9717   1.477   3.182  15.945  0.4058 -0.6094  0.4159
  656TMC3    O1 9718   1.426   3.263  15.380  1.0642  0.1957 -0.6022
  656TMC3    O2 9719   1.485   3.068  15.991  0.1674  0.9236  0.2558
  657TMC3    C1 9720   0.375   2.656  15.043 -0.2199 -0.7913  0.4163
  657TMC3    C2 9721   0.320   2.708  15.155 -0.1088  0.6356  0.5305
  657TMC3    C3 9722   0.222   2.804  15.139  0.2295 -0.5590 -0.5201
  657TMC3    C4 9723   0.349   2.713  14.921  0.3993  0.0813  0.5504
  657TMC3    C5 9724   0.240   2.793  14.907 -0.8096 -0.1243  0.3355
  657TMC3    C6 9725   0.178   2.848  15.018  0.3257  0.8729  0.2215
  657TMC3     C 9726   0.452   2.533  15.048  0.1714 -0.4506 -0.4534
  657TMC3     O 9727   0.521   2.509  14.949 -0.0082 -0.5266  0.5583
  657TMC3     H 9728   0.353   2.685  15.256  0.2824  0.4488  0.3620
  657TMC3    H1 9729   0.406   2.681  14.834  0.0623  1.8051 -0.3223
  657TMC3    H2 9730   0.102   2.924  15.002  0.9951  1.4784 -0.0708
  657TMC3    C7 9731   0.181   2.823  14.781 -0.2067  0.4693 -0.1906
  657TMC3    C8 9732   0.148   2.832  15.261  0.0100  0.0704 -1.0065
  657TMC3    O1 9733   0.067   2.871  14.783 -0.2843  0.1164  0.4623
  657TMC3    O2 9734   0.201   2.821  15.370  0.2955 -0.0541 -0.6828
  658MPD2     C 9735   1.876   2.761  14.241  0.9260 -0.1375  0.1928
  658MPD2    C1 9736   1.949   2.842  14.331  0.2177  0.2017  1.0277
  658MPD2    C2 9737   2.059   2.913  14.275 -0.1287 -0.9385 -0.6095
  658MPD2    C3 9738   2.096   2.911  14.143  1.5765 -0.1842  0.4478
  658MPD2    C4 9739   2.021   2.831  14.059 -0.1195  0.2301 -0.0893
  658MPD2    C5 9740   1.916   2.757  14.105 -0.3032  0.0065 -0.2846
  658MPD2     H 9741   2.117   2.972  14.345 -1.7059  0.2128 -0.2572
  658MPD2    H1 9742   2.040   2.824  13.953 -1.2228  1.1363 -0.3499
  658MPD2    H2 9743   1.795   2.698  14.274  0.2320 -1.0745 -3.2424
  658MPD2    H3 9744   1.862   2.691  14.038 -0.5706 -0.7069  0.6227
  658MPD2     N 9745   2.186   3.016  14.098 -0.7006 -0.2940 -0.4423
  658MPD2    H5 9746   2.234   3.078  14.162  0.5142 -0.6545 -1.0042
  658MPD2    N1 9747   1.917   2.839  14.469 -0.0199  0.4636  0.0588
  658MPD2    H7 9748   1.833   2.784  14.483 -0.4243  0.8477 -0.8481
  659TMC3    C1 9749   1.891   2.911  14.694 -0.2571  0.1735 -0.3968
  659TMC3    C2 9750   1.951   2.957  14.812 -0.1300  0.3488 -0.4011
  659TMC3    C3 9751   1.879   3.028  14.900 -0.2442 -0.4537  0.3563
  659TMC3    C4 9752   1.762   2.942  14.664 -0.6403  0.4468 -0.1389
  659TMC3    C5 9753   1.693   3.003  14.767  0.5445 -0.6782  0.2360
  659TMC3    C6 9754   1.753   3.060  14.878 -0.0252 -0.1844 -0.5272
  659TMC3     C 9755   1.981   2.895  14.581 -0.4588 -0.3828  0.7381
  659TMC3     O 9756   2.095   2.922  14.591 -0.3404 -0.3830 -0.3547
  659TMC3     H 9757   2.057   2.939  14.821 -0.0878  1.4371  1.1702
  659TMC3    H1 9758   1.713   2.914  14.571 -2.2819 -0.7206  1.0878
  659TMC3    H2 9759   1.708   3.126  14.951  1.7740 -0.0828  0.4797
  659TMC3    C7 9760   1.550   3.035  14.743 -0.7870  0.1300 -0.0699
  659TMC3    C8 9761   1.927   3.046  15.032  0.2739 -0.1835 -0.0584
  659TMC3    O1 9762   1.492   2.961  14.667  0.0842  0.4191 -0.1353
  659TMC3    O2 9763   1.898   3.153  15.081  0.6031  0.1168 -0.1755
  660MPD2     C 9764   0.072   1.571  12.962  0.0208  0.4143  0.4893
  660MPD2    C1 9765   4.672   1.554  12.911 -0.6097  0.4137  0.3530
  660MPD2    C2 9766   4.587   1.459  12.973  0.0977  0.4132  0.2060
  660MPD2    C3 9767   4.612   1.409  13.097 -0.2785 -0.2650 -0.2684
  660MPD2    C4 9768   0.016   1.430  13.150 -0.6449  0.3562  0.5270
  660MPD2    C5 9769   0.109   1.500  13.076 -0.3605 -0.2149  0.3280
  660MPD2     H 9770   4.489   1.446  12.929 -1.0947  0.0301  2.9572
  660MPD2    H1 9771   0.053   1.394  13.246 -0.1562 -2.9535 -0.9171
  660MPD2    H2 9772   0.152   1.620  12.908  1.4212 -2.1363  0.2152
  660MPD2    H3 9773   0.213   1.507  13.105  0.1611 -1.0617 -1.2873
  660MPD2     N 9774   4.520   1.327  13.178 -0.2766 -0.3157  0.2186
  660MPD2    H5 9775   4.536   1.301  13.275 -1.4218 -1.7142  0.0325
  660MPD2    N1 9776   4.635   1.634  12.797 -0.5809 -0.4518 -0.1745
  660MPD2    H7 9777   4.713   1.693  12.770 -0.8462 -0.1259 -0.2299
  661TMC3    C1 9778   4.494   1.720  12.624  0.2765 -0.5695 -0.3960
  661TMC3    C2 9779   4.602   1.781  12.564  0.1730 -0.4158  0.3480
  661TMC3    C3 9780   4.575   1.894  12.493 -0.3563 -0.3356 -0.4512
  661TMC3    C4 9781   4.365   1.750  12.601 -0.8009 -0.2765 -0.1082
  661TMC3    C5 9782   4.352   1.860  12.522 -0.3082 -0.0403  0.4132
  661TMC3    C6 9783   4.449   1.937  12.464  0.6425 -0.2457  0.6973
  661TMC3     C 9784   4.517   1.617  12.723 -0.0955 -0.3581 -0.3606
  661TMC3     O 9785   4.434   1.530  12.739  0.2470  0.2106  0.4535
  661TMC3     H 9786   4.707   1.753  12.572 -0.7508 -3.3232  2.5738
  661TMC3    H1 9787   4.282   1.702  12.651 -1.0186  0.8562  0.6110
  661TMC3    H2 9788   4.426   2.015  12.393  1.1125 -0.1160  0.6867
  661TMC3    C7 9789   4.221   1.883  12.468 -0.0747  0.6973  0.2316
  661TMC3    C8 9790   4.674   1.936  12.397  0.1013  0.8105 -1.4170
  661TMC3    O1 9791   4.176   1.996  12.468  0.3130  0.1531  0.4294
  661TMC3    O2 9792   0.021   1.851  12.344  0.4642 -0.5046 -0.7164
  662MPD2     C 9793   0.084   1.609  17.542 -0.1432 -0.0451 -1.0011
  662MPD2    C1 9794   0.074   1.493  17.618 -0.0724 -0.0500 -1.1145
  662MPD2    C2 9795   0.070   1.500   0.056  0.0014  0.1245  0.0898
  662MPD2    C3 9796   0.094   1.625   0.116  0.7276 -0.4848  0.4292
  662MPD2    C4 9797   0.101   1.737   0.035 -0.7158 -0.8999  0.4770
  662MPD2    C5 9798   0.096   1.733  17.605  0.3758 -0.5955 -0.2446
  662MPD2     H 9799   0.059   1.408   0.112 -0.6829  1.0204  1.4475
  662MPD2    H1 9800   0.107   1.834   0.084  0.1633  0.5555 -2.5500
  662MPD2    H2 9801   0.104   1.612  17.436  0.3395 -1.8067 -0.9533
  662MPD2    H3 9802   0.105   1.825  17.549  0.4513 -0.4518  0.0053
  662MPD2     N 9803   0.103   1.631   0.256  0.1386  0.2523  0.7380
  662MPD2    H5 9804   0.086   1.725   0.292  0.6601  0.1577  1.2330
  662MPD2    N1 9805   0.076   1.367  17.555 -0.5824  0.1099 -0.3644
  662MPD2    H7 9806   0.090   1.286  17.614  0.7685  1.1004  0.6670
  663TMC3    C1 9807   0.029   1.197  17.400  0.3874 -0.6728  0.2574
  663TMC3    C2 9808   0.090   1.104  17.475 -0.0448  0.1137 -0.3622
  663TMC3    C3 9809   0.068   0.971  17.440 -0.9026 -0.5618  0.1486
  663TMC3    C4 9810   4.651   1.166  17.311 -0.5459  0.7303  0.3871
  663TMC3    C5 9811   4.620   1.040  17.285 -0.0417  0.5193  0.5997
  663TMC3    C6 9812   4.684   0.936  17.356  0.1466 -0.3884 -0.2452
  663TMC3     C 9813   0.048   1.338  17.428 -0.3414 -0.1539 -0.5446
  663TMC3     O 9814   0.011   1.415  17.341 -0.1626 -0.1282  0.4590
  663TMC3     H 9815   0.184   1.122  17.526 -0.7482  1.6936  0.3966
  663TMC3    H1 9816   4.605   1.240  17.246  2.7390  2.3413 -0.1154
  663TMC3    H2 9817   4.676   0.832  17.327  0.1270  0.2183 -2.4402
  663TMC3    C7 9818   4.504   1.008  17.211  0.5892 -0.5217 -0.1747
  663TMC3    C8 9819   0.113   0.863  17.532 -0.0776  0.2350  0.2189
  663TMC3    O1 9820   4.474   1.092  17.122  0.1399 -0.4543 -0.2043
  663TMC3    O2 9821   0.106   0.749  17.490 -0.0426  0.0526  0.1360
  664MPD2     C 9822   2.322   4.354  17.462 -0.9120 -0.4450 -0.3199
  664MPD2    C1 9823   2.450   4.319  17.484  0.0881  0.4859 -0.5432
  664MPD2    C2 9824   2.474   4.212  17.561 -0.1168  0.3880  0.1616
  664MPD2    C3 9825   2.385   4.138  17.632 -0.6182 -0.0129 -0.3796
  664MPD2    C4 9826   2.257   4.185  17.620  0.4528  0.3673 -0.1241
  664MPD2    C5 9827   2.226   4.287  17.536  0.0502 -0.1352 -0.2173
  664MPD2     H 9828   2.578   4.183  17.565 -0.0201  0.9302  1.6570
  664MPD2    H1 9829   2.177   4.145  17.682  0.1475  1.9589  0.5210
  664MPD2    H2 9830   2.277   4.427  17.395 -0.1490  0.4613  0.1361
  664MPD2    H3 9831   2.120   4.295  17.519  0.0056  3.0539  1.6218
  664MPD2     N 9832   2.437   4.068   0.032 -0.1196  0.6469  0.5990
  664MPD2    H5 9833   2.534   4.036   0.033 -0.7062 -1.2532 -2.7789
  664MPD2    N1 9834   2.559   4.390  17.434  0.3425  0.0685  0.2366
  664MPD2    H7 9835   2.649   4.349  17.455  0.3835 -0.2574 -0.5725
  665TMC3    C1 9836   2.446   3.938   0.233 -0.2774  0.1088 -0.0388
  665TMC3    C2 9837   2.370   3.890   0.340 -0.4245 -0.6485 -0.6038
  665TMC3    C3 9838   2.446   3.879   0.452  0.2525 -0.0873 -0.1472
  665TMC3    C4 9839   2.581   3.954   0.244  0.1162  0.2905 -0.1813
  665TMC3    C5 9840   2.651   3.934   0.355  0.7270  0.9498 -0.9343
  665TMC3    C6 9841   2.583   3.906   0.472 -0.2382 -0.1989 -0.4080
  665TMC3     C 9842   2.364   3.997   0.129  0.1380 -0.1849  0.7842
  665TMC3     O 9843   2.242   3.988   0.136 -0.2771 -0.1771 -0.4163
  665TMC3     H 9844   2.262   3.883   0.335 -0.5859  1.1629  0.1969
  665TMC3    H1 9845   2.644   3.973   0.157  1.5799 -1.7092  0.4378
  665TMC3    H2 9846   2.634   3.866   0.559  0.4723  1.4159 -0.0854
  665TMC3    C7 9847   2.794   3.947   0.341  0.5430  0.6449  0.4079
  665TMC3    C8 9848   2.388   3.823   0.571  0.0141  0.3909 -0.6270
  665TMC3    O1 9849   2.846   3.881   0.254  0.1230  0.3600  0.0135
  665TMC3    O2 9850   2.439   3.845   0.681 -1.2317 -0.1875  0.0804
  666TMC3    C1 9851   2.718   4.512  10.192  0.0132 -0.2371  1.0029
  666TMC3    C2 9852   2.765   4.395  10.246 -1.4083 -0.0065 -0.3890
  666TMC3    C3 9853   2.834   4.406  10.363 -0.5604 -0.0661  0.0996
  666TMC3    C4 9854   2.730   4.632  10.257 -0.1710 -0.1415 -0.1723
  666TMC3    C5 9855   2.787   4.643  10.379 -0.2588 -0.0642  0.6482
  666TMC3    C6 9856   2.834   4.528  10.439 -0.2679 -0.0420  0.0023
  666TMC3     C 9857   2.625   4.519  10.077 -0.7920  0.3710  0.6903
  666TMC3     O 9858   2.624   4.623  10.013 -0.0383 -0.5150  0.3485
  666TMC3     H 9859   2.756   4.300  10.195 -1.4311 -1.0526  1.5835
  666TMC3    H1 9860   2.698   4.712  10.191  1.4763 -0.7252 -1.6626
  666TMC3    H2 9861   2.912   4.543  10.513  1.0148  0.2205 -1.4028
  666TMC3    C7 9862   2.750   0.026  10.461  0.2521  1.1379  0.5727
  666TMC3    C8 9863   2.875   4.282  10.432 -0.1005 -0.9673  0.2606
  666TMC3    O1 9864   2.720   4.721  10.577  0.3317  0.3869  0.0423
  666TMC3    O2 9865   2.812   4.176  10.412 -0.2453 -0.3985  0.4867
  667MPD2     C 9866   3.744   4.291  14.758  0.7004  0.1171  0.5500
  667MPD2    C1 9867   3.650   4.380  14.799 -0.1671 -0.1299  0.7123
  667MPD2    C2 9868   3.533   4.393  14.728 -0.2689 -0.4052  0.2715
  667MPD2    C3 9869   3.509   4.299  14.632  0.2201 -0.3603  0.1586
  667MPD2    C4 9870   3.594   4.199  14.597 -0.1493  0.4378  0.2185
  667MPD2    C5 9871   3.722   4.209  14.646 -0.5097  0.3563 -0.1341
  667MPD2     H 9872   3.457   4.464  14.758 -0.4343 -0.5107  0.1031
  667MPD2    H1 9873   3.568   4.117  14.531 -1.8333  0.4046  0.9215
  667MPD2    H2 9874   3.821   4.265  14.830  1.4555  0.9578  0.0449
  667MPD2    H3 9875   3.792   4.129  14.625 -1.0077 -0.1729  0.2226
  667MPD2     N 9876   3.382   4.291  14.562  0.0977  0.4176  0.3750
  667MPD2    H5 9877   3.365   4.220  14.492 -0.2748  2.2754 -1.4312
  667MPD2    N1 9878   3.664   4.458  14.914 -0.1406 -0.3298 -0.7390
  667MPD2    H7 9879   3.585   4.508  14.954  0.1502 -0.9075  0.5595
  668TMC3    C1 9880   3.775   4.576  15.087 -0.0984 -0.5331  0.1150
  668TMC3    C2 9881   3.855   4.683  15.109  0.3841 -0.2505 -0.0413
  668TMC3    C3 9882   3.858   0.006  15.243 -0.2995  0.0138 -0.5246
  668TMC3    C4 9883   3.686   4.531  15.182 -0.4442  0.1500  0.3751
  668TMC3    C5 9884   3.689   4.590  15.299  0.1055 -0.0378  1.2569
  668TMC3    C6 9885   3.776   4.686  15.337  0.3342  0.2797  0.3121
  668TMC3     C 9886   3.789   4.508  14.960  0.5634  1.1533 -0.2560
  668TMC3     O 9887   3.900   4.503  14.909  0.2353  0.1845  0.5968
  668TMC3     H 9888   3.931   4.717  15.040 -0.3752  1.4492 -0.0367
  668TMC3    H1 9889   3.619   4.447  15.163 -0.2835 -0.1846  1.2725
  668TMC3    H2 9890   3.768   0.017  15.430 -1.2448 -1.4516  1.2159
  668TMC3    C7 9891   3.589   4.545  15.399  0.6667 -0.1417  0.0502
  668TMC3    C8 9892   3.970   0.089  15.297  0.5858  0.3579 -0.2720
  668TMC3    O1 9893   3.615   4.529  15.516 -0.2678  0.1472 -0.1732
  668TMC3    O2 9894   3.994   0.060  15.412  0.9333 -0.0406  0.2178
  669TMC3    C1 9895   1.610   4.309  14.607 -0.1648 -0.3143 -0.0170
  669TMC3    C2 9896   1.484   4.355  14.585 -0.0356  0.2156 -0.3400
  669TMC3    C3 9897   1.459   4.431  14.478  0.0259 -0.1510  0.1426
  669TMC3    C4 9898   1.716   4.361  14.536  0.2487 -0.2841  0.1854
  669TMC3    C5 9899   1.685   4.449  14.432 -0.1863  0.2029 -0.2828
  669TMC3    C6 9900   1.556   4.483  14.399  0.3195 -0.1864  0.6425
  669TMC3     C 9901   1.624   4.169  14.662 -0.1633 -0.1520  0.1387
  669TMC3     O 9902   1.519   4.112  14.669 -0.2246  0.4313  0.1076
  669TMC3     H 9903   1.406   4.313  14.647  2.0689 -1.4849  1.1550
  669TMC3    H1 9904   1.817   4.323  14.552 -0.6279 -3.0914 -0.8342
  669TMC3    H2 9905   1.539   4.543  14.310 -1.4269 -1.2498  0.2531
  669TMC3    C7 9906   1.797   4.487  14.348 -0.0051  0.1204 -0.3137
  669TMC3    C8 9907   1.325   4.416  14.424  0.3507 -0.7525 -0.5753
  669TMC3    O1 9908   1.904   4.499  14.406 -0.5396  0.9429 -0.1950
  669TMC3    O2 9909   1.251   4.334  14.483 -0.0211 -0.0450  1.0879
  670MPD2     C 9910   4.425   2.101  13.615  0.2150  0.1324  0.0609
  670MPD2    C1 9911   4.539   2.106  13.693 -0.1243  0.7915  0.5307
  670MPD2    C2 9912   4.538   2.075  13.831 -0.1316  0.7988 -0.0778
  670MPD2    C3 9913   4.415   2.047  13.894  0.0023  0.3133 -0.2267
  670MPD2    C4 9914   4.301   2.037  13.819 -0.3863 -0.7510 -1.0461
  670MPD2    C5 9915   4.314   2.058  13.686  0.5510 -0.2781  0.1923
  670MPD2     H 9916   4.635   2.073  13.879 -0.9592 -1.5704  1.5159
  670MPD2    H1 9917   4.203   1.998  13.847 -0.1050 -0.5417  0.2474
  670MPD2    H2 9918   4.430   2.112  13.508  1.3207 -2.8864 -0.2010
  670MPD2    H3 9919   4.219   2.053  13.633  0.7550  0.3050 -0.2211
  670MPD2     N 9920   4.420   2.029  14.037  0.1511  0.1925 -0.0206
  670MPD2    H5 9921   4.506   2.047  14.088 -0.8928  1.2609  1.3770
  670MPD2    N1 9922   4.666   2.130  13.627 -0.3607 -0.0871  0.6656
  670MPD2    H7 9923   0.021   2.121  13.689  0.6529 -2.5622 -1.0146
  671TMC3    C1 9924   4.341   1.961  14.250 -0.1654 -0.3547 -0.3327
  671TMC3    C2 9925   4.477   1.975  14.291 -0.2302 -0.1839  0.2422
  671TMC3    C3 9926   4.505   1.889  14.391  0.4254  0.2338 -0.3928
  671TMC3    C4 9927   4.245   1.888  14.312  0.3842  0.2171 -0.6083
  671TMC3    C5 9928   4.279   1.804  14.417  0.3276 -0.4079 -0.4704
  671TMC3    C6 9929   4.412   1.810  14.457  0.0117  0.2627 -0.5425
  671TMC3     C 9930   4.311   1.985  14.112 -0.3222 -0.1085 -0.1178
  671TMC3     O 9931   4.209   1.951  14.062 -0.2373  0.2500 -0.1974
  671TMC3     H 9932   4.556   2.005  14.224 -1.5611 -0.7425 -1.5755
  671TMC3    H1 9933   4.142   1.880  14.282  0.2416  0.3312 -0.1445
  671TMC3    H2 9934   4.442   1.728  14.521 -1.8099 -0.7032 -0.9383
  671TMC3    C7 9935   4.236   1.672  14.367 -0.3647  0.3284 -0.4072
  671TMC3    C8 9936   4.639   1.848  14.428  0.3403  0.0823 -0.6341
  671TMC3    O1 9937   4.328   1.603  14.317  0.5140  0.1253  0.0342
  671TMC3    O2 9938   4.722   1.876  14.348  0.5983 -0.1798  0.1766
  672MPD2     C 9939   0.921   3.013   0.733  0.0248  0.4990  0.5272
  672MPD2    C1 9940   0.914   2.876   0.723 -0.1212  0.8614  0.0133
  672MPD2    C2 9941   0.837   2.809   0.810 -0.4850 -0.4772 -0.0009
  672MPD2    C3 9942   0.758   2.872   0.898  0.2146 -0.1368 -0.5443
  672MPD2    C4 9943   0.762   3.010   0.911 -0.1568  1.2548 -0.0179
  672MPD2    C5 9944   0.837   3.077   0.826  0.2327  0.3111 -0.7914
  672MPD2     H 9945   0.833   2.702   0.792  3.8234 -0.6208 -0.0948
  672MPD2    H1 9946   0.706   3.061   0.988  1.0367  0.9797  1.0439
  672MPD2    H2 9947   0.973   3.077   0.664 -0.6881  1.7811  1.1684
  672MPD2    H3 9948   0.823   3.184   0.824  0.5882  0.3106 -3.4320
  672MPD2     N 9949   0.677   2.807   0.995 -0.0721  0.4256 -0.0532
  672MPD2    H5 9950   0.610   2.870   1.039  0.9033  1.0693  0.5133
  672MPD2    N1 9951   0.973   2.800   0.620 -0.2185  0.2666  0.7401
  672MPD2    H7 9952   0.943   2.704   0.614 -0.1388  0.1509  2.0672
  673TMC3    C1 9953   1.053   2.737   0.417 -0.3789 -0.1466  0.0255
  673TMC3    C2 9954   1.137   2.635   0.433 -0.0982  0.2354 -0.1045
  673TMC3    C3 9955   1.100   2.508   0.400  0.5978 -0.1804 -0.5159
  673TMC3    C4 9956   0.916   2.707   0.393  0.4155  0.5958  0.2574
  673TMC3    C5 9957   0.886   2.578   0.373 -0.0957  0.6080  0.2858
  673TMC3    C6 9958   0.974   2.479   0.369 -0.4838  0.1623  0.8139
  673TMC3     C 9959   1.057   2.836   0.520  0.4344 -0.1873  0.0223
  673TMC3     O 9960   1.104   2.946   0.493 -0.3576 -0.3784  0.1836
  673TMC3     H 9961   1.237   2.661   0.467  0.7871 -0.8139 -1.8915
  673TMC3    H1 9962   0.844   2.787   0.407 -0.1359  0.4646 -1.8423
  673TMC3    H2 9963   0.949   2.375   0.355 -1.2864  0.2425  1.6109
  673TMC3    C7 9964   0.746   2.533   0.423  0.2453  0.8945  0.1199
  673TMC3    C8 9965   1.167   2.396   0.463 -0.3737 -0.5858 -0.8331
  673TMC3    O1 9966   0.739   2.417   0.461 -0.0752  0.3960  0.6474
  673TMC3    O2 9967   1.106   2.289   0.469  0.2546 -0.4298  0.3371
  674MPD2     C 9968   4.608   2.750   0.025  0.1333 -0.2874  0.1002
  674MPD2    C1 9969   4.663   2.665   0.127  0.3399 -0.6282  0.1441
  674MPD2    C2 9970   4.577   2.617   0.225 -0.7630 -0.1348 -0.0486
  674MPD2    C3 9971   4.437   2.648   0.225 -0.1072  0.4643 -0.8748
  674MPD2    C4 9972   4.390   2.735   0.129  0.2631 -0.4772  0.4636
  674MPD2    C5 9973   4.474   2.782   0.033 -0.2700  0.0519  0.2634
  674MPD2     H 9974   4.618   2.556   0.304  0.9933  0.5874 -0.4046
  674MPD2    H1 9975   4.283   2.752   0.123  0.3197  0.0798  1.1309
  674MPD2    H2 9976   4.675   2.790  17.653 -0.9456 -0.8269 -1.1425
  674MPD2    H3 9977   4.432   2.849  17.662 -1.1892 -1.5726 -0.6758
  674MPD2     N 9978   4.362   2.598   0.331 -0.1151 -0.1759 -0.5155
  674MPD2    H5 9979   4.413   2.536   0.394 -3.0511 -0.5243  1.4766
  674MPD2    N1 9980   0.076   2.630   0.123 -0.2069  0.6122  0.1752
  674MPD2    H7 9981   0.127   2.670   0.045  2.1438  0.3617  1.5693
  675TMC3    C1 9982   0.288   2.524   0.193  0.0394 -0.3697 -0.3004
  675TMC3    C2 9983   0.337   2.401   0.230 -0.2842  0.2119  0.0018
  675TMC3    C3 9984   0.466   2.380   0.195  0.4080  0.2649  0.4614
  675TMC3    C4 9985   0.366   2.622   0.130 -0.3855 -0.5585  0.3713
  675TMC3    C5 9986   0.497   2.589   0.100  0.3255  0.0176  0.1023
  675TMC3    C6 9987   0.547   2.467   0.140  0.3856 -0.0151 -0.7333
  675TMC3     C 9988   0.138   2.532   0.203  0.2259  0.2009 -0.1363
  675TMC3     O 9989   0.101   2.468   0.301 -0.1246  0.0683 -0.9040
  675TMC3     H 9990   0.276   2.331   0.286 -0.6400 -0.1683 -0.8600
  675TMC3    H1 9991   0.327   2.722   0.115 -2.5248 -1.2440  1.3148
  675TMC3    H2 9992   0.653   2.447   0.131  0.1176 -1.7585  0.0434
  675TMC3    C7 9993   0.597   2.697   0.103 -0.8217 -0.2640  0.6897
  675TMC3    C8 9994   0.529   2.256   0.248 -0.6835 -0.1855 -0.8169
  675TMC3    O1 9995   0.710   2.667   0.068 -0.3510 -0.0072 -0.1701
  675TMC3    O2 9996   0.464   2.212   0.345 -0.2108  0.1198 -0.1512
  676MPD2     C 9997   2.667   0.693  11.357  0.7531 -0.7366 -0.0479
  676MPD2    C1 9998   2.611   0.596  11.441  0.5832  0.2942 -0.0729
  676MPD2    C2 9999   2.666   0.472  11.440 -0.0119 -0.7849  0.1374
  676MPD2    C310000   2.756   0.437  11.342  0.1639 -0.3838 -0.2998
  676MPD2    C410001   2.797   0.527  11.246  0.3410  0.4860 -0.4104
  676MPD2    C510002   2.761   0.661  11.265  0.3129  0.3968 -0.3447
  676MPD2     H10003   2.619   0.396  11.501 -1.2075 -0.2727 -0.1461
  676MPD2    H110004   2.870   0.510  11.168 -1.6980 -0.3211 -2.1492
  676MPD2    H210005   2.642   0.799  11.359  1.8614 -0.4727 -0.3096
  676MPD2    H310006   2.790   0.736  11.192  0.0260  0.0518 -0.8161
  676MPD2     N10007   2.815   0.310  11.340  0.1536 -0.8173 -0.2363
  676MPD2    H510008   2.878   0.297  11.261  0.1578 -2.3156  0.0171
  676MPD2    N110009   2.515   0.629  11.538 -0.0012 -0.0873 -0.0393
  676MPD2    H710010   2.495   0.580  11.624 -0.4057 -0.7905 -0.5324
  677TMC3    C110011   2.387   0.773  11.670 -0.4057 -0.2323  0.4853
  677TMC3    C210012   2.327   0.662  11.724  0.1458  0.2686  0.9624
  677TMC3    C310013   2.288   0.666  11.853 -0.1494 -0.1624 -0.5242
  677TMC3    C410014   2.406   0.892  11.739  0.7936  0.0470 -0.1751
  677TMC3    C510015   2.354   0.897  11.868 -0.3908  0.9696 -0.5281
  677TMC3    C610016   2.298   0.781  11.923 -0.1699  0.0389 -0.1502
  677TMC3     C10017   2.448   0.747  11.541  0.1351  0.2842 -1.4371
  677TMC3     O10018   2.456   0.850  11.470  0.2444  0.0006  0.3256
  677TMC3     H10019   2.321   0.565  11.675  0.4243 -0.0917  1.6298
  677TMC3    H110020   2.458   0.975  11.692 -2.0830  0.6747 -2.2854
  677TMC3    H210021   2.266   0.775  12.026 -0.4812 -0.1645 -0.2601
  677TMC3    C710022   2.431   0.968  11.965 -0.1420 -0.1921 -0.1846
  677TMC3    C810023   2.210   0.552  11.899 -0.0484 -0.6496 -0.1602
  677TMC3    O110024   2.378   1.002  12.071  0.7054  0.1482  0.2382
  677TMC3    O210025   2.143   0.494  11.819  0.3215  0.4540  0.8539
  678MPD2     C10026   0.094   0.920   1.100  0.3528  0.7354 -0.0697
  678MPD2    C110027   0.096   0.782   1.097 -0.5397  0.3443  0.2000
  678MPD2    C210028   4.718   0.717   1.041 -0.4140  0.4373  0.0823
  678MPD2    C310029   4.598   0.781   0.996 -0.2493 -0.2653 -0.4663
  678MPD2    C410030   4.594   0.915   1.014 -0.3498  0.6977  0.3270
  678MPD2    C510031   4.705   0.982   1.063 -0.6443 -0.4104 -0.0922
  678MPD2     H10032   0.002   0.611   1.023 -0.7721  0.3002  0.6967
  678MPD2    H110033   4.511   0.975   0.980 -0.8100  0.5842  1.2420
  678MPD2    H210034   0.174   0.986   1.129 -0.9099  1.4850  1.7900
  678MPD2    H310035   4.698   1.090   1.054 -2.0602 -0.6610 -2.0372
  678MPD2     N10036   4.492   0.718   0.927 -0.0548  0.4169  0.5448
  678MPD2    H510037   4.519   0.626   0.894 -1.2649  0.0998  0.4082
  678MPD2    N110038   0.211   0.706   1.138  0.3416 -0.3042  0.4340
  678MPD2    H710039   0.199   0.605   1.146 -0.3238 -0.0866  2.3738
  679TMC3    C110040   0.423   0.416   1.213  0.9704  0.1527  0.8235
  679TMC3    C210041   0.347   0.528   1.247  0.0903 -1.0267  0.3708
  679TMC3    C310042   0.409   0.653   1.230 -0.6646  0.7842 -0.4848
  679TMC3    C410043   0.546   0.433   1.155  0.1276  0.1998  0.0802
  679TMC3    C510044   0.597   0.557   1.139  0.8928 -0.1082  0.1994
  679TMC3    C610045   0.531   0.665   1.173 -0.2090  0.2871 -0.0538
  679TMC3     C10046   0.380   0.278   1.237  0.4792 -0.1715  0.2012
  679TMC3     O10047   0.405   0.190   1.158  0.9191  0.1462  0.1936
  679TMC3     H10048   0.245   0.512   1.280 -0.7677  1.1051 -1.2852
  679TMC3    H110049   0.600   0.343   1.127 -1.2427 -0.3342 -0.8218
  679TMC3    H210050   0.568   0.764   1.150  0.5382  0.0423  0.0840
  679TMC3    C710051   0.667   0.572   1.014  0.5055  0.1770  0.1682
  679TMC3    C810052   0.322   0.762   1.191 -0.0221 -0.7169 -0.5605
  679TMC3    O110053   0.611   0.534   0.912 -0.3650 -0.4095 -0.1396
  679TMC3    O210054   0.371   0.868   1.160  0.2355  0.3606 -0.5359
  680MPD2     C10055   4.116   3.751  13.916  0.6384 -1.1951 -0.2702
  680MPD2    C110056   4.255   3.750  13.901  0.2477  0.1490 -1.1379
  680MPD2    C210057   4.337   3.820  13.988  0.2192 -0.0695 -0.8500
  680MPD2    C310058   4.276   3.902  14.079  0.7242 -0.0952 -0.0203
  680MPD2    C410059   4.140   3.918  14.075 -0.4033  0.2525 -0.2139
  680MPD2    C510060   4.056   3.836  14.008  0.0604  0.0345  0.4538
  680MPD2     H10061   4.444   3.823  13.969  0.3757  0.9607  0.1580
  680MPD2    H110062   4.099   3.992  14.143  0.4047  0.2430  0.2855
  680MPD2    H210063   4.042   3.709  13.848  0.0539 -1.8320  0.7501
  680MPD2    H310064   3.950   3.856  14.015 -0.1299 -0.7339 -0.2203
  680MPD2     N10065   4.351   4.014  14.133 -0.3682 -0.4342 -0.1053
  680MPD2    H510066   4.301   4.098  14.162  1.0963  0.5341 -0.3827
  680MPD2    N110067   4.317   3.686  13.790 -0.0251  0.0882 -0.3953
  680MPD2    H710068   4.418   3.686  13.799 -0.0762  2.9056  0.1522
  681TMC3    C110069   4.339   3.559  13.585 -0.2183 -0.4522  0.2458
  681TMC3    C210070   4.291   3.432  13.557 -0.2850 -0.6101  0.2071
  681TMC3    C310071   4.378   3.328  13.549 -1.1375 -1.3320  0.5260
  681TMC3    C410072   4.472   3.590  13.590  0.0976 -0.0580 -0.7298
  681TMC3    C510073   4.555   3.475  13.565 -0.3004  0.2458  0.6976
  681TMC3    C610074   4.509   3.346  13.548  0.2598  0.6978  0.1613
  681TMC3     C10075   4.257   3.621  13.684 -0.7451 -0.0150 -0.0617
  681TMC3     O10076   4.137   3.602  13.669  0.2649  0.3407  0.3431
  681TMC3     H10077   4.184   3.415  13.553 -0.4586  0.8190 -1.4733
  681TMC3    H110078   4.511   3.678  13.639 -1.9573  0.9179 -0.8448
  681TMC3    H210079   4.566   3.255  13.530  0.3166  0.7701 -0.0238
  681TMC3    C710080   4.688   3.501  13.523 -0.4339 -0.1958  0.2251
  681TMC3    C810081   4.330   3.199  13.501 -0.9126 -0.2262 -0.0505
  681TMC3    O110082   4.725   3.618  13.526  0.4093  0.7519 -0.4609
  681TMC3    O210083   4.373   3.172  13.389 -0.4860 -0.1710 -0.2631
  682MPD2     C10084   2.121   0.745  11.339  0.0450 -0.3506  0.5662
  682MPD2    C110085   2.058   0.623  11.299 -0.7516 -0.0079 -0.2514
  682MPD2    C210086   1.974   0.562  11.385 -0.0492  0.2796  0.0086
  682MPD2    C310087   1.957   0.609  11.512  0.4679  0.5084  0.5606
  682MPD2    C410088   2.026   0.723  11.559 -0.2233  0.1164 -0.0714
  682MPD2    C510089   2.109   0.784  11.474  0.0212 -0.8142 -0.5660
  682MPD2     H10090   1.934   0.468  11.348  1.8703 -0.8503  0.8223
  682MPD2    H110091   2.016   0.756  11.662  2.1694  0.0824  0.1715
  682MPD2    H210092   2.188   0.802  11.275  0.2467 -2.2544 -0.8956
  682MPD2    H310093   2.163   0.875  11.498 -0.6449 -0.4411 -0.4753
  682MPD2     N10094   1.877   0.543  11.613  0.1544  0.4904 -0.1063
  682MPD2    H510095   1.890   0.570  11.710  0.7743  0.1453 -0.0894
  682MPD2    N110096   2.068   0.565  11.171  0.5132  0.0442  0.3624
  682MPD2    H710097   2.024   0.474  11.168  1.6337 -0.3733 -3.7823
  683TMC3    C110098   1.839   0.294  11.917  0.2742 -0.1927 -0.3359
  683TMC3    C210099   1.865   0.165  11.886  0.5914 -0.1814 -0.5417
  683TMC3    C310100   1.819   0.122  11.766 -0.9460 -0.7825 -1.1473
  683TMC3    C410101   1.792   0.383  11.822  0.8475  0.4270  0.3005
  683TMC3    C510102   1.778   0.343  11.697 -0.3258 -0.0470  0.0859
  683TMC3    C610103   1.773   0.211  11.671  0.2135 -0.2335 -0.1052
  683TMC3     C10104   1.871   0.339  12.046  0.1098  0.1372  0.1850
  683TMC3     O10105   1.920   0.255  12.127 -0.4616 -0.3572 -0.4452
  683TMC3     H10106   1.892   0.090  11.959  0.7819 -0.3826 -0.8194
  683TMC3    H110107   1.769   0.486  11.847 -0.5319  0.0894  0.3955
  683TMC3    H210108   1.757   0.182  11.567 -0.4365  0.5851 -0.2316
  683TMC3    C710109   1.803   0.431  11.582 -0.0161  0.7203 -0.1507
  683TMC3    C810110   1.867   4.725  11.721  0.5215  0.1281  0.5880
  683TMC3    O110111   1.757   0.389  11.477 -0.1349  0.1323 -0.0103
  683TMC3    O210112   1.963   4.680  11.782  0.0230 -0.1686 -0.3488
  684MPD2     C10113   4.696   4.708  16.336  0.7171 -0.4211  0.5667
  684MPD2    C110114   0.070   4.710  16.243  0.0809 -0.2759 -0.0919
  684MPD2    C210115   0.157   0.096  16.251  0.5348  0.0506  0.0602
  684MPD2    C310116   0.145   0.189  16.348 -0.4144 -0.9047 -0.2743
  684MPD2    C410117   0.058   0.169  16.453 -0.8094 -0.0570  0.3983
  684MPD2    C510118   4.691   0.073  16.439  0.9419  0.7199 -0.1673
  684MPD2     H10119   0.237   0.108  16.178  0.5416 -1.5180 -0.1936
  684MPD2    H110120   0.045   0.225  16.544  1.7735 -2.2806  2.1298
  684MPD2    H210121   4.611   4.642  16.330  0.7347 -0.3536 -0.4773
  684MPD2    H310122   4.617   0.065  16.518  0.2491  0.9935 -0.7819
  684MPD2     N10123   0.223   0.302  16.340  0.3776  0.5353  0.0811
  684MPD2    H510124   0.282   0.312  16.258 -1.4146 -0.7179 -1.3707
  684MPD2    N110125   0.086   4.611  16.143 -0.3899 -0.6486  0.6241
  684MPD2    H710126   0.171   4.607  16.088 -0.7011  0.2018  0.0849
  685TMC3    C110127   0.004   4.438  15.991 -0.6494  0.2641 -0.1622
  685TMC3    C210128   4.656   4.326  16.007 -0.0389  0.2144  0.2696
  685TMC3    C310129   4.702   4.205  15.964 -0.7487  0.4620  0.3095
  685TMC3    C410130   0.129   4.431  15.931 -0.0729  0.4735 -0.5050
  685TMC3    C510131   0.163   4.316  15.871  0.2109  0.1149  0.3856
  685TMC3    C610132   0.089   4.200  15.887 -0.5441  0.1659 -0.2026
  685TMC3     C10133   4.708   4.528  16.103  0.3482 -0.1066 -0.2571
  685TMC3     O10134   4.596   4.522  16.146  0.3208  0.5844 -0.2775
  685TMC3     H10135   4.558   4.335  16.053 -1.3536 -1.2893 -2.2442
  685TMC3    H110136   0.178   4.526  15.912  0.8477  0.2574  0.8164
  685TMC3    H210137   0.120   4.105  15.844 -2.1243 -1.3989  2.0908
  685TMC3    C710138   0.287   4.297  15.801  0.0995  1.1644 -0.3807
  685TMC3    C810139   4.638   4.074  15.981  0.7586 -0.4508  0.4246
  685TMC3    O110140   0.290   4.221  15.710 -0.0245  0.0220 -0.5919
  685TMC3    O210141   4.654   3.984  15.899  0.8714  0.0239 -0.3109
  686MPD2     C10142   1.683   4.399  15.109  0.4528  0.0370  0.3361
  686MPD2    C110143   1.693   4.333  15.226 -0.3969 -0.7516  0.3600
  686MPD2    C210144   1.768   4.220  15.246  0.0826  0.4830 -0.3559
  686MPD2    C310145   1.839   4.173  15.141  0.6869 -0.1553 -0.2535
  686MPD2    C410146   1.843   4.249  15.019 -0.1226  0.0555  0.3704
  686MPD2    C510147   1.763   4.357  15.000  0.2307 -0.1406 -0.1317
  686MPD2     H10148   1.752   4.171  15.341  0.7432 -0.3097 -0.6531
  686MPD2    H110149   1.904   4.217  14.936 -2.8779  0.3460 -1.7924
  686MPD2    H210150   1.615   4.482  15.093  0.6456 -0.3799 -2.6703
  686MPD2    H310151   1.752   4.410  14.906 -0.4061  2.4847  1.4233
  686MPD2     N10152   1.906   4.048  15.147 -0.2089  0.0855  0.2868
  686MPD2    H510153   1.975   4.031  15.074 -1.0377 -3.0509  0.2464
  686MPD2    N110154   1.604   4.375  15.333  0.4985  0.3886 -0.0844
  686MPD2    H710155   1.543   4.450  15.300  1.1928  0.9172 -0.1801
  687TMC3    C110156   1.775   3.931  15.312 -0.4018  0.2589  0.4260
  687TMC3    C210157   1.656   3.926  15.236 -0.4106 -0.4838  0.7125
  687TMC3    C310158   1.540   3.913  15.309  0.2019 -0.7048  0.4915
  687TMC3    C410159   1.773   3.914  15.445  0.0740  0.0837 -0.7672
  687TMC3    C510160   1.655   3.902  15.509  0.9000  0.0437  0.3144
  687TMC3    C610161   1.534   3.896  15.446  0.4802  0.5096 -0.2291
  687TMC3     C10162   1.898   3.952  15.245  0.1250  0.5315 -0.4205
  687TMC3     O10163   1.992   3.885  15.284  0.2182  0.4081 -0.5015
  687TMC3     H10164   1.657   3.938  15.129  1.9921  1.6776  0.9923
  687TMC3    H110165   1.866   3.927  15.500 -1.4748  0.3778  1.7720
  687TMC3    H210166   1.441   3.898  15.500  0.2963  0.4290 -0.5406
  687TMC3    C710167   1.642   3.914  15.655  0.0667  0.2647 -0.9278
  687TMC3    C810168   1.429   3.979  15.253  0.1048 -0.3866 -0.1595
  687TMC3    O110169   1.540   3.966  15.693 -0.3849  0.2915  0.0563
  687TMC3    O210170   1.444   4.022  15.140  0.2256 -0.0532 -0.4999
  688MPD2     C10171   0.532   3.594  17.141  0.1201 -0.2914  1.0733
  688MPD2    C110172   0.586   3.469  17.160 -0.4226 -0.4877 -0.5671
  688MPD2    C210173   0.712   3.450  17.106  0.4237 -0.2567 -0.2796
  688MPD2    C310174   0.783   3.553  17.046 -0.0270  0.3656 -0.0189
  688MPD2    C410175   0.733   3.682  17.047 -0.3766 -0.3852  0.2082
  688MPD2    C510176   0.606   3.702  17.092 -0.0768  0.2201  0.2001
  688MPD2     H10177   0.759   3.352  17.109  0.7651 -0.1032 -0.6359
  688MPD2    H110178   0.788   3.768  17.012 -2.6726  1.2727  0.6527
  688MPD2    H210179   0.431   3.623  17.168  0.0811 -0.5890  1.2385
  688MPD2    H310180   0.557   3.798  17.087  0.2818  0.4942  1.9505
  688MPD2     N10181   0.911   3.542  16.984 -0.3867  0.3514  0.5068
  688MPD2    H510182   0.950   3.624  16.938  2.1896 -1.0420  0.2513
  688MPD2    N110183   0.518   3.358  17.219  0.0963  0.1694  0.4672
  688MPD2    H710184   0.573   3.272  17.224  0.3631  0.3814  1.2750
  689TMC3    C110185   0.374   3.285  17.402  0.8710  0.3683 -0.3491
  689TMC3    C210186   0.328   3.341  17.519  0.1708  0.3508 -0.0759
  689TMC3    C310187   0.309   3.251  17.624 -0.2394  0.1959 -1.2277
  689TMC3    C410188   0.395   3.151  17.378  0.2531 -1.4049 -0.1721
  689TMC3    C510189   0.376   3.071  17.486 -0.0593  0.0341 -0.0121
  689TMC3    C610190   0.332   3.116  17.607 -0.2526  0.5528 -0.4956
  689TMC3     C10191   0.401   3.381  17.295  0.6163  0.1731  0.2888
  689TMC3     O10192   0.326   3.481  17.298  0.2183 -0.1070  0.2217
  689TMC3     H10193   0.324   3.449  17.521  1.4531  0.3738  0.6697
  689TMC3    H110194   0.441   3.115  17.287 -0.3271  1.6587 -1.6336
  689TMC3    H210195   0.322   3.053  17.694 -1.5361 -0.2312 -1.2119
  689TMC3    C710196   0.396   2.928  17.477  0.1382  0.7043  0.8746
  689TMC3    C810197   0.257   3.287   0.050  0.5490  0.0310 -0.0769
  689TMC3    O110198   0.399   2.864  17.584 -0.1583  0.1820  0.6214
  689TMC3    O210199   0.237   3.198   0.131 -0.2373 -0.5166 -0.6227
  690MPD2     C10200   3.226   0.547  15.422 -0.9289 -0.5811  0.4839
  690MPD2    C110201   3.156   0.545  15.302 -0.1803  0.1906 -0.7286
  690MPD2    C210202   3.211   0.603  15.185 -0.3329  0.3773 -0.2661
  690MPD2    C310203   3.340   0.661  15.191 -0.5418 -0.4338 -0.3882
  690MPD2    C410204   3.408   0.644  15.315  0.3444  0.4763  0.0017
  690MPD2    C510205   3.353   0.586  15.422 -0.1632 -0.3432 -0.2681
  690MPD2     H10206   3.156   0.592  15.092 -1.6757 -0.7480  0.6593
  690MPD2    H110207   3.510   0.681  15.314  0.4126  0.2654 -2.4889
  690MPD2    H210208   3.190   0.507  15.516 -2.5751 -0.4967 -0.1078
  690MPD2    H310209   3.413   0.583  15.512  1.2234  1.9710 -1.1121
  690MPD2     N10210   3.395   0.710  15.071 -0.2648 -0.4757  0.6825
  690MPD2    H510211   3.331   0.701  14.993  0.4245  0.0557  0.0593
  690MPD2    N110212   3.037   0.475  15.286 -0.3222 -0.3681 -0.4621
  690MPD2    H710213   2.983   0.499  15.204 -4.4775 -1.5992  1.9532
  691TMC3    C110214   2.848   0.359  15.339  0.5412 -0.1374 -0.2427
  691TMC3    C210215   2.763   0.386  15.445  0.7680 -0.1906  0.4255
  691TMC3    C310216   2.643   0.311  15.446 -0.3120  0.0266 -0.7699
  691TMC3    C410217   2.829   0.241  15.276  0.8941  0.4933  0.1469
  691TMC3    C510218   2.716   0.168  15.279 -0.4419 -1.0683 -0.4406
  691TMC3    C610219   2.612   0.206  15.363  0.0565 -1.0059 -0.1175
  691TMC3     C10220   2.987   0.383  15.372 -0.0332 -0.6275 -0.3045
  691TMC3     O10221   3.035   0.350  15.480 -0.1039  0.2410 -0.1556
  691TMC3     H10222   2.789   0.472  15.505 -1.6978  0.3506  0.7148
  691TMC3    H110223   2.904   0.211  15.203  0.0724  1.2595 -1.0028
  691TMC3    H210224   2.515   0.158  15.364  0.1436 -1.1672  0.4210
  691TMC3    C710225   2.709   0.048  15.202  0.3644  0.0451  1.2437
  691TMC3    C810226   2.575   0.306  15.569  0.2234  0.2188 -0.6135
  691TMC3    O110227   2.791   0.029  15.112  1.0485  0.6601  0.0093
  691TMC3    O210228   2.513   0.201  15.586 -0.3154 -0.0548  0.4890
  692TMC3    C110229   0.063   1.758  16.424  0.1168 -0.5863  0.2570
  692TMC3    C210230   0.150   1.696  16.513  0.0870  0.2916 -0.2660
  692TMC3    C310231   0.244   1.612  16.458  0.3655 -0.7720 -0.8325
  692TMC3    C410232   0.037   1.717  16.295  0.0665 -0.9677 -0.1528
  692TMC3    C510233   0.117   1.611  16.252 -0.5263 -0.5856 -0.4635
  692TMC3    C610234   0.223   1.567  16.331  0.2008  0.7278  0.6682
  692TMC3     C10235   4.710   1.870  16.469  0.3847  0.1971 -0.2775
  692TMC3     O10236   4.650   1.866  16.572 -0.0247  0.4910 -0.0407
  692TMC3     H10237   0.195   1.756  16.591 -0.7997  0.7512 -0.1028
  692TMC3    H110238   4.675   1.746  16.237  2.3039  3.1611 -1.4560
  692TMC3    H210239   0.303   1.516  16.279 -2.5162 -1.4947 -1.3333
  692TMC3    C710240   0.034   1.510  16.191 -0.3629 -0.1136 -0.4150
  692TMC3    C810241   0.266   1.493  16.537  0.2357 -0.0546  0.9145
  692TMC3    O110242   4.653   1.544  16.140 -0.0534 -0.1284 -0.2108
  692TMC3    O210243   0.292   1.398  16.466  0.0769 -0.9503 -0.2049
  693MPD2     C10244   4.155   4.350  10.441 -0.0322  0.8025 -0.4078
  693MPD2    C110245   4.174   4.338  10.578 -0.2666  1.0766 -0.2019
  693MPD2    C210246   4.289   4.393  10.637  0.5859 -0.3913  0.5145
  693MPD2    C310247   4.399   4.439  10.565 -0.3748  0.5874 -0.0849
  693MPD2    C410248   4.377   4.440  10.424  0.0922  0.3733  0.2434
  693MPD2    C510249   4.261   4.399  10.369 -0.0166  0.4869 -0.2894
  693MPD2     H10250   4.294   4.386  10.745  0.7773 -1.6636  0.4228
  693MPD2    H110251   4.453   4.470  10.353  2.5939 -3.7484  1.1486
  693MPD2    H210252   4.072   4.311  10.384  0.6478  0.4971 -1.1908
  693MPD2    H310253   4.240   4.412  10.264  2.5241 -1.7591 -1.0936
  693MPD2     N10254   4.533   4.466  10.609  0.0783  0.1759  0.0415
  693MPD2    H510255   4.599   4.491  10.536  0.8584 -2.1800 -0.0511
  693MPD2    N110256   4.072   4.272  10.646 -0.3405  0.0096  0.2292
  693MPD2    H710257   3.997   4.237  10.588 -2.9472  0.3982  3.3957
  694TMC3    C110258   3.946   4.177  10.829  0.4131  0.0728  0.2765
  694TMC3    C210259   3.839   4.166  10.744  0.0585  0.1087 -0.3714
  694TMC3    C310260   3.744   4.074  10.779 -0.4557  0.6176  0.5654
  694TMC3    C410261   3.949   4.127  10.954 -0.3606  0.5423  0.3248
  694TMC3    C510262   3.851   4.049  10.996  0.5333  0.8426 -0.6180
  694TMC3    C610263   3.747   4.017  10.910  0.1991 -0.0875  0.2041
  694TMC3     C10264   4.061   4.242  10.781 -0.1184  0.3440 -0.5366
  694TMC3     O10265   4.148   4.260  10.863  0.3410  0.0465  0.7543
  694TMC3     H10266   3.843   4.212  10.646  0.6279  2.4469  0.7255
  694TMC3    H110267   4.020   4.171  11.023  0.7658 -0.3162 -0.2683
  694TMC3    H210268   3.678   3.935  10.926  1.7963 -1.3838  0.5648
  694TMC3    C710269   3.824   4.044  11.143  0.3100 -0.9357  0.3156
  694TMC3    C810270   3.625   4.045  10.700  0.5098  0.1054  0.0648
  694TMC3    O110271   3.907   4.102  11.210 -0.0178 -0.2163 -0.7130
  694TMC3    O210272   3.571   3.930  10.708  0.0375  0.4111  0.3047
  695MPD2     C10273   0.216   1.376  13.721  0.0040  0.0943  0.2548
  695MPD2    C110274   0.146   1.320  13.824  0.6311 -0.0339  0.0541
  695MPD2    C210275   0.008   1.316  13.815  0.7252  0.6463  0.2453
  695MPD2    C310276   4.667   1.381  13.709 -0.4478 -0.5223 -0.6963
  695MPD2    C410277   0.018   1.439  13.606 -0.2953 -0.1608  0.0556
  695MPD2    C510278   0.153   1.437  13.619 -0.8086  0.2621  0.8540
  695MPD2     H10279   4.685   1.257  13.892  1.2597 -0.6780 -0.4330
  695MPD2    H110280   4.700   1.489  13.519 -0.3466 -0.4383 -0.0776
  695MPD2    H210281   0.323   1.392  13.721 -0.2492  1.7113  3.1334
  695MPD2    H310282   0.208   1.475  13.533 -0.1189  2.1540  2.1377
  695MPD2     N10283   4.522   1.380  13.707  0.1567  0.1523  0.7301
  695MPD2    H510284   4.474   1.338  13.786  0.6324  0.6739  1.3066
  695MPD2    N110285   0.199   1.280  13.945  0.2103 -0.5787  0.4541
  695MPD2    H710286   0.132   1.249  14.015 -0.8455 -0.8873 -0.6932
  696TMC3    C110287   4.301   1.398  13.634  0.0810  0.4927  0.4751
  696TMC3    C210288   4.266   1.357  13.756  0.6073 -0.4182 -0.8282
  696TMC3    C310289   4.139   1.371  13.800  0.0146  0.0617 -0.1206
  696TMC3    C410290   4.215   1.473  13.563 -0.1470  0.0849 -0.4614
  696TMC3    C510291   4.087   1.492  13.607 -0.2572 -0.2762 -0.3372
  696TMC3    C610292   4.051   1.443  13.730 -1.1327  0.3653  0.5284
  696TMC3     C10293   4.437   1.409  13.602 -0.1868 -0.2988 -0.0448
  696TMC3     O10294   4.466   1.456  13.491  0.0899 -0.3180 -0.0399
  696TMC3     H10295   4.331   1.290  13.811  0.0342 -0.9814 -0.8416
  696TMC3    H110296   4.251   1.537  13.484 -2.7819  1.8558 -0.2326
  696TMC3    H210297   3.957   1.473  13.774 -2.1573 -0.2803 -1.2170
  696TMC3    C710298   4.021   1.603  13.541 -0.4707 -0.0444  0.4553
  696TMC3    C810299   4.141   1.396  13.940  0.4711  0.0036 -0.2241
  696TMC3    O110300   4.030   1.610  13.421 -0.0402 -0.4832 -0.4971
  696TMC3    O210301   4.253   1.428  13.986  0.2701 -0.1162  0.0341
  697MPD2     C10302   3.945   3.404  16.003  0.4162 -0.3833  0.3239
  697MPD2    C110303   4.013   3.354  15.895 -0.7853  0.5302 -0.3834
  697MPD2    C210304   4.036   3.447  15.798  0.0644  0.2189  0.0464
  697MPD2    C310305   4.000   3.575  15.812 -0.4827 -0.2936 -0.0338
  697MPD2    C410306   3.946   3.631  15.927 -0.2509 -0.1602 -0.1108
  697MPD2    C510307   3.917   3.538  16.019  0.4153  0.2701  0.5967
  697MPD2     H10308   4.085   3.415  15.707 -0.1995  0.8102 -0.3027
  697MPD2    H110309   3.940   3.737  15.945  2.1659 -0.0092 -0.2296
  697MPD2    H210310   3.924   3.340  16.087  0.3399 -0.4454  0.2579
  697MPD2    H310311   3.880   3.575  16.113 -0.9593  1.3944 -0.3888
  697MPD2     N10312   4.041   3.665  15.711 -0.0507  0.4156  0.0089
  697MPD2    H510313   4.088   3.624  15.631  0.0935  0.4099  0.0955
  697MPD2    N110314   4.061   3.221  15.884  0.7605 -0.2218 -0.4402
  697MPD2    H710315   4.088   3.196  15.790  0.8211  2.0600 -1.0289
  698TMC3    C110316   4.082   3.874  15.599 -0.0877 -0.2622 -0.1809
  698TMC3    C210317   4.132   4.000  15.628 -0.2552  0.2688 -0.4797
  698TMC3    C310318   4.203   4.059  15.526  0.5550  0.8020 -0.6118
  698TMC3    C410319   4.091   3.820  15.474 -0.0898  0.4674  0.0478
  698TMC3    C510320   4.144   3.900  15.374 -0.1060  0.5590 -0.5024
  698TMC3    C610321   4.203   4.018  15.399 -0.2220 -0.4426  0.6517
  698TMC3     C10322   4.007   3.802  15.698 -0.2190  0.4029  0.1996
  698TMC3     O10323   3.942   3.878  15.775  0.0775  0.2664  0.0513
  698TMC3     H10324   4.120   4.028  15.732  1.6033 -0.3989 -0.0780
  698TMC3    H110325   4.037   3.727  15.458  1.8102 -0.3659 -1.4934
  698TMC3    H210326   4.243   4.073  15.314 -0.1324  1.1486  1.7359
  698TMC3    C710327   4.156   3.837  15.243 -0.8287 -0.0490  0.0023
  698TMC3    C810328   4.286   4.170  15.564 -0.4988  0.0607  0.2416
  698TMC3    O110329   4.095   3.732  15.238  0.0771  0.4589 -0.4268
  698TMC3    O210330   4.279   4.207  15.681 -0.1550  0.0819  0.1535
  699TMC3    C110331   4.315   1.252  13.247  0.2512  1.0260 -0.0291
  699TMC3    C210332   4.372   1.147  13.318 -0.2359 -0.1425 -0.5712
  699TMC3    C310333   4.296   1.088  13.413 -0.8202  0.6106  0.1944
  699TMC3    C410334   4.186   1.283  13.257 -0.6249  0.4876 -0.0266
  699TMC3    C510335   4.111   1.204  13.339 -0.0598 -0.2333  0.1919
  699TMC3    C610336   4.162   1.110  13.419 -0.1184  0.5397  0.8860
  699TMC3     C10337   4.389   1.299  13.135  0.2264  0.2878 -1.3487
  699TMC3     O10338   4.331   1.324  13.031 -0.3440  0.0851  0.2142
  699TMC3     H10339   4.476   1.126  13.295 -0.1774 -0.3910 -0.0880
  699TMC3    H110340   4.151   1.368  13.201  1.9138  1.7100  0.2483
  699TMC3    H210341   4.105   1.056  13.494  0.4832 -1.0605  0.1805
  699TMC3    C710342   3.985   1.253  13.378  0.0967  0.0375 -0.0992
  699TMC3    C810343   4.353   1.051  13.543  0.5491 -0.4729 -0.2883
  699TMC3    O110344   3.964   1.241  13.497 -0.0382 -0.8835 -0.4663
  699TMC3    O210345   4.279   1.002  13.625  0.2375  0.0016 -0.1089
  700TMC3    C110346   3.232   3.544  17.297  0.0551 -0.7170 -0.1024
  700TMC3    C210347   3.276   3.418  17.284 -0.0928  0.2520  0.2949
  700TMC3    C310348   3.380   3.373  17.365  0.5292 -0.7448 -0.4327
  700TMC3    C410349   3.296   3.625  17.383  0.1479  0.4047  0.2661
  700TMC3    C510350   3.390   3.581  17.470  0.3299  0.5995  0.3365
  700TMC3    C610351   3.440   3.461  17.457 -0.1834  0.7242  0.1000
  700TMC3     C10352   3.158   3.590  17.186  0.8537 -0.4918  1.1856
  700TMC3     O10353   3.109   3.507  17.106  0.0501 -0.3765 -0.7121
  700TMC3     H10354   3.236   3.347  17.213 -0.6143  2.1642 -1.3209
  700TMC3    H110355   3.248   3.720  17.402 -0.1465  0.4987 -0.9750
  700TMC3    H210356   3.513   3.428  17.530 -2.1014 -0.6153  1.4285
  700TMC3    C710357   3.431   3.674  17.580  0.3654 -0.3030 -0.5605
  700TMC3    C810358   3.474   3.275  17.308  0.3987  0.0722 -0.2178
  700TMC3    O110359   3.352   3.762  17.615 -0.1736 -0.1750 -0.5553
  700TMC3    O210360   3.589   3.312  17.303  0.2762 -0.2388  0.2821
  701TMC3    C110361   3.687   2.375  15.853  0.2077 -0.7088  0.1444
  701TMC3    C210362   3.672   2.387  15.716  0.0987 -0.0356  0.2945
  701TMC3    C310363   3.774   2.454  15.652  0.4598 -0.3476 -0.3046
  701TMC3    C410364   3.774   2.455  15.923 -0.4771 -0.4877 -0.4398
  701TMC3    C510365   3.852   2.541  15.852 -0.6528 -0.2068  0.3879
  701TMC3    C610366   3.866   2.528  15.717  0.2805 -0.3960  0.1449
  701TMC3     C10367   3.586   2.299  15.926 -0.2118 -0.4178 -0.2988
  701TMC3     O10368   3.483   2.264  15.871  0.4986  0.4576 -0.2604
  701TMC3     H10369   3.590   2.331  15.673  0.1382  1.0647 -1.1892
  701TMC3    H110370   3.771   2.468  16.031  0.8812 -1.9354 -0.2335
  701TMC3    H210371   3.944   2.571  15.656  0.1047 -0.8753 -0.4193
  701TMC3    C710372   3.816   2.679  15.876  0.2798  0.1282 -0.0668
  701TMC3    C810373   3.759   2.473  15.508  0.8371 -0.1154 -0.1115
  701TMC3    O110374   3.873   2.759  15.803 -0.0660  0.1072 -0.4397
  701TMC3    O210375   3.855   2.486  15.434 -0.5394 -0.2189  0.3955
  702MPD2     C10376   3.265   4.614  10.912  0.9385  0.9018 -0.0493
  702MPD2    C110377   3.210   0.010  10.952  0.6467 -0.1756 -0.0599
  702MPD2    C210378   3.236   0.123  10.878 -0.4411  0.1616  0.5065
  702MPD2    C310379   3.341   0.124  10.786 -0.0112 -0.5316  0.0614
  702MPD2    C410380   3.393   0.006  10.749 -0.9621 -0.4507  0.8819
  702MPD2    C510381   3.342   4.613  10.800  0.8396  1.1366  0.3397
  702MPD2     H10382   3.187   0.214  10.909  1.2408  1.0190  0.6111
  702MPD2    H110383   3.454   4.723  10.659 -0.8615 -1.0337  1.0043
  702MPD2    H210384   3.237   4.523  10.964  0.1284  0.8119 -0.6559
  702MPD2    H310385   3.368   4.518  10.755 -0.0429  0.9949  0.1259
  702MPD2     N10386   3.394   0.247  10.742 -0.7106 -0.7785 -0.2731
  702MPD2    H510387   3.344   0.332  10.766 -0.6654 -1.8847  3.6913
  702MPD2    N110388   3.112   0.024  11.057  0.4929 -0.4124  0.5885
  702MPD2    H710389   3.057   0.109  11.063  1.7995  0.3773  1.6055
  703TMC3    C110390   3.536   0.403  10.637  0.1595 -1.0046 -0.2113
  703TMC3    C210391   3.425   0.480  10.598 -0.1271  0.3039  0.7134
  703TMC3    C310392   3.453   0.612  10.568  1.3234 -1.1123 -0.0837
  703TMC3    C410393   3.666   0.448  10.627 -0.3737  0.1116  0.6231
  703TMC3    C510394   3.689   0.576  10.582 -0.1000  0.1882 -0.5084
  703TMC3    C610395   3.582   0.659  10.545  0.1122 -0.9483  0.2373
  703TMC3     C10396   3.520   0.260  10.677  0.1211  0.8842 -0.7263
  703TMC3     O10397   3.614   0.186  10.673 -0.0107 -0.2241 -0.3150
  703TMC3     H10398   3.325   0.439  10.606  0.5546 -1.3562  0.7285
  703TMC3    H110399   3.752   0.385  10.647  0.3011  1.5873  2.3592
  703TMC3    H210400   3.601   0.759  10.508 -1.6818 -1.5059 -2.1692
  703TMC3    C710401   3.822   0.636  10.556  0.2442  0.1234 -0.6463
  703TMC3    C810402   3.347   0.703  10.535 -0.4727 -0.2320  0.5032
  703TMC3    O110403   3.826   0.748  10.509  0.3000  0.3629 -0.0110
  703TMC3    O210404   3.381   0.813  10.494  0.0053 -0.1577  0.2549
  704TMC3    C110405   0.742   3.331  12.071  0.3387  0.2855 -0.3850
  704TMC3    C210406   0.878   3.309  12.089  0.1812  0.2966 -0.2763
  704TMC3    C310407   0.912   3.215  12.180 -0.0334 -0.3428  0.6712
  704TMC3    C410408   0.646   3.273  12.152  0.8870  0.5834  0.2783
  704TMC3    C510409   0.692   3.184  12.244 -0.5429  0.2540 -0.0823
  704TMC3    C610410   0.822   3.148  12.260 -0.3105  0.4344  0.1056
  704TMC3     C10411   0.705   3.427  11.973 -0.4738 -0.3594  0.2874
  704TMC3     O10412   0.606   3.497  11.989  0.4552 -0.0029 -0.1430
  704TMC3     H10413   0.955   3.372  12.048  0.4240  0.1937  0.0229
  704TMC3    H110414   0.541   3.294  12.137  0.7040  1.1539  2.4203
  704TMC3    H210415   0.838   3.066  12.330 -1.3329  0.0315 -0.1350
  704TMC3    C710416   0.596   3.094  12.302  0.9177  0.1563  0.3862
  704TMC3    C810417   1.039   3.151  12.158  0.4255 -0.3279  0.0805
  704TMC3    O110418   0.491   3.131  12.349 -0.3214 -0.0049  0.2256
  704TMC3    O210419   1.103   3.179  12.054  0.1337  0.5421  0.4987
  705MPD2     C10420   0.948   1.126  16.578  0.0392  0.1829 -0.2161
  705MPD2    C110421   0.851   1.207  16.530 -0.0300 -0.7035  0.6523
  705MPD2    C210422   0.747   1.236  16.613  0.0139  0.4302 -0.9640
  705MPD2    C310423   0.750   1.190  16.743 -0.3291 -0.6548  0.3319
  705MPD2    C410424   0.851   1.114  16.788  0.0300 -0.2348 -0.3681
  705MPD2    C510425   0.948   1.077  16.703 -0.5555 -0.1516 -0.0969
  705MPD2     H10426   0.675   1.308  16.576  1.7116  2.3017 -0.6391
  705MPD2    H110427   0.849   1.089  16.893  2.5542 -0.1062 -0.2971
  705MPD2    H210428   1.035   1.099  16.519  0.5258 -0.7984  0.9760
  705MPD2    H310429   1.039   1.027  16.735 -0.4877  0.3230  0.4575
  705MPD2     N10430   0.660   1.230  16.841 -0.0311  0.0287 -0.4243
  705MPD2    H510431   0.675   1.201  16.937  0.8589 -0.4679 -0.7130
  705MPD2    N110432   0.857   1.267  16.403  0.5705  0.1259 -0.2876
  705MPD2    H710433   0.770   1.311  16.376  2.0328  4.7346  2.5116
  706TMC3    C110434   0.906   1.281  15.949 -0.3677 -0.8340 -0.4559
  706TMC3    C210435   0.837   1.404  15.945 -0.1509 -0.4569  0.2696
  706TMC3    C310436   0.798   1.458  16.063  0.2007 -0.0487  0.6305
  706TMC3    C410437   0.946   1.229  16.070 -0.6221 -0.5461  0.1918
  706TMC3    C510438   0.914   1.301  16.183 -0.1013 -0.3559 -0.2363
  706TMC3    C610439   0.838   1.409  16.183  0.3580  0.0997 -0.2659
  706TMC3     C10440   0.977   1.233  15.828 -0.2297  0.0620  0.2622
  706TMC3     O10441   1.066   1.146  15.850 -0.2917 -0.3282  0.3682
  706TMC3     H10442   0.808   1.472  15.866 -0.6757  0.4540  1.2360
  706TMC3    H110443   1.006   1.139  16.081  0.1612 -0.0598 -0.1976
  706TMC3    H210444   0.821   1.476  16.267  2.0278  2.0742 -1.4819
  706TMC3    C710445   0.949   1.234  16.305 -0.9899  0.1303 -0.3676
  706TMC3    C810446   0.751   1.595  16.056 -0.2679 -0.3532 -0.8743
  706TMC3    O110447   1.046   1.160  16.303 -0.5963 -0.2748  0.0890
  706TMC3    O210448   0.664   1.630  15.979 -0.3097  0.0222  0.8062
  707TMC3    C110449   1.322   3.271   1.552 -0.4459 -0.1310 -0.3576
  707TMC3    C210450   1.435   3.272   1.627  0.5908  0.1365 -0.3763
  707TMC3    C310451   1.459   3.171   1.712 -0.2025 -0.4407  0.2570
  707TMC3    C410452   1.230   3.175   1.558  0.7014  0.1062 -0.3242
  707TMC3    C510453   1.248   3.080   1.651 -0.0900 -0.3819  0.0140
  707TMC3    C610454   1.364   3.074   1.728  0.3797  0.2202  0.1886
  707TMC3     C10455   1.317   3.362   1.439 -0.1732 -0.3144  0.0190
  707TMC3     O10456   1.343   3.482   1.456 -0.2231  0.2936  0.4525
  707TMC3     H10457   1.502   3.355   1.606  1.0883 -0.2520 -0.3254
  707TMC3    H110458   1.137   3.178   1.502 -1.2081  0.0236  2.8234
  707TMC3    H210459   1.368   2.996   1.803  1.5649 -0.6006 -0.7291
  707TMC3    C710460   1.147   2.985   1.689 -0.1537  0.1173 -0.1459
  707TMC3    C810461   1.596   3.123   1.747 -0.0667 -0.0966 -0.2301
  707TMC3    O110462   1.131   2.967   1.808 -0.0094  0.2892 -0.1777
  707TMC3    O210463   1.611   3.018   1.804 -0.1427  0.0003  0.6364
  708MPD2     C10464   3.866   4.206  13.684  0.2709 -0.2484 -0.2163
  708MPD2    C110465   3.787   4.309  13.647  0.3010  0.1193  0.1880
  708MPD2    C210466   3.668   4.336  13.716 -0.3107  0.3387 -0.0416
  708MPD2    C310467   3.625   4.236  13.806  0.3464  0.4942 -0.6844
  708MPD2    C410468   3.706   4.135  13.853  0.5690  0.0013  0.5515
  708MPD2    C510469   3.823   4.123  13.785 -0.3879 -0.7183  0.1433
  708MPD2     H10470   3.604   4.421  13.697 -0.9032  0.2606  1.7035
  708MPD2    H110471   3.670   4.071  13.932 -1.8952  0.8337  0.1068
  708MPD2    H210472   3.964   4.200  13.638 -0.9539 -1.7957 -2.6252
  708MPD2    H310473   3.888   4.042  13.816 -1.4180 -1.6920 -0.2546
  708MPD2     N10474   3.498   4.249  13.864  0.3154 -0.4686 -0.3339
  708MPD2    H510475   3.472   4.184  13.938 -0.1411 -1.6343 -1.5264
  708MPD2    N110476   3.850   4.397  13.555 -0.0932 -0.2496  0.1184
  708MPD2    H710477   3.943   4.368  13.526  0.8277  1.2403  1.5375
  709TMC3    C110478   3.670   4.547  13.489 -0.8121  0.8924  0.5291
  709TMC3    C210479   3.576   4.515  13.396  0.5633 -0.3445 -0.5325
  709TMC3    C310480   3.472   4.596  13.371 -0.7590  0.3618  0.4948
  709TMC3    C410481   3.655   4.652  13.575  0.1514 -0.6396  0.1168
  709TMC3    C510482   3.545   0.009  13.554 -0.4969 -0.3952 -0.6220
  709TMC3    C610483   3.459   4.715  13.442  0.5209  0.1503 -0.9784
  709TMC3     C10484   3.808   4.495  13.471 -0.0153  0.0875  0.1436
  709TMC3     O10485   3.879   4.543  13.386  0.2527  0.6847  0.4866
  709TMC3     H10486   3.603   4.433  13.330  1.7804  0.6493 -1.2557
  709TMC3    H110487   3.732   4.674  13.648  1.2465  0.4774 -1.3711
  709TMC3    H210488   3.396   0.069  13.407 -1.1822 -0.8450 -0.1716
  709TMC3    C710489   3.561   0.143  13.594  0.3955 -0.0241 -0.3821
  709TMC3    C810490   3.378   4.577  13.269  0.4379 -0.5594  0.2833
  709TMC3    O110491   3.675   0.186  13.573 -0.0469 -0.2483  0.3445
  709TMC3    O210492   3.315   4.671  13.228 -0.3040  0.0167 -0.0379
  710TMC3    C110493   0.471   1.315   0.573  0.2331  0.8218  0.3339
  710TMC3    C210494   0.371   1.233   0.533  0.1175 -0.0273 -0.5226
  710TMC3    C310495   0.390   1.095   0.512 -0.0569  0.6487 -0.7116
  710TMC3    C410496   0.596   1.273   0.603 -0.1689 -0.6111  0.4112
  710TMC3    C510497   0.626   1.140   0.578  0.9706  0.5143 -0.1339
  710TMC3    C610498   0.525   1.051   0.535 -0.4269  0.4089  0.3298
  710TMC3     C10499   0.436   1.455   0.590 -0.3201 -0.3212  0.2984
  710TMC3     O10500   0.519   1.542   0.569 -0.1743 -0.4436 -0.6333
  710TMC3     H10501   0.283   1.285   0.495 -0.2481 -1.2137 -1.3037
  710TMC3    H110502   0.669   1.345   0.638 -0.5137  1.3812 -3.0513
  710TMC3    H210503   0.553   0.952   0.498 -2.1216  0.5198 -1.2211
  710TMC3    C710504   0.744   1.085   0.628  0.1079 -0.3433  0.2214
  710TMC3    C810505   0.296   1.039   0.421 -0.5369 -0.1822  0.0899
  710TMC3    O110506   0.831   1.165   0.651 -0.5153  0.3238 -0.0056
  710TMC3    O210507   0.195   1.101   0.383  0.3228  0.1950 -1.0655
  711TMC3    C110508   3.977   2.194  15.512  0.1035 -0.2487 -0.0516
  711TMC3    C210509   3.980   2.164  15.645 -0.2681 -0.8686  0.0406
  711TMC3    C310510   4.071   2.224  15.719 -0.2777  0.3751  0.2675
  711TMC3    C410511   4.069   2.278  15.456  0.3835  0.2761 -0.7311
  711TMC3    C510512   4.160   2.346  15.531  0.1665 -0.2879  0.4151
  711TMC3    C610513   4.151   2.324  15.672  0.0281  0.0886 -0.7068
  711TMC3     C10514   3.879   2.140  15.418 -0.5244 -0.5816  0.3467
  711TMC3     O10515   3.910   2.128  15.296 -0.4056 -0.4794 -0.4607
  711TMC3     H10516   3.927   2.075  15.676  0.4271 -1.4302 -0.3879
  711TMC3    H110517   4.074   2.281  15.348  0.6995 -0.5533 -0.7411
  711TMC3    H210518   4.221   2.375  15.737 -0.9076  2.2011 -1.3866
  711TMC3    C710519   4.295   2.378  15.476  0.1022  0.8581  0.0744
  711TMC3    C810520   4.123   2.141  15.825  0.2418 -0.3555 -0.0903
  711TMC3    O110521   4.373   2.410  15.566 -0.0399  0.3068 -0.1182
  711TMC3    O210522   4.070   2.034  15.841  0.1422  0.1618  0.6553
  712MPD2     C10523   1.030   2.919  13.490 -1.1051 -0.1965 -0.1433
  712MPD2    C110524   0.906   2.945  13.548 -0.5131  0.2094 -0.0152
  712MPD2    C210525   0.894   3.026  13.651  0.1728 -0.2327 -0.4052
  712MPD2    C310526   1.010   3.085  13.706 -0.4249  0.7402  0.5181
  712MPD2    C410527   1.135   3.059  13.647 -0.3012  0.5452 -0.0908
  712MPD2    C510528   1.145   2.973  13.544  0.0713  0.0212  0.0167
  712MPD2     H10529   0.797   3.058  13.686  0.3114 -1.5351  1.1356
  712MPD2    H110530   1.222   3.111  13.687 -0.8108  0.7146  0.7916
  712MPD2    H210531   1.045   2.860  13.401 -1.6443 -1.0877  0.3525
  712MPD2    H310532   1.239   2.948  13.497 -1.3391  0.4367 -3.0013
  712MPD2     N10533   1.009   3.187  13.809 -0.7787  0.7213 -0.4696
  712MPD2    H510534   1.104   3.218  13.830 -1.5063  1.2971  1.8957
  712MPD2    N110535   0.782   2.882  13.511 -0.3310  0.3410 -0.5860
  712MPD2    H710536   0.692   2.911  13.548  0.5903  2.0623  0.3042
  713TMC3    C110537   0.927   3.342  13.979 -0.1810  0.6917 -0.2512
  713TMC3    C210538   1.058   3.378  14.001  0.0150  0.4924 -0.5622
  713TMC3    C310539   1.081   3.448  14.114  0.2449  0.2276 -0.1864
  713TMC3    C410540   0.823   3.386  14.058 -0.1338  0.2870  0.1449
  713TMC3    C510541   0.851   3.483  14.152  0.6366  0.5837 -0.2370
  713TMC3    C610542   0.981   3.496  14.195 -0.0302 -0.0880  0.0946
  713TMC3     C10543   0.902   3.234  13.880  0.1694  0.4109 -0.1466
  713TMC3     O10544   0.784   3.206  13.870  0.4851 -0.2323  0.2396
  713TMC3     H10545   1.144   3.333  13.952  1.7893  1.8442  1.3055
  713TMC3    H110546   0.723   3.354  14.030  0.2652 -2.4534  1.9126
  713TMC3    H210547   1.006   3.559  14.280 -1.6057 -2.4754  2.3340
  713TMC3    C710548   0.743   3.557  14.211  0.7713 -0.3606  0.3270
  713TMC3    C810549   1.213   3.509  14.135  0.0032 -0.4390 -0.4706
  713TMC3    O110550   0.778   3.613  14.310  1.0863 -0.2659 -0.3349
  713TMC3    O210551   1.240   3.540  14.249  0.7489  0.1496  0.3001
  714MPD2     C10552   2.680   1.944   1.078  0.1775  1.1656  0.3078
  714MPD2    C110553   2.716   1.826   1.018  0.4461  0.0000 -0.8722
  714MPD2    C210554   2.614   1.739   0.976  0.2159 -0.5611 -0.0157
  714MPD2    C310555   2.480   1.775   0.980 -0.8893 -0.6115 -0.2459
  714MPD2    C410556   2.450   1.896   1.041 -0.2132  0.8973 -0.2096
  714MPD2    C510557   2.550   1.973   1.088  0.8521 -0.4058 -0.3326
  714MPD2     H10558   2.623   1.645   0.924  1.1736  0.2175 -1.2496
  714MPD2    H110559   2.347   1.930   1.051  0.3486  2.5251 -0.0790
  714MPD2    H210560   2.756   2.018   1.101  2.9631 -1.4771 -0.3044
  714MPD2    H310561   2.519   2.074   1.113 -0.1341 -0.4972 -1.1831
  714MPD2     N10562   2.396   1.688   0.917  0.2838 -0.3203  0.5710
  714MPD2    H510563   2.439   1.606   0.875 -0.5019 -0.1942 -0.4846
  714MPD2    N110564   2.848   1.802   1.015 -0.0133 -0.7058 -0.5974
  714MPD2    H710565   2.913   1.877   1.036 -0.4922 -1.0635  2.1543
  715TMC3    C110566   3.056   1.698   1.002  0.4055 -0.1419 -0.1788
  715TMC3    C210567   3.136   1.630   0.917  0.1698  0.4718  0.0165
  715TMC3    C310568   3.267   1.605   0.964  0.9903  0.4635  0.0091
  715TMC3    C410569   3.092   1.736   1.134  0.1109 -0.0385 -0.0115
  715TMC3    C510570   3.213   1.681   1.177 -0.3050  0.1257 -0.7231
  715TMC3    C610571   3.305   1.623   1.093 -0.1283  0.4461  0.3688
  715TMC3     C10572   2.912   1.688   0.980  0.4918  0.2273  0.4284
  715TMC3     O10573   2.864   1.580   0.948 -0.2859  1.1200  0.4306
  715TMC3     H10574   3.116   1.623   0.811  2.2993 -2.8063 -0.1454
  715TMC3    H110575   3.023   1.798   1.190 -0.1553  0.6873 -1.1380
  715TMC3    H210576   3.391   1.578   1.141  0.6722 -1.4244 -2.9012
  715TMC3    C710577   3.249   1.686   1.322 -1.1570  0.0410 -0.3325
  715TMC3    C810578   3.364   1.549   0.870 -0.1863 -0.8524 -0.0209
  715TMC3    O110579   3.364   1.654   1.354 -0.3593  0.1226 -0.1892
  715TMC3    O210580   3.310   1.477   0.788  0.3212 -0.5434 -0.1554
  716MPD2     C10581   3.308   0.328   9.968  0.6110  0.1092  0.0639
  716MPD2    C110582   3.181   0.314   9.928  0.9536  0.1553  0.3392
  716MPD2    C210583   3.159   0.196   9.856 -0.3138  0.3271  0.7462
  716MPD2    C310584   3.253   0.095   9.845 -0.0623  0.6213 -0.1777
  716MPD2    C410585   3.379   0.114   9.893  0.5513 -0.4856  1.4070
  716MPD2    C510586   3.400   0.233   9.953  0.0741 -0.0232 -0.2045
  716MPD2     H10587   3.066   0.185   9.801  0.1814  2.1402 -0.4433
  716MPD2    H110588   3.463   0.047   9.885  2.4624  1.9676  0.8662
  716MPD2    H210589   3.336   0.422  10.012  0.4885  0.5921 -0.8804
  716MPD2    H310590   3.502   0.259   9.980  0.0478  0.5619 -0.6600
  716MPD2     N10591   3.221   4.708   9.767 -0.2859 -0.3422 -0.1679
  716MPD2    H510592   3.122   4.709   9.741  0.2271  1.1696 -2.0875
  716MPD2    N110593   3.084   0.417   9.933 -0.0185  0.7141  0.0916
  716MPD2    H710594   3.109   0.509   9.969  1.2972  0.6318 -0.6345
  717TMC3    C110595   3.227   4.507   9.647  0.2163 -0.4853 -0.4277
  717TMC3    C210596   3.134   4.562   9.555  0.1883 -0.0211 -0.2876
  717TMC3    C310597   3.108   4.496   9.444  0.1188 -0.0778  0.1622
  717TMC3    C410598   3.301   4.392   9.619  0.2761 -0.2109 -0.7221
  717TMC3    C510599   3.247   4.321   9.516 -0.5521  0.4789 -0.3455
  717TMC3    C610600   3.153   4.369   9.429  0.0366 -0.4386  1.1085
  717TMC3     C10601   3.299   4.596   9.737  0.0939  0.1452  0.3308
  717TMC3     O10602   3.405   4.561   9.791  0.4652 -0.5522 -0.6214
  717TMC3     H10603   3.108   4.667   9.563  1.0277  0.3481 -2.3845
  717TMC3    H110604   3.372   4.348   9.688 -0.4245  0.8313  0.6646
  717TMC3    H210605   3.124   4.310   9.343  1.8719 -0.2314  0.3469
  717TMC3    C710606   3.312   4.188   9.484 -0.1105  0.2923 -0.4267
  717TMC3    C810607   3.000   4.553   9.360 -0.1868 -0.1479  0.3032
  717TMC3    O110608   3.249   4.110   9.412 -0.0610  0.2120 -0.1214
  717TMC3    O210609   2.980   4.673   9.375 -0.3845 -0.3436  0.1611
  718MPD2     C10610   2.378   4.072  12.813 -0.2343  0.1853 -0.0403
  718MPD2    C110611   2.318   4.052  12.690 -0.1244  0.1347 -0.0194
  718MPD2    C210612   2.296   3.923  12.644 -0.2659 -0.2153 -0.1035
  718MPD2    C310613   2.314   3.813  12.729  0.2223 -0.1968  0.4733
  718MPD2    C410614   2.368   3.838  12.851 -0.0403  0.5775 -0.2200
  718MPD2    C510615   2.401   3.966  12.889 -0.1789  0.0813 -0.7587
  718MPD2     H10616   2.250   3.901  12.548  2.3533 -1.2352 -1.1269
  718MPD2    H110617   2.383   3.760  12.925  0.5283  0.8821 -0.0172
  718MPD2    H210618   2.397   4.174  12.845  0.7887 -0.2580  0.7730
  718MPD2    H310619   2.432   3.980  12.992 -0.1199  2.2647 -1.0846
  718MPD2     N10620   2.274   3.692  12.676  0.4751 -0.0480 -0.4100
  718MPD2    H510621   2.237   3.689  12.582 -0.6204  0.7737 -0.0003
  718MPD2    N110622   2.282   4.172  12.614 -0.1960  0.8038  0.0734
  718MPD2    H710623   2.300   4.267  12.645 -0.2191  0.9369 -0.3173
  719TMC3    C110624   2.200   4.273  12.434 -0.6907  0.1961  0.4947
  719TMC3    C210625   2.157   4.233  12.309  0.5800 -0.2554 -0.2680
  719TMC3    C310626   2.249   4.206  12.213  0.3000 -0.5295 -0.2411
  719TMC3    C410627   2.324   4.322  12.450  0.1709  0.2010  0.6986
  719TMC3    C510628   2.420   4.296  12.356  1.0108  0.5907 -0.8361
  719TMC3    C610629   2.377   4.239  12.241 -0.5970 -0.4270 -0.8308
  719TMC3     C10630   2.184   4.166  12.518  0.2195 -0.0524  0.3570
  719TMC3     O10631   2.108   4.074  12.485  0.2882  0.2580 -0.7673
  719TMC3     H10632   2.055   4.197  12.296  0.1487 -0.1303  2.6702
  719TMC3    H110633   2.345   4.388  12.533  0.1353  0.2960  0.6323
  719TMC3    H210634   2.454   4.212  12.171  1.0662  3.5008 -0.5564
  719TMC3    C710635   2.559   4.248  12.387 -0.1534 -0.1142 -0.0882
  719TMC3    C810636   2.241   4.069  12.177  0.7831 -0.0086  0.2757
  719TMC3    O110637   2.622   4.194  12.297 -0.1880  0.0677 -0.0462
  719TMC3    O210638   2.341   4.000  12.163  1.1223 -0.0856  0.6459
  720MPD2     C10639   1.003   0.319  14.073 -0.1391  0.3754  0.0090
  720MPD2    C110640   1.100   0.373  13.996  0.1761  0.7471 -0.5976
  720MPD2    C210641   1.232   0.337  14.009 -0.5730  0.7296  0.8726
  720MPD2    C310642   1.273   0.242  14.099 -0.6301 -0.0619 -1.0321
  720MPD2    C410643   1.171   0.181  14.169 -0.3442  0.1792 -0.6398
  720MPD2    C510644   1.042   0.220  14.158  0.5300  0.2473  0.3234
  720MPD2     H10645   1.308   0.380  13.944 -2.0717  1.3147 -0.4823
  720MPD2    H110646   1.194   0.098  14.235 -0.7290 -0.6492 -1.5444
  720MPD2    H210647   0.898   0.345  14.065 -0.4858 -0.5767  1.4567
  720MPD2    H310648   0.979   0.164  14.227 -0.0622 -0.3904 -0.7219
  720MPD2     N10649   1.408   0.207  14.108  0.2399  0.1930  0.2384
  720MPD2    H510650   1.472   0.252  14.044  0.7110 -0.7537  0.0345
  720MPD2    N110651   1.073   0.469  13.899  0.2134 -0.3510  0.1298
  720MPD2    H710652   1.152   0.471  13.835  0.9898 -0.3154  1.0922
  721TMC3    C110653   1.606   0.142  14.203 -0.2394 -0.1413 -0.2895
  721TMC3    C210654   1.653   0.122  14.328 -0.1062 -0.0066  0.4024
  721TMC3    C310655   1.779   0.159  14.349 -0.2039 -0.1749  0.4744
  721TMC3    C410656   1.685   0.201  14.098  0.6083  0.0101 -0.4533
  721TMC3    C510657   1.815   0.233  14.128 -0.3835  0.3812 -0.7850
  721TMC3    C610658   1.860   0.199  14.249  0.5854  0.2775 -0.6341
  721TMC3     C10659   1.470   0.106  14.185  0.0660 -0.2636 -0.0024
  721TMC3     O10660   1.414   0.029  14.269 -0.3813  0.3410 -0.3294
  721TMC3     H10661   1.576   0.091  14.396  0.3321 -1.7401  0.1088
  721TMC3    H110662   1.637   0.238  14.008  0.4477  1.1523  0.1000
  721TMC3    H210663   1.967   0.205  14.260  0.3769  1.9263  0.4341
  721TMC3    C710664   1.898   0.285  14.026  0.2663  0.0433 -0.1616
  721TMC3    C810665   1.836   0.136  14.481 -0.4782  0.2603 -0.1676
  721TMC3    O110666   1.993   0.348  14.059 -0.1277  0.0580 -0.2172
  721TMC3    O210667   1.956   0.111  14.491  0.4826  0.5305 -0.1070
  722MPD2     C10668   4.340   3.987  13.702 -0.0281  0.2860 -0.3485
  722MPD2    C110669   4.412   3.955  13.585 -0.3588 -0.9534 -0.1537
  722MPD2    C210670   4.344   3.918  13.465  0.5560  0.4834 -0.3048
  722MPD2    C310671   4.208   3.928  13.460  0.8267  0.4670  0.4621
  722MPD2    C410672   4.140   3.970  13.574  0.0037  0.0868 -0.3336
  722MPD2    C510673   4.207   4.011  13.692  0.0720 -0.3692  0.2148
  722MPD2     H10674   4.401   3.900  13.374  0.2108  0.4729 -0.5190
  722MPD2    H110675   4.033   3.984  13.565  0.1553  2.2842  1.2265
  722MPD2    H210676   4.380   4.015  13.799  0.0737 -0.7403 -0.0994
  722MPD2    H310677   4.154   4.049  13.779  0.3285  0.8832 -0.1868
  722MPD2     N10678   4.140   3.897  13.336  0.0140  0.2170  0.0255
  722MPD2    H510679   4.197   3.865  13.259  2.3292 -0.7139  2.1556
  722MPD2    N110680   4.556   3.955  13.584 -0.4118  0.8568 -0.4693
  722MPD2    H710681   4.605   3.944  13.496 -1.2716 -1.7265 -0.6104
  723TMC3    C110682   3.986   3.920  13.157  0.1004  0.1435 -0.5447
  723TMC3    C210683   3.991   3.791  13.105 -0.0700 -0.2558 -0.7242
  723TMC3    C310684   3.922   3.757  12.996  0.3633  0.0446 -0.1943
  723TMC3    C410685   3.914   4.016  13.094  0.5232 -0.4011  0.6782
  723TMC3    C510686   3.837   3.981  12.984 -0.3631  0.0471  0.1068
  723TMC3    C610687   3.836   3.849  12.932 -1.1820 -0.5069  0.0350
  723TMC3     C10688   4.016   3.940  13.298  0.0942  0.1551  0.7258
  723TMC3     O10689   3.929   4.004  13.356  0.3843  0.1079 -0.8556
  723TMC3     H10690   4.031   3.714  13.171 -3.4632 -1.1112  0.3513
  723TMC3    H110691   3.927   4.116  13.134 -2.8166  1.7389 -3.7305
  723TMC3    H210692   3.769   3.819  12.853 -1.8349  0.5348  0.1926
  723TMC3    C710693   3.747   4.085  12.932 -0.4620 -0.0883  0.1971
  723TMC3    C810694   3.894   3.615  12.977  0.8440 -0.3813 -0.1575
  723TMC3    O110695   3.641   4.048  12.880  0.0971  0.8277 -0.0577
  723TMC3    O210696   3.863   3.577  12.862 -0.4395 -0.4400 -0.3351
  724TMC3    C110697   4.377   2.881   9.589  1.0494  0.6427  1.1610
  724TMC3    C210698   4.395   2.946   9.472 -0.0093  0.4707 -1.1488
  724TMC3    C310699   4.522   2.987   9.445  0.1272  0.0398 -0.1632
  724TMC3    C410700   4.474   2.835   9.669  0.8761  0.2011  0.2552
  724TMC3    C510701   4.606   2.861   9.630  0.9187  0.7471  0.0354
  724TMC3    C610702   4.629   2.941   9.520 -0.3171  0.0856  0.2458
  724TMC3     C10703   4.241   2.876   9.641 -0.0497  0.1111 -0.3228
  724TMC3     O10704   4.149   2.879   9.560  0.1362 -0.9330 -0.1315
  724TMC3     H10705   4.312   2.996   9.423  0.9903  0.9424 -2.3701
  724TMC3    H110706   4.444   2.762   9.743 -0.0912 -0.3885 -0.7165
  724TMC3    H210707   0.004   2.977   9.503  0.8433 -3.0849  0.4858
  724TMC3    C710708   4.708   2.865   9.726  0.0681 -1.0169 -0.3120
  724TMC3    C810709   4.518   3.099   9.351 -0.4128 -0.7625 -0.5779
  724TMC3    O110710   0.068   2.951   9.718  0.3932 -0.0386  0.8248
  724TMC3    O210711   4.416   3.141   9.296  0.5347 -0.2825 -0.1542
  725TMC3    C110712   1.540   0.710  13.133 -0.5631  1.3773  0.0644
  725TMC3    C210713   1.423   0.746  13.074  0.2690 -0.9419  0.4277
  725TMC3    C310714   1.399   0.698  12.946 -0.2237 -0.6136  0.3519
  725TMC3    C410715   1.635   0.635  13.069 -0.0789 -0.1021  0.3043
  725TMC3    C510716   1.605   0.601  12.939  0.5522 -0.3730 -0.5171
  725TMC3    C610717   1.490   0.631  12.871  0.1766  0.5820 -0.3689
  725TMC3     C10718   1.566   0.770  13.264  0.5762  0.5424 -0.2658
  725TMC3     O10719   1.507   0.871  13.289 -0.2170  0.3531 -0.3453
  725TMC3     H10720   1.344   0.801  13.123  0.6316 -0.9524  1.0222
  725TMC3    H110721   1.736   0.617  13.106 -1.0187 -0.3962  2.7680
  725TMC3    H210722   1.466   0.577  12.780 -1.9855  1.2541 -0.1835
  725TMC3    C710723   1.706   0.524  12.869  0.4283 -0.0055  0.2722
  725TMC3    C810724   1.275   0.755  12.881  0.1312 -0.3745  0.0281
  725TMC3    O110725   1.668   0.438  12.789  0.1937  0.7021 -0.2404
  725TMC3    O210726   1.176   0.761  12.951 -0.1620 -0.7467 -0.4711
  726MPD2     C10727   4.077   2.169  10.611 -0.1672 -0.2693  0.8486
  726MPD2    C110728   4.099   2.235  10.726 -0.6367 -0.1351  0.2730
  726MPD2    C210729   4.014   2.213  10.836  0.2848  0.3521  0.3695
  726MPD2    C310730   3.905   2.123  10.826 -0.9012 -0.7305 -0.0175
  726MPD2    C410731   3.876   2.076  10.700 -0.2817 -0.1666  0.4071
  726MPD2    C510732   3.965   2.091  10.599  0.0538  0.3427  0.2028
  726MPD2     H10733   4.026   2.267  10.929 -1.2082 -0.7676  1.2227
  726MPD2    H110734   3.795   2.007  10.681  0.7251 -1.0876 -0.4999
  726MPD2    H210735   4.143   2.172  10.525  4.6396  2.2434  4.6190
  726MPD2    H310736   3.941   2.037  10.509 -0.0434  1.0521 -0.1923
  726MPD2     N10737   3.815   2.108  10.933  0.4181 -0.1171  0.3772
  726MPD2    H510738   3.734   2.050  10.913 -0.5047  1.4992 -0.5692
  726MPD2    N110739   4.203   2.334  10.740 -0.6217  0.2613  0.7267
  726MPD2    H710740   4.233   2.367  10.832  0.5222 -2.8971  1.4631
  727TMC3    C110741   4.375   2.476  10.663 -0.0373  0.2747  0.5483
  727TMC3    C210742   4.434   2.472  10.784  0.5757  1.0511  0.3673
  727TMC3    C310743   4.495   2.595  10.823  0.2104  0.2623  0.2467
  727TMC3    C410744   4.365   2.590  10.589 -0.2372  0.5228 -0.0969
  727TMC3    C510745   4.412   2.704  10.642 -0.1803  0.0052  0.5771
  727TMC3    C610746   4.477   2.709  10.759 -0.1474 -0.6961 -0.3182
  727TMC3     C10747   4.270   2.380  10.634 -0.6656 -0.2847 -0.4597
  727TMC3     O10748   4.224   2.384  10.524  0.1865  0.3053 -0.3983
  727TMC3     H10749   4.439   2.385  10.848 -1.6836  2.3860  2.3486
  727TMC3    H110750   4.333   2.583  10.486  0.1849 -1.9181 -0.0609
  727TMC3    H210751   4.515   2.799  10.805 -0.8947  0.4181 -1.8803
  727TMC3    C710752   4.381   2.823  10.564  0.4588  0.1215  0.2118
  727TMC3    C810753   4.591   2.597  10.935 -0.2326 -0.6573  0.1443
  727TMC3    O110754   4.304   2.818  10.467 -0.6222 -0.0801  0.5627
  727TMC3    O210755   4.673   2.686  10.913  0.1643  0.2734 -0.3906
  728TMC3    C110756   3.560   0.810  14.919 -0.3377 -0.0334 -0.1679
  728TMC3    C210757   3.692   0.856  14.920 -0.4814  0.3849 -0.1262
  728TMC3    C310758   3.712   0.984  14.874  0.2428  0.1747 -0.1208
  728TMC3    C410759   3.461   0.888  14.865  0.3613  0.4839 -0.0817
  728TMC3    C510760   3.495   1.005  14.805  0.0405  0.2731  0.1171
  728TMC3    C610761   3.621   1.060  14.811  0.2617 -0.4387  0.1654
  728TMC3     C10762   3.528   0.750  15.056  0.0275  0.2143  0.7894
  728TMC3     O10763   3.626   0.726  15.126  0.5428 -0.5314  0.1213
  728TMC3     H10764   3.777   0.822  14.977 -0.1318  1.4107 -0.0369
  728TMC3    H110765   3.359   0.853  14.866 -0.0438  1.6334 -0.9871
  728TMC3    H210766   3.657   1.152  14.767 -1.8906  0.8062  0.9997
  728TMC3    C710767   3.384   1.089  14.763  0.5004  0.3066  0.6678
  728TMC3    C810768   3.832   1.054  14.922  0.9286 -0.0502 -0.2005
  728TMC3    O110769   3.270   1.043  14.780 -0.2249  0.8471  0.2586
  728TMC3    O210770   3.932   0.988  14.926  0.4825 -0.4802 -0.0269
  729MPD2     C10771   0.782   2.070  16.578  0.2938  0.1083 -0.5271
  729MPD2    C110772   0.877   1.977  16.619 -0.0868  0.2979 -0.2812
  729MPD2    C210773   0.881   1.957  16.752  0.3392  0.1953  0.5640
  729MPD2    C310774   0.809   2.031  16.847  0.2954  0.6931 -0.1278
  729MPD2    C410775   0.724   2.128  16.797 -0.3377  0.4548 -0.1820
  729MPD2    C510776   0.702   2.138  16.662  0.2072 -0.6630 -0.0843
  729MPD2     H10777   0.944   1.880  16.795 -0.0077 -0.1926  0.3737
  729MPD2    H110778   0.655   2.177  16.864 -0.8286  0.4348 -0.6749
  729MPD2    H210779   0.764   2.090  16.473 -1.0500  0.6550 -0.1995
  729MPD2    H310780   0.624   2.205  16.628 -0.3148 -1.3790 -0.2991
  729MPD2     N10781   0.820   2.033  16.990  0.5268  0.1060 -0.1056
  729MPD2    H510782   0.765   2.105  17.036  1.9289  1.0473  0.0960
  729MPD2    N110783   0.959   1.914  16.525 -0.1919 -0.1800  0.2577
  729MPD2    H710784   0.942   1.937  16.427  2.2999 -2.0720 -0.6137
  730TMC3    C110785   0.911   1.994  17.195  0.0056 -0.0510  0.9084
  730TMC3    C210786   1.033   2.022  17.251 -0.6490 -0.5207  0.3237
  730TMC3    C310787   1.030   2.100  17.359  0.9178  0.0617 -0.1705
  730TMC3    C410788   0.789   2.035  17.250  0.2580  0.1097  0.2136
  730TMC3    C510789   0.792   2.129  17.356  0.0248  0.5419 -1.0349
  730TMC3    C610790   0.918   2.150  17.420 -0.3214  0.0449 -0.7499
  730TMC3     C10791   0.913   1.957  17.056  0.1912  0.2257  0.6672
  730TMC3     O10792   1.009   1.896  17.011  0.2848 -0.6871  0.2330
  730TMC3     H10793   1.124   1.976  17.214  0.2110  0.6570  0.9633
  730TMC3    H110794   0.693   2.005  17.210 -0.7093  1.3161  1.6397
  730TMC3    H210795   0.928   2.223  17.500  0.8357  1.2425 -2.0024
  730TMC3    C710796   0.761   2.259  17.288 -0.5376  0.5333  0.1121
  730TMC3    C810797   1.133   2.196  17.369 -0.1269 -0.3811 -0.4153
  730TMC3    O110798   0.753   2.259  17.165 -0.4930 -0.7278 -0.6415
  730TMC3    O210799   1.149   2.252  17.479  0.4927 -0.7089  0.0423
  731MPD2     C10800   0.674   0.070  12.403  0.3287 -0.0928 -0.1556
  731MPD2    C110801   0.766   4.691  12.400 -0.8193  0.6363 -0.0089
  731MPD2    C210802   0.739   4.585  12.491 -0.0481 -0.5857 -0.2284
  731MPD2    C310803   0.620   4.590  12.571  0.1568 -0.1693 -0.9131
  731MPD2    C410804   0.526   4.687  12.554  0.0863 -0.5056 -0.0804
  731MPD2    C510805   0.557   0.062  12.469  0.1700 -0.1404  0.2500
  731MPD2     H10806   0.805   4.500  12.504  1.6595  0.8757  0.6458
  731MPD2    H110807   0.427   4.694  12.597 -0.2477 -0.5219 -0.8678
  731MPD2    H210808   0.687   0.156  12.338 -1.6939  0.2644 -0.0856
  731MPD2    H310809   0.478   0.134  12.450 -0.1699 -0.0339  2.1404
  731MPD2     N10810   0.594   4.495  12.679 -0.5408  0.3986  0.0029
  731MPD2    H510811   0.664   4.426  12.703 -0.0614  1.2001  0.9155
  731MPD2    N110812   0.876   4.699  12.304  0.3382 -0.2961  0.0706
  731MPD2    H710813   0.881   0.048  12.235 -3.0683  0.4889  0.6425
  732TMC3    C110814   0.981   4.590  12.141  0.4768  0.6215  0.1370
  732TMC3    C210815   0.880   4.632  12.055 -0.0334 -0.3754 -0.1965
  732TMC3    C310816   0.898   4.642  11.919 -0.1381  0.5277  0.1992
  732TMC3    C410817   1.107   4.569  12.094 -1.1155 -0.4117  0.1326
  732TMC3    C510818   1.124   4.578  11.953  0.0966  0.4148 -0.2798
  732TMC3    C610819   1.020   4.598  11.871  0.3262 -0.5393  0.0138
  732TMC3     C10820   0.963   4.600  12.283  0.0656  0.0106 -0.5134
  732TMC3     O10821   0.995   4.502  12.348 -0.0138  0.2995 -0.3265
  732TMC3     H10822   0.782   4.646  12.100  0.6290 -0.3270  1.2226
  732TMC3    H110823   1.178   4.531  12.167 -2.7895  0.1963  2.0916
  732TMC3    H210824   1.033   4.575  11.766  1.8491  1.5424 -0.2599
  732TMC3    C710825   1.254   4.544  11.901 -1.0314 -0.3064 -0.3786
  732TMC3    C810826   0.779   4.649  11.829 -0.2788  0.2796  0.6787
  732TMC3    O110827   1.252   4.480  11.794  0.1019  0.4729 -0.8488
  732TMC3    O210828   0.773   4.600  11.717  0.7778  0.1909  0.1815
  733TMC3    C110829   2.100   3.284  12.641 -0.1532  0.5397 -0.3704
  733TMC3    C210830   2.180   3.365  12.725 -0.3113 -0.7442  0.5371
  733TMC3    C310831   2.253   3.460  12.653 -0.3193  1.2513  0.1136
  733TMC3    C410832   2.097   3.296  12.509 -0.8149 -0.6791  0.2662
  733TMC3    C510833   2.175   3.390  12.445  0.1966 -0.2818  0.5431
  733TMC3    C610834   2.258   3.472  12.519 -0.2858 -0.1953 -0.3601
  733TMC3     C10835   1.972   3.247  12.701 -0.0380 -0.4426 -0.6381
  733TMC3     O10836   1.879   3.239  12.623 -0.1908 -0.1476 -0.4872
  733TMC3     H10837   2.167   3.369  12.832 -0.8582 -0.4442  0.4648
  733TMC3    H110838   2.041   3.227  12.448  1.4471 -1.1778 -1.2374
  733TMC3    H210839   2.319   3.546  12.467  0.5115  1.0099  2.2696
  733TMC3    C710840   2.095   3.449  12.341 -0.3260 -0.2808 -0.4430
  733TMC3    C810841   2.295   3.567  12.739 -0.4493 -0.4357 -0.1426
  733TMC3    O110842   1.977   3.406  12.334  0.2867  0.8929 -0.9730
  733TMC3    O210843   2.347   3.535  12.843 -0.1221 -0.3222  0.1028
  734MPD2     C10844   3.774   0.843  12.407 -0.6864 -1.0804 -0.1405
  734MPD2    C110845   3.718   0.772  12.305  0.3429 -0.5474 -0.0171
  734MPD2    C210846   3.752   0.800  12.177 -0.3941  0.7220 -0.5988
  734MPD2    C310847   3.855   0.886  12.150 -0.8668 -0.9608  0.4438
  734MPD2    C410848   3.916   0.963  12.246 -0.0654  0.5987  0.3460
  734MPD2    C510849   3.870   0.939  12.377 -0.5514  0.6610 -0.1609
  734MPD2     H10850   3.709   0.739  12.098 -1.3998  0.2757  0.2897
  734MPD2    H110851   3.998   1.027  12.218 -0.6236  1.2451  0.1888
  734MPD2    H210852   3.745   0.833  12.511  0.1454  0.2707  0.2310
  734MPD2    H310853   3.927   0.980  12.459 -0.4846 -1.6539  0.9319
  734MPD2     N10854   3.892   0.885  12.010  0.0533  0.2894  0.3538
  734MPD2    H510855   3.854   0.807  11.956 -1.9500  1.4292  0.0990
  734MPD2    N110856   3.627   0.674  12.348  0.0303 -0.7307 -0.2814
  734MPD2    H710857   3.632   0.646  12.446 -1.8030  0.8346  0.2653
  735TMC3    C110858   3.466   0.495  12.307 -0.3572  0.0461 -0.4204
  735TMC3    C210859   3.363   0.457  12.228 -0.4225  0.2866 -0.0983
  735TMC3    C310860   3.356   0.332  12.174 -0.1846 -0.7165 -0.1900
  735TMC3    C410861   3.564   0.405  12.360 -0.5563 -0.1025 -0.9684
  735TMC3    C510862   3.553   0.277  12.305  0.0192 -0.0584  0.2452
  735TMC3    C610863   3.448   0.242  12.218 -0.1672  0.0941  0.6648
  735TMC3     C10864   3.528   0.617  12.262  0.3342  0.1161  0.3567
  735TMC3     O10865   3.482   0.659  12.156 -0.6191 -0.2664  0.4305
  735TMC3     H10866   3.290   0.532  12.198 -0.5973  0.6782  1.3151
  735TMC3    H110867   3.646   0.434  12.424 -1.4837 -0.5202  0.4073
  735TMC3    H210868   3.447   0.148  12.165  0.2801 -0.2490  1.2686
  735TMC3    C710869   3.674   0.200  12.307 -0.5239 -0.0422 -0.2767
  735TMC3    C810870   3.353   0.333  12.028 -0.1310 -0.3333  0.2286
  735TMC3    O110871   3.774   0.265  12.331 -0.3238 -0.1091 -0.4755
  735TMC3    O210872   3.256   0.286  11.963  0.4127 -0.2043  0.1116
  736MPD2     C10873   3.736   4.585  12.203  0.3211 -0.8133 -0.0944
  736MPD2    C110874   3.765   4.715  12.220 -0.1826 -0.0454  0.2747
  736MPD2    C210875   3.897   0.024  12.206 -0.1445  0.2149 -0.7266
  736MPD2    C310876   4.000   4.657  12.173  0.2053 -0.3377  0.2068
  736MPD2    C410877   3.965   4.519  12.151  0.3518  0.1597 -0.0754
  736MPD2    C510878   3.833   4.490  12.161  1.0222 -0.1836 -0.4343
  736MPD2     H10879   3.917   0.130  12.215 -0.2567  0.2075 -0.3883
  736MPD2    H110880   4.033   4.438  12.127 -0.0207 -0.8645  2.2855
  736MPD2    H210881   3.638   4.548  12.228 -0.5239  0.6049 -1.3238
  736MPD2    H310882   3.800   4.388  12.143 -0.9830  0.3744  0.0127
  736MPD2     N10883   4.133   4.700  12.147 -0.0622  0.1652 -0.2221
  736MPD2    H510884   4.196   4.624  12.125  0.0319 -0.2274  1.3967
  736MPD2    N110885   3.660   0.074  12.255 -0.0841  0.4884 -0.3197
  736MPD2    H710886   3.563   0.043  12.261  0.3653 -0.7064  0.8556
  737TMC3    C110887   4.322   0.108  12.108 -0.1033  0.2070 -0.2970
  737TMC3    C210888   4.376   0.238  12.120 -1.1051 -0.2395  0.1993
  737TMC3    C310889   4.469   0.289  12.031  0.7849 -0.4864  0.6073
  737TMC3    C410890   4.362   0.026  12.005 -0.1501  0.6975 -0.1848
  737TMC3    C510891   4.449   0.073  11.918  0.0200 -0.2977 -0.6978
  737TMC3    C610892   4.503   0.202  11.932  0.2223 -0.1723  0.9173
  737TMC3     C10893   4.194   0.098  12.166 -0.0443 -0.5722  0.4784
  737TMC3     O10894   4.141   0.198  12.210  0.2873  0.1048  0.1609
  737TMC3     H10895   4.340   0.298  12.202 -1.7336  0.7868 -0.8255
  737TMC3    H110896   4.309   4.659  11.984  1.1025 -0.2020  0.5969
  737TMC3    H210897   4.574   0.235  11.857 -1.4394  0.9403 -0.1778
  737TMC3    C710898   4.489   4.699  11.819  1.0323  0.5324 -1.4548
  737TMC3    C810899   4.505   0.430  12.042  0.4632 -0.7622 -0.2408
  737TMC3    O110900   4.449   4.584  11.817  0.6002  0.3173 -0.8066
  737TMC3    O210901   4.471   0.493  12.141  0.6050  0.6268 -1.4495
  738MPD2     C10902   4.473   4.406  15.591  0.1867 -0.0765 -0.6079
  738MPD2    C110903   4.459   4.340  15.474  0.2465 -0.1752  0.2081
  738MPD2    C210904   4.518   4.391  15.360 -0.3606 -0.3059 -0.1463
  738MPD2    C310905   4.600   4.498  15.365 -1.0457 -0.4932 -0.5961
  738MPD2    C410906   4.628   4.559  15.483 -0.0668  0.4682  0.2027
  738MPD2    C510907   4.557   4.513  15.596 -0.5059  0.0507  0.0971
  738MPD2     H10908   4.499   4.347  15.262  0.0430  1.6362 -1.0973
  738MPD2    H110909   4.689   4.648  15.496 -0.2830  0.6030  0.2826
  738MPD2    H210910   4.442   4.366  15.687  0.9286  0.7393 -0.0346
  738MPD2    H310911   4.573   4.559  15.693  0.3749 -1.3357  0.6130
  738MPD2     N10912   4.656   4.560  15.248 -0.7248 -0.0084  0.9268
  738MPD2    H510913   4.725   4.628  15.277 -1.5643  1.0695  0.4012
  738MPD2    N110914   4.367   4.226  15.466  0.0215  0.2540  0.0918
  738MPD2    H710915   4.362   4.181  15.375 -0.2908 -0.6243  0.5477
  739TMC3    C110916   4.673   4.646  15.027  0.2387 -0.7536  0.3728
  739TMC3    C210917   4.699   4.613  14.901  0.0585  0.2753  0.7233
  739TMC3    C310918   0.066   4.675  14.826  0.1651 -0.0398  0.2675
  739TMC3    C410919   0.026   0.014  15.093 -0.5047 -0.4153 -0.4262
  739TMC3    C510920   0.125   0.088  15.020 -0.4309 -0.6954  0.2018
  739TMC3    C610921   0.141   0.049  14.890  0.4638 -0.1689 -0.4449
  739TMC3     C10922   4.622   4.537  15.112  0.0893  0.7979 -0.8983
  739TMC3     O10923   4.558   4.446  15.066 -0.2882  0.3457  0.0402
  739TMC3     H10924   4.647   4.531  14.852  0.2675  1.9681 -2.3568
  739TMC3    H110925   0.012   0.041  15.197  3.3382  1.7759 -0.4721
  739TMC3    H210926   0.215   0.096  14.825  0.2307  0.1163 -0.5084
  739TMC3    C710927   0.186   0.207  15.075  1.1913  0.3406 -0.1265
  739TMC3    C810928   0.093   4.624  14.691 -0.8065 -0.3706  0.2282
  739TMC3    O110929   0.136   0.240  15.182 -0.3513  0.5912 -0.7051
  739TMC3    O210930   0.044   4.521  14.653  0.2370  0.3815  0.3832
  740TMC3    C110931   0.829   0.919  14.248 -0.3124 -0.0852 -0.0017
  740TMC3    C210932   0.861   0.864  14.368  0.2255  0.2284 -0.4290
  740TMC3    C310933   0.989   0.811  14.380  0.4877  0.1612 -0.1826
  740TMC3    C410934   0.913   0.907  14.141 -0.1432  0.1627  0.2439
  740TMC3    C510935   1.035   0.862  14.159 -0.5260 -0.6356  0.1836
  740TMC3    C610936   1.080   0.814  14.282  0.5029 -0.5377 -0.0931
  740TMC3     C10937   0.686   0.922  14.223 -0.1225 -0.4028  0.3929
  740TMC3     O10938   0.651   0.912  14.108  0.1246 -0.2297  0.2615
  740TMC3     H10939   0.794   0.862  14.453 -0.4548  2.8885 -0.8845
  740TMC3    H110940   0.876   0.945  14.047  0.0824 -0.9789 -0.3130
  740TMC3    H210941   1.178   0.771  14.300  0.1232 -2.1774 -1.8925
  740TMC3    C710942   1.130   0.838  14.052 -1.0234 -0.7442 -0.1709
  740TMC3    C810943   1.031   0.781  14.518  0.2910  0.2669  0.3205
  740TMC3    O110944   1.226   0.770  14.086  0.0660 -0.0121 -0.0694
  740TMC3    O210945   0.961   0.832  14.605 -0.0535 -0.8265  0.0726
  741TMC3    C110946   0.083   0.301  13.943 -0.8297 -0.4558  0.4793
  741TMC3    C210947   4.724   0.187  13.971  0.0577 -0.3085 -0.5435
  741TMC3    C310948   0.028   0.112  14.088 -0.3532 -0.2031 -0.4420
  741TMC3    C410949   0.177   0.339  14.034 -1.0731 -0.0976  0.4424
  741TMC3    C510950   0.178   0.276  14.157  0.0843  0.3238 -0.5151
  741TMC3    C610951   0.104   0.166  14.190  0.4862  0.1384  0.5933
  741TMC3     C10952   0.033   0.404  13.856 -0.6723  0.2020  0.1209
  741TMC3     O10953   0.119   0.486  13.820  0.3965  0.4673  0.0924
  741TMC3     H10954   4.667   0.130  13.897 -1.5336  0.3961  0.1347
  741TMC3    H110955   0.238   0.426  14.011  1.1955 -1.8605 -0.2263
  741TMC3    H210956   0.135   0.108  14.276 -2.0536 -1.1607  0.6262
  741TMC3    C710957   0.282   0.301  14.253  0.4478 -0.0214  0.0639
  741TMC3    C810958   4.672   4.717  14.111 -0.1105  0.9551 -0.0605
  741TMC3    O110959   0.255   0.260  14.364  0.7246 -0.1238  0.0339
  741TMC3    O210960   4.627   4.661  14.012  0.3557  0.2529 -0.2031
  742TMC3    C110961   4.553   3.309  15.354 -0.2935 -0.0561 -0.7774
  742TMC3    C210962   4.456   3.333  15.256  1.3463  0.2665  0.7054
  742TMC3    C310963   4.502   3.335  15.127  0.2068 -0.1035 -0.2107
  742TMC3    C410964   4.687   3.302  15.334  0.2193 -0.1597 -0.1886
  742TMC3    C510965   4.724   3.299  15.197  0.2645  0.0914 -0.0934
  742TMC3    C610966   4.632   3.328  15.097  0.0352 -0.3547 -0.3090
  742TMC3     C10967   4.500   3.315  15.483 -0.1091 -0.2349 -0.0761
  742TMC3     O10968   4.380   3.336  15.501 -0.3545 -0.0317  0.6007
  742TMC3     H10969   4.352   3.314  15.281  0.1754  0.4113 -4.2124
  742TMC3    H110970   0.037   3.282  15.408 -0.8023  0.2716  0.9680
  742TMC3    H210971   4.656   3.329  14.991  0.5667 -2.8567 -0.2075
  742TMC3    C710972   0.121   3.235  15.150  0.1273  0.3238 -0.0162
  742TMC3    C810973   4.419   3.258  15.036  0.1053  0.1917  0.4138
  742TMC3    O110974   0.134   3.220  15.028 -0.0134  0.1858 -0.2454
  742TMC3    O210975   4.470   3.187  14.954 -0.3157 -0.3343 -0.0629
  743MPD2     C10976   2.742   3.542   1.146  0.2401  0.6135 -0.5469
  743MPD2    C110977   2.700   3.586   1.270  0.3861  0.6730  0.5079
  743MPD2    C210978   2.796   3.602   1.368  0.0399  1.2414 -0.5478
  743MPD2    C310979   2.931   3.589   1.338 -0.2711  0.7036 -0.4759
  743MPD2    C410980   2.970   3.565   1.208 -0.2145  0.0198 -0.7974
  743MPD2    C510981   2.877   3.530   1.113 -0.0285 -0.3785  0.0838
  743MPD2     H10982   2.761   3.629   1.467  2.8997  0.1555  0.7655
  743MPD2    H110983   3.074   3.559   1.175 -0.3626  1.5145 -1.5598
  743MPD2    H210984   2.669   3.516   1.071  0.1065  0.4223 -0.3490
  743MPD2    H310985   2.909   3.513   1.010 -2.0081  0.7834 -0.7113
  743MPD2     N10986   3.018   3.615   1.445 -0.0533  0.3612 -0.2394
  743MPD2    H510987   2.967   3.644   1.528  0.8658  2.0707 -0.2804
  743MPD2    N110988   2.558   3.595   1.290  0.9365  0.9532 -0.2592
  743MPD2    H710989   2.498   3.589   1.208  2.5685  0.0112 -1.4009
  744TMC3    C110990   2.357   3.647   1.374  0.0043  0.2682  0.2358
  744TMC3    C210991   2.270   3.563   1.433  0.1914 -1.0332  0.1135
  744TMC3    C310992   2.156   3.519   1.373 -0.2295 -0.4053  0.8470
  744TMC3    C410993   2.333   3.679   1.251 -0.4993 -0.3672 -0.5560
  744TMC3    C510994   2.219   3.631   1.190 -0.7005 -0.8141 -0.4772
  744TMC3    C610995   2.123   3.550   1.245 -0.4698 -0.5116 -1.0613
  744TMC3     C10996   2.491   3.630   1.410  0.3900  0.1864 -0.4236
  744TMC3     O10997   2.534   3.623   1.521 -0.0721  0.8942 -0.0106
  744TMC3     H10998   2.290   3.532   1.535 -1.2905 -0.0041  0.7064
  744TMC3    H110999   2.398   3.751   1.202 -0.1480 -0.0712  0.3436
  744TMC3    H211000   2.027   3.531   1.198 -1.0304  3.3249 -1.4452
  744TMC3    C711001   2.205   3.674   1.052 -0.1440  0.4710 -0.1715
  744TMC3    C811002   2.059   3.426   1.444 -0.2252  0.2155 -0.4485
  744TMC3    O111003   2.281   3.760   1.007 -0.0807  0.2023  0.1367
  744TMC3    O211004   1.943   3.418   1.400 -0.3306 -0.1171 -0.3636
  745TMC3    C111005   0.634   2.804  13.349 -0.4097 -0.4226  0.1858
  745TMC3    C211006   0.533   2.810  13.436  0.2387  0.3003 -0.0602
  745TMC3    C311007   0.403   2.824  13.389 -0.3718  0.2014  0.2581
  745TMC3    C411008   0.612   2.810  13.220 -0.0454 -0.0179 -0.7614
  745TMC3    C511009   0.487   2.832  13.175 -0.3746  0.0126  0.5250
  745TMC3    C611010   0.378   2.838  13.251  0.5033  0.2109 -0.0655
  745TMC3     C11011   0.769   2.810  13.390 -0.5579  0.5587 -0.0511
  745TMC3     O11012   0.853   2.772  13.306  0.0035  0.1594 -0.0102
  745TMC3     H11013   0.550   2.808  13.543 -1.2206 -2.9538  0.1043
  745TMC3    H111014   0.690   2.780  13.152 -0.9024 -0.8358 -1.3831
  745TMC3    H211015   0.279   2.836  13.207  0.2129  1.4165  0.5223
  745TMC3    C711016   0.478   2.879  13.037 -0.2755  0.4507 -0.2741
  745TMC3    C811017   0.291   2.825  13.486  0.2088 -0.0945 -0.4104
  745TMC3    O111018   0.388   2.850  12.961  0.7266  0.3423  0.1842
  745TMC3    O211019   0.177   2.836  13.444  0.4909 -0.5496 -0.0188
  746TMC3    C111020   2.846   0.083  11.380  0.2753  0.4667 -0.3396
  746TMC3    C211021   2.946   0.073  11.290  0.3141 -0.1015 -1.0211
  746TMC3    C311022   2.983   4.675  11.255 -0.1434 -0.0230  0.6521
  746TMC3    C411023   2.794   4.700  11.446  0.0326  0.8470  0.0711
  746TMC3    C511024   2.835   4.577  11.408 -0.0472  0.3733  0.6881
  746TMC3    C611025   2.927   4.561  11.307  0.1330 -0.0010 -0.4971
  746TMC3     C11026   2.811   0.207  11.433 -0.1190 -0.5153 -0.0499
  746TMC3     O11027   2.769   0.196  11.550 -0.6758  0.2636  0.1161
  746TMC3     H11028   2.996   0.160  11.248 -0.8575  0.9751 -0.2212
  746TMC3    H111029   2.706   4.703  11.510 -1.7986  2.2685 -2.4994
  746TMC3    H211030   2.955   4.462  11.273  0.5359  0.7137 -2.2654
  746TMC3    C711031   2.731   4.482  11.393 -0.4388  0.4696  0.2573
  746TMC3    C811032   3.082   4.644  11.145  0.0431  0.6437  0.0848
  746TMC3    O111033   2.625   4.524  11.343  0.1660  0.1609 -0.2873
  746TMC3    O211034   3.136   4.536  11.162 -0.0244  0.8629 -0.6183
  747TMC3    C111035   0.462   0.111  11.020 -0.3037 -0.7849 -0.0276
  747TMC3    C211036   0.327   0.112  11.054 -0.0117  0.4426 -0.1152
  747TMC3    C311037   0.287   0.107  11.183  0.1483  0.1823  0.0569
  747TMC3    C411038   0.560   0.101  11.113  0.5884 -0.1794  0.8513
  747TMC3    C511039   0.515   0.094  11.238 -0.3034  0.9438 -0.1358
  747TMC3    C611040   0.388   0.095  11.277  0.2798  0.2341  0.4733
  747TMC3     C11041   0.496   0.158  10.882 -0.6275 -0.0047  0.7420
  747TMC3     O11042   0.422   0.237  10.829 -0.2605  0.2677 -0.2958
  747TMC3     H11043   0.247   0.088  10.985  0.4656  0.8312 -0.7980
  747TMC3    H111044   0.664   0.122  11.094  0.2155  0.1370 -0.9014
  747TMC3    H211045   0.363   0.074  11.381  0.7128 -0.7805  0.3658
  747TMC3    C711046   0.614   0.092  11.344  0.2463  0.6785  0.1709
  747TMC3    C811047   0.147   0.068  11.209  0.1015  0.0611 -0.5696
  747TMC3    O111048   0.587   0.145  11.452 -0.0771 -0.4056  0.5075
  747TMC3    O211049   0.081   0.023  11.116 -0.0339  0.3744  0.5399
  748MPD2     C11050   1.983   0.149   1.305 -0.7863 -0.2987 -0.0592
  748MPD2    C111051   2.111   0.132   1.358 -0.0374 -0.3682 -0.0689
  748MPD2    C211052   2.210   0.223   1.334  0.9189 -0.0696 -0.2742
  748MPD2    C311053   2.178   0.339   1.265  0.4463  0.0295 -0.3787
  748MPD2    C411054   2.047   0.354   1.209  0.1501 -0.4594 -0.1136
  748MPD2    C511055   1.948   0.261   1.232 -0.1013 -0.6507 -0.4249
  748MPD2     H11056   2.306   0.215   1.382  0.5645 -0.5552  0.3532
  748MPD2    H111057   2.016   0.442   1.153  1.7208  0.1857  0.0398
  748MPD2    H211058   1.905   0.079   1.335  1.3364 -2.8038 -0.4105
  748MPD2    H311059   1.848   0.285   1.197 -0.3612 -1.3781 -0.1647
  748MPD2     N11060   2.286   0.431   1.242 -0.1094 -0.1265  0.1559
  748MPD2    H511061   2.374   0.391   1.274 -0.0935  0.0133  0.2888
  748MPD2    N111062   2.142   0.010   1.429  0.0006 -0.1720 -0.1587
  748MPD2    H711063   2.065   4.671   1.444  1.8739 -1.9704  1.7029
  749TMC3    C111064   2.414   0.592   1.125 -0.0295  1.5321  0.1150
  749TMC3    C211065   2.528   0.518   1.156  0.8705  1.0729 -0.2983
  749TMC3    C311066   2.644   0.580   1.137  0.2928  0.1445  0.0756
  749TMC3    C411067   2.426   0.721   1.088 -0.0872 -0.6019  0.2073
  749TMC3    C511068   2.546   0.779   1.069  0.5176 -0.6670  0.0457
  749TMC3    C611069   2.659   0.713   1.097  0.3804  0.3472  0.5950
  749TMC3     C11070   2.282   0.542   1.161  0.0290 -0.4138  0.0209
  749TMC3     O11071   2.181   0.589   1.108  0.1594 -0.0991  0.2086
  749TMC3     H11072   2.532   0.416   1.192  1.4756  1.5004  0.8775
  749TMC3    H111073   2.333   0.775   1.078  0.0353  0.1507  3.2958
  749TMC3    H211074   2.754   0.762   1.080  1.1878 -0.2620  3.2757
  749TMC3    C711075   2.548   0.878   0.969 -0.0340  0.1567  0.5405
  749TMC3    C811076   2.757   0.540   1.205  0.0011 -0.3620 -0.0251
  749TMC3    O111077   2.458   0.967   0.965  0.1434 -0.3351  0.6929
  749TMC3    O211078   2.829   0.625   1.246 -0.1199  0.7666 -0.2401
  750MPD2     C11079   3.069   1.755  11.957 -0.0225 -0.0056 -0.3006
  750MPD2    C111080   3.117   1.824  11.852  0.1205 -0.2396 -0.2389
  750MPD2    C211081   3.108   1.787  11.720 -0.1167 -0.3750  0.5661
  750MPD2    C311082   3.045   1.665  11.701  0.8788  0.0896 -0.4233
  750MPD2    C411083   2.986   1.601  11.809 -0.0259 -0.1612  0.6293
  750MPD2    C511084   3.002   1.641  11.937 -0.1992  0.0714  0.2898
  750MPD2     H11085   3.162   1.845  11.645 -0.5241 -1.6504 -0.7001
  750MPD2    H111086   2.920   1.516  11.805 -0.7431  0.3787  0.8796
  750MPD2    H211087   3.076   1.808  12.051  2.0167 -1.1937  0.2064
  750MPD2    H311088   2.941   1.599  12.017  0.1881 -2.6660 -0.8325
  750MPD2     N11089   3.012   1.616  11.575  0.4069  0.0948  0.0837
  750MPD2    H511090   3.076   1.639  11.499  0.6503  1.0336  0.5693
  750MPD2    N111091   3.170   1.950  11.891 -0.1197  0.8701  0.3730
  750MPD2    H711092   3.178   1.961  11.991  1.6326 -0.3208  0.3575
  751TMC3    C111093   2.876   1.489  11.415  0.3532  0.1441 -0.2540
  751TMC3    C211094   2.756   1.479  11.346 -0.5229 -0.1857  0.2100
  751TMC3    C311095   2.756   1.414  11.228 -0.1533  0.2665 -0.1985
  751TMC3    C411096   2.994   1.440  11.357  0.2165 -0.1741 -0.4384
  751TMC3    C511097   2.993   1.378  11.233  0.2333 -0.2339 -0.0321
  751TMC3    C611098   2.872   1.360  11.169  0.0351 -0.6747  0.3099
  751TMC3     C11099   2.887   1.561  11.543 -0.7166 -0.1331  0.3069
  751TMC3     O11100   2.786   1.553  11.615 -0.2035 -0.4637 -0.1544
  751TMC3     H11101   2.670   1.501  11.409 -0.4658  0.5659  0.0246
  751TMC3    H111102   3.089   1.442  11.408  1.3483  0.0444 -2.5247
  751TMC3    H211103   2.870   1.321  11.068 -0.1769 -2.3919  0.9754
  751TMC3    C711104   3.113   1.325  11.165  0.6722 -0.0455 -0.3106
  751TMC3    C811105   2.635   1.349  11.174 -0.1086 -0.3711  0.4020
  751TMC3    O111106   3.225   1.373  11.180 -0.3835 -0.7305 -0.2037
  751TMC3    O211107   2.661   1.276  11.079 -0.0736 -0.1766 -0.0292
  752TMC3    C111108   1.611   1.293  17.152 -0.2046  0.8852  0.1953
  752TMC3    C211109   1.645   1.177  17.218  0.4970 -1.0362 -0.9919
  752TMC3    C311110   1.653   1.183  17.355 -0.1863 -0.0396  0.1400
  752TMC3    C411111   1.608   1.417  17.217  0.3531 -0.3285 -0.3427
  752TMC3    C511112   1.616   1.414  17.355 -0.2551  0.1867  0.2892
  752TMC3    C611113   1.639   1.299  17.426  0.5919  0.0391 -0.1982
  752TMC3     C11114   1.652   1.301  17.014 -0.0197  0.3030 -0.2981
  752TMC3     O11115   1.723   1.206  16.981 -0.3948 -0.2443  0.4275
  752TMC3     H11116   1.658   1.084  17.164 -0.2064 -0.7187 -1.7135
  752TMC3    H111117   1.601   1.511  17.165 -3.3997 -1.3907 -1.7436
  752TMC3    H211118   1.653   1.287  17.533  2.8417  0.4839 -0.4329
  752TMC3    C711119   1.605   1.537  17.423 -0.4721  0.7784 -0.1653
  752TMC3    C811120   1.721   1.073  17.422 -0.1030  0.1117  0.0742
  752TMC3    O111121   1.584   1.635  17.353  0.2092 -0.1229  0.4147
  752TMC3    O211122   1.784   1.100  17.524  0.7270  0.6450 -0.3739
  753TMC3    C111123   3.392   2.981  13.686  0.0021  0.1689  0.1809
  753TMC3    C211124   3.482   2.987  13.790  0.2629  0.5972 -0.0409
  753TMC3    C311125   3.497   2.877  13.870  0.3813  0.5951  0.0979
  753TMC3    C411126   3.332   2.863  13.651 -0.1723  0.1878 -0.4912
  753TMC3    C511127   3.360   2.756  13.723  0.0992 -0.0154  0.0497
  753TMC3    C611128   3.432   2.760  13.834 -0.1401 -0.3663  0.4529
  753TMC3     C11129   3.401   3.079  13.591 -0.2607 -0.2361 -0.3090
  753TMC3     O11130   3.405   3.043  13.474 -0.0798  0.3003  0.0638
  753TMC3     H11131   3.537   3.077  13.817  1.0183 -0.4761  2.0911
  753TMC3    H111132   3.263   2.856  13.567 -0.6177 -0.5166 -0.0712
  753TMC3    H211133   3.435   2.677  13.903 -3.5546 -0.1741  0.8253
  753TMC3    C711134   3.261   2.643  13.715  0.1592  0.0042 -0.6010
  753TMC3    C811135   3.631   2.861  13.913 -0.0168  0.8878 -0.7437
  753TMC3    O111136   3.226   2.616  13.828 -0.3692 -0.2765  0.3515
  753TMC3    O211137   3.682   2.757  13.877  0.0472 -0.2922 -0.2103
  754MPD2     C11138   2.569   1.168  13.758  0.4939  1.0725  0.6404
  754MPD2    C111139   2.525   1.294  13.814 -0.5029 -0.5107 -0.5522
  754MPD2    C211140   2.402   1.345  13.774  0.0100 -0.1550 -0.4528
  754MPD2    C311141   2.314   1.267  13.698 -0.3161 -0.0276 -0.1568
  754MPD2    C411142   2.352   1.133  13.672 -1.0336 -0.8498 -0.3700
  754MPD2    C511143   2.483   1.083  13.697 -0.3075 -0.1961  0.1207
  754MPD2     H11144   2.378   1.445  13.810  0.7574 -0.1339 -0.0301
  754MPD2    H111145   2.276   1.070  13.628 -0.6484 -2.0631  0.7012
  754MPD2    H211146   2.668   1.130  13.780  0.2434 -0.7588 -1.4960
  754MPD2    H311147   2.505   0.982  13.665 -0.2607  0.4647 -1.9176
  754MPD2     N11148   2.177   1.300  13.672  0.2705 -0.5275  0.1683
  754MPD2    H511149   2.119   1.229  13.628 -0.6591 -0.1684  0.8408
  754MPD2    N111150   2.617   1.369  13.884  0.3790 -0.3111  0.1918
  754MPD2    H711151   2.699   1.318  13.915 -0.0099 -0.1775  1.4458
  755MPD2     C11152   1.775   2.078  13.291  0.2688  1.2272  0.5676
  755MPD2    C111153   1.672   2.046  13.381  0.1352  0.4557  0.0686
  755MPD2    C211154   1.675   1.913  13.433  0.4057 -0.2992  0.7152
  755MPD2    C311155   1.791   1.832  13.430  0.5714 -0.4569  0.9156
  755MPD2    C411156   1.885   1.862  13.332  0.2400  0.0157 -0.2694
  755MPD2    C511157   1.875   1.982  13.269 -0.4535 -0.4400  0.3296
  755MPD2     H11158   1.597   1.878  13.500  1.0371  0.3435  1.7715
  755MPD2    H111159   1.969   1.799  13.305  1.5184  1.2873  0.6860
  755MPD2    H211160   1.778   2.169  13.233  1.7480  0.5206 -0.4664
  755MPD2    H311161   1.944   2.007  13.189 -1.4561  0.0504 -0.3762
  755MPD2     N11162   1.812   1.706  13.492 -0.3562  0.6260 -0.2412
  755MPD2    H511163   1.903   1.664  13.473 -0.1409  1.2394 -0.5888
  755MPD2    N111164   1.561   2.127  13.406 -0.0175 -0.5779 -0.0525
  755MPD2    H711165   1.485   2.091  13.462 -1.6632  1.0986 -1.1835
  756MPD2     C11166   2.875   2.605   9.965  0.1426  0.1933  0.1549
  756MPD2    C111167   2.844   2.474   9.968 -0.3679  0.3314 -0.2052
  756MPD2    C211168   2.764   2.419   9.872  0.2688  0.5420 -0.4964
  756MPD2    C311169   2.731   2.492   9.759 -0.5973  0.2787 -0.7700
  756MPD2    C411170   2.770   2.620   9.755 -0.5331  0.0909 -0.4921
  756MPD2    C511171   2.839   2.685   9.856  0.8504 -0.4247  0.0359
  756MPD2     H11172   2.732   2.316   9.879  1.4811  0.1915 -0.1533
  756MPD2    H111173   2.750   2.691   9.676  1.0890 -1.1775 -2.0239
  756MPD2    H211174   2.938   2.647  10.043 -0.4389 -0.3430  0.9039
  756MPD2    H311175   2.868   2.789   9.849 -2.1237  0.4110 -0.0980
  756MPD2     N11176   2.645   2.434   9.655 -0.5262 -0.2647 -0.1693
  756MPD2    H511177   2.604   2.342   9.670  0.7691 -0.4550  2.0474
  756MPD2    N111178   2.886   2.396  10.076 -0.0503  0.6310 -0.1610
  756MPD2    H711179   2.841   2.306  10.087  1.6088 -0.0186  1.3713
  757MPD2     C11180   2.089   1.792   9.728  0.3680 -0.3412  0.5916
  757MPD2    C111181   2.225   1.803   9.751 -0.0846  0.6694  0.3604
  757MPD2    C211182   2.295   1.902   9.685  0.1538  0.9878  0.7634
  757MPD2    C311183   2.230   1.989   9.606 -0.1878 -0.8217  0.1577
  757MPD2    C411184   2.094   1.974   9.587  0.0399 -0.4129  0.3628
  757MPD2    C511185   2.025   1.875   9.643  0.2875  1.1127 -0.1847
  757MPD2     H11186   2.400   1.922   9.704  0.6561  0.4764 -1.3785
  757MPD2    H111187   2.041   2.057   9.543 -0.4274 -0.9339 -0.0594
  757MPD2    H211188   2.022   1.721   9.774 -0.7998  0.0139 -0.5679
  757MPD2    H311189   1.917   1.865   9.630  0.4215 -1.0709  0.4210
  757MPD2     N11190   2.305   2.101   9.566  0.3394  0.6165  0.3565
  757MPD2    H511191   2.397   2.108   9.608  0.7128 -0.0533 -0.3559
  757MPD2    N111192   2.278   1.708   9.845 -0.2590 -0.1504  0.0902
  757MPD2    H711193   2.214   1.635   9.875  1.7467 -0.6314  3.1689
  758MPD2     C11194   2.825   1.508  15.908 -0.3480 -0.2690 -0.3018
  758MPD2    C111195   2.889   1.465  16.017 -0.6875 -0.0202 -0.1508
  758MPD2    C211196   2.855   1.514  16.143  0.4923  1.0999 -0.1665
  758MPD2    C311197   2.737   1.592  16.153  0.6366  1.2872  0.3033
  758MPD2    C411198   2.674   1.644  16.042 -0.1469  1.2495  1.0030
  758MPD2    C511199   2.718   1.597  15.917  0.3244  0.7106  0.4729
  758MPD2     H11200   2.912   1.483  16.230 -1.3278 -1.6445  0.0561
  758MPD2    H111201   2.591   1.714  16.038 -1.1664  0.0607  1.3232
  758MPD2    H211202   2.852   1.460  15.814  0.6160 -0.8713  0.2753
  758MPD2    H311203   2.674   1.624  15.822 -0.7922  2.5929  1.5305
  758MPD2     N11204   2.680   1.647  16.270  0.0508 -0.0227  0.0089
  758MPD2    H511205   2.588   1.688  16.275  0.9382  2.1025 -1.0617
  758MPD2    N111206   3.003   1.384  16.003 -0.5554  0.0187 -0.4591
  758MPD2    H711207   3.008   1.350  15.907 -1.3932 -0.7817 -0.2179
  759MPD2     C11208   1.809   4.487  10.637 -0.2015  0.0465 -0.2042
  759MPD2    C111209   1.743   4.419  10.537  0.2310 -0.3989  0.4215
  759MPD2    C211210   1.761   4.465  10.410 -0.3013  0.5119  0.3426
  759MPD2    C311211   1.813   4.591  10.384 -0.1318 -0.7443  0.1343
  759MPD2    C411212   1.865   4.665  10.484 -0.6297  0.4996  0.1721
  759MPD2    C511213   1.865   4.611  10.613 -0.0579 -0.1943  0.4891
  759MPD2     H11214   1.728   4.405  10.326  1.4669  2.1423 -1.5126
  759MPD2    H111215   1.910   0.036  10.466 -3.0382  1.6846  0.4027
  759MPD2    H211216   1.804   4.455  10.740 -2.0618  2.2235  0.3919
  759MPD2    H311217   1.908   4.671  10.692  1.0616  1.7748 -1.6225
  759MPD2     N11218   1.816   4.630  10.245  0.3262  0.1928  0.2914
  759MPD2    H511219   1.783   4.562  10.177  1.4873 -0.3207  0.2475
  759MPD2    N111220   1.671   4.297  10.549  0.0696 -0.4140 -0.1385
  759MPD2    H711221   1.617   4.270  10.468 -1.3300 -1.1683  1.0326
  760MPD2     C11222   1.036   1.646  11.627  0.2159  0.0184  0.4944
  760MPD2    C111223   1.171   1.602  11.617  0.0584  0.4019  0.2738
  760MPD2    C211224   1.205   1.487  11.686  0.5623  0.0485 -0.7729
  760MPD2    C311225   1.102   1.431  11.762  0.3256  0.3053  0.0758
  760MPD2    C411226   0.970   1.473  11.772 -0.9884  0.1760  0.1906
  760MPD2    C511227   0.938   1.582  11.698 -0.2665  0.3380  0.0111
  760MPD2     H11228   1.304   1.443  11.675 -0.1511 -1.6120 -0.5017
  760MPD2    H111229   0.897   1.412  11.824 -1.1307  0.6197  0.5087
  760MPD2    H211230   0.997   1.726  11.565 -2.5238 -0.5204  1.5372
  760MPD2    H311231   0.832   1.602  11.684 -0.2928 -1.2726 -2.1097
  760MPD2     N11232   1.131   1.308  11.832 -0.4887  0.1871 -0.6931
  760MPD2    H511233   1.067   1.276  11.903  0.4631 -0.8563 -0.2984
  760MPD2    N111234   1.277   1.661  11.533  0.1394  0.0944 -0.3395
  760MPD2    H711235   1.373   1.630  11.537  0.4242  0.7249 -2.1478
  761MPD2     C11236   2.222   1.068  11.161 -0.4985  0.7965 -0.0818
  761MPD2    C111237   2.352   1.030  11.151  0.5475  0.0642 -0.0376
  761MPD2    C211238   2.449   1.125  11.172 -0.2373 -0.2972 -0.1685
  761MPD2    C311239   2.414   1.257  11.214  0.1913 -0.6637  0.5127
  761MPD2    C411240   2.282   1.285  11.236  0.6609 -0.2185 -0.0789
  761MPD2    C511241   2.183   1.193  11.206 -1.2589 -0.4036  0.2264
  761MPD2     H11242   2.553   1.096  11.167  0.4464  2.1501 -0.5676
  761MPD2    H111243   2.235   1.374  11.276  0.6063  0.6713 -2.1299
  761MPD2    H211244   2.141   0.998  11.144  0.2300  0.8624 -3.8764
  761MPD2    H311245   2.078   1.219  11.206 -0.7152  1.7878  0.8846
  761MPD2     N11246   2.510   1.358  11.238 -0.1532 -0.4398  0.1113
  761MPD2    H511247   2.483   1.430  11.304 -1.9985  1.7671 -3.0570
  761MPD2    N111248   2.383   0.895  11.118  0.1638 -0.1699  0.2624
  761MPD2    H711249   2.307   0.833  11.091  0.4082 -0.4480  0.2139
  762MPD2     C11250   2.859   0.857  10.572 -0.1187  0.0265  0.2066
  762MPD2    C111251   2.867   0.742  10.641  0.4136  0.1100  0.2564
  762MPD2    C211252   2.991   0.671  10.646  0.4668 -0.7052  0.2425
  762MPD2    C311253   3.104   0.727  10.582 -0.2480 -0.2065 -0.2322
  762MPD2    C411254   3.093   0.843  10.508  0.2811  0.2179 -0.9438
  762MPD2    C511255   2.975   0.903  10.511  0.2026  0.3323  0.0043
  762MPD2     H11256   3.013   0.585  10.709 -0.9874 -0.5385  0.9769
  762MPD2    H111257   3.182   0.889  10.466 -0.9309  1.6512 -1.9503
  762MPD2    H211258   2.766   0.912  10.576  0.0811  0.3307  0.7218
  762MPD2    H311259   2.967   0.999  10.461 -1.7028 -0.3705 -1.0381
  762MPD2     N11260   3.233   0.665  10.602 -0.7749  0.4048  0.1332
  762MPD2    H511261   3.232   0.582  10.660 -2.8692  0.1591 -0.2515
  762MPD2    N111262   2.753   0.704  10.717  0.1446 -0.3606  0.3053
  762MPD2    H711263   2.674   0.765  10.701  0.4091  0.4177  1.9665
  763MPD2     C11264   4.160   1.623  16.129 -0.0299 -0.9569 -0.2370
  763MPD2    C111265   4.282   1.561  16.153 -0.3298  0.8015 -0.2468
  763MPD2    C211266   4.344   1.570  16.277  0.0555  0.2896 -0.1260
  763MPD2    C311267   4.283   1.638  16.377 -1.0234 -0.3556  0.5812
  763MPD2    C411268   4.170   1.710  16.346 -0.1519 -0.6915  0.1925
  763MPD2    C511269   4.109   1.707  16.222 -0.0567 -0.5258  0.2409
  763MPD2     H11270   4.438   1.518  16.288  0.5272  1.1922  0.1617
  763MPD2    H111271   4.121   1.764  16.425 -1.4378 -0.0491 -1.0437
  763MPD2    H211272   4.110   1.618  16.033  0.4465  0.5644 -0.5635
  763MPD2    H311273   4.009   1.745  16.205 -0.5194 -1.7130  0.2973
  763MPD2     N11274   4.325   1.645  16.512 -0.0775  0.5187  0.9730
  763MPD2    H511275   4.280   1.707  16.579  1.9109  3.6706 -0.6235
  763MPD2    N111276   4.360   1.488  16.062 -0.5319 -0.6374 -0.9754
  763MPD2    H711277   4.459   1.480  16.084 -0.2961 -0.1590 -1.8717
  764MPD2     C11278   1.956   2.960  17.521  0.4773  0.1721  0.3059
  764MPD2    C111279   1.917   2.876  17.424  0.5260  0.2247 -0.1391
  764MPD2    C211280   1.895   2.739  17.454 -0.0689  0.2991 -0.1243
  764MPD2    C311281   1.915   2.696  17.583 -0.5333  0.2315  0.4759
  764MPD2    C411282   1.959   2.785  17.678 -0.3784 -0.4501  0.0760
  764MPD2    C511283   1.985   2.918  17.649 -0.6675 -0.4614  0.7717
  764MPD2     H11284   1.867   2.671  17.374 -1.7443 -1.8001  2.2547
  764MPD2    H111285   1.980   2.768   0.080  0.9021 -0.1370 -0.1221
  764MPD2    H211286   1.990   3.059  17.491  0.7238 -0.0641 -0.2097
  764MPD2    H311287   2.024   2.985   0.022 -0.7379  1.5922 -1.0051
  764MPD2     N11288   1.890   2.561  17.613  0.0480 -0.0373 -0.2726
  764MPD2    H511289   1.849   2.500  17.544  0.0329  0.9418 -1.1361
  764MPD2    N111290   1.898   2.922  17.286  0.1441 -0.4704 -0.9029
  764MPD2    H711291   1.854   2.854  17.225  0.8724  0.4925 -2.5028
  765MPD2     C11292   2.284   0.517  15.920 -0.2087  0.1962  0.1871
  765MPD2    C111293   2.342   0.620  15.855  0.0561 -0.5467  0.2891
  765MPD2    C211294   2.446   0.593  15.764 -0.1139 -0.3359 -0.4731
  765MPD2    C311295   2.468   0.458  15.729  0.0110 -0.7135  0.5313
  765MPD2    C411296   2.419   0.356  15.810  0.3761 -0.4597 -0.8987
  765MPD2    C511297   2.333   0.387  15.906  0.1602  0.0384  0.1700
  765MPD2     H11298   2.472   0.665  15.686  1.5303 -1.0302 -0.5598
  765MPD2    H111299   2.453   0.254  15.791  0.1389 -1.3516  3.3870
  765MPD2    H211300   2.211   0.527  15.999 -0.1602 -0.7672  0.3564
  765MPD2    H311301   2.285   0.308  15.963  0.6898 -1.0963 -0.9646
  765MPD2     N11302   2.550   0.436  15.613  0.2495 -0.3448 -0.5754
  765MPD2    H511303   2.589   0.519  15.570 -3.6239  2.2279  0.9090
  765MPD2    N111304   2.291   0.747  15.876 -0.5817  0.0846  0.0639
  765MPD2    H711305   2.213   0.766  15.938  0.9715 -0.1293  2.0978
  766MPD2     C11306   1.712   1.004  15.646  0.0597  0.5114 -1.1697
  766MPD2    C111307   1.844   0.979  15.604 -0.3344  0.8573 -0.2071
  766MPD2    C211308   1.863   0.921  15.481 -0.6481 -0.1248 -0.1539
  766MPD2    C311309   1.766   0.869  15.399  0.4123  0.3903  0.3052
  766MPD2    C411310   1.637   0.912  15.434  0.1405  0.9118  0.2920
  766MPD2    C511311   1.612   0.977  15.552 -0.1803  0.5694 -0.1487
  766MPD2     H11312   1.968   0.906  15.458  0.0883 -0.2119  3.2460
  766MPD2    H111313   1.551   0.890  15.371  1.3065  2.8108 -1.9895
  766MPD2    H211314   1.697   1.031  15.750 -1.2355 -0.5130 -1.0960
  766MPD2    H311315   1.508   0.998  15.572 -0.7350 -1.2698 -1.1615
  766MPD2     N11316   1.793   0.799  15.275 -0.0237  0.3137  0.2427
  766MPD2    H511317   1.720   0.772  15.210  0.1836 -2.2270  1.0382
  766MPD2    N111318   1.950   1.002  15.697  0.0779 -0.3566 -0.6258
  766MPD2    H711319   2.036   0.953  15.676  1.4737  1.1574  1.5223
  767MPD2     C11320   1.528   1.189  15.285 -0.1106  1.0430 -0.1007
  767MPD2    C111321   1.631   1.161  15.201 -0.9158  0.3395  0.0504
  767MPD2    C211322   1.606   1.118  15.069 -0.0551 -0.3915 -0.5086
  767MPD2    C311323   1.472   1.095  15.030 -0.1204  0.1998  0.1589
  767MPD2    C411324   1.371   1.110  15.120 -0.1650 -0.3579 -0.4845
  767MPD2    C511325   1.397   1.167  15.244 -0.4423 -0.6730 -0.4549
  767MPD2     H11326   1.687   1.081  15.008  0.8015 -0.8991  0.9403
  767MPD2    H111327   1.269   1.089  15.094  0.1335 -2.6336  0.1365
  767MPD2    H211328   1.556   1.220  15.385  0.2483 -2.8220  1.0147
  767MPD2    H311329   1.320   1.189  15.317  1.1890  1.3697  0.6431
  767MPD2     N11330   1.448   1.042  14.900  0.4366 -0.1859 -0.0215
  767MPD2    H511331   1.536   1.022  14.855  0.4554  0.8716 -0.4573
  767MPD2    N111332   1.765   1.188  15.253  0.0258  0.0255  0.4702
  767MPD2    H711333   1.774   1.225  15.347 -0.3996 -1.7678  1.2123
  768MPD2     C11334   2.770   4.400  10.763 -0.5170 -0.2965 -0.2287
  768MPD2    C111335   2.726   4.282  10.821  0.1738 -0.0641 -0.1139
  768MPD2    C211336   2.800   4.235  10.927 -0.0970 -0.0699 -0.5647
  768MPD2    C311337   2.906   4.306  10.986  0.8251  0.3749 -0.2921
  768MPD2    C411338   2.954   4.407  10.916 -0.7227  0.3525 -0.1223
  768MPD2    C511339   2.886   4.456  10.807 -0.0375 -0.2102 -0.7949
  768MPD2     H11340   2.766   4.147  10.980 -0.8432  1.6280  1.7576
  768MPD2    H111341   3.048   4.458  10.935 -1.0397  1.3876 -1.3773
  768MPD2    H211342   2.731   4.440  10.669 -0.6810  0.1428  0.0233
  768MPD2    H311343   2.942   4.532  10.754 -1.5289  1.3320 -0.1576
  768MPD2     N11344   2.987   4.260  11.096 -0.3931  0.1180  0.1263
  768MPD2    H511345   3.053   4.327  11.134  0.3518 -1.0281  0.8371
  768MPD2    N111346   2.617   4.205  10.774 -0.4828  0.1428  0.3262
  768MPD2    H711347   2.597   4.125  10.833  1.1960  1.1174  2.1963
  769MPD2     C11348   3.459   2.421  15.090  0.1379  0.7811  0.0295
  769MPD2    C111349   3.373   2.435  15.199  0.2381  0.1564  0.4524
  769MPD2    C211350   3.435   2.464  15.322 -0.3813  0.0438 -0.6175
  769MPD2    C311351   3.574   2.465  15.335 -0.3188  0.3743  0.0558
  769MPD2    C411352   3.654   2.458  15.226  0.3485 -0.0320  0.1780
  769MPD2    C511353   3.592   2.442  15.106 -0.3230 -0.0474  0.5539
  769MPD2     H11354   3.382   2.467  15.416  0.9256  0.4950  0.0966
  769MPD2    H111355   3.762   2.456  15.230  0.3846  1.0109 -0.3288
  769MPD2    H211356   3.427   2.376  14.997  1.5930 -2.8616  1.2813
  769MPD2    H311357   3.662   2.418  15.027 -1.4142 -0.7069 -0.2057
  769MPD2     N11358   3.626   2.473  15.467  0.6394  0.0268  0.3674
  769MPD2    H511359   3.556   2.480  15.540 -0.2639  0.0776 -0.5024
  769MPD2    N111360   3.236   2.419  15.181 -0.6409  0.0312 -0.2129
  769MPD2    H711361   3.217   2.359  15.102  1.4681  1.3186 -1.6734
  770MPD2     C11362   3.006   1.529  15.564  0.4094  0.5209 -0.5066
  770MPD2    C111363   3.037   1.542  15.431 -0.1197  0.2933 -0.0025
  770MPD2    C211364   3.031   1.671  15.373 -0.0766  1.0814 -0.1120
  770MPD2    C311365   2.987   1.782  15.438  0.3715 -0.0668 -0.4948
  770MPD2    C411366   2.956   1.763  15.572  0.0515 -0.1090  0.1167
  770MPD2    C511367   2.962   1.640  15.633  0.7411 -0.0535  0.0789
  770MPD2     H11368   3.062   1.682  15.270  0.9309 -2.6923 -0.2291
  770MPD2    H111369   2.920   1.843  15.636 -3.2846 -0.9831 -0.6990
  770MPD2    H211370   3.003   1.431  15.611  1.3768  0.1187 -1.3018
  770MPD2    H311371   2.943   1.643  15.739  1.9000  1.0936  0.2432
  770MPD2     N11372   2.985   1.909  15.378  0.5368 -0.3978 -0.1563
  770MPD2    H511373   3.015   1.914  15.282  2.6170  1.3630  0.5796
  770MPD2    N111374   3.092   1.432  15.368 -0.3684 -0.6751 -0.2655
  770MPD2    H711375   3.094   1.343  15.417  0.3400 -0.7953 -0.5131
  771MPD2     C11376   4.331   0.103  13.927  1.0291 -0.0539 -0.3080
  771MPD2    C111377   4.253   0.214  13.903 -0.4792  1.0696  0.5909
  771MPD2    C211378   4.181   0.223  13.789  0.5408  0.0107  0.3878
  771MPD2    C311379   4.176   0.123  13.697  0.2783  0.8972  0.1500
  771MPD2    C411380   4.262   0.008  13.716  0.7470 -0.0720 -0.2308
  771MPD2    C511381   4.331   4.723  13.836 -0.0170  0.0627 -0.9245
  771MPD2     H11382   4.124   0.315  13.779 -1.8624 -1.4742  0.4534
  771MPD2    H111383   4.261   4.649  13.648  0.6783 -1.1826  1.1706
  771MPD2    H211384   4.389   0.085  14.016  1.0786  2.1060  0.0875
  771MPD2    H311385   4.393   4.635  13.852 -2.2657 -1.4943 -0.7480
  771MPD2     N11386   4.110   0.154  13.577 -0.0819 -0.3433 -0.0120
  771MPD2    H511387   4.063   0.244  13.578 -1.8885 -1.2681 -0.3290
  771MPD2    N111388   4.265   0.330  13.980 -0.3473  0.1240 -0.2132
  771MPD2    H711389   4.217   0.411  13.942  1.9561  1.5063 -0.1349
  772MPD2     C11390   3.887   0.922  14.114  0.1889  0.0416  0.9152
  772MPD2    C111391   3.930   0.814  14.037  0.3081  0.1738 -0.1685
  772MPD2    C211392   3.859   0.783  13.921 -0.0613  0.3698 -0.6984
  772MPD2    C311393   3.752   0.858  13.877 -0.5600 -0.4471  0.8143
  772MPD2    C411394   3.716   0.965  13.958  0.5245  0.8573  0.2770
  772MPD2    C511395   3.785   1.001  14.065 -0.4330 -0.4215 -0.7570
  772MPD2     H11396   3.900   0.702  13.862  1.8474  0.8009  0.0432
  772MPD2    H111397   3.628   1.025  13.939 -0.5913 -0.0130  2.6424
  772MPD2    H211398   3.936   0.953  14.205 -0.3317  1.0281  0.8587
  772MPD2    H311399   3.760   1.085  14.128  0.2579 -0.8087  0.0424
  772MPD2     N11400   3.666   0.833  13.769  0.1697  0.0006 -0.2168
  772MPD2    H511401   3.586   0.894  13.758  0.1562 -0.2224 -1.3586
  772MPD2    N111402   4.049   0.745  14.057 -0.0714  0.4232  0.6289
  772MPD2    H711403   4.061   0.670  13.990 -1.2158  0.0045  0.9020
  773MPD2     C11404   2.585   1.855   0.190  0.1495 -0.5056  0.8904
  773MPD2    C111405   2.585   1.779   0.072  0.4049 -0.3343 -0.8987
  773MPD2    C211406   2.670   1.675   0.059 -0.0170  0.0193 -0.2511
  773MPD2    C311407   2.778   1.654   0.150  0.0368 -0.1132 -0.1936
  773MPD2    C411408   2.793   1.743   0.257 -0.0837 -0.2764 -0.5511
  773MPD2    C511409   2.698   1.843   0.272  0.2757  0.4460 -0.0568
  773MPD2     H11410   2.664   1.615  17.672  0.4660 -1.8632  0.9682
  773MPD2    H111411   2.870   1.738   0.332 -0.2084 -0.9283 -0.4670
  773MPD2    H211412   2.519   1.938   0.210  1.6812  1.4162 -2.1047
  773MPD2    H311413   2.710   1.907   0.358 -1.3271  0.0714  0.4425
  773MPD2     N11414   2.874   1.554   0.111  0.2196  0.2856 -0.3645
  773MPD2    H511415   2.852   1.507   0.024  0.6050  0.4017 -0.5256
  773MPD2    N111416   2.490   1.805  17.672 -0.2450  0.1575 -0.2230
  773MPD2    H711417   2.506   1.743  17.593 -1.0269  0.0206 -0.2701
  774MPD2     C11418   2.443   0.710  14.154  0.3919 -0.4333  1.1314
  774MPD2    C111419   2.504   0.769  14.050  0.5750  0.1115 -0.7177
  774MPD2    C211420   2.536   0.904  14.071 -0.5206 -0.5474 -0.0841
  774MPD2    C311421   2.494   0.975  14.187 -0.4700  0.0411 -0.2000
  774MPD2    C411422   2.436   0.914  14.293 -0.3194  0.0488 -0.1078
  774MPD2    C511423   2.424   0.778  14.277  0.2523 -1.1925 -0.0711
  774MPD2     H11424   2.593   0.962  14.000  2.1034 -1.6599  1.1327
  774MPD2    H111425   2.402   0.966  14.382  0.8533  1.8577 -0.7149
  774MPD2    H211426   2.411   0.607  14.160  2.5244 -1.0955  0.8365
  774MPD2    H311427   2.395   0.727  14.368 -0.3565  1.0565  0.9750
  774MPD2     N11428   2.511   1.112  14.179 -0.4254  0.0369 -0.0390
  774MPD2    H511429   2.537   1.152  14.089  1.6644  3.2114  1.9711
  774MPD2    N111430   2.524   0.697  13.928 -0.2183 -0.4618 -0.3752
  774MPD2    H711431   2.467   0.613  13.925  1.0423 -1.3427 -0.0789
  775MPD2     C11432   3.963   2.226  16.301 -0.9532  0.5072  0.5164
  775MPD2    C111433   3.896   2.344  16.278  0.0463  0.2615 -0.6752
  775MPD2    C211434   3.952   2.442  16.198  0.4186 -0.1335  0.4370
  775MPD2    C311435   4.080   2.434  16.149  1.0633 -0.6929 -0.1003
  775MPD2    C411436   4.146   2.313  16.160  0.0054  0.4793  0.9141
  775MPD2    C511437   4.082   2.213  16.240  0.3025 -0.4866  0.0785
  775MPD2     H11438   3.905   2.539  16.183  0.8711 -0.1367 -1.0526
  775MPD2    H111439   4.240   2.283  16.115  0.5718  2.2301  0.9268
  775MPD2    H211440   3.912   2.140  16.345  2.4362 -2.6355 -1.6436
  775MPD2    H311441   4.129   2.117  16.259  3.1024  0.8069 -0.3176
  775MPD2     N11442   4.136   2.542  16.073 -0.2799  0.1369  0.4815
  775MPD2    H511443   4.216   2.524  16.014 -0.1081  1.0105  0.4446
  775MPD2    N111444   3.764   2.358  16.325 -0.1938  0.0598 -0.6433
  775MPD2    H711445   3.729   2.280  16.379 -0.4925  2.0098  2.0142
  776MPD2     C11446   2.928   2.821  12.007  0.2527 -0.7901  0.3291
  776MPD2    C111447   2.979   2.735  11.908  0.0555  0.2059 -0.7306
  776MPD2    C211448   2.987   2.787  11.779 -0.0938  0.0864  0.1003
  776MPD2    C311449   2.969   2.919  11.753 -0.8178  0.3345 -0.1090
  776MPD2    C411450   2.920   3.002  11.850  0.8422  0.2168 -0.3528
  776MPD2    C511451   2.898   2.950  11.978  0.2570  0.2576  0.4911
  776MPD2     H11452   3.029   2.730  11.698 -1.0362  0.6206 -0.7605
  776MPD2    H111453   2.896   3.106  11.835 -0.4582  0.3627  2.8638
  776MPD2    H211454   2.933   2.795  12.112 -0.9053  0.0241  0.5909
  776MPD2    H311455   2.868   3.018  12.057 -0.0117 -0.0272  0.6341
  776MPD2     N11456   3.005   2.973  11.624  0.0557  0.3460 -0.0301
  776MPD2    H511457   3.023   3.073  11.627  1.0951  0.2051 -1.4293
  776MPD2    N111458   3.031   2.606  11.946  0.4091  0.0335  0.4787
  776MPD2    H711459   3.037   2.601  12.047 -2.7119 -2.6760  0.5165
  777MPD2     C11460   3.230   4.132   0.525  0.1114 -0.5899 -0.4168
  777MPD2    C111461   3.131   4.191   0.594 -0.0300  0.8957 -0.3481
  777MPD2    C211462   3.007   4.148   0.562 -0.3372 -0.0713  0.6351
  777MPD2    C311463   2.980   4.049   0.470  0.1411  0.3903  0.1214
  777MPD2    C411464   3.088   4.002   0.387  0.3204  0.1101  0.4240
  777MPD2    C511465   3.214   4.046   0.421  0.1399 -0.4992  0.1383
  777MPD2     H11466   2.925   4.199   0.612 -1.8816 -1.2414 -0.6869
  777MPD2    H111467   3.080   3.927   0.308  0.7776 -2.0829  2.4691
  777MPD2    H211468   3.329   4.169   0.549  0.7368 -1.9609 -0.8243
  777MPD2    H311469   3.302   4.007   0.371  1.6705  0.3948  2.1236
  777MPD2     N11470   2.842   4.015   0.448  0.1695 -0.1497 -0.1564
  777MPD2    H511471   2.769   4.062   0.500  0.7509  0.0148  0.5126
  777MPD2    N111472   3.163   4.285   0.691  0.6721  0.2228 -0.4456
  777MPD2    H711473   3.262   4.301   0.707  0.5495 -0.2342  0.8055
  778MPD2     C11474   4.172   0.310  15.342 -1.1550  0.7727  0.3486
  778MPD2    C111475   4.121   0.275  15.220 -0.2439  0.4001 -0.2659
  778MPD2    C211476   4.161   0.345  15.107 -0.0788  0.3412  0.4063
  778MPD2    C311477   4.257   0.444  15.108 -0.4632 -0.0122  0.0855
  778MPD2    C411478   4.315   0.479  15.229  0.6832  0.2023  0.5089
  778MPD2    C511479   4.271   0.410  15.343  1.2602 -0.4122 -0.0460
  778MPD2     H11480   4.126   0.319  15.007 -1.2900  0.8183  0.7039
  778MPD2    H111481   4.387   0.560  15.228  2.4355 -1.3579  1.2174
  778MPD2    H211482   4.135   0.269  15.435  0.5136 -0.4824  0.4554
  778MPD2    H311483   4.325   0.427  15.435 -1.8173  0.8218  1.5535
  778MPD2     N11484   4.279   0.505  14.980 -0.0429  0.0846 -0.0552
  778MPD2    H511485   4.213   0.469  14.913 -1.5107 -1.2850  2.1307
  778MPD2    N111486   4.024   0.171  15.203  0.0113 -0.5878  0.1833
  778MPD2    H711487   3.985   0.163  15.109  0.7789  0.6515 -0.2467
  779MPD2     C11488   3.656   3.784  14.389  0.3296  0.6166  0.2826
  779MPD2    C111489   3.790   3.806  14.399  0.6679 -0.2321 -0.3367
  779MPD2    C211490   3.846   3.926  14.361  0.1657  0.6576  1.0699
  779MPD2    C311491   3.768   4.023  14.300 -0.9716  0.1097  0.1881
  779MPD2    C411492   3.628   4.001  14.291  0.6003  0.4319  0.0868
  779MPD2    C511493   3.573   3.884  14.340  0.4490  0.6796  0.2929
  779MPD2     H11494   3.952   3.937  14.381  0.7109 -1.4685 -0.7089
  779MPD2    H111495   3.563   4.074  14.245  1.6161  2.2526  1.4996
  779MPD2    H211496   3.609   3.696  14.432 -1.3906  1.0292 -0.7243
  779MPD2    H311497   3.469   3.856  14.341  0.3769  0.9787  1.2770
  779MPD2     N11498   3.832   4.147  14.268  0.4396 -0.2477 -0.3206
  779MPD2    H511499   3.930   4.162  14.289  0.1727  0.1740  0.6086
  779MPD2    N111500   3.871   3.703  14.455  0.4202 -0.1954  0.3241
  779MPD2    H711501   3.970   3.724  14.467  0.4486 -0.7027  0.9806
  780MPD2     C11502   2.757   3.697   0.786  0.2033 -0.1179 -0.7785
  780MPD2    C111503   2.766   3.637   0.661  0.8984  0.0397  0.6038
  780MPD2    C211504   2.888   3.652   0.592 -0.6274  0.0992  0.3107
  780MPD2    C311505   2.993   3.724   0.646  0.3072 -0.1159 -0.2801
  780MPD2    C411506   2.980   3.776   0.772  0.2677 -0.1706 -0.2643
  780MPD2    C511507   2.862   3.760   0.838 -0.3156 -0.2105  0.3303
  780MPD2     H11508   2.892   3.605   0.495 -0.2354 -0.9398  0.8268
  780MPD2    H111509   3.064   3.830   0.814  0.5809  2.0992 -3.7502
  780MPD2    H211510   2.663   3.705   0.841  0.5640  0.1728 -0.2007
  780MPD2    H311511   2.847   3.812   0.932 -0.1923  0.7157 -0.1634
  780MPD2     N11512   3.108   3.722   0.566 -0.0064  0.2359 -0.6117
  780MPD2    H511513   3.100   3.701   0.467  0.3012 -1.3810 -0.2874
  780MPD2    N111514   2.649   3.577   0.613  0.3300 -0.7452 -0.3899
  780MPD2    H711515   2.572   3.566   0.678  0.1803 -2.5148 -0.8627
  781MPD2     C11516   0.807   1.016  11.789 -0.5919 -0.6202  0.4137
  781MPD2    C111517   0.820   0.975  11.923 -0.4723  0.0119  0.5988
  781MPD2    C211518   0.882   0.850  11.947 -0.2313 -0.1258 -0.0371
  781MPD2    C311519   0.920   0.772  11.838  0.3841 -0.1765 -0.7223
  781MPD2    C411520   0.899   0.819  11.709  0.6603  0.1468  0.0614
  781MPD2    C511521   0.846   0.939  11.686 -0.4702  0.0242  0.5212
  781MPD2     H11522   0.884   0.817  12.050  1.7681 -1.9813 -0.6733
  781MPD2    H111523   0.935   0.766  11.621  0.7044  1.7923 -0.9159
  781MPD2    H211524   0.761   1.113  11.775  4.3290  1.1422 -3.6359
  781MPD2    H311525   0.822   0.971  11.585 -0.7135 -0.2738  0.4813
  781MPD2     N11526   0.984   0.644  11.858  0.1801 -0.2867  0.3048
  781MPD2    H511527   1.007   0.589  11.775  3.4424 -0.1555  1.1047
  781MPD2    N111528   0.781   1.058  12.033  0.6680  0.5127  0.0471
  781MPD2    H711529   0.786   1.011  12.123  0.5233  3.0173  1.3670
  782MPD2     C11530   3.113   1.855  10.731  0.0614  0.5556 -0.0128
  782MPD2    C111531   3.252   1.843  10.708 -0.9597 -0.4066  0.1870
  782MPD2    C211532   3.335   1.908  10.792 -0.2067  0.2589 -0.5805
  782MPD2    C311533   3.280   1.978  10.896  0.1922 -0.0778  0.0274
  782MPD2    C411534   3.147   1.999  10.913  0.1165  0.4501 -0.4241
  782MPD2    C511535   3.059   1.934  10.827  0.4462  0.4434 -0.3742
  782MPD2     H11536   3.434   1.864  10.801  0.0699  0.7324 -1.3308
  782MPD2    H111537   3.108   2.060  10.994 -0.5371  0.1584 -0.5177
  782MPD2    H211538   3.044   1.794  10.673  1.3354 -0.1570 -0.7685
  782MPD2    H311539   2.951   1.930  10.839  0.6442  1.0004  1.6591
  782MPD2     N11540   3.377   2.015  10.990 -0.0548  0.2563  0.6223
  782MPD2    H511541   3.474   1.991  10.975 -0.5712 -1.3262 -0.2486
  782MPD2    N111542   3.307   1.752  10.615 -0.3061  0.0089  0.5330
  782MPD2    H711543   3.239   1.689  10.572  2.3240 -2.2987 -0.2538
  783MPD2     C11544   3.116   1.044  10.940 -0.1175 -0.3861 -0.4019
  783MPD2    C111545   3.153   1.167  10.988  0.1166  0.0903  0.6019
  783MPD2    C211546   3.249   1.241  10.915  0.2863 -0.3314 -0.3504
  783MPD2    C311547   3.293   1.196  10.796 -0.2797  0.3713  0.3103
  783MPD2    C411548   3.258   1.070  10.756 -0.5152  0.0121 -0.1697
  783MPD2    C511549   3.175   0.994  10.835  1.0128  0.4527  0.0608
  783MPD2     H11550   3.274   1.343  10.939  2.5777 -0.4946 -1.9662
  783MPD2    H111551   3.306   1.031  10.666  0.2160 -1.3050  0.7923
  783MPD2    H211552   3.060   0.972  10.999  1.8326 -0.3632  1.4449
  783MPD2    H311553   3.154   0.887  10.829 -0.9563  0.8510 -0.2870
  783MPD2     N11554   3.366   1.292  10.718  0.1853  0.1153  0.3147
  783MPD2    H511555   3.373   1.386  10.756  0.5805  0.2693 -0.1365
  783MPD2    N111556   3.084   1.213  11.091 -0.2823 -0.5045 -0.2604
  783MPD2    H711557   2.996   1.166  11.109  0.6924 -2.7070 -1.2872
  784MPD2     C11558   1.543   2.180   0.746  0.0936 -0.1233 -0.3227
  784MPD2    C111559   1.410   2.152   0.729 -0.2378 -0.9014  0.4712
  784MPD2    C211560   1.327   2.222   0.644  0.1594  0.1766  1.0714
  784MPD2    C311561   1.380   2.338   0.588  0.0229  0.2650  0.3449
  784MPD2    C411562   1.511   2.372   0.603  0.5032 -0.4900  0.2762
  784MPD2    C511563   1.593   2.294   0.685 -0.0303 -0.2301  0.1708
  784MPD2     H11564   1.223   2.192   0.634  1.3197 -3.3439 -0.4955
  784MPD2    H111565   1.564   2.451   0.550 -2.7996  2.8694  2.0227
  784MPD2    H211566   1.615   2.126   0.806 -2.3722 -2.9285  0.0565
  784MPD2    H311567   1.701   2.304   0.687  0.1276 -1.7323 -1.2556
  784MPD2     N11568   1.299   2.426   0.499  0.3708  0.8517 -0.2188
  784MPD2    H511569   1.345   2.492   0.436  2.4619  1.3564  1.8337
  784MPD2    N111570   1.356   2.046   0.811 -0.8449 -0.8447 -0.3587
  784MPD2    H711571   1.255   2.049   0.808 -0.7802  1.8937  0.5363
  785MPD2     C11572   0.693   0.916  10.118 -0.4881  0.0195 -0.6982
  785MPD2    C111573   0.653   1.043  10.082  0.0883 -0.0488  0.2055
  785MPD2    C211574   0.575   1.056   9.968 -0.0204  0.2730  0.0633
  785MPD2    C311575   0.549   0.945   9.886  0.6805  0.2428  0.1132
  785MPD2    C411576   0.611   0.825   9.924  0.5610 -0.0692 -0.9173
  785MPD2    C511577   0.684   0.809  10.036 -0.3040  0.3129 -0.5363
  785MPD2     H11578   0.533   1.149   9.933  0.3955  0.6260  0.4992
  785MPD2    H111579   0.591   0.732   9.871 -1.0191 -0.0168 -0.3927
  785MPD2    H211580   0.741   0.902  10.214 -1.1598 -0.8893 -0.4959
  785MPD2    H311581   0.716   0.710  10.068  1.5554  1.1875  0.3202
  785MPD2     N11582   0.468   0.966   9.772 -0.7312  0.0756  0.0997
  785MPD2    H511583   0.422   1.054   9.754 -2.5749 -0.6227  1.3587
  785MPD2    N111584   0.689   1.154  10.160  0.1978  0.5694  0.2925
  785MPD2    H711585   0.761   1.127  10.226  1.6839  0.9150 -1.1943
  786MPD2     C11586   4.001   3.169  14.746  0.6612 -0.1065  0.6971
  786MPD2    C111587   4.121   3.101  14.757  0.0823  0.6053 -0.0666
  786MPD2    C211588   4.211   3.145  14.846  0.1484  0.2461  0.4404
  786MPD2    C311589   4.184   3.243  14.949 -0.1142  0.5177  0.2592
  786MPD2    C411590   4.067   3.310  14.926 -0.7110 -0.3379 -0.1453
  786MPD2    C511591   3.974   3.269  14.834  0.0916  0.4063 -0.3211
  786MPD2     H11592   4.305   3.092  14.843  1.4918  2.4305  3.3386
  786MPD2    H111593   4.037   3.395  14.986 -1.6599 -1.7035  1.2965
  786MPD2    H211594   3.927   3.146  14.670  1.7888 -0.0408 -0.4161
  786MPD2    H311595   3.879   3.322  14.828 -0.2606  0.1920  3.0429
  786MPD2     N11596   4.283   3.295  15.032 -0.4137  0.0852  0.1135
  786MPD2    H511597   4.260   3.367  15.100 -1.3912 -0.1118 -0.0089
  786MPD2    N111598   4.159   2.992  14.669 -0.0366  0.3624 -0.0378
  786MPD2    H711599   4.251   2.953  14.685 -0.8829 -1.6305  0.0029
  787MPD2     C11600   4.531   2.690  14.938  0.0095 -0.4078  0.1292
  787MPD2    C111601   4.543   2.618  14.813 -0.0692  0.6471 -0.2749
  787MPD2    C211602   4.647   2.518  14.796  0.5490  0.1519  0.1524
  787MPD2    C311603   0.009   2.496  14.899 -0.0808 -0.2499 -0.2370
  787MPD2    C411604   4.722   2.570  15.015  0.1804 -0.8123 -0.3949
  787MPD2    C511605   4.621   2.659  15.040  0.3453  0.1346  0.4981
  787MPD2     H11606   4.646   2.470  14.699 -1.2800  0.4636  0.0299
  787MPD2    H111607   0.050   2.544  15.105 -1.3245 -1.9511  0.1526
  787MPD2    H211608   4.445   2.752  14.960  1.9254  2.3454 -0.2470
  787MPD2    H311609   4.596   2.696  15.139  1.1880  1.1766  0.3181
  787MPD2     N11610   0.093   2.388  14.882  0.5031  0.3664  0.3207
  787MPD2    H511611   0.082   2.339  14.793 -2.5873  0.6793  0.5153
  787MPD2    N111612   4.461   2.663  14.708  0.0581 -0.4683 -0.4657
  787MPD2    H711613   4.406   2.747  14.725  2.5669  0.8507  1.0153
  788MPD2     C11614   1.426   0.843   0.848 -0.2477  1.5317 -0.3414
  788MPD2    C111615   1.503   0.768   0.767 -0.3806  0.7666  0.3437
  788MPD2    C211616   1.596   0.833   0.681  0.0986 -0.6639 -0.1466
  788MPD2    C311617   1.591   0.970   0.678 -0.4851  0.4133  0.6001
  788MPD2    C411618   1.512   1.041   0.765  0.7739  0.1313  0.0062
  788MPD2    C511619   1.432   0.976   0.853  0.5571  0.1542 -0.9826
  788MPD2     H11620   1.656   0.780   0.608  0.0026  0.6443 -1.1732
  788MPD2    H111621   1.509   1.149   0.763  0.1850  0.0976 -0.9349
  788MPD2    H211622   1.359   0.797   0.921  0.7285  0.3478 -0.1864
  788MPD2    H311623   1.378   1.032   0.928  1.5216 -1.0794  0.6248
  788MPD2     N11624   1.669   1.031   0.574  1.0737 -0.6880  0.1008
  788MPD2    H511625   1.725   0.971   0.514  1.1846 -0.9697  0.4847
  788MPD2    N111626   1.490   0.625   0.769  0.2216 -0.2077  0.2254
  788MPD2    H711627   1.533   0.572   0.694 -0.2026 -1.2144  0.6855
  789MPD2     C11628   2.566   1.131  16.125  0.2915 -0.2292  0.7177
  789MPD2    C111629   2.493   1.019  16.164 -0.5674  0.0333 -0.6669
  789MPD2    C211630   2.360   1.032  16.191 -0.0346 -0.2551  0.2183
  789MPD2    C311631   2.294   1.150  16.169 -0.2869 -0.1229  0.0594
  789MPD2    C411632   2.368   1.257  16.124  0.3391  0.6568  0.4736
  789MPD2    C511633   2.501   1.247  16.103  0.2984  0.6950  0.2680
  789MPD2     H11634   2.297   0.949  16.219 -1.8614 -0.1718 -3.6240
  789MPD2    H111635   2.330   1.358  16.110 -0.7688  0.4168  1.7418
  789MPD2    H211636   2.673   1.125  16.113  0.3058  1.4036  0.1365
  789MPD2    H311637   2.558   1.338  16.087  2.8090 -0.4929  2.3937
  789MPD2     N11638   2.160   1.179  16.179 -0.1051  0.2349  0.4336
  789MPD2    H511639   2.133   1.277  16.178 -1.2792 -0.0746  1.0762
  789MPD2    N111640   2.550   0.891  16.188  0.5214 -0.3939  0.0432
  789MPD2    H711641   2.483   0.827  16.229  0.0866 -0.9046 -1.4914
  790MPD2     C11642   3.036   3.083  13.717 -0.1043 -0.4373 -0.1546
  790MPD2    C111643   2.977   2.964  13.727  0.9881 -0.2802 -0.0350
  790MPD2    C211644   2.955   2.893  13.610  0.0590 -0.1843 -1.1548
  790MPD2    C311645   2.996   2.949  13.489  0.4466 -0.4907  1.2252
  790MPD2    C411646   3.044   3.081  13.481 -0.2760  0.2089  0.3577
  790MPD2    C511647   3.058   3.149  13.600  0.3284  0.4672  0.2747
  790MPD2     H11648   2.926   2.788  13.608  0.8046 -0.4038 -0.7330
  790MPD2    H111649   3.076   3.126  13.387  1.0390 -0.9499  0.2543
  790MPD2    H211650   3.058   3.142  13.806 -2.6944  2.5220 -1.4879
  790MPD2    H311651   3.099   3.250  13.610 -1.1447  1.1149 -0.2736
  790MPD2     N11652   2.968   2.879  13.372  0.6924 -0.2796  0.3289
  790MPD2    H511653   2.893   2.811  13.374 -0.2507  0.7018 -1.9986
  790MPD2    N111654   2.973   2.903  13.857  0.3967 -0.0286 -0.1069
  790MPD2    H711655   3.019   2.949  13.935 -0.3602 -2.1553  1.5851
  791MPD2     C11656   2.410   2.648  13.278  0.0507 -0.4145  0.2468
  791MPD2    C111657   2.475   2.601  13.165  0.8029  0.1682 -0.6615
  791MPD2    C211658   2.401   2.541  13.068  0.5529 -0.0294  0.7042
  791MPD2    C311659   2.269   2.522  13.079  0.6390 -0.4953  0.1812
  791MPD2    C411660   2.203   2.570  13.192  0.1571  0.1771 -0.8770
  791MPD2    C511661   2.270   2.632  13.294 -0.0163  0.5676 -0.3647
  791MPD2     H11662   2.452   2.514  12.976  0.4902 -1.2618  1.0397
  791MPD2    H111663   2.097   2.552  13.208  0.5667 -0.9401  0.5957
  791MPD2    H211664   2.454   2.704  13.360  1.5144  1.7312 -1.9995
  791MPD2    H311665   2.215   2.678  13.375 -0.2858  1.6417 -1.1529
  791MPD2     N11666   2.201   2.451  12.971  0.4743  0.4511  0.4418
  791MPD2    H511667   2.256   2.424  12.890  0.1183  0.8709  0.0581
  791MPD2    N111668   2.614   2.623  13.155 -0.1018  0.3388  0.2946
  791MPD2    H711669   2.662   2.671  13.231  0.1994 -1.0667  0.9899
  792MPD2     C11670   3.563   2.477  11.481 -0.5136 -0.5028  0.5975
  792MPD2    C111671   3.458   2.520  11.405 -0.9399 -0.2573  0.0268
  792MPD2    C211672   3.340   2.445  11.395  0.0848 -0.5664  0.3122
  792MPD2    C311673   3.315   2.338  11.477 -0.6762 -0.4431 -0.0864
  792MPD2    C411674   3.420   2.307  11.568  0.0994  0.0605  0.1160
  792MPD2    C511675   3.535   2.379  11.570  0.1620  1.4548 -0.7149
  792MPD2     H11676   3.260   2.472  11.326  0.6198  2.8174  1.0322
  792MPD2    H111677   3.411   2.222  11.634  2.7384 -0.3046  0.0037
  792MPD2    H211678   3.658   2.529  11.480 -0.0563 -1.3395  1.1522
  792MPD2    H311679   3.610   2.335  11.634 -0.5239 -1.1279 -1.6826
  792MPD2     N11680   3.206   2.248  11.461 -0.4609  0.3318 -0.2850
  792MPD2    H511681   3.207   2.166  11.522  0.7232  1.1133  0.7427
  792MPD2    N111682   3.480   2.631  11.333 -0.2360 -0.2692  0.1655
  792MPD2    H711683   3.572   2.675  11.335 -1.3093  1.8925  1.7412
  793MPD2     C11684   2.639   2.008  10.725  0.6447  0.0006 -0.4204
  793MPD2    C111685   2.746   2.090  10.754 -0.4835 -0.1105  0.4454
  793MPD2    C211686   2.767   2.126  10.890 -0.1045 -0.1604 -0.3780
  793MPD2    C311687   2.697   2.068  10.991 -0.0561  0.7632  0.7058
  793MPD2    C411688   2.599   1.983  10.965  0.2490  0.0579 -0.1820
  793MPD2    C511689   2.577   1.946  10.830  1.0888  0.3261 -0.2095
  793MPD2     H11690   2.856   2.184  10.912  0.1003 -0.9798  0.9244
  793MPD2    H111691   2.524   1.949  11.035 -0.3298  0.5504 -0.5623
  793MPD2    H211692   2.604   1.983  10.626 -0.4512  1.7734 -0.4856
  793MPD2    H311693   2.504   1.866  10.818  2.5362 -1.1358  0.7163
  793MPD2     N11694   2.747   2.107  11.114  0.2320  0.0657 -0.3408
  793MPD2    H511695   2.836   2.156  11.110  0.5944 -0.6427 -0.8553
  793MPD2    N111696   2.827   2.145  10.656  0.2131  0.3187  0.0751
  793MPD2    H711697   2.889   2.217  10.691 -1.0513  0.3005  2.3591
  794MPD2     C11698   2.106   2.353  17.136  0.3288  0.0059  0.2646
  794MPD2    C111699   2.181   2.252  17.094  0.7412  0.0199 -0.1847
  794MPD2    C211700   2.215   2.254  16.957  0.5016  0.4488 -0.6441
  794MPD2    C311701   2.162   2.342  16.870 -0.0380 -0.6468 -0.1018
  794MPD2    C411702   2.079   2.446  16.914  0.5694  0.3169 -0.1980
  794MPD2    C511703   2.062   2.450  17.048  0.7480  0.1036 -0.5706
  794MPD2     H11704   2.264   2.168  16.914 -1.5430 -1.3340  0.5898
  794MPD2    H111705   2.039   2.515  16.841  2.6445  1.3675 -0.3331
  794MPD2    H211706   2.085   2.369  17.241  3.5989 -0.7986  1.0216
  794MPD2    H311707   1.999   2.527  17.092  1.7572 -0.2416  1.4938
  794MPD2     N11708   2.174   2.334  16.730 -0.1153 -0.3380  1.2705
  794MPD2    H511709   2.121   2.400  16.673  0.8368 -0.0168  0.7605
  794MPD2    N111710   2.228   2.142  17.175 -0.4088 -0.1695  0.3895
  794MPD2    H711711   2.269   2.063  17.125  0.6946 -1.1157  2.7876
  795MPD2     C11712   0.392   3.915  14.177 -0.7428 -0.0904  0.3982
  795MPD2    C111713   0.393   3.847  14.055  0.7688  0.3656 -0.1832
  795MPD2    C211714   0.469   3.732  14.045  0.3381 -0.1937 -1.0982
  795MPD2    C311715   0.547   3.692  14.147 -0.7591  0.5489 -0.3779
  795MPD2    C411716   0.548   3.757  14.265  0.0040 -0.7624 -0.1089
  795MPD2    C511717   0.466   3.863  14.282  0.0857 -0.5436 -0.2688
  795MPD2     H11718   0.491   3.688  13.948  0.0827 -1.8498 -0.4030
  795MPD2    H111719   0.588   3.719  14.358 -0.2958  0.6372  0.5774
  795MPD2    H211720   0.329   4.003  14.179 -1.5433 -0.6531 -0.5992
  795MPD2    H311721   0.462   3.914  14.378 -0.3728  0.2348 -0.7047
  795MPD2     N11722   0.632   3.579  14.130  0.7276 -0.0229  0.0701
  795MPD2    H511723   0.634   3.535  14.039  0.6232  0.7313 -0.2933
  795MPD2    N111724   0.335   3.902  13.931  0.1010 -0.6361 -0.1432
  795MPD2    H711725   0.335   3.843  13.849 -0.2573 -0.3148 -0.3681
  796MPD2     C11726   4.637   1.006  16.232 -0.0736  1.1650  0.0463
  796MPD2    C111727   0.040   1.025  16.281 -0.2960  0.0873 -0.5215
  796MPD2    C211728   0.090   1.157  16.280 -0.0365  0.0097 -0.2561
  796MPD2    C311729   0.021   1.266  16.228  0.5305 -0.4548 -0.0824
  796MPD2    C411730   4.615   1.248  16.204 -0.6744 -0.8608 -0.1296
  796MPD2    C511731   4.568   1.118  16.194 -0.2604 -0.4975  0.0584
  796MPD2     H11732   0.189   1.181  16.317  0.0365  1.0475 -1.1287
  796MPD2    H111733   4.551   1.328  16.168  0.6473 -0.6820 -2.1025
  796MPD2    H211734   4.591   0.908  16.232 -0.6187  1.4313  2.4000
  796MPD2    H311735   4.468   1.103  16.155 -0.9490  1.9854  0.8793
  796MPD2     N11736   0.084   1.391  16.227  0.0915  0.6252 -0.3397
  796MPD2    H511737   0.178   1.392  16.265  0.5486  1.3116 -1.4643
  796MPD2    N111738   0.110   0.906  16.310  0.3179  0.2863  0.1506
  796MPD2    H711739   0.068   0.814  16.297 -0.1197  0.8020 -2.0832
  797MPD2     C11740   1.256   0.150  17.343 -0.2216 -0.1901 -0.2575
  797MPD2    C111741   1.374   0.168  17.282 -0.1612 -0.1780  0.0320
  797MPD2    C211742   1.378   0.243  17.162  0.6732 -0.0406 -0.4532
  797MPD2    C311743   1.268   0.308  17.116 -0.2553  0.5294 -0.4236
  797MPD2    C411744   1.150   0.289  17.178 -0.1178  0.3420 -0.2929
  797MPD2    C511745   1.145   0.215  17.292  1.1397 -1.0433 -0.3751
  797MPD2     H11746   1.473   0.259  17.112  1.7546  0.7150  1.8515
  797MPD2    H111747   1.058   0.342  17.157  0.4197  0.8979 -1.2489
  797MPD2    H211748   1.246   0.098  17.437  1.0529 -0.3721 -0.2179
  797MPD2    H311749   1.043   0.206  17.329  0.5441  1.5679 -1.3611
  797MPD2     N11750   1.291   0.398  17.012 -0.3256  0.1614  0.2318
  797MPD2    H511751   1.386   0.397  16.975 -1.2864  0.5824 -2.2210
  797MPD2    N111752   1.495   0.137  17.347  0.1356 -0.5244  0.0677
  797MPD2    H711753   1.581   0.165  17.301 -0.1671 -0.8334 -0.6804
  798MPD2     C11754   1.857   0.736  17.071  0.4561 -0.2279 -0.4819
  798MPD2    C111755   1.774   0.627  17.054  0.4941 -0.5299  0.0073
  798MPD2    C211756   1.789   0.514  17.129 -0.9147  0.7746 -0.1121
  798MPD2    C311757   1.869   0.526  17.245  0.2919 -0.4873 -0.0476
  798MPD2    C411758   1.924   0.646  17.281 -0.0358 -0.2424 -0.3133
  798MPD2    C511759   1.926   0.751  17.189 -0.3181  0.0940 -0.3651
  798MPD2     H11760   1.738   0.419  17.118  1.7980 -0.6728 -0.4237
  798MPD2    H111761   1.981   0.664  17.371 -0.0119  1.9206 -0.7692
  798MPD2    H211762   1.850   0.829  17.016  0.7523  1.7944  2.9373
  798MPD2    H311763   1.966   0.847  17.217  0.3416 -0.4811  0.6807
  798MPD2     N11764   1.865   0.412  17.321  0.3016 -0.4418  0.1357
  798MPD2    H511765   1.813   0.333  17.284  2.6107 -0.9125 -2.0699
  798MPD2    N111766   1.677   0.614  16.954  0.6130  0.2269 -0.1024
  798MPD2    H711767   1.619   0.531  16.953 -0.4916  0.9803  1.5787
  799MPD2     C11768   4.212   2.229  14.834 -0.1795 -0.3103 -0.0697
  799MPD2    C111769   4.164   2.125  14.753  0.3822  0.0161 -0.2632
  799MPD2    C211770   4.093   2.161  14.638 -0.2071 -0.0105 -0.5896
  799MPD2    C311771   4.094   2.293  14.596 -0.3733  0.1542  0.6593
  799MPD2    C411772   4.159   2.391  14.673  0.0493  0.2774 -0.4050
  799MPD2    C511773   4.210   2.361  14.790  0.5522 -0.6591 -0.2054
  799MPD2     H11774   4.044   2.078  14.589  2.2708 -0.6857 -1.9277
  799MPD2    H111775   4.175   2.490  14.633 -0.9945  0.4698 -0.3433
  799MPD2    H211776   4.242   2.208  14.936  0.3532 -0.5196 -0.2671
  799MPD2    H311777   4.242   2.443  14.852 -1.1139  0.5575 -0.9554
  799MPD2     N11778   4.051   2.329  14.466 -0.6561  0.3892 -0.6190
  799MPD2    H511779   4.067   2.424  14.434  1.1947  0.8900  1.7798
  799MPD2    N111780   4.165   1.990  14.786 -0.1069  0.2263 -0.7759
  799MPD2    H711781   4.099   1.933  14.735  1.1076 -0.7789 -1.2130
  800MPD2     C11782   0.116   2.890  13.969 -0.2431 -0.0546 -0.2290
  800MPD2    C111783   0.246   2.927  13.964 -0.3750 -0.1395  1.1390
  800MPD2    C211784   0.321   2.894  13.846  0.2264 -0.4682  0.2221
  800MPD2    C311785   0.251   2.849  13.731  0.2198 -1.2002 -0.2483
  800MPD2    C411786   0.116   2.821  13.741 -0.2408 -0.4048  0.5538
  800MPD2    C511787   0.057   2.822  13.863 -0.0929 -0.2194 -0.6831
  800MPD2     H11788   0.430   2.892  13.848  0.2803  0.5839 -2.3290
  800MPD2    H111789   0.063   2.784  13.655 -2.2140  2.2125  0.6710
  800MPD2    H211790   0.054   2.917  14.054 -2.3185 -4.4942 -0.3389
  800MPD2    H311791   4.675   2.808  13.871  0.0233 -0.6539  0.0970
  800MPD2     N11792   0.329   2.835  13.619 -0.4592  0.4160 -0.3884
  800MPD2    H511793   0.426   2.864  13.632 -0.7220  1.5651 -0.9794
  800MPD2    N111794   0.307   2.981  14.081 -0.2961 -0.2168 -0.4877
  800MPD2    H711795   0.247   2.977  14.163  1.6126  1.7493  0.9998
  801MPD2     C11796   0.093   3.178  14.693  0.3905  0.0646  0.2929
  801MPD2    C111797   0.138   3.220  14.567 -0.9148  0.5315 -0.0415
  801MPD2    C211798   0.055   3.302  14.494  0.1447 -0.2460  0.5365
  801MPD2    C311799   4.655   3.332  14.543 -0.5449  0.6462  0.1319
  801MPD2    C411800   4.622   3.296  14.671  0.4890  0.3920  1.3810
  801MPD2    C511801   4.700   3.215  14.743 -0.0050  0.2088 -0.1574
  801MPD2     H11802   0.097   3.337  14.400 -1.9571  1.4246  0.2113
  801MPD2    H111803   4.529   3.337  14.708 -1.4949 -1.5832 -1.3685
  801MPD2    H211804   0.148   3.109  14.756  2.2976  0.3379 -1.0441
  801MPD2    H311805   4.683   3.186  14.846 -1.2195 -3.3078 -1.3619
  801MPD2     N11806   4.555   3.403  14.465  0.1983  0.2342  0.1213
  801MPD2    H511807   4.478   3.447  14.514  0.9541 -0.6359  2.0878
  801MPD2    N111808   0.256   3.180  14.498  0.0213  0.4405  0.1471
  801MPD2    H711809   0.271   3.203  14.400 -0.3924 -1.2812 -0.3373
  802MPD2     C11810   4.451   3.697  17.289 -0.4814 -0.2541  0.4015
  802MPD2    C111811   4.478   3.832  17.286  0.1174 -0.0625 -0.4789
  802MPD2    C211812   4.543   3.885  17.179  0.1581 -0.2110  0.5709
  802MPD2    C311813   4.567   3.805  17.067 -0.4407  0.0156  0.2489
  802MPD2    C411814   4.532   3.674  17.069 -0.1549  0.1769 -0.0271
  802MPD2    C511815   4.487   3.616  17.180 -0.5058  0.2982 -0.5489
  802MPD2     H11816   4.568   3.989  17.167  0.8121 -0.6365 -1.7002
  802MPD2    H111817   4.543   3.618  16.977 -3.2183  0.6712 -0.6830
  802MPD2    H211818   4.427   3.645  17.381 -0.5113  0.1286  0.6107
  802MPD2    H311819   4.454   3.513  17.177  0.1546  0.0301  1.7440
  802MPD2     N11820   4.634   3.872  16.957 -0.1875  0.1423  0.1109
  802MPD2    H511821   4.652   3.971  16.969  0.5987 -0.3700  3.3244
  802MPD2    N111822   4.470   3.919  17.398  0.2923 -0.9407  0.0050
  802MPD2    H711823   4.511   4.010  17.377 -1.8018 -0.1495 -0.7070
  803MPD2     C11824   1.128   2.416  11.736 -0.6585  0.2835  0.1064
  803MPD2    C111825   1.215   2.419  11.845  0.1365  0.0753  0.2121
  803MPD2    C211826   1.182   2.366  11.969 -0.4410  0.5407 -0.0456
  803MPD2    C311827   1.043   2.338  11.998  0.8337 -0.4532  0.5842
  803MPD2    C411828   0.957   2.353  11.891  0.1570 -0.0527  0.0520
  803MPD2    C511829   0.997   2.391  11.765  0.3993  0.0786 -0.0156
  803MPD2     H11830   1.255   2.364  12.049 -1.2748 -0.4192  0.7043
  803MPD2    H111831   0.852   2.328  11.895 -0.5220  3.1469  1.8583
  803MPD2    H211832   1.150   2.468  11.644 -2.7126  1.1195  0.0890
  803MPD2    H311833   0.923   2.388  11.687 -0.9928  0.2954  1.3051
  803MPD2     N11834   0.989   2.282  12.118  0.8275 -0.5346 -0.1870
  803MPD2    H511835   0.891   2.259  12.122  0.5877  0.8020  1.8709
  803MPD2    N111836   1.348   2.471  11.835 -0.1594  0.1540 -0.1983
  803MPD2    H711837   1.406   2.462  11.918  0.9173 -0.5850 -1.0233
  804MPD2     C11838   0.374   3.834  16.875  0.3059  0.1933 -0.2683
  804MPD2    C111839   0.280   3.803  16.975 -0.1739  0.1076  0.5048
  804MPD2    C211840   0.225   3.900  17.053  0.1613 -0.1271  0.2093
  804MPD2    C311841   0.293   4.025  17.050 -0.1863  0.2750 -0.5809
  804MPD2    C411842   0.389   4.048  16.951 -0.3584  0.3919  0.4789
  804MPD2    C511843   0.428   3.958  16.861 -0.3244 -0.1541  0.1809
  804MPD2     H11844   0.145   3.881  17.124 -1.3170 -1.1400 -1.7406
  804MPD2    H111845   0.432   4.147  16.943 -0.2924  0.2743 -0.6025
  804MPD2    H211846   0.411   3.765  16.800 -1.1378 -2.0644  1.0762
  804MPD2    H311847   0.505   3.983  16.789 -0.8598  1.2724  0.0993
  804MPD2     N11848   0.260   4.135  17.131 -0.2022 -0.8490  0.1224
  804MPD2    H511849   0.327   4.210  17.142 -0.1987 -0.9399  0.7015
  804MPD2    N111850   0.230   3.675  17.000 -0.6121  0.4270  0.1718
  804MPD2    H711851   0.182   3.665  17.089  1.6982  2.4227  1.6549
  805MPD2     C11852   4.309   1.985  15.993 -0.0962  0.1693  0.3934
  805MPD2    C111853   4.342   2.092  15.918  0.8522 -0.2060 -0.9308
  805MPD2    C211854   4.475   2.133  15.916  0.1066 -0.3193 -0.0346
  805MPD2    C311855   4.571   2.064  15.982 -0.0426  0.8743 -0.0414
  805MPD2    C411856   4.535   1.955  16.048 -0.5277 -0.1613  0.0447
  805MPD2    C511857   4.411   1.917  16.057  0.0416 -0.6936  0.0539
  805MPD2     H11858   4.499   2.221  15.857 -0.2550  0.4074  0.9085
  805MPD2    H111859   4.612   1.902  16.103 -0.7623  1.5002  1.9630
  805MPD2    H211860   4.210   1.949  16.018  0.3706 -0.3851  1.4688
  805MPD2    H311861   4.388   1.831  16.117  1.2238 -0.5912  0.6424
  805MPD2     N11862   4.704   2.122  15.982 -0.0410 -0.4920  0.5750
  805MPD2    H511863   4.712   2.208  15.929 -0.2672 -1.2410 -0.6736
  805MPD2    N111864   4.249   2.176  15.858 -0.9923  0.7060  0.3354
  805MPD2    H711865   4.277   2.270  15.831  0.3557  0.0048 -0.6895
  806MPD2     C11866   0.837   1.862   0.267  0.0821 -0.0773  0.6531
  806MPD2    C111867   0.764   1.922   0.367  0.8325  0.0296  0.8883
  806MPD2    C211868   0.693   2.035   0.335 -1.0920 -0.0329  0.5038
  806MPD2    C311869   0.701   2.086   0.201  0.8860 -0.9559 -0.6986
  806MPD2    C411870   0.776   2.027   0.106  0.6004  0.9838 -0.7274
  806MPD2    C511871   0.847   1.913   0.140 -0.4377  0.5787 -0.0483
  806MPD2     H11872   0.631   2.084   0.410 -0.0536  0.1905  1.2232
  806MPD2    H111873   0.776   2.059   0.002  0.0661  1.3627 -0.6126
  806MPD2    H211874   0.894   1.771   0.281  1.6990  1.1175  1.7773
  806MPD2    H311875   0.897   1.859   0.061 -0.6731  0.9576 -0.4595
  806MPD2     N11876   0.620   2.200   0.166  0.4556  0.5217 -0.4231
  806MPD2    H511877   0.638   2.257   0.083  1.6377  2.3514  1.0702
  806MPD2    N111878   0.771   1.865   0.496 -0.1649 -0.2729 -0.3466
  806MPD2    H711879   0.807   1.770   0.492 -0.7860 -0.5735  1.2303
  807MPD2     C11880   0.200   1.647   1.108 -0.4878  0.1468 -0.2317
  807MPD2    C111881   0.299   1.554   1.079  0.0175 -0.6160  0.0498
  807MPD2    C211882   0.282   1.428   1.143  0.7668  0.0502  0.2927
  807MPD2    C311883   0.173   1.396   1.224  0.9082 -0.1637 -0.1687
  807MPD2    C411884   0.068   1.491   1.238 -0.4909 -0.1858 -0.2268
  807MPD2    C511885   0.088   1.614   1.186  0.8119 -0.1526 -0.0252
  807MPD2     H11886   0.354   1.348   1.129  0.1194 -0.2617 -1.2746
  807MPD2    H111887   4.705   1.479   1.299 -1.4543  0.6667 -1.4596
  807MPD2    H211888   0.212   1.738   1.051 -0.5358 -1.9191 -3.5772
  807MPD2    H311889   0.009   1.684   1.210 -0.2580 -1.9237  1.6080
  807MPD2     N11890   0.169   1.274   1.286  0.2221 -0.5495 -0.3327
  807MPD2    H511891   0.249   1.212   1.294 -0.6472 -1.1676  3.9707
  807MPD2    N111892   0.410   1.583   0.996 -0.4168  0.0816  0.9257
  807MPD2    H711893   0.469   1.502   0.977 -0.9394  0.3736 -1.8789
  808MPD2     C11894   0.569   4.176   9.217  0.5592  0.5343 -0.0596
  808MPD2    C111895   0.657   4.097   9.288  0.6002  0.5515 -0.3570
  808MPD2    C211896   0.771   4.153   9.347 -0.5707 -0.3914  0.8402
  808MPD2    C311897   0.793   4.292   9.346 -0.5967  0.3962  0.0229
  808MPD2    C411898   0.697   4.366   9.277  0.8505 -0.3469 -0.6397
  808MPD2    C511899   0.592   4.312   9.215 -0.3810  0.4232  0.0894
  808MPD2     H11900   0.836   4.083   9.398  1.3427 -1.1087 -2.5769
  808MPD2    H111901   0.718   4.472   9.269  1.0594 -0.3696 -0.4264
  808MPD2    H211902   0.479   4.144   9.165 -0.2636  0.7457  1.2370
  808MPD2    H311903   0.523   4.371   9.155 -1.2366  0.2842  0.9279
  808MPD2     N11904   0.896   4.362   9.413  0.1509 -0.2949  0.1996
  808MPD2    H511905   0.900   4.463   9.415 -1.4868 -0.1660 -2.3181
  808MPD2    N111906   0.646   3.957   9.295 -0.1717  0.2780 -1.0187
  808MPD2    H711907   0.718   3.903   9.342 -0.9481 -0.7249 -0.9889
  809MPD2     C11908   1.568   4.570   8.950 -0.0995  0.7934  0.2755
  809MPD2    C111909   1.601   4.473   9.047  0.1593 -0.8360 -0.2404
  809MPD2    C211910   1.542   4.479   9.170 -0.2133 -0.1791  0.1917
  809MPD2    C311911   1.444   4.575   9.199  0.2041  0.9182 -0.8697
  809MPD2    C411912   1.416   4.667   9.101  0.5923 -0.0423  0.2329
  809MPD2    C511913   1.473   4.664   8.973 -0.8252 -0.4220 -0.1926
  809MPD2     H11914   1.570   4.421   9.257  0.4960  1.8889  1.3180
  809MPD2    H111915   1.340   0.019   9.107 -0.6256 -1.4491  2.7113
  809MPD2    H211916   1.609   4.571   8.849 -1.5173 -0.5458 -0.3073
  809MPD2    H311917   1.442   0.007   8.896 -0.5360 -2.1721 -1.8601
  809MPD2     N11918   1.361   4.577   9.311 -0.0025 -0.1775  0.0917
  809MPD2    H511919   1.293   4.652   9.309  0.7921  0.5101 -0.9106
  809MPD2    N111920   1.699   4.375   9.028  0.6015 -0.6880  0.4534
  809MPD2    H711921   1.721   4.313   9.105 -0.4107 -0.4120  0.9573
  810MPD2     C11922   0.476   3.025  10.764  0.4774  0.2736 -0.1958
  810MPD2    C111923   0.456   2.901  10.835 -0.1686 -1.0440  0.1197
  810MPD2    C211924   0.540   2.884  10.943 -0.7237 -0.8061 -0.6058
  810MPD2    C311925   0.617   2.987  11.003  0.3205  0.0743  0.6372
  810MPD2    C411926   0.627   3.105  10.931 -0.0741 -0.5475 -0.4589
  810MPD2    C511927   0.556   3.120  10.813 -0.0309 -0.3123  0.1050
  810MPD2     H11928   0.545   2.786  10.989 -0.6248 -1.2238 -1.5043
  810MPD2    H111929   0.702   3.178  10.960  0.0270 -1.9113  2.7461
  810MPD2    H211930   0.428   3.045  10.669  0.7100  0.1959 -0.3283
  810MPD2    H311931   0.573   3.214  10.762 -0.8921 -0.7010 -0.8826
  810MPD2     N11932   0.679   2.974  11.128 -0.1909 -0.0667  0.1775
  810MPD2    H511933   0.662   3.048  11.195 -0.2739  0.1363 -0.0660
  810MPD2    N111934   0.371   2.804  10.776 -0.0756 -0.3837 -0.1710
  810MPD2    H711935   0.338   2.818  10.681  0.4042  0.4028 -0.2286
  811MPD2     C11936   4.496   2.573  10.229  0.1295 -0.1166  0.3793
  811MPD2    C111937   4.574   2.656  10.309  0.3723  0.4331  0.4578
  811MPD2    C211938   4.602   2.786  10.275  0.1612 -0.5744  0.2192
  811MPD2    C311939   4.558   2.835  10.156 -0.2276  0.1053  0.1111
  811MPD2    C411940   4.473   2.761  10.083  0.2719  0.2783 -0.6001
  811MPD2    C511941   4.435   2.633  10.122 -0.3675  0.2920  0.5814
  811MPD2     H11942   4.669   2.850  10.332 -1.4009  2.5403 -1.4379
  811MPD2    H111943   4.445   2.797   9.984 -1.4882  0.0327 -0.1882
  811MPD2    H211944   4.480   2.467  10.244  0.6054 -0.2694 -0.2138
  811MPD2    H311945   4.379   2.573  10.052 -2.0831  1.7849  0.6752
  811MPD2     N11946   4.597   2.964  10.108 -0.3540  1.0897  0.2571
  811MPD2    H511947   4.669   3.011  10.163  1.7861 -1.7196 -0.1777
  811MPD2    N111948   4.646   2.591  10.413  0.3849  0.3164 -0.2881
  811MPD2    H711949   4.651   2.489  10.418  1.2138  0.3584 -0.3230
  812MPD2     C11950   3.960   2.565  12.048  0.2970 -0.1989 -0.0788
  812MPD2    C111951   3.934   2.638  12.164 -0.3803 -0.3261 -0.5165
  812MPD2    C211952   3.916   2.573  12.283 -0.9519  0.4670  0.3465
  812MPD2    C311953   3.937   2.439  12.293  0.0734 -0.0653  0.1958
  812MPD2    C411954   3.967   2.372  12.175  0.2089  0.2587  0.2600
  812MPD2    C511955   3.987   2.433  12.053  0.4594 -0.0704 -0.4903
  812MPD2     H11956   3.883   2.620  12.375 -1.8913  2.9217 -1.2372
  812MPD2    H111957   3.986   2.265  12.170 -0.5158  0.1279  0.2023
  812MPD2    H211958   3.964   2.599  11.945 -0.6865 -1.9920 -0.7038
  812MPD2    H311959   3.998   2.370  11.965  2.9601 -1.4119  0.7624
  812MPD2     N11960   3.914   2.374  12.418  0.4935 -0.0527  0.2516
  812MPD2    H511961   3.899   2.438  12.495 -0.1214 -1.1752  1.0763
  812MPD2    N111962   3.901   2.771  12.137  0.0437 -0.1818 -0.3688
  812MPD2    H711963   3.916   2.804  12.042 -0.2870  1.2832  0.0811
  813MPD2     C11964   2.389   0.126  12.766  0.2044 -0.0211 -0.0431
  813MPD2    C111965   2.489   0.037  12.800 -0.2800 -0.2911  0.0845
  813MPD2    C211966   2.466   4.684  12.910  0.1966  0.0080 -0.4375
  813MPD2    C311967   2.339   4.668  12.972 -0.3153 -0.4879 -0.2539
  813MPD2    C411968   2.243   0.035  12.944 -0.1713  0.7111  0.0167
  813MPD2    C511969   2.268   0.127  12.840  0.0302 -0.5320 -0.6685
  813MPD2     H11970   2.543   4.612  12.934  0.8355 -0.1529 -3.0092
  813MPD2    H111971   2.145   0.047  12.989 -0.9880 -2.1018 -0.9997
  813MPD2    H211972   2.394   0.206  12.694 -1.3060  0.1514  0.0386
  813MPD2    H311973   2.197   0.206  12.823 -0.5049 -1.1446 -1.2990
  813MPD2     N11974   2.339   4.578  13.075 -0.1145 -0.2510  0.0579
  813MPD2    H511975   2.424   4.523  13.082  1.1772  1.5904 -1.1397
  813MPD2    N111976   2.607   0.043  12.731 -0.0747 -0.1377 -0.3620
  813MPD2    H711977   2.606   0.103  12.649 -1.1470  0.1936 -0.1145
  814MPD2     C11978   3.244   0.928  12.585  0.0282 -0.3835  0.1696
  814MPD2    C111979   3.257   0.974  12.451 -0.3599  0.2233 -0.5202
  814MPD2    C211980   3.352   1.067  12.424  0.2318  0.2476 -0.0476
  814MPD2    C311981   3.420   1.135  12.528  0.0509 -0.5338 -0.0783
  814MPD2    C411982   3.394   1.090  12.658  0.2816  0.4213 -0.6575
  814MPD2    C511983   3.309   0.986  12.693 -0.0043 -0.3556  0.1189
  814MPD2     H11984   3.354   1.105  12.323  0.2252 -0.8452 -0.4568
  814MPD2    H111985   3.441   1.147  12.737 -0.6753  1.5483 -0.9023
  814MPD2    H211986   3.173   0.849  12.610 -0.3085  0.3921  1.6537
  814MPD2    H311987   3.287   0.951  12.793  2.1089 -3.4820 -0.5169
  814MPD2     N11988   3.505   1.246  12.511  0.0928  0.3139 -0.3153
  814MPD2    H511989   3.548   1.276  12.598 -1.3404 -2.9393  1.4938
  814MPD2    N111990   3.193   0.914  12.341  0.1830 -0.2377  0.1055
  814MPD2    H711991   3.227   0.936  12.248 -1.9647 -0.6374 -0.7609
  815MPD2     C11992   3.816   3.499  12.197 -0.4596 -0.3205 -0.4385
  815MPD2    C111993   3.739   3.534  12.092 -0.4970  0.0761 -0.3293
  815MPD2    C211994   3.603   3.540  12.116 -0.0419  0.2868 -0.3151
  815MPD2    C311995   3.551   3.503  12.237 -0.0309  0.3319  0.0342
  815MPD2    C411996   3.633   3.465  12.343 -0.6677 -0.2753  0.4599
  815MPD2    C511997   3.766   3.464  12.323 -0.0513  0.2991  0.3310
  815MPD2     H11998   3.534   3.583  12.044  1.5204  1.5590 -1.0493
  815MPD2    H111999   3.604   3.429  12.441 -0.9166  1.6031  1.0680
  815MPD2    H212000   3.923   3.504  12.181 -0.9072 -0.9123 -3.6832
  815MPD2    H312001   3.831   3.432  12.403 -0.6240  0.0901  0.7180
  815MPD2     N12002   3.410   3.506  12.252 -0.0622 -0.2253 -0.1474
  815MPD2    H512003   3.360   3.555  12.178 -0.5269  0.2432  0.4777
  815MPD2    N112004   3.803   3.555  11.971  0.2342 -0.1964  1.5431
  815MPD2    H712005   3.904   3.548  11.979  0.4636  2.3490  0.8158
  816MPD2     C12006   3.431   2.919  17.236  0.0943  0.0467  0.2552
  816MPD2    C112007   3.490   3.042  17.221 -0.3220 -0.0178  0.6946
  816MPD2    C212008   3.610   3.056  17.149 -0.3807 -0.2496  0.5199
  816MPD2    C312009   3.685   2.944  17.125  1.3887  0.1347  0.3227
  816MPD2    C412010   3.641   2.820  17.164  0.9456  0.5179 -0.3963
  816MPD2    C512011   3.509   2.810  17.207 -0.4857  0.3616 -0.4699
  816MPD2     H12012   3.653   3.156  17.141  1.1295 -0.9810 -0.5653
  816MPD2    H112013   3.698   2.730  17.148  0.3815  0.5094 -2.3755
  816MPD2    H212014   3.334   2.910  17.283  0.9124 -0.3050  1.8742
  816MPD2    H312015   3.478   2.708  17.229  2.5086 -0.5725 -0.5369
  816MPD2     N12016   3.805   2.965  17.060 -0.2486 -0.1964  1.2605
  816MPD2    H512017   3.831   3.063  17.051  0.4662 -0.6410 -1.5019
  816MPD2    N112018   3.416   3.155  17.267 -0.1066 -0.3706  0.8060
  816MPD2    H712019   3.319   3.140  17.294 -0.6468  1.5987 -0.0207
  817MPD2     C12020   3.202   0.243  10.408  0.6293  0.3354 -0.2532
  817MPD2    C112021   3.316   0.294  10.347  0.4190  0.1495 -0.2318
  817MPD2    C212022   3.313   0.421  10.291  0.3722  0.7495 -0.6219
  817MPD2    C312023   3.198   0.496  10.298  0.5112  0.8655 -0.7741
  817MPD2    C412024   3.082   0.443  10.358  0.2357 -1.0476 -0.1360
  817MPD2    C512025   3.091   0.319  10.409 -0.5847 -0.2462  0.9124
  817MPD2     H12026   3.398   0.453  10.231 -0.4172  1.8898 -1.1357
  817MPD2    H112027   2.986   0.493  10.368 -0.4227 -2.3571  0.1818
  817MPD2    H212028   3.197   0.144  10.453 -0.4215 -0.1146 -1.3885
  817MPD2    H312029   3.001   0.282  10.456 -0.8537 -2.1560 -1.0790
  817MPD2     N12030   3.191   0.626  10.239  0.3918  0.3650  0.8378
  817MPD2    H512031   3.278   0.660  10.198  1.5724 -3.1233  0.5273
  817MPD2    N112032   3.436   0.216  10.318 -0.5339  0.7120 -0.3253
  817MPD2    H712033   3.511   0.252  10.261 -0.0133  0.5001  0.2200
  818MPD2     C12034   2.562   0.500  10.467  0.1228  0.5481  0.3054
  818MPD2    C112035   2.518   0.386  10.531  0.5285 -0.5268  0.3239
  818MPD2    C212036   2.585   0.269  10.509 -0.8138  0.2670 -0.2071
  818MPD2    C312037   2.678   0.260  10.407  0.2299 -0.3367  0.0591
  818MPD2    C412038   2.711   0.370  10.334 -0.8897  0.3845 -0.2000
  818MPD2    C512039   2.664   0.494  10.379 -0.4238  0.1737  0.6816
  818MPD2     H12040   2.560   0.174  10.554  1.2673  0.5138  1.4284
  818MPD2    H112041   2.793   0.381  10.263 -0.7343  1.4277  0.1446
  818MPD2    H212042   2.522   0.599  10.486 -1.7378  0.1033 -1.4125
  818MPD2    H312043   2.706   0.585  10.337 -2.1797  0.4269 -0.5227
  818MPD2     N12044   2.745   0.140  10.383  0.3402  0.1236  0.1342
  818MPD2    H512045   2.794   0.139  10.294 -0.6091  1.8576 -0.4036
  818MPD2    N112046   2.398   0.388  10.607  0.8064 -0.2438  0.3341
  818MPD2    H712047   2.375   0.295  10.641 -0.6413 -0.7771 -2.1541
  819MPD2     C12048   0.596   2.342  15.744 -1.3109  0.8793 -0.0276
  819MPD2    C112049   0.579   2.207  15.737  0.2919  0.1638 -0.7564
  819MPD2    C212050   0.686   2.119  15.754 -0.7201  0.4647 -0.0669
  819MPD2    C312051   0.813   2.174  15.783 -0.9187  0.2103  0.0400
  819MPD2    C412052   0.830   2.306  15.796  0.3580 -0.4042  0.1230
  819MPD2    C512053   0.718   2.390  15.775 -0.1864 -0.7544 -0.2803
  819MPD2     H12054   0.677   2.011  15.749 -0.9631  0.4933 -0.2069
  819MPD2    H112055   0.923   2.360  15.811 -0.6841  0.7407  2.5593
  819MPD2    H212056   0.518   2.413  15.722 -0.7796  2.1205  2.0917
  819MPD2    H312057   0.730   2.497  15.789 -1.0546 -0.3780 -2.3865
  819MPD2     N12058   0.920   2.080  15.794 -1.0831 -0.1557  0.0739
  819MPD2    H512059   0.901   1.981  15.785  0.9761 -0.5737  0.4409
  819MPD2    N112060   0.451   2.163  15.704  0.7436  0.5413 -0.2390
  819MPD2    H712061   0.384   2.230  15.667 -0.5040  0.8152  2.5629
  820MPD2     C12062   4.410   2.319  15.135 -0.5387  0.3641 -0.5382
  820MPD2    C112063   4.418   2.315  15.270  1.2075 -0.4572 -0.2488
  820MPD2    C212064   4.513   2.249  15.343  0.0635  0.1146 -0.5167
  820MPD2    C312065   4.608   2.178  15.274 -0.4739 -0.2409  0.1545
  820MPD2    C412066   4.605   2.180  15.139  1.0466 -0.2086  0.5849
  820MPD2    C512067   4.513   2.257  15.069 -0.1190  0.4955 -0.0019
  820MPD2     H12068   4.514   2.252  15.452  1.0439 -0.8314 -0.5035
  820MPD2    H112069   4.670   2.119  15.077  0.1024  1.4729 -2.0486
  820MPD2    H212070   4.322   2.355  15.082  0.2836  0.7202 -1.6814
  820MPD2    H312071   4.511   2.258  14.961  3.0054  0.3234 -0.0461
  820MPD2     N12072   4.702   2.090  15.328 -0.1617  0.1423  0.3340
  820MPD2    H512073   0.036   2.029  15.273  0.2086  1.3377 -0.5918
  820MPD2    N112074   4.311   2.384  15.339  0.3689 -0.0221  0.6277
  820MPD2    H712075   4.228   2.403  15.283  0.7128  1.7109  0.7249
  821MPD2     C12076   0.551   3.020  12.781 -0.4305  0.4604  0.1508
  821MPD2    C112077   0.618   3.039  12.899 -0.2126 -0.6173 -0.2662
  821MPD2    C212078   0.717   3.133  12.908  0.5367 -0.1659 -0.2327
  821MPD2    C312079   0.748   3.214  12.803  0.3875  0.1541  0.0751
  821MPD2    C412080   0.683   3.195  12.686  0.2854  0.1619  0.2919
  821MPD2    C512081   0.574   3.109  12.678  0.0999 -0.0836  0.1913
  821MPD2     H12082   0.773   3.143  13.000 -0.8506  0.3837  0.5366
  821MPD2    H112083   0.710   3.250  12.596  1.3802 -0.5091  0.2082
  821MPD2    H212084   0.476   2.943  12.764 -1.0620  1.0957  0.0878
  821MPD2    H312085   0.525   3.095  12.583  0.7002 -2.3909  0.2088
  821MPD2     N12086   0.854   3.311  12.809  0.2149 -0.3659 -0.7894
  821MPD2    H512087   0.891   3.342  12.720 -0.6109 -1.3607 -1.4855
  821MPD2    N112088   0.578   2.973  13.013 -0.0647 -0.1856 -0.2727
  821MPD2    H712089   0.622   3.007  13.098 -0.2823 -2.4083  0.7480
  822MPD2     C12090   1.154   2.807  15.696 -0.6492  0.2897  0.0473
  822MPD2    C112091   1.219   2.885  15.787  0.7413  0.3755  0.4358
  822MPD2    C212092   1.162   3.012  15.806  0.3189 -0.2287 -0.2153
  822MPD2    C312093   1.043   3.055  15.752  0.0350 -0.3690  0.1456
  822MPD2    C412094   0.989   2.976  15.659 -0.3372  0.2836  0.3410
  822MPD2    C512095   1.042   2.854  15.630 -0.4151  0.1059 -0.6743
  822MPD2     H12096   1.221   3.075  15.873  1.0372 -2.5131  1.3074
  822MPD2    H112097   0.900   3.000  15.603 -0.8202  2.2071  1.9369
  822MPD2    H212098   1.186   2.705  15.677 -3.9139 -0.5018 -1.1648
  822MPD2    H312099   0.995   2.790  15.556 -1.2135  0.3984 -0.4232
  822MPD2     N12100   0.978   3.162  15.793 -0.2043  0.3395  0.0913
  822MPD2    H512101   0.878   3.163  15.777 -0.2270  2.0578  0.2782
  822MPD2    N112102   1.321   2.836  15.874 -0.4204 -0.2431  0.0292
  822MPD2    H712103   1.347   2.895  15.952 -0.2407  0.6247 -0.6852
  823MPD2     C12104   0.609   3.407  16.521 -1.0258 -0.7848 -0.3144
  823MPD2    C112105   0.688   3.329  16.441  0.7010  0.0662  0.0634
  823MPD2    C212106   0.772   3.233  16.497 -0.6416  0.2639 -0.7022
  823MPD2    C312107   0.790   3.236  16.638  0.1899  0.2334  0.5026
  823MPD2    C412108   0.720   3.322  16.714  0.0050  0.2151  0.3786
  823MPD2    C512109   0.621   3.399  16.659  0.2939  0.5779 -0.0490
  823MPD2     H12110   0.828   3.167  16.432  1.1866 -0.3795  1.5298
  823MPD2    H112111   0.735   3.330  16.821  0.8332  1.8018  0.1492
  823MPD2    H212112   0.533   3.473  16.484 -1.7769 -1.5646 -0.1589
  823MPD2    H312113   0.548   3.451  16.719  1.9835  0.8903  1.7309
  823MPD2     N12114   0.883   3.153  16.700 -0.4449  0.2719 -0.5615
  823MPD2    H512115   0.868   3.155  16.801  0.3916  1.1627 -0.4551
  823MPD2    N112116   0.678   3.350  16.307 -0.0140  0.3901 -0.4793
  823MPD2    H712117   0.651   3.443  16.278 -0.0911 -0.3033 -2.6685
  824MPD2     C12118   1.795   2.142  16.165  0.2938  0.5240 -0.6953
  824MPD2    C112119   1.821   2.250  16.086  0.1741 -0.0223 -0.9190
  824MPD2    C212120   1.937   2.245  16.009 -0.0177  0.4277  0.5630
  824MPD2    C312121   2.023   2.139  16.004  0.2634 -0.4453  0.6935
  824MPD2    C412122   1.987   2.026  16.079  0.2757  0.4467  0.4428
  824MPD2    C512123   1.880   2.037  16.164  0.2960 -0.1443 -0.7153
  824MPD2     H12124   1.961   2.319  15.933 -0.6199  1.1084  1.0388
  824MPD2    H112125   2.041   1.933  16.067 -0.3287  0.1682 -0.0805
  824MPD2    H212126   1.705   2.141  16.225  0.4321  2.2569 -0.4684
  824MPD2    H312127   1.856   1.952  16.226 -1.7638  1.3935  0.6268
  824MPD2     N12128   2.134   2.143  15.911  0.4694 -0.1125 -0.0597
  824MPD2    H512129   2.131   2.225  15.852 -1.0224  0.3883  0.7193
  824MPD2    N112130   1.732   2.361  16.068  0.4867  0.4822  0.3361
  824MPD2    H712131   1.756   2.428  15.996  5.3520 -0.6841  0.8894
  825MPD2     C12132   2.695   2.516  15.368  0.1525  0.1222  1.1191
  825MPD2    C112133   2.580   2.522  15.449  0.3492 -0.7504 -0.1787
  825MPD2    C212134   2.511   2.643  15.458 -0.4753  0.0762  0.4680
  825MPD2    C312135   2.546   2.751  15.379 -0.7078  0.3698  0.7648
  825MPD2    C412136   2.652   2.739  15.293 -0.1292  0.1546 -0.0064
  825MPD2    C512137   2.729   2.622  15.287 -0.2462  0.4393  0.5793
  825MPD2     H12138   2.428   2.653  15.527  0.1414  1.3865  1.0265
  825MPD2    H112139   2.685   2.809  15.218  1.8118  0.1090  0.7777
  825MPD2    H212140   2.765   2.433  15.362  0.9811  0.9166 -0.3174
  825MPD2    H312141   2.822   2.622  15.231  1.0496  0.2949  2.7345
  825MPD2     N12142   2.470   2.869  15.377 -0.2807  0.0867  0.1258
  825MPD2    H512143   2.493   2.933  15.301  1.3975  2.5413  2.7164
  825MPD2    N112144   2.540   2.399  15.508  0.3183 -0.1297 -0.2811
  825MPD2    H712145   2.617   2.332  15.511 -1.2786 -1.9554 -0.4176
  826MPD2     C12146   1.519   2.394  14.127  0.7831  0.2138  0.3124
  826MPD2    C112147   1.567   2.460  14.014 -0.0936  0.2254  1.5596
  826MPD2    C212148   1.571   2.595  14.008 -0.2083  0.1143 -0.3970
  826MPD2    C312149   1.521   2.666  14.117 -0.0759  0.2250 -0.1923
  826MPD2    C412150   1.475   2.601  14.228 -0.3191 -0.1142 -0.9147
  826MPD2    C512151   1.473   2.466  14.228  0.0863 -0.0039  0.0657
  826MPD2     H12152   1.600   2.645  13.916 -2.9769  1.0512 -0.7725
  826MPD2    H112153   1.431   2.655  14.311  0.8815 -0.4505 -0.0640
  826MPD2    H212154   1.522   2.285  14.123 -1.7555  0.2042 -1.1419
  826MPD2    H312155   1.431   2.421  14.318  1.8024 -3.6807 -0.9733
  826MPD2     N12156   1.528   2.805  14.120  0.3318 -0.0390 -0.1861
  826MPD2    H512157   1.520   2.843  14.214  2.6426 -1.7502  0.7277
  826MPD2    N112158   1.630   2.372  13.916  0.9001 -0.0488  0.5896
  826MPD2    H712159   1.643   2.276  13.947 -1.9159 -1.0351 -1.2434
  827MPD2     C12160   2.769   4.058   9.955  0.2397  0.6104 -0.3682
  827MPD2    C112161   2.781   3.924   9.964  1.2788 -0.5791 -0.5693
  827MPD2    C212162   2.711   3.836   9.878  0.3797 -0.3763 -0.5988
  827MPD2    C312163   2.637   3.888   9.775  0.0793  0.2156  0.5493
  827MPD2    C412164   2.630   4.023   9.760 -0.4226 -0.4514 -0.1354
  827MPD2    C512165   2.692   4.111   9.849  0.5809 -0.3858 -0.1351
  827MPD2     H12166   2.726   3.728   9.876  1.3729 -0.2392 -0.5570
  827MPD2    H112167   2.576   4.075   9.681 -1.0186 -0.7344  0.0932
  827MPD2    H212168   2.811   4.125  10.029  0.9596 -0.7279  0.4359
  827MPD2    H312169   2.683   4.217   9.829 -1.5163 -0.5657 -0.1522
  827MPD2     N12170   2.582   3.796   9.683 -0.7132  0.1318  0.6749
  827MPD2    H512171   2.610   3.699   9.688 -2.2959 -0.4417 -1.6069
  827MPD2    N112172   2.860   3.872  10.066 -0.2208  0.0686 -1.0952
  827MPD2    H712173   2.904   3.940  10.127 -0.0866 -0.7208 -0.3237
  828MPD2     C12174   1.194   3.279  12.574  0.2419 -0.1955  0.7873
  828MPD2    C112175   1.221   3.343  12.459 -0.0602  0.5000  0.4159
  828MPD2    C212176   1.340   3.327  12.401 -0.3026  0.0735  0.1373
  828MPD2    C312177   1.441   3.243  12.452 -0.5602 -0.4307  0.5995
  828MPD2    C412178   1.412   3.181  12.576 -0.4058 -0.2647  0.3823
  828MPD2    C512179   1.296   3.209  12.636  1.3543  0.4077 -0.3173
  828MPD2     H12180   1.342   3.351  12.295 -0.1511 -0.9047 -0.0856
  828MPD2    H112181   1.483   3.110  12.618 -0.7771 -0.1525  1.1973
  828MPD2    H212182   1.110   3.296  12.641  0.3924 -1.9471  1.4244
  828MPD2    H312183   1.280   3.157  12.730 -0.0663 -0.1685 -0.8744
  828MPD2     N12184   1.559   3.197  12.395  0.1592 -0.4073 -0.7736
  828MPD2    H512185   1.615   3.132  12.449 -3.0166 -2.6687 -0.1798
  828MPD2    N112186   1.114   3.415  12.393 -0.2448 -0.4310 -0.0017
  828MPD2    H712187   1.140   3.459  12.305 -0.7303 -0.2209 -0.0428
  829MPD2     C12188   1.284   3.784  11.669  0.1469 -0.1210  0.4515
  829MPD2    C112189   1.166   3.849  11.680 -0.3817 -0.1470 -0.0508
  829MPD2    C212190   1.084   3.816  11.790  0.5724  0.2396 -0.6938
  829MPD2    C312191   1.129   3.724  11.887 -0.6872  0.2435  0.1144
  829MPD2    C412192   1.253   3.669  11.876  0.0175  0.1039 -0.4725
  829MPD2    C512193   1.327   3.700  11.765 -0.3590 -0.1419 -0.2147
  829MPD2     H12194   0.988   3.864  11.808  0.1329 -0.7454 -0.4331
  829MPD2    H112195   1.302   3.605  11.948 -2.1256 -1.2608 -0.2377
  829MPD2    H212196   1.349   3.814  11.588 -0.9256  1.4797  0.1847
  829MPD2    H312197   1.423   3.652  11.752  0.8032  1.7570  1.3344
  829MPD2     N12198   1.058   3.691  12.009 -1.0974 -0.2181 -0.0222
  829MPD2    H512199   1.110   3.619  12.058  2.5825  0.8261 -2.4144
  829MPD2    N112200   1.136   3.940  11.581  0.2186 -0.0448  0.2713
  829MPD2    H712201   1.199   3.932  11.502  1.4885  0.7450  1.2107
  830MPD2     C12202   1.471   1.800  15.197 -0.4339  0.3261 -0.5216
  830MPD2    C112203   1.347   1.801  15.252 -0.1007  0.1197 -0.2883
  830MPD2    C212204   1.238   1.804  15.167  0.4047  0.3080  0.2026
  830MPD2    C312205   1.257   1.793  15.031 -0.0871 -0.6684  0.3113
  830MPD2    C412206   1.386   1.788  14.980  0.1999  0.4496 -0.1377
  830MPD2    C512207   1.492   1.796  15.065  0.4542  0.7072 -0.0608
  830MPD2     H12208   1.135   1.803  15.201  0.6274  0.6058  0.8950
  830MPD2    H112209   1.404   1.794  14.873 -1.0266 -1.1799 -0.4484
  830MPD2    H212210   1.563   1.814  15.253 -0.5714  1.3689 -0.5655
  830MPD2    H312211   1.597   1.808  15.040  0.1543  0.7815 -1.2715
  830MPD2     N12212   1.150   1.808  14.937  0.2022  0.1507 -0.4121
  830MPD2    H512213   1.176   1.820  14.840 -1.7395  0.3153 -0.9192
  830MPD2    N112214   1.338   1.821  15.389  0.0427  0.3741  0.3853
  830MPD2    H712215   1.419   1.813  15.451  0.4851 -4.3003 -0.7725
  831MPD2     C12216   1.274   3.404  16.157  0.4983 -0.6016 -0.0916
  831MPD2    C112217   1.323   3.287  16.098  0.5190 -0.0058 -0.9903
  831MPD2    C212218   1.252   3.170  16.141 -0.1899 -0.6833  0.1292
  831MPD2    C312219   1.136   3.178  16.213  0.0575  0.1752  0.4570
  831MPD2    C412220   1.090   3.296  16.262  0.5875  0.8157  0.3259
  831MPD2    C512221   1.161   3.409  16.241 -0.7139  0.3967  0.1819
  831MPD2     H12222   1.288   3.073  16.108 -0.7483 -0.9301  0.2388
  831MPD2    H112223   0.996   3.309  16.316  1.9864  4.3646  1.9208
  831MPD2    H212224   1.325   3.495  16.128 -1.9427  0.3120 -1.4493
  831MPD2    H312225   1.123   3.507  16.267 -3.0242 -0.7411  1.0664
  831MPD2     N12226   1.048   3.070  16.236 -0.1894 -0.4461  0.5515
  831MPD2    H512227   0.965   3.098  16.288  0.5388  0.7436  1.0796
  831MPD2    N112228   1.423   3.293  15.999 -0.2916 -0.0529  0.3768
  831MPD2    H712229   1.448   3.380  15.954  0.2522 -0.4098 -0.0091
  832MPD2     C12230   4.118   0.071  16.856 -0.3691  0.7108 -0.0375
  832MPD2    C112231   4.036   0.026  16.964  0.3107 -0.4001  0.3053
  832MPD2    C212232   3.931   4.664  16.941 -0.3116  0.4864  0.2399
  832MPD2    C312233   3.898   4.642  16.810 -0.4095 -0.4027  0.9430
  832MPD2    C412234   3.977   4.689  16.706 -0.4734  0.9792 -0.4373
  832MPD2    C512235   4.088   0.035  16.728  0.2772  0.0863  0.0272
  832MPD2     H12236   3.877   4.613  17.020 -0.7072  1.0845  0.3542
  832MPD2    H112237   3.955   4.658  16.605 -1.6238  0.9464 -0.1826
  832MPD2    H212238   4.207   0.131  16.873  0.4145 -1.2061  2.5446
  832MPD2    H312239   4.162   0.066  16.655 -0.2994 -0.2027 -0.6733
  832MPD2     N12240   3.803   4.544  16.767 -0.1100  0.3062 -1.0390
  832MPD2    H512241   3.775   4.541  16.670 -2.7723  0.1150 -0.2629
  832MPD2    N112242   4.080   0.062  17.090 -0.5252 -0.1661 -0.2284
  832MPD2    H712243   4.158   0.127  17.087  0.7531 -1.7146 -0.1876
  833MPD2     C12244   1.694   1.365  13.198  0.4596 -0.1079 -0.0880
  833MPD2    C112245   1.755   1.450  13.107 -0.2673 -0.1067 -0.1264
  833MPD2    C212246   1.842   1.398  13.006 -0.3463  0.5536  0.5089
  833MPD2    C312247   1.878   1.260  12.998 -0.1589 -0.3729  0.5933
  833MPD2    C412248   1.821   1.181  13.098  0.4706 -0.1267  1.5662
  833MPD2    C512249   1.723   1.233  13.189 -0.1544  0.2701  0.3814
  833MPD2     H12250   1.871   1.467  12.927 -0.0313 -0.3343 -0.1577
  833MPD2    H112251   1.832   1.074  13.085 -2.1333 -0.1307 -0.6794
  833MPD2    H212252   1.622   1.395  13.273  1.7471 -0.0737  1.1538
  833MPD2    H312253   1.670   1.164  13.253 -0.3874 -1.4491 -1.6537
  833MPD2     N12254   1.956   1.209  12.897 -0.5208 -0.0705  0.3392
  833MPD2    H512255   1.997   1.116  12.898 -0.6492 -0.1348 -0.3138
  833MPD2    N112256   1.716   1.583  13.110  0.1143 -0.0132 -0.2355
  833MPD2    H712257   1.639   1.598  13.174 -0.1104  0.7510 -0.6867
  834MPD2     C12258   1.803   0.425  12.326 -0.5828  0.5023 -0.6955
  834MPD2    C112259   1.832   0.512  12.220  0.2330  0.0850 -0.0257
  834MPD2    C212260   1.845   0.642  12.247  0.4462  0.6050  0.0230
  834MPD2    C312261   1.834   0.690  12.373 -0.1745  0.3924 -0.5252
  834MPD2    C412262   1.813   0.600  12.476  0.7638  0.5312 -0.0441
  834MPD2    C512263   1.788   0.468  12.452  0.0314  0.2480  0.8258
  834MPD2     H12264   1.856   0.706  12.160 -0.8381  0.7999  0.0120
  834MPD2    H112265   1.802   0.624  12.581  2.5184  0.7949  0.0680
  834MPD2    H212266   1.787   0.319  12.313 -1.5089  0.4839  0.6609
  834MPD2    H312267   1.772   0.394  12.530  1.1034 -0.4063  0.4221
  834MPD2     N12268   1.866   0.826  12.386  0.0556  0.4336  0.4300
  834MPD2    H512269   1.886   0.884  12.305  0.9457  1.4151  1.3539
  834MPD2    N112270   1.834   0.468  12.082 -0.1979 -0.2331  0.5221
  834MPD2    H712271   1.807   0.538  12.014  2.8355  1.6850  1.2323
  835MPD2     C12272   2.013   3.271  10.873 -0.2412 -0.1031 -0.4914
  835MPD2    C112273   1.896   3.342  10.887  0.0975  0.7578 -0.1722
  835MPD2    C212274   1.870   3.404  11.010  0.3651  0.7746 -0.2803
  835MPD2    C312275   1.963   3.399  11.116  0.0594 -0.3528  0.0959
  835MPD2    C412276   2.066   3.312  11.098 -0.1159  0.3924  0.4697
  835MPD2    C512277   2.093   3.253  10.978 -0.3569 -0.2669 -0.3614
  835MPD2     H12278   1.781   3.463  11.026  1.9862  3.2852 -0.4470
  835MPD2    H112279   2.148   3.316  11.169 -1.8662  0.5790  2.4667
  835MPD2    H212280   2.025   3.228  10.774  0.0311  1.0016 -0.9426
  835MPD2    H312281   2.184   3.197  10.964 -1.4342 -1.6084 -2.1485
  835MPD2     N12282   1.941   3.463  11.243 -0.1719  0.0446 -0.3527
  835MPD2    H512283   2.004   3.440  11.319  0.6361 -0.3155 -1.1310
  835MPD2    N112284   1.802   3.360  10.784  0.6251 -0.0347  0.1610
  835MPD2    H712285   1.719   3.415  10.805  0.7627 -0.0362  0.6987
  836MPD2     C12286   1.573   4.139  11.442  0.5713  0.2859 -0.3034
  836MPD2    C112287   1.577   4.052  11.548 -0.0976 -0.1429 -0.3248
  836MPD2    C212288   1.495   4.079  11.653  0.0737  0.4418 -0.1993
  836MPD2    C312289   1.411   4.190  11.665 -0.1703 -0.8293  0.5638
  836MPD2    C412290   1.413   4.278  11.551 -0.3300  0.5787  0.4187
  836MPD2    C512291   1.487   4.246  11.442 -0.5195 -0.4469 -0.5366
  836MPD2     H12292   1.481   4.009  11.735  0.9370  1.4445  0.8043
  836MPD2    H112293   1.362   4.374  11.548 -2.0857 -0.3294  1.0998
  836MPD2    H212294   1.623   4.124  11.347  1.4675  0.6455  0.1120
  836MPD2    H312295   1.474   4.307  11.354  2.4116 -0.5031 -1.0317
  836MPD2     N12296   1.318   4.211  11.768 -0.5599 -0.1187 -0.0401
  836MPD2    H512297   1.258   4.292  11.759 -2.2619 -1.1414  1.9231
  836MPD2    N112298   1.664   3.939  11.540 -0.1788  0.3518  0.7488
  836MPD2    H712299   1.720   3.928  11.455 -0.8452  1.7490  0.1183
  837MPD2     C12300   0.539   3.373   9.983  0.1925 -0.1250  0.0591
  837MPD2    C112301   0.422   3.441  10.018 -0.1462  0.2154 -0.8821
  837MPD2    C212302   0.439   3.572  10.037  0.0227  0.1056 -0.2541
  837MPD2    C312303   0.551   3.647  10.024 -0.3426  0.1207 -0.0509
  837MPD2    C412304   0.665   3.582   9.973  0.9078 -0.2487  0.1906
  837MPD2    C512305   0.650   3.446   9.957  0.4288 -0.2525  0.2114
  837MPD2     H12306   0.353   3.630  10.071 -0.4359 -0.6278 -0.1649
  837MPD2    H112307   0.762   3.628   9.985  1.3505 -0.7057 -1.6458
  837MPD2    H212308   0.556   3.267   9.970  0.3583  0.2299 -2.6443
  837MPD2    H312309   0.734   3.387   9.920 -1.0365  0.7611 -4.7100
  837MPD2     N12310   0.554   3.789  10.042 -0.2924 -0.0223  0.0156
  837MPD2    H512311   0.464   3.831  10.067 -0.5556 -1.5395  1.6621
  837MPD2    N112312   0.295   3.387  10.027 -0.5032 -0.0579 -0.4281
  837MPD2    H712313   0.225   3.453  10.061  0.4106  1.4009 -1.3895
  838MPD2     C12314   2.795   1.114  11.517 -0.5339 -0.4241  0.0609
  838MPD2    C112315   2.856   1.192  11.611 -0.3254  0.4081 -0.2871
  838MPD2    C212316   2.785   1.265  11.699  0.3376  0.1858 -0.1315
  838MPD2    C312317   2.646   1.276  11.689  0.0880  0.7011 -0.0785
  838MPD2    C412318   2.584   1.197  11.599  0.4926  0.7814 -0.1112
  838MPD2    C512319   2.660   1.121  11.513  0.3512  0.8181  0.9409
  838MPD2     H12320   2.820   1.309  11.792 -0.5247  2.2155 -0.7710
  838MPD2    H112321   2.477   1.197  11.586  0.3528  1.9917  1.0231
  838MPD2    H212322   2.851   1.048  11.452  1.9116  0.3592  1.3616
  838MPD2    H312323   2.605   1.056  11.445 -2.1055  1.4995  2.3009
  838MPD2     N12324   2.578   1.345  11.787  0.1186  0.0573  0.1228
  838MPD2    H512325   2.642   1.396  11.847  0.4734  0.3205 -0.4765
  838MPD2    N112326   2.993   1.187  11.636 -0.5626  0.1919  0.4312
  838MPD2    H712327   3.020   1.237  11.721  1.2430 -0.0871  0.0247
  839MPD2     C12328   2.658   1.036  12.138  0.4113 -0.0487  0.3074
  839MPD2    C112329   2.666   1.012  12.002 -0.0227  0.5224 -0.2293
  839MPD2    C212330   2.790   1.026  11.950 -0.5630  0.3679 -0.3453
  839MPD2    C312331   2.905   1.074  12.017 -0.1815  0.3134  0.8758
  839MPD2    C412332   2.891   1.108  12.156 -0.1665  0.3224 -0.3397
  839MPD2    C512333   2.765   1.088  12.215  0.1384 -0.0742 -0.3488
  839MPD2     H12334   2.791   1.024  11.841 -1.1715 -1.5233 -0.3168
  839MPD2    H112335   2.978   1.131  12.216  0.4428  2.9645 -2.2643
  839MPD2    H212336   2.570   1.021  12.199 -1.3906 -1.1352 -2.5673
  839MPD2    H312337   2.758   1.106  12.322 -1.6234  1.2497 -0.6915
  839MPD2     N12338   3.024   1.101  11.943 -0.7311  0.2355  0.0374
  839MPD2    H512339   3.028   1.054  11.853 -0.4238  3.1287 -1.4529
  839MPD2    N112340   2.562   0.968  11.923 -0.0831  0.1197 -0.2809
  839MPD2    H712341   2.589   0.928  11.834 -0.1384 -0.0336 -0.2276
  840MPD2     C12342   3.285   4.172  10.330 -1.0572 -1.0752  0.3810
  840MPD2    C112343   3.314   4.056  10.397 -0.1847  0.2578  0.7471
  840MPD2    C212344   3.424   4.047  10.482  0.0942  0.2858 -0.1891
  840MPD2    C312345   3.490   4.155  10.522  0.2299 -0.3366  1.0408
  840MPD2    C412346   3.461   4.271  10.458  0.2930  0.0777 -0.2597
  840MPD2    C512347   3.371   4.273  10.355  0.0468 -0.7298 -0.2673
  840MPD2     H12348   3.441   3.952  10.532  1.2779  0.7456  0.2738
  840MPD2    H112349   3.507   4.366  10.485  1.2217 -0.9187  1.6967
  840MPD2    H212350   3.202   4.186  10.261  2.6586  1.1504 -3.6721
  840MPD2    H312351   3.359   4.369  10.306  0.2796 -0.5222  0.0847
  840MPD2     N12352   3.590   4.150  10.617  0.0831 -0.4219 -0.0372
  840MPD2    H512353   3.646   4.233  10.631 -1.6770  0.5647  1.0983
  840MPD2    N112354   3.218   3.952  10.374 -0.0977 -0.4760  0.0333
  840MPD2    H712355   3.137   3.968  10.315 -0.2674 -1.8542 -0.1185
  841MPD2     C12356   2.638   3.840  14.895 -0.5008 -0.0468  0.2143
  841MPD2    C112357   2.687   3.787  14.777 -0.2522  0.8170 -0.3068
  841MPD2    C212358   2.752   3.878  14.687 -0.9059 -0.0434 -0.0488
  841MPD2    C312359   2.775   4.011  14.719  0.2310  0.4556  0.6477
  841MPD2    C412360   2.730   4.063  14.838  0.5714  0.0124 -0.1978
  841MPD2    C512361   2.667   3.976  14.926 -0.5966 -0.2613  0.4481
  841MPD2     H12362   2.781   3.840  14.590  1.2669  1.0241  0.1958
  841MPD2    H112363   2.743   4.165  14.873  2.2651  0.0427 -0.9466
  841MPD2    H212364   2.577   3.786  14.966 -0.2162  1.0766  1.3060
  841MPD2    H312365   2.622   4.021  15.014  2.0192  0.0273  1.6372
  841MPD2     N12366   2.839   4.089  14.620  0.0018 -0.0638  0.1350
  841MPD2    H512367   2.850   4.044  14.530  1.5346  0.0577  0.2642
  841MPD2    N112368   2.685   3.647  14.739  0.4208 -0.1166  0.0246
  841MPD2    H712369   2.718   3.618  14.648 -0.9963 -3.7532  0.6589
  842MPD2     C12370   3.132   4.564  16.633 -0.2737 -0.3312  0.2153
  842MPD2    C112371   3.000   4.571  16.662  0.3894  0.2849  0.1176
  842MPD2    C212372   2.966   4.547  16.793  0.1560  0.3836  0.4647
  842MPD2    C312373   3.057   4.522  16.897 -0.0921  0.1272  0.7905
  842MPD2    C412374   3.187   4.522  16.861  0.3055 -0.3048 -0.1616
  842MPD2    C512375   3.222   4.545  16.730 -0.3209 -0.5570 -0.3521
  842MPD2     H12376   2.861   4.537  16.819 -0.3618 -0.6372 -2.0137
  842MPD2    H112377   3.258   4.501  16.940  1.3494 -1.1807 -1.3345
  842MPD2    H212378   3.182   4.592  16.542  1.2177  0.8983  1.4081
  842MPD2    H312379   3.327   4.557  16.707 -0.6976 -0.2869 -1.9301
  842MPD2     N12380   3.025   4.491  17.031 -0.5097  0.4460  0.6920
  842MPD2    H512381   3.105   4.475  17.092  1.1274  0.4891 -1.4463
  842MPD2    N112382   2.907   4.615  16.556  0.2545 -0.1807  0.1451
  842MPD2    H712383   2.952   4.632  16.466 -0.9415  0.1298 -0.3875
  843MPD2     C12384   0.435   0.145  17.675 -0.3048  1.0336 -0.5174
  843MPD2    C112385   0.541   0.057   0.005 -0.5819  0.4878 -0.2143
  843MPD2    C212386   0.673   0.105  17.695  0.8173 -1.0738  0.3680
  843MPD2    C312387   0.700   0.233  17.644 -0.1716 -0.9422  0.0098
  843MPD2    C412388   0.595   0.319  17.618  0.2620 -0.1974  0.0303
  843MPD2    C512389   0.464   0.271  17.620 -0.2566  0.8319  0.2463
  843MPD2     H12390   0.761   0.044   0.010 -0.5852 -3.3430 -0.3766
  843MPD2    H112391   0.606   0.418  17.575  0.1815  0.1687  0.8469
  843MPD2    H212392   0.330   0.130  17.695 -0.0931 -1.3065 -1.0842
  843MPD2    H312393   0.390   0.346  17.593  1.2475  2.0576 -0.5213
  843MPD2     N12394   0.838   0.285  17.625 -1.0575 -0.0280 -0.1799
  843MPD2    H512395   0.851   0.378  17.587  0.2555 -0.2620 -0.2861
  843MPD2    N112396   0.511   4.652   0.042  0.2263  0.0442  0.2443
  843MPD2    H712397   0.412   4.632   0.052 -0.1787  2.2677  0.5817
  844MPD2     C12398   4.116   4.433  17.626 -0.6677  0.7792 -0.7014
  844MPD2    C112399   4.164   4.401  17.498  0.4844  0.7473 -0.7038
  844MPD2    C212400   4.254   4.488  17.435  0.3963 -0.1513 -0.2593
  844MPD2    C312401   4.284   4.613  17.486  0.3450  0.2108  0.3454
  844MPD2    C412402   4.236   4.644  17.612 -0.0743  0.0155 -0.3678
  844MPD2    C512403   4.159   4.555  17.679  0.0673  0.2095  0.1045
  844MPD2     H12404   4.275   4.459  17.333 -0.6580  0.5840 -0.6878
  844MPD2    H112405   4.257   0.011  17.665  0.1309 -0.6938  0.7700
  844MPD2    H212406   4.052   4.367  17.684  0.3271 -1.4916 -2.1859
  844MPD2    H312407   4.134   4.578   0.080 -0.9531  2.9429 -0.7300
  844MPD2     N12408   4.380   4.683  17.408 -0.2429 -0.1056  0.4239
  844MPD2    H512409   4.405   4.640  17.320 -0.4855  1.5144 -0.4162
  844MPD2    N112410   4.130   4.278  17.432 -0.0835  0.2469  0.0787
  844MPD2    H712411   4.172   4.268  17.341  2.3716 -1.8280  1.4536
  845MPD2     C12412   4.364   0.614  16.802  0.1549  0.4478  0.2079
  845MPD2    C112413   4.284   0.510  16.849 -1.2724  0.4876 -0.3515
  845MPD2    C212414   4.335   0.433  16.953 -0.1968 -0.3879  0.8685
  845MPD2    C312415   4.456   0.462  17.007  0.1014 -0.1387  0.1082
  845MPD2    C412416   4.530   0.572  16.966  0.4800 -0.3957 -0.8718
  845MPD2    C512417   4.486   0.644  16.861 -0.2298  0.4043  0.0197
  845MPD2     H12418   4.285   0.345  16.992  0.3514 -1.1673 -0.1917
  845MPD2    H112419   4.626   0.610  16.999 -1.1956 -0.0364  3.6248
  845MPD2    H212420   4.326   0.683  16.728  0.2790  0.7410  0.4204
  845MPD2    H312421   4.536   0.735  16.831 -1.1781  0.5625 -1.0588
  845MPD2     N12422   4.520   0.373  17.090  0.4090  0.4520 -0.2406
  845MPD2    H512423   4.468   0.290  17.119 -2.3785  1.8002 -1.4372
  845MPD2    N112424   4.155   0.487  16.795  0.1566  0.0716 -0.3608
  845MPD2    H712425   4.133   0.529  16.705  2.7846  0.3146 -0.8944
  846MPD2     C12426   1.337   0.845  13.587  0.2505  0.5020  0.3152
  846MPD2    C112427   1.212   0.900  13.581 -0.2086 -0.3335  0.2984
  846MPD2    C212428   1.135   0.899  13.692  0.3952  0.1450 -0.5707
  846MPD2    C312429   1.177   0.844  13.809 -0.4353  0.5263 -0.0923
  846MPD2    C412430   1.297   0.779  13.810 -0.0821  0.3107 -0.0161
  846MPD2    C512431   1.370   0.784  13.698 -0.2705 -0.7219  0.0738
  846MPD2     H12432   1.035   0.941  13.693  0.4616  0.2934 -0.2459
  846MPD2    H112433   1.339   0.736  13.900 -0.7823 -0.7874 -0.2163
  846MPD2    H212434   1.416   0.835  13.513 -2.4307 -1.1814 -2.2871
  846MPD2    H312435   1.459   0.721  13.695 -1.6171 -2.5709 -0.6468
  846MPD2     N12436   1.088   0.855  13.920  0.2901  0.1895  0.1034
  846MPD2    H512437   1.006   0.908  13.892  0.5126 -0.3949 -1.6679
  846MPD2    N112438   1.169   0.963  13.460 -0.3190  0.3760  0.6302
  846MPD2    H712439   1.236   0.965  13.383 -1.3716 -1.4757 -0.3380
  847MPD2     C12440   0.602   1.661  14.606 -0.1395  0.0231 -1.1394
  847MPD2    C112441   0.708   1.581  14.572 -0.0760 -0.2587 -0.5430
  847MPD2    C212442   0.776   1.515  14.673  0.5883  0.5542  0.2242
  847MPD2    C312443   0.727   1.522  14.804 -0.0619 -0.3520 -0.0653
  847MPD2    C412444   0.610   1.589  14.832 -0.4536  0.0781 -0.6144
  847MPD2    C512445   0.547   1.656  14.729 -0.1611  0.8473 -0.0646
  847MPD2     H12446   0.867   1.459  14.658 -0.2023 -0.5301 -0.5065
  847MPD2    H112447   0.566   1.593  14.931 -1.0490  1.5420 -0.9478
  847MPD2    H212448   0.549   1.713  14.528 -0.9045  1.4368  0.3412
  847MPD2    H312449   0.448   1.699  14.733 -1.0372 -1.1421 -0.7331
  847MPD2     N12450   0.797   1.443  14.902 -0.0241 -0.6966 -0.1372
  847MPD2    H512451   0.879   1.393  14.870  2.0439  3.2395 -0.9025
  847MPD2    N112452   0.759   1.583  14.435 -0.2952  0.0890  0.0025
  847MPD2    H712453   0.841   1.526  14.416 -0.5456  0.4328 -2.0687
  848MPD2     C12454   3.528   4.370  16.174 -0.5972  0.7352  0.0612
  848MPD2    C112455   3.494   4.472  16.259  0.5357 -0.7254  0.5440
  848MPD2    C212456   3.458   4.601  16.215 -0.1053  0.1182  0.6559
  848MPD2    C312457   3.488   4.616  16.080  0.3393  0.5578 -0.4330
  848MPD2    C412458   3.526   4.510  15.996 -0.4605 -0.0737  0.4607
  848MPD2    C512459   3.546   4.383  16.041  0.5507 -0.1912 -0.0298
  848MPD2     H12460   3.425   4.686  16.275 -0.5909  1.0919 -1.0124
  848MPD2    H112461   3.542   4.519  15.890  0.6661 -3.2717  0.3716
  848MPD2    H212462   3.553   4.266  16.194  0.5643  0.8503 -0.7794
  848MPD2    H312463   3.581   4.309  15.971  0.8103  0.0697 -0.1769
  848MPD2     N12464   3.466   0.021  16.024 -0.1790 -0.3762  0.1696
  848MPD2    H512465   3.419   0.092  16.080 -0.1810 -0.9071  0.8431
  848MPD2    N112466   3.489   4.452  16.402 -0.7031  0.0572 -0.4991
  848MPD2    H712467   3.465   4.532  16.461  2.7181 -0.0562  1.0430
  849MPD2     C12468   3.207   0.262  13.642 -0.3214 -0.3517 -0.7714
  849MPD2    C112469   3.319   0.174  13.647  0.3543 -0.1649  0.0512
  849MPD2    C212470   3.314   0.073  13.741 -0.2416  0.7782  0.0582
  849MPD2    C312471   3.186   0.044  13.793  0.3578 -0.2385  0.5824
  849MPD2    C412472   3.073   0.114  13.763  0.0590  0.2878 -0.0836
  849MPD2    C512473   3.088   0.230  13.698 -0.2621  0.1875  0.3640
  849MPD2     H12474   3.392   4.724  13.752 -0.1048  0.7601 -1.1103
  849MPD2    H112475   2.975   0.085  13.800  0.8156 -0.6663  1.1927
  849MPD2    H212476   3.213   0.354  13.584  1.5712 -0.4056 -0.6434
  849MPD2    H312477   2.998   0.290  13.685 -0.0456  0.9428  2.3406
  849MPD2     N12478   3.182   4.649  13.869 -0.4579 -0.6599  0.9972
  849MPD2    H512479   3.276   4.611  13.874 -0.0293  0.4324  1.2254
  849MPD2    N112480   3.439   0.210  13.584 -0.0568  0.5104  0.4285
  849MPD2    H712481   3.445   0.293  13.526  0.4485 -0.0751 -0.3538
  850MPD2     C12482   1.128   3.322  14.836  0.0361  0.0571 -0.0971
  850MPD2    C112483   1.134   3.199  14.772  0.0386  0.2152 -0.2871
  850MPD2    C212484   1.261   3.137  14.760  1.0870  0.2059 -0.2687
  850MPD2    C312485   1.373   3.199  14.815 -0.2579 -0.1564 -0.1850
  850MPD2    C412486   1.370   3.321  14.871  0.5026 -0.6501  0.3040
  850MPD2    C512487   1.245   3.378  14.876 -0.5627 -1.1007 -0.8668
  850MPD2     H12488   1.272   3.044  14.705  1.8206  0.1487 -0.0290
  850MPD2    H112489   1.450   3.379  14.916 -1.1335  1.3252  0.6753
  850MPD2    H212490   1.030   3.365  14.854 -0.4901  0.7034 -4.3325
  850MPD2    H312491   1.244   3.478  14.917 -1.9344 -1.9406  1.1517
  850MPD2     N12492   1.506   3.149  14.810  0.2190  0.2627  0.5381
  850MPD2    H512493   1.583   3.200  14.852 -0.6221  1.0837  1.0800
  850MPD2    N112494   1.012   3.147  14.722 -0.0364  0.4729 -0.6128
  850MPD2    H712495   0.926   3.196  14.743  1.1098  3.1617 -2.1494
  851MPD2     C12496   1.056   2.467  14.404  0.0210  0.2206  0.4070
  851MPD2    C112497   0.950   2.477  14.485 -0.0722  0.4968 -0.0580
  851MPD2    C212498   0.904   2.362  14.542 -0.6660  0.1527  0.2795
  851MPD2    C312499   0.960   2.236  14.508 -0.5087 -0.0498 -0.4742
  851MPD2    C412500   1.056   2.229  14.417 -0.8205  0.3986  0.6203
  851MPD2    C512501   1.113   2.347  14.368 -0.5765  0.4845 -0.6633
  851MPD2     H12502   0.826   2.368  14.617  0.3324 -0.0285  1.3128
  851MPD2    H112503   1.088   2.133  14.378  0.6538  1.8286 -1.7096
  851MPD2    H212504   1.105   2.555  14.362 -1.5909  0.9182 -0.0255
  851MPD2    H312505   1.184   2.347  14.286 -0.0062 -0.1682 -0.1692
  851MPD2     N12506   0.908   2.125  14.572  0.7019 -0.2222 -0.2952
  851MPD2    H512507   0.839   2.150  14.642 -0.4993 -1.8756 -0.8794
  851MPD2    N112508   0.906   2.605  14.521 -0.1748  0.5027 -0.4424
  851MPD2    H712509   0.957   2.683  14.481 -0.6353  0.9469 -0.1716
  852MPD2     C12510   0.921   1.068   9.188  0.1047  0.2139 -0.4561
  852MPD2    C112511   0.885   0.998   9.301 -0.9166  0.0443 -0.3238
  852MPD2    C212512   0.992   0.963   9.381 -0.4844 -0.5956 -0.1128
  852MPD2    C312513   1.122   0.982   9.345 -0.0806 -0.3623  0.4430
  852MPD2    C412514   1.159   1.051   9.234 -0.7231 -0.0068  0.1820
  852MPD2    C512515   1.052   1.097   9.156  0.1104  0.2856  0.6352
  852MPD2     H12516   0.979   0.917   9.478  1.1173 -1.8600 -0.4981
  852MPD2    H112517   1.259   1.077   9.201 -0.8092 -0.3755 -0.3674
  852MPD2    H212518   0.848   1.100   9.114  0.1359 -0.8045 -0.9282
  852MPD2    H312519   1.059   1.146   9.060  0.2254  1.7111  1.3731
  852MPD2     N12520   1.211   0.943   9.447 -0.0825  0.4846  0.1969
  852MPD2    H512521   1.171   0.915   9.536 -0.2002 -0.6110 -0.1950
  852MPD2    N112522   0.752   0.996   9.354 -0.0917 -0.0125  0.7579
  852MPD2    H712523   0.741   0.939   9.438 -1.2062 -0.5236  0.2730
  853MPD2     C12524   2.927   0.482  12.493  0.6685  0.6340 -0.5877
  853MPD2    C112525   2.792   0.472  12.480 -0.2244  0.0994 -0.3588
  853MPD2    C212526   2.745   0.400  12.371  0.0992  0.0651 -0.4580
  853MPD2    C312527   2.829   0.359  12.274 -0.2687 -0.4134 -0.3179
  853MPD2    C412528   2.962   0.395  12.278 -0.2382 -0.0649  0.1033
  853MPD2    C512529   3.011   0.453  12.386 -0.2048 -0.3178  0.1185
  853MPD2     H12530   2.643   0.366  12.385 -0.6957  1.7401 -2.1364
  853MPD2    H112531   3.029   0.353  12.204 -0.8983 -1.5876  0.3599
  853MPD2    H212532   2.981   0.529  12.574 -1.0503  1.5097  0.0440
  853MPD2    H312533   3.117   0.467  12.401 -0.4806  1.6905  0.1891
  853MPD2     N12534   2.784   0.283  12.156  0.2338 -0.5142 -0.9056
  853MPD2    H512535   2.860   0.251  12.097  2.2118 -0.8325  1.8229
  853MPD2    N112536   2.721   0.508  12.594 -0.5293  0.3190  0.1094
  853MPD2    H712537   2.790   0.547  12.658  1.2690  1.7662 -2.6950
  854MPD2     C12538   4.005   0.349  12.872 -0.0392  0.1263 -0.6203
  854MPD2    C112539   4.062   0.232  12.915 -0.2221 -0.7429  0.5632
  854MPD2    C212540   4.163   0.229  13.008  0.5699  0.5136 -0.3819
  854MPD2    C312541   4.207   0.352  13.066 -0.5780  0.5004 -0.2063
  854MPD2    C412542   4.140   0.469  13.032  0.4530 -0.2174  0.2860
  854MPD2    C512543   4.049   0.464  12.931  0.3592 -0.2981  0.2266
  854MPD2     H12544   4.198   0.133  13.044 -0.9222  0.2896  0.4647
  854MPD2    H112545   4.171   0.560  13.082 -0.1822 -0.4410  1.0834
  854MPD2    H212546   3.925   0.360  12.800  0.2247  0.5365 -0.8555
  854MPD2    H312547   4.004   0.559  12.904 -1.9829 -1.6873 -0.7535
  854MPD2     N12548   4.314   0.351  13.155 -0.2117 -1.2738  0.1874
  854MPD2    H512549   4.356   0.261  13.175  2.7671 -0.0249 -0.3006
  854MPD2    N112550   3.995   0.121  12.854  0.0367 -0.3925  0.0018
  854MPD2    H712551   3.920   0.147  12.790 -0.9255 -1.9316  0.4942
  855MPD2     C12552   4.527   4.418  13.539 -0.1740 -0.1461  0.8827
  855MPD2    C112553   4.559   4.503  13.638 -0.0845 -0.6697 -0.5243
  855MPD2    C212554   4.589   4.631  13.606 -0.1097  0.0181 -0.1445
  855MPD2    C312555   4.542   4.683  13.486 -0.1417  0.1257 -0.4653
  855MPD2    C412556   4.483   4.596  13.390 -0.5005 -0.3542 -0.4933
  855MPD2    C512557   4.487   4.465  13.410 -0.2699  0.6534  0.1826
  855MPD2     H12558   4.624   4.696  13.685  0.6040 -2.5039  1.6416
  855MPD2    H112559   4.465   4.639  13.292  2.1127  0.6106 -0.5420
  855MPD2    H212560   4.530   4.312  13.562  3.2615 -0.5240 -1.2760
  855MPD2    H312561   4.465   4.395  13.330  0.2726  1.3506 -0.5804
  855MPD2     N12562   4.545   0.097  13.454 -1.0005  0.0792  0.4588
  855MPD2    H512563   4.504   0.121  13.364 -0.7707 -1.9988 -0.1991
  855MPD2    N112564   4.577   4.467  13.773 -0.5871  0.0301 -0.5167
  855MPD2    H712565   4.620   4.538  13.832 -1.5649 -0.4989  0.8219
  856MPD2     C12566   1.591   1.062  13.956  0.9057  0.8002  0.0393
  856MPD2    C112567   1.605   1.162  14.056 -0.3643 -0.6069  0.2454
  856MPD2    C212568   1.533   1.275  14.036  0.2684  0.0746  0.0883
  856MPD2    C312569   1.455   1.309  13.928 -0.5564 -0.0087 -0.7345
  856MPD2    C412570   1.436   1.209  13.831 -0.0734  0.0511  0.7763
  856MPD2    C512571   1.504   1.089  13.846  0.5256 -0.2892 -0.1124
  856MPD2     H12572   1.568   1.356  14.098  0.7242 -0.2932  0.3056
  856MPD2    H112573   1.376   1.217  13.740  0.0241 -2.0865  0.5406
  856MPD2    H212574   1.650   0.972  13.960 -1.3655 -0.6196  1.4275
  856MPD2    H312575   1.487   1.012  13.771 -1.0957  0.1987 -0.2540
  856MPD2     N12576   1.401   1.441  13.907 -0.1795  0.0890  0.0092
  856MPD2    H512577   1.360   1.454  13.814  2.1623  0.6632 -0.9496
  856MPD2    N112578   1.682   1.149  14.174 -0.7128  0.2290  0.0895
  856MPD2    H712579   1.678   1.234  14.230 -2.3158  0.3832 -0.2593
  857MPD2     C12580   3.830   3.130  13.165 -0.6925 -0.6475  0.6375
  857MPD2    C112581   3.889   3.179  13.044  0.6721 -0.3990 -0.6256
  857MPD2    C212582   3.903   3.316  13.019 -1.3845 -0.2129 -0.2721
  857MPD2    C312583   3.866   3.407  13.117  0.4295 -0.3743  0.4221
  857MPD2    C412584   3.815   3.355  13.238 -0.2953  0.0203  0.5373
  857MPD2    C512585   3.792   3.220  13.259  0.0845  0.1250  0.4132
  857MPD2     H12586   3.947   3.353  12.927  1.3253 -0.5619  0.8814
  857MPD2    H112587   3.795   3.411  13.329  0.4534  1.4935 -0.2122
  857MPD2    H212588   3.814   3.025  13.186  0.4679 -1.1716 -1.0320
  857MPD2    H312589   3.759   3.179  13.354 -0.3852 -1.1548 -0.3080
  857MPD2     N12590   3.881   3.543  13.100 -0.0727 -0.0654 -0.1205
  857MPD2    H512591   3.880   3.601  13.184  0.4516 -0.2391  0.0019
  857MPD2    N112592   3.922   3.078  12.951  0.0820 -0.8066  0.2857
  857MPD2    H712593   3.893   2.983  12.970 -1.2570  0.0274  2.3273
  858MPD2     C12594   4.167   2.110  17.002  0.0282 -0.6447  0.5120
  858MPD2    C112595   4.299   2.072  16.986 -0.0170 -0.0764  0.0464
  858MPD2    C212596   4.406   2.160  17.020 -0.1820 -0.6326 -0.3108
  858MPD2    C312597   4.379   2.289  17.060  0.4312 -0.6310  0.3138
  858MPD2    C412598   4.246   2.332  17.070 -0.1064 -0.0541 -0.5540
  858MPD2    C512599   4.144   2.239  17.042 -0.3319 -0.5478 -0.0970
  858MPD2     H12600   4.509   2.127  17.014 -0.7667 -2.3298 -0.9735
  858MPD2    H112601   4.224   2.433  17.103 -2.1260 -0.8749  0.5509
  858MPD2    H212602   4.081   2.046  16.985 -0.3747 -0.0845  0.4314
  858MPD2    H312603   4.043   2.276  17.053  0.6637  2.0259  0.1980
  858MPD2     N12604   4.471   2.385  17.098  0.2700 -0.2789  0.1787
  858MPD2    H512605   4.436   2.476  17.124 -0.6651 -0.3780 -0.7374
  858MPD2    N112606   4.331   1.951  16.922  0.2319 -0.0010  0.0531
  858MPD2    H712607   4.249   1.893  16.906  0.3903 -0.4683  0.9108
  859MPD2     C12608   2.808   4.287  15.267  0.3218 -0.0826 -0.2179
  859MPD2    C112609   2.900   4.265  15.160 -0.5013  0.2746  0.4060
  859MPD2    C212610   2.939   4.134  15.131  0.7886  0.2283 -0.4979
  859MPD2    C312611   2.878   4.027  15.191 -0.1919 -0.6886 -0.0241
  859MPD2    C412612   2.773   4.055  15.278  0.2766 -0.1536 -0.1519
  859MPD2    C512613   2.738   4.185  15.315  0.6160  0.0818  0.0661
  859MPD2     H12614   3.006   4.121  15.047  0.9013  1.4602 -0.6035
  859MPD2    H112615   2.708   3.970  15.296 -0.5838  0.5824  0.2413
  859MPD2    H212616   2.785   4.385  15.306  1.5763  0.1035  0.0608
  859MPD2    H312617   2.658   4.201  15.386  0.9628 -2.9569  1.1732
  859MPD2     N12618   2.906   3.889  15.161  0.3390 -0.1565 -0.0161
  859MPD2    H512619   2.860   3.817  15.216 -1.7327 -0.3293 -1.9758
  859MPD2    N112620   2.970   4.371  15.096  0.2659 -0.6838 -0.5516
  859MPD2    H712621   2.951   4.465  15.129  0.4865  0.0848 -2.6052
  860MPD2     C12622   0.499   4.712  11.736 -0.2839  0.2789 -0.1730
  860MPD2    C112623   0.548   0.004  11.869 -0.0420 -0.3792  1.0501
  860MPD2    C212624   0.461   0.052  11.963  0.0915  0.0941  0.1622
  860MPD2    C312625   0.330   0.075  11.930  0.0201  0.0580  0.6576
  860MPD2    C412626   0.283   0.061  11.800  0.1451  0.3918  0.1547
  860MPD2    C512627   0.371   0.014  11.696  0.0654 -0.5273 -0.0466
  860MPD2     H12628   0.490   0.082  12.063  0.1969  0.0395  0.1478
  860MPD2    H112629   0.181   0.085  11.773  0.5489  0.8974 -0.9088
  860MPD2    H212630   0.566   4.693  11.652 -0.7051 -2.2785  0.0734
  860MPD2    H312631   0.338   0.015  11.593 -1.3334 -3.9976  0.3585
  860MPD2     N12632   0.249   0.121  12.033  0.0599 -0.6726  0.0217
  860MPD2    H512633   0.284   0.123  12.128 -3.3720  0.7171  1.2220
  860MPD2    N112634   0.678   4.704  11.904 -0.1437  0.0774  0.9602
  860MPD2    H712635   0.703   0.008  11.998  1.5568  0.3746  0.4017
  861MPD2     C12636   0.055   3.382  11.142  0.5203  0.7268 -0.1081
  861MPD2    C112637   4.697   3.279  11.100 -0.3114  0.9125  1.1041
  861MPD2    C212638   4.594   3.301  11.009  0.0122  0.0380  0.2060
  861MPD2    C312639   4.576   3.429  10.957 -0.1807 -0.3451 -0.5354
  861MPD2    C412640   4.664   3.528  10.995 -0.1789  0.1744 -0.1498
  861MPD2    C512641   0.033   3.512  11.092  0.5924  0.5966  0.0289
  861MPD2     H12642   4.533   3.215  10.986  0.9974 -0.3628 -0.8768
  861MPD2    H112643   4.635   3.628  10.964  1.0110  0.8152  0.8027
  861MPD2    H212644   0.137   3.371  11.213  0.5367 -0.8244 -0.3674
  861MPD2    H312645   0.088   3.601  11.118  1.1558  0.2071  0.1695
  861MPD2     N12646   4.467   3.465  10.873  0.4547 -0.5512 -0.1942
  861MPD2    H512647   4.463   3.564  10.850 -0.4003 -0.4675  0.3186
  861MPD2    N112648   4.697   3.152  11.161  0.2488  0.1125 -0.6714
  861MPD2    H712649   4.634   3.078  11.132 -0.8882  1.4128 -1.5313
  862MPD2     C12650   3.832   3.113  10.406 -1.1533 -0.4076  0.8579
  862MPD2    C112651   3.940   3.100  10.496 -0.3090 -0.4545  0.6814
  862MPD2    C212652   3.963   2.987  10.570 -0.0318 -0.2915  0.1212
  862MPD2    C312653   3.878   2.884  10.569  0.0632 -0.2189  0.0790
  862MPD2    C412654   3.776   2.887  10.478  0.2472  0.5211 -0.1147
  862MPD2    C512655   3.758   2.993  10.391  0.7509  0.1960 -0.0940
  862MPD2     H12656   4.038   2.977  10.648 -0.5587 -0.4463  0.6112
  862MPD2    H112657   3.718   2.796  10.466  1.6864 -0.2280 -1.2614
  862MPD2    H212658   3.815   3.205  10.352  0.3392 -1.3234 -1.1377
  862MPD2    H312659   3.670   2.992  10.327  2.5515 -0.0390 -2.5983
  862MPD2     N12660   3.894   2.775  10.653  0.3914  0.1371 -0.1399
  862MPD2    H512661   3.828   2.698  10.648  0.4595  0.0476  0.3597
  862MPD2    N112662   4.029   3.209  10.530 -0.5187 -0.1063  0.7411
  862MPD2    H712663   4.097   3.183  10.600  1.0276 -0.3507 -0.8636
  863MPD2     C12664   3.007   1.827  17.014  0.3013  0.6251 -0.2058
  863MPD2    C112665   2.983   1.734  16.905  0.3685 -0.1642 -0.5265
  863MPD2    C212666   3.069   1.627  16.892 -0.0705 -0.9127  0.7292
  863MPD2    C312667   3.166   1.598  16.985 -0.7725  0.4240 -0.3164
  863MPD2    C412668   3.184   1.675  17.094  0.0945  0.4389  0.1870
  863MPD2    C512669   3.110   1.792  17.106 -0.3706 -0.0786 -0.2857
  863MPD2     H12670   3.066   1.558  16.809  0.3445  1.4628 -1.2817
  863MPD2    H112671   3.251   1.643  17.173 -2.3769 -0.1348  2.0711
  863MPD2    H212672   2.935   1.900  17.047 -3.0504 -3.4659  1.5623
  863MPD2    H312673   3.117   1.834  17.205 -0.2021  2.5395 -1.3944
  863MPD2     N12674   3.257   1.491  16.977 -0.6084  0.8974  0.0069
  863MPD2    H512675   3.326   1.481  17.051  0.4520  2.1121 -0.8106
  863MPD2    N112676   2.876   1.745  16.814  0.3230  0.0177 -0.2182
  863MPD2    H712677   2.864   1.659  16.762  1.4446 -1.1983  1.5384
  864MPD2     C12678   2.869   2.399  16.876  0.3113  0.2078  0.2198
  864MPD2    C112679   2.905   2.443  17.000 -0.6138  0.3949 -0.2834
  864MPD2    C212680   3.006   2.539  17.003  0.7740 -0.2730 -0.3267
  864MPD2    C312681   3.057   2.595  16.891  0.2243  0.1660  0.1783
  864MPD2    C412682   3.014   2.554  16.770 -0.1307  0.1110  0.1656
  864MPD2    C512683   2.924   2.456  16.765 -0.2383 -0.4555 -0.2205
  864MPD2     H12684   3.035   2.577  17.101 -3.1712 -0.1444  0.8264
  864MPD2    H112685   3.048   2.598  16.676 -0.4742  1.2150  0.5626
  864MPD2    H212686   2.791   2.327  16.856 -0.3941  1.4531 -1.4417
  864MPD2    H312687   2.879   2.420  16.674  0.4165  0.4390 -0.8881
  864MPD2     N12688   3.145   2.706  16.892  0.6744  0.2713 -0.0366
  864MPD2    H512689   3.178   2.738  16.801  1.7416  1.2555  0.7091
  864MPD2    N112690   2.846   2.374  17.111  0.7347 -0.0412  0.3599
  864MPD2    H712691   2.784   2.297  17.091 -1.6114  2.1239 -0.6155
  865MPD2     C12692   3.243   2.945  16.280 -0.7437 -0.0931  0.4029
  865MPD2    C112693   3.239   2.889  16.403  0.4895  0.1408  0.3585
  865MPD2    C212694   3.195   2.959  16.513  0.0147 -0.0788  0.0025
  865MPD2    C312695   3.159   3.097  16.505  0.3440 -0.1507 -0.0540
  865MPD2    C412696   3.161   3.149  16.375 -1.0415 -0.2636 -0.1046
  865MPD2    C512697   3.207   3.083  16.268  0.0965  0.0519  0.4889
  865MPD2     H12698   3.176   2.915  16.610  1.2863  0.1248  0.3514
  865MPD2    H112699   3.130   3.252  16.362  0.7953  0.2927 -0.1246
  865MPD2    H212700   3.286   2.889  16.198 -0.6504 -0.2079  0.5296
  865MPD2    H312701   3.213   3.132  16.171  1.0983 -2.8020 -0.8805
  865MPD2     N12702   3.111   3.179  16.610 -1.1438  0.4621  0.0281
  865MPD2    H512703   3.084   3.268  16.569 -0.3145  1.4421  1.5927
  865MPD2    N112704   3.286   2.753  16.414  0.6563  0.1315 -0.8682
  865MPD2    H712705   3.315   2.703  16.330 -0.1649  1.3131 -1.8551
  866MPD2     C12706   0.461   3.413  11.603 -0.1612  0.0914 -0.5544
  866MPD2    C112707   0.437   3.493  11.496  0.7893  0.0519 -0.0082
  866MPD2    C212708   0.303   3.516  11.468  0.2014 -0.0395  0.4539
  866MPD2    C312709   0.196   3.470  11.550  0.9922  0.2969  0.4504
  866MPD2    C412710   0.231   3.405  11.661 -0.4919 -0.1476 -0.4551
  866MPD2    C512711   0.362   3.371  11.684  0.1692 -0.1895 -0.1541
  866MPD2     H12712   0.277   3.579  11.385 -2.1718 -0.6413  0.7286
  866MPD2    H112713   0.157   3.366  11.731  1.1424 -0.5925  1.0264
  866MPD2    H212714   0.563   3.396  11.637  0.4631 -0.0242 -2.5219
  866MPD2    H312715   0.384   3.327  11.781 -0.4446  0.1301  0.1302
  866MPD2     N12716   0.060   3.493  11.525  0.2307 -0.2327  0.1472
  866MPD2    H512717   4.722   3.437  11.582  1.5397  0.4892  2.2655
  866MPD2    N112718   0.539   3.542  11.420  0.4573 -0.9450  0.5798
  866MPD2    H712719   0.631   3.501  11.434  0.2981 -0.8563  1.9049
  867MPD2     C12720   1.871   2.790  16.277 -0.2261  0.1001 -0.0468
  867MPD2    C112721   1.883   2.713  16.385  0.0775  0.3011  0.0081
  867MPD2    C212722   1.878   2.774  16.511  0.5167  0.6383  0.2015
  867MPD2    C312723   1.851   2.909  16.523  0.1379 -0.1615  0.0473
  867MPD2    C412724   1.832   2.980  16.407 -0.1483 -0.2801  0.6682
  867MPD2    C512725   1.834   2.917  16.286  0.0432  0.4399  0.0391
  867MPD2     H12726   1.882   2.713  16.600 -1.9789  0.7637  0.4045
  867MPD2    H112727   1.841   3.088  16.414 -1.1243 -0.1458 -0.2123
  867MPD2    H212728   1.888   2.755  16.176 -0.5536  0.4300 -0.2150
  867MPD2    H312729   1.827   2.984  16.201  0.6070 -1.3756 -1.4355
  867MPD2     N12730   1.841   2.967  16.649  0.2500  0.1146  0.5822
  867MPD2    H512731   1.820   3.067  16.647  0.4004  0.1439  0.4930
  867MPD2    N112732   1.929   2.581  16.368 -0.3322  0.3007  0.3639
  867MPD2    H712733   1.933   2.560  16.269 -1.3573 -0.2666  0.4363
  868MPD2     C12734   3.769   1.502  13.205 -0.5035  0.0163 -0.3295
  868MPD2    C112735   3.813   1.420  13.312 -0.9542 -0.0469 -0.4361
  868MPD2    C212736   3.754   1.429  13.432  0.0851 -0.0758  0.0197
  868MPD2    C312737   3.645   1.513  13.460  0.2655 -0.6589  0.2788
  868MPD2    C412738   3.617   1.596  13.354  0.6605  0.4688 -0.7504
  868MPD2    C512739   3.673   1.589  13.238  0.6035  0.0068  0.3550
  868MPD2     H12740   3.792   1.375  13.518  0.7978  1.9048  0.9425
  868MPD2    H112741   3.545   1.678  13.353  0.0195 -0.0623  1.7316
  868MPD2    H212742   3.807   1.491  13.105 -0.1766  2.1001 -0.4357
  868MPD2    H312743   3.629   1.654  13.162  2.3579 -1.2686 -1.7353
  868MPD2     N12744   3.579   1.501  13.582  0.3042 -0.3900  0.2969
  868MPD2    H512745   3.616   1.438  13.652 -1.2652 -1.4691  0.1611
  868MPD2    N112746   3.922   1.335  13.292 -0.5096 -0.0412  0.4944
  868MPD2    H712747   3.962   1.337  13.199 -1.8893 -1.0288 -0.1043
  869MPD2     C12748   4.114   3.863   1.154 -0.2780 -0.4855  1.2585
  869MPD2    C112749   4.158   3.949   1.251 -0.4004  0.1150  0.3417
  869MPD2    C212750   4.250   4.040   1.213  0.3924 -0.5862  0.0627
  869MPD2    C312751   4.304   4.050   1.088 -0.1666  1.3116 -0.7585
  869MPD2    C412752   4.268   3.952   0.994 -0.4692 -0.5069 -0.0809
  869MPD2    C512753   4.169   3.859   1.029  1.0217 -0.7697  0.7673
  869MPD2     H12754   4.264   4.129   1.274  1.5507  0.0838 -1.1813
  869MPD2    H112755   4.313   3.944   0.896 -1.6834  1.8452 -0.8154
  869MPD2    H212756   4.040   3.788   1.178 -0.0749 -0.7671  1.0000
  869MPD2    H312757   4.143   3.789   0.951  1.6745  1.0602 -1.1059
  869MPD2     N12758   4.385   4.149   1.041 -0.8247  0.1741  0.2726
  869MPD2    H512759   4.408   4.160   0.942 -1.0077  0.0123  0.2132
  869MPD2    N112760   4.109   3.937   1.384  0.2810 -0.0642 -0.3529
  869MPD2    H712761   4.030   3.876   1.405 -0.7658 -0.0219 -4.2545
  870MPD2     C12762   3.366   2.883   1.249  0.0162 -0.5966  0.4626
  870MPD2    C112763   3.499   2.924   1.240 -0.5697 -0.3732 -0.4210
  870MPD2    C212764   3.552   2.946   1.115  0.0042 -0.0674  0.2147
  870MPD2    C312765   3.485   2.918   0.997 -0.0709 -0.0264  0.1335
  870MPD2    C412766   3.351   2.875   1.004  0.3506 -0.5820  0.0802
  870MPD2    C512767   3.298   2.852   1.131 -0.0315  0.0723 -0.1229
  870MPD2     H12768   3.657   2.975   1.118 -0.0453  0.1869 -0.5082
  870MPD2    H112769   3.302   2.837   0.915 -2.1045  1.9203  0.3664
  870MPD2    H212770   3.317   2.874   1.345 -0.5598 -0.1234  0.2069
  870MPD2    H312771   3.197   2.813   1.136  0.1537 -0.5623 -1.3436
  870MPD2     N12772   3.552   2.933   0.866 -0.2616  0.3836 -0.3224
  870MPD2    H512773   3.652   2.952   0.862 -0.3473  0.2239 -2.7349
  870MPD2    N112774   3.565   2.955   1.361  0.0407 -0.1445 -0.3696
  870MPD2    H712775   3.522   2.932   1.451 -0.2184 -1.0769 -0.7283
  871MPD2     C12776   1.217   2.639  16.300  0.1445 -0.6455 -0.5686
  871MPD2    C112777   1.217   2.594  16.432 -0.5137  0.4102 -0.1465
  871MPD2    C212778   1.231   2.454  16.452  0.2449  0.0167  0.2393
  871MPD2    C312779   1.250   2.365  16.349  0.3639  0.2543 -0.0686
  871MPD2    C412780   1.244   2.409  16.218 -0.0180  0.1293  0.5777
  871MPD2    C512781   1.235   2.545  16.196 -0.5884  0.1873 -0.7286
  871MPD2     H12782   1.228   2.416  16.553 -0.7441 -1.3627 -0.3219
  871MPD2    H112783   1.244   2.354  16.125  0.7769 -1.7610  1.6885
  871MPD2    H212784   1.214   2.744  16.275  0.3485  0.0259  2.2184
  871MPD2    H312785   1.235   2.583  16.094  1.2128  0.3147 -0.6782
  871MPD2     N12786   1.256   2.227  16.379  0.1173 -0.2340 -0.4418
  871MPD2    H512787   1.254   2.195  16.475 -0.1729  1.6106  0.1800
  871MPD2    N112788   1.193   2.688  16.532 -0.8105  0.2116 -0.4179
  871MPD2    H712789   1.195   2.780  16.488 -0.9842 -0.0264 -0.9259
  872MPD2     C12790   2.037   0.361  13.538 -0.2459  0.0163 -0.2296
  872MPD2    C112791   2.109   0.378  13.654 -0.0659  0.0050  0.2164
  872MPD2    C212792   2.060   0.338  13.776 -0.2533 -0.2433  0.4155
  872MPD2    C312793   1.929   0.281  13.781 -0.3459  0.1042  0.7159
  872MPD2    C412794   1.865   0.260  13.663  0.1137 -0.0121 -0.4223
  872MPD2    C512795   1.913   0.299  13.541  0.6258 -0.0101 -0.1291
  872MPD2     H12796   2.123   0.337  13.864 -1.2343  0.3079  1.1249
  872MPD2    H112797   1.771   0.207  13.654  0.2018 -0.2065 -0.1901
  872MPD2    H212798   2.073   0.386  13.438  2.6860  0.4854  0.9472
  872MPD2    H312799   1.859   0.282  13.448  0.0986 -0.3504  0.2361
  872MPD2     N12800   1.855   0.246  13.897  0.3041  0.3191  0.0965
  872MPD2    H512801   1.768   0.193  13.891 -0.3341  1.3121  0.5039
  872MPD2    N112802   2.239   0.437  13.649  0.4851 -0.1592 -0.9545
  872MPD2    H712803   2.283   0.441  13.740  1.1942  1.0337 -1.3483
  873MPD2     C12804   4.506   0.088   0.675 -0.1901 -0.1368  0.3325
  873MPD2    C112805   4.389   0.116   0.741 -0.2734 -0.9407 -0.0366
  873MPD2    C212806   4.308   0.011   0.779  0.1825  0.3864  0.4213
  873MPD2    C312807   4.342   4.601   0.778 -0.3254 -0.3938  0.0441
  873MPD2    C412808   4.460   4.574   0.710 -0.3118  0.2938  1.0016
  873MPD2    C512809   4.540   4.679   0.663  0.1043 -0.2946  0.9619
  873MPD2     H12810   4.218   0.041   0.833 -0.0475 -0.9711  0.8037
  873MPD2    H112811   4.490   4.471   0.691 -4.0136 -0.7213  0.6611
  873MPD2    H212812   4.576   0.166   0.647  0.5775 -0.8941  0.1423
  873MPD2    H312813   4.629   4.647   0.611 -1.0376  1.3141 -1.9415
  873MPD2     N12814   4.267   4.498   0.831 -0.2672  0.2815 -1.1199
  873MPD2    H512815   4.297   4.404   0.810  2.2326  0.1923  2.9808
  873MPD2    N112816   4.358   0.257   0.753  0.8308  0.3226 -0.6701
  873MPD2    H712817   4.438   0.320   0.745 -0.0312  1.5299  0.0939
  874MPD2     C12818   2.741   0.481  15.955  0.0994  0.0701 -0.2906
  874MPD2    C112819   2.808   0.388  16.037 -0.3106  0.1607 -0.0445
  874MPD2    C212820   2.941   0.364  16.018 -0.8599  0.4319  0.0342
  874MPD2    C312821   3.006   0.423  15.916 -0.4585  0.2805  0.2854
  874MPD2    C412822   2.943   0.520  15.840 -0.5569 -0.3243  0.0378
  874MPD2    C512823   2.812   0.554  15.860 -0.4359 -0.6973  0.2879
  874MPD2     H12824   3.001   0.296  16.077  1.8966  0.9524 -2.1476
  874MPD2    H112825   3.001   0.575  15.766  0.2964 -2.4005 -0.8220
  874MPD2    H212826   2.635   0.499  15.969  0.5792  1.8391  1.1187
  874MPD2    H312827   2.768   0.635  15.803  0.2611  0.3771  1.2518
  874MPD2     N12828   3.141   0.384  15.897  0.5244 -0.3669  0.0337
  874MPD2    H512829   3.172   0.299  15.944  0.1230 -0.3961  0.2436
  874MPD2    N112830   2.736   0.323  16.132 -0.1793 -1.1258  0.2688
  874MPD2    H712831   2.636   0.342  16.130 -0.1355 -0.8976  0.2888
  875MPD2     C12832   4.434   3.698  14.827  0.3675  0.3028 -0.2733
  875MPD2    C112833   4.303   3.672  14.866 -0.0724 -0.0596  1.2380
  875MPD2    C212834   4.246   3.729  14.977 -0.3005  0.2467  0.4243
  875MPD2    C312835   4.309   3.831  15.042 -0.2546 -0.6631 -0.7002
  875MPD2    C412836   4.443   3.861  15.000 -0.2073  0.1623  0.0676
  875MPD2    C512837   4.506   3.784  14.907  0.3633  0.1773  0.5283
  875MPD2     H12838   4.141   3.707  14.991  0.2390 -2.5017  0.1452
  875MPD2    H112839   4.495   3.928  15.069  2.6418 -0.9826 -0.9798
  875MPD2    H212840   4.477   3.661  14.735 -2.5030  0.6460 -1.7701
  875MPD2    H312841   4.600   3.823  14.871 -0.0707  0.8605  0.1406
  875MPD2     N12842   4.261   3.883  15.164  0.1297 -0.1686 -0.5789
  875MPD2    H512843   4.305   3.971  15.190 -0.7941 -0.5767  2.3355
  875MPD2    N112844   4.220   3.601  14.784  0.3810 -0.3386  0.4547
  875MPD2    H712845   4.122   3.595  14.813  0.0528 -1.9892 -0.9589
  876MPD2     C12846   2.985   0.136  15.730 -0.2810  0.9918  0.5629
  876MPD2    C112847   3.108   0.077  15.715 -0.1241  0.7453  0.0765
  876MPD2    C212848   3.154   4.710  15.805  0.7816 -0.4486 -0.9673
  876MPD2    C312849   3.070   4.673  15.908 -0.4644  0.3610 -0.4663
  876MPD2    C412850   2.947   0.011  15.925 -0.6500 -0.9753  0.6313
  876MPD2    C512851   2.900   0.101  15.837  0.4193 -0.0625 -0.3045
  876MPD2     H12852   3.252   4.664  15.799  1.0565 -0.0060 -0.0246
  876MPD2    H112853   2.882   4.695  16.001  1.1535 -1.0867  2.0948
  876MPD2    H212854   2.942   0.196  15.651  2.6515  1.6408 -0.5418
  876MPD2    H312855   2.804   0.150  15.833  0.4093 -0.3271 -3.6050
  876MPD2     N12856   3.118   4.576  16.001 -0.4843 -0.6525  0.8315
  876MPD2    H512857   3.203   4.528  15.973 -1.0205 -1.7031  1.0090
  876MPD2    N112858   3.184   0.125  15.601  0.3967 -0.0296 -0.3806
  876MPD2    H712859   3.146   0.201  15.546  0.0644 -1.1345 -1.6822
  877MPD2     C12860   3.053   0.340  14.887 -0.4189 -0.7235 -0.4440
  877MPD2    C112861   3.192   0.357  14.905  0.3986  0.0318 -0.1725
  877MPD2    C212862   3.266   0.428  14.807 -0.1406  0.5641  0.3247
  877MPD2    C312863   3.197   0.466  14.695 -0.0153 -0.9388 -0.4992
  877MPD2    C412864   3.065   0.446  14.676 -0.6110  0.0598 -0.2336
  877MPD2    C512865   2.993   0.378  14.772  0.1566  0.2671  0.2855
  877MPD2     H12866   3.374   0.423  14.813  0.0210  0.8898 -2.3194
  877MPD2    H112867   3.014   0.480  14.587 -0.5877 -1.2665 -0.7439
  877MPD2    H212868   2.995   0.279  14.957 -1.7764  1.3131  0.2060
  877MPD2    H312869   2.888   0.355  14.762  0.1889 -0.5137  1.8124
  877MPD2     N12870   3.257   0.536  14.594  0.1630 -0.0895 -0.2188
  877MPD2    H512871   3.210   0.577  14.513  0.3852  1.0876  0.2424
  877MPD2    N112872   3.272   0.315  15.015  0.8069  0.0651  0.1520
  877MPD2    H712873   3.370   0.343  15.014  0.8928 -0.2781 -1.1866
  878MPD2     C12874   3.190   4.287  12.887  0.1606 -0.1078  0.3419
  878MPD2    C112875   3.196   4.423  12.913 -0.1231 -0.6839  0.0348
  878MPD2    C212876   3.240   4.473  13.031 -0.4959  0.0464 -0.3746
  878MPD2    C312877   3.302   4.390  13.119 -0.8026  0.4037 -0.0787
  878MPD2    C412878   3.313   4.257  13.092 -0.5828 -0.5792  0.1295
  878MPD2    C512879   3.257   4.207  12.976 -0.0249  0.1419  0.7172
  878MPD2     H12880   3.224   4.577  13.055  0.0231  0.0195  0.0823
  878MPD2    H112881   3.369   4.186  13.152  0.2367  0.0402  0.1001
  878MPD2    H212882   3.149   4.248  12.794 -0.4320  2.0266 -0.2925
  878MPD2    H312883   3.266   4.102  12.954 -2.0487  0.4333 -1.5079
  878MPD2     N12884   3.366   4.446  13.232  0.6140 -0.1294 -0.3452
  878MPD2    H512885   3.411   4.377  13.290 -1.7823 -0.8436  0.6576
  878MPD2    N112886   3.136   4.506  12.815  0.2980  0.1130 -0.1256
  878MPD2    H712887   3.082   4.466  12.739  0.6662 -1.1587  0.2894
  879MPD2     C12888   3.785   0.446  17.497 -0.1539 -0.0080  0.4385
  879MPD2    C112889   3.824   0.556  17.416  0.0766  0.6449 -0.3739
  879MPD2    C212890   3.754   0.570  17.296 -0.1013  0.3079  0.0712
  879MPD2    C312891   3.655   0.479  17.249  0.2765  0.3690  0.1723
  879MPD2    C412892   3.624   0.373  17.333 -0.0150 -0.2218  0.3039
  879MPD2    C512893   3.697   0.358  17.453 -0.5464  0.7255  1.1093
  879MPD2     H12894   3.774   0.658  17.236 -0.3517 -0.3765 -1.0259
  879MPD2    H112895   3.559   0.292  17.301 -1.4796  1.1411 -0.1345
  879MPD2    H212896   3.825   0.433  17.597 -0.3543  1.7191  0.7568
  879MPD2    H312897   3.671   0.270  17.511 -2.6040 -0.6259 -1.8410
  879MPD2     N12898   3.585   0.484  17.126 -0.3029  0.1254 -0.6500
  879MPD2    H512899   3.519   0.408  17.112 -1.4285  1.0783 -0.5416
  879MPD2    N112900   3.925   0.644  17.469  0.7970 -0.1601 -0.9053
  879MPD2    H712901   3.963   0.625  17.561 -2.2280  1.8744  0.7539
  880MPD2     C12902   0.262   2.598   0.595 -0.5571 -0.6350 -0.2716
  880MPD2    C112903   0.294   2.690   0.501  0.0431 -0.0403  0.1382
  880MPD2    C212904   0.425   2.715   0.456 -0.0816  0.9457 -0.2617
  880MPD2    C312905   0.520   2.623   0.490  0.1321 -0.7071 -0.4369
  880MPD2    C412906   0.483   2.520   0.576 -0.4161 -0.1591  0.4909
  880MPD2    C512907   0.360   2.504   0.625 -0.3692  0.6387 -0.2127
  880MPD2     H12908   0.461   2.801   0.400  1.4113 -0.1813 -1.0551
  880MPD2    H112909   0.553   2.441   0.598 -0.1679 -0.3229 -0.8578
  880MPD2    H212910   0.157   2.584   0.619 -1.2271  0.5927 -2.4823
  880MPD2    H312911   0.346   2.421   0.693 -0.1217  0.8789  0.1281
  880MPD2     N12912   0.643   2.634   0.427 -0.3060  0.2374  0.2899
  880MPD2    H512913   0.661   2.717   0.372 -2.4929 -1.0709 -2.4007
  880MPD2    N112914   0.188   2.772   0.457  0.1480  0.4942 -0.2693
  880MPD2    H712915   0.093   2.752   0.489  0.6046  0.8241  1.2976
  881MPD2     C12916   4.668   3.570  17.526 -0.5391  1.1417 -0.5072
  881MPD2    C112917   4.674   3.441  17.473  0.1209  1.1181  0.1805
  881MPD2    C212918   4.676   3.331  17.557  0.2571  0.1719  0.4043
  881MPD2    C312919   4.628   3.347  17.691 -0.2838  0.1484 -0.2046
  881MPD2    C412920   4.591   3.471   0.032 -0.4651  0.1152 -0.1244
  881MPD2    C512921   4.606   3.580  17.650  0.2207 -0.5505 -0.4571
  881MPD2     H12922   4.719   3.238  17.520 -1.8791 -0.0738 -1.4392
  881MPD2    H112923   4.545   3.490   0.128 -2.0340 -1.6287 -0.5186
  881MPD2    H212924   4.669   3.654  17.458  2.3219  1.7350  0.2623
  881MPD2    H312925   4.555   3.671  17.679 -0.1691 -0.3771 -1.6881
  881MPD2     N12926   4.614   3.236   0.076 -0.1638 -0.0578 -0.5557
  881MPD2    H512927   4.573   3.253   0.167  1.0394  0.6326 -0.1394
  881MPD2    N112928   4.723   3.428  17.343  1.0440 -0.4557 -0.1672
  881MPD2    H712929   0.045   3.507  17.301  1.1253 -0.8567 -0.8217
  882MPD2     C12930   3.062   0.570  13.819  0.1662 -0.5686  0.4573
  882MPD2    C112931   3.046   0.565  13.959  0.6611 -0.0380 -0.2436
  882MPD2    C212932   2.933   0.504  14.011  0.2668  0.7018 -0.5887
  882MPD2    C312933   2.829   0.470  13.928 -0.5061 -0.9199 -0.0916
  882MPD2    C412934   2.843   0.484  13.793  0.4324  0.6086 -0.0691
  882MPD2    C512935   2.959   0.534  13.737 -0.0484  0.0978  0.4413
  882MPD2     H12936   2.940   0.479  14.116 -1.3326  1.4125 -0.3183
  882MPD2    H112937   2.771   0.447  13.720  1.5698 -0.2072 -0.7790
  882MPD2    H212938   3.147   0.611  13.766  1.6031 -2.3167  1.4017
  882MPD2    H312939   2.960   0.540  13.629  1.6132 -1.1715  0.4010
  882MPD2     N12940   2.716   0.416  13.995  0.2665 -0.1935  0.0606
  882MPD2    H512941   2.712   0.411  14.096 -0.1804  3.1422  0.1803
  882MPD2    N112942   3.159   0.602  14.039  0.5067  0.2188 -1.0076
  882MPD2    H712943   3.246   0.638  14.002  1.5662 -1.1651  0.1283
  883MPD2     C12944   1.023   0.351  16.499 -0.1978 -0.1539 -0.0749
  883MPD2    C112945   1.071   0.353  16.369  0.0039 -0.0911  0.6847
  883MPD2    C212946   1.209   0.344  16.358 -0.3223 -0.6260 -0.6825
  883MPD2    C312947   1.291   0.356  16.470  0.4205  0.3561 -0.0314
  883MPD2    C412948   1.243   0.347  16.596  0.1156 -0.1697 -0.2694
  883MPD2    C512949   1.104   0.352  16.610 -0.8377  0.5495  0.2412
  883MPD2     H12950   1.256   0.344  16.260  0.1002  0.6638 -0.4791
  883MPD2    H112951   1.307   0.352  16.683 -0.2070 -1.0132  0.0148
  883MPD2    H212952   0.916   0.364  16.513 -0.5588 -3.1597 -0.1926
  883MPD2    H312953   1.059   0.365  16.708 -0.6860  4.1105 -0.1334
  883MPD2     N12954   1.432   0.359  16.447 -1.1575  0.2921  0.4563
  883MPD2    H512955   1.461   0.365  16.350  0.2784  0.7839  0.9165
  883MPD2    N112956   0.994   0.368  16.247  0.1948 -0.0184 -0.3236
  883MPD2    H712957   1.042   0.376  16.158 -0.4679  0.2002 -0.6626
  884MPD2     C12958   2.738   0.914  14.967  0.1073  0.8979  0.2019
  884MPD2    C112959   2.746   0.992  15.079  0.7562 -0.5326  0.3416
  884MPD2    C212960   2.626   1.030  15.140 -0.3503 -0.2639  0.3568
  884MPD2    C312961   2.498   1.000  15.084 -0.1457 -0.0889  0.8605
  884MPD2    C412962   2.501   0.921  14.964  0.3490 -0.6084 -0.4977
  884MPD2    C512963   2.622   0.878  14.910  0.4108  0.1433  1.0978
  884MPD2     H12964   2.637   1.097  15.225  1.1825 -0.2091  0.1156
  884MPD2    H112965   2.411   0.883  14.918 -0.0910  0.2870 -0.3916
  884MPD2    H212966   2.822   0.873  14.913 -1.0972 -1.4770  0.1231
  884MPD2    H312967   2.625   0.807  14.828  1.5040 -0.1769  1.4137
  884MPD2     N12968   2.376   1.042  15.143 -0.3566 -0.1583 -0.1968
  884MPD2    H512969   2.298   1.026  15.080 -1.7733 -1.5039  1.9164
  884MPD2    N112970   2.867   1.046  15.130 -0.3367  0.6574  0.0437
  884MPD2    H712971   2.865   1.092  15.221  2.2732  1.8496 -0.5048
  885MPD2     C12972   0.929   1.586  17.522  0.0172  0.3073  0.1320
  885MPD2    C112973   0.942   1.458  17.478  0.9259  0.3934  0.4911
  885MPD2    C212974   0.941   1.430  17.339  0.5661  0.4368 -0.5553
  885MPD2    C312975   0.897   1.530  17.254  0.6977  0.1485  0.1803
  885MPD2    C412976   0.849   1.648  17.311  0.7114 -0.1268 -0.2773
  885MPD2    C512977   0.875   1.680  17.443  0.1901  0.3383  0.2725
  885MPD2     H12978   0.974   1.333  17.304  1.5406  0.6682 -0.2653
  885MPD2    H112979   0.803   1.730  17.256  1.3885 -0.4422 -1.3174
  885MPD2    H212980   0.922   1.614  17.626 -0.6968 -0.9042  0.4045
  885MPD2    H312981   0.833   1.769  17.487  0.6571  1.0497 -0.7438
  885MPD2     N12982   0.892   1.509  17.116  0.5833 -0.0837 -0.2809
  885MPD2    H512983   0.938   1.429  17.073 -2.0319  0.0921 -3.3915
  885MPD2    N112984   0.971   1.355  17.575  0.0637  0.0155  0.6216
  885MPD2    H712985   0.995   1.391  17.666  0.0083 -1.2918  1.1481
  886MPD2     C12986   1.776   4.587  15.555 -0.2497  0.5744 -0.4512
  886MPD2    C112987   1.876   4.562  15.464  0.7800 -0.2352  0.4185
  886MPD2    C212988   1.920   4.666  15.382 -0.0540  0.0062  0.2718
  886MPD2    C312989   1.864   0.067  15.387 -0.7708  0.6273  0.7342
  886MPD2    C412990   1.755   0.084  15.468  0.5776  0.8140  0.4426
  886MPD2    C512991   1.711   4.708  15.551 -0.2980  0.2490  0.9367
  886MPD2     H12992   1.997   4.639  15.311 -0.0415 -0.6842  0.5494
  886MPD2    H112993   1.697   0.175  15.476  0.1330  0.7718 -2.5044
  886MPD2    H212994   1.733   4.510  15.617 -0.5149  0.0734 -1.2605
  886MPD2    H312995   1.616   4.717  15.603 -0.5890 -0.0867  0.4596
  886MPD2     N12996   1.916   0.163  15.300 -0.3846 -0.8299 -0.2400
  886MPD2    H512997   1.856   0.244  15.286 -0.1104 -0.3683  1.2433
  886MPD2    N112998   1.942   4.437  15.436  0.9113  0.1928  0.4030
  886MPD2    H712999   2.008   4.426  15.360  1.4358  0.9473  0.7453
  887MPD2     C13000   2.492   4.323  15.088 -0.4957 -0.0062  1.0073
  887MPD2    C113001   2.429   4.380  15.197  0.0279  0.0882  0.0461
  887MPD2    C213002   2.462   4.509  15.236 -0.0181  0.1099  0.5640
  887MPD2    C313003   2.568   4.573  15.183 -0.5391 -0.3039 -0.3226
  887MPD2    C413004   2.628   4.516  15.069  0.1854  0.3627 -0.4276
  887MPD2    C513005   2.583   4.399  15.019  0.1026  0.9806 -0.4312
  887MPD2     H13006   2.408   4.550  15.320 -3.6844 -3.5201  0.0230
  887MPD2    H113007   2.719   4.559  15.028  0.2493 -0.1561 -0.8254
  887MPD2    H213008   2.484   4.221  15.053  2.6418  0.8157 -2.1254
  887MPD2    H313009   2.642   4.348  14.944 -1.1263 -0.7907 -0.1896
  887MPD2     N13010   2.608   4.690  15.244 -0.0175 -0.1553  0.4583
  887MPD2    H513011   2.551   4.722  15.322  1.3840  1.1140  0.9575
  887MPD2    N113012   2.340   4.316  15.280  0.2230  0.2621 -0.0596
  887MPD2    H713013   2.302   4.377  15.352  0.9475  0.1474  0.4107
  888MPD2     C13014   4.433   0.077  14.760 -0.2833 -0.0945  0.4522
  888MPD2    C113015   4.438   0.126  14.887  0.4873 -0.9431 -0.0330
  888MPD2    C213016   4.524   0.232  14.919 -0.5934  0.0287  0.0779
  888MPD2    C313017   4.595   0.295  14.820 -0.0848 -0.2845 -0.5405
  888MPD2    C413018   4.598   0.245  14.694  0.5991  0.5301  0.7812
  888MPD2    C513019   4.511   0.146  14.663  0.2846  0.7113 -0.1806
  888MPD2     H13020   4.522   0.277  15.017  0.6428  1.2418 -0.4594
  888MPD2    H113021   4.650   0.288  14.609 -0.0921 -1.5817 -0.6899
  888MPD2    H213022   4.352   0.012  14.730 -1.7683  2.6959 -1.6340
  888MPD2    H313023   4.509   0.120  14.557 -1.2941 -0.3931  0.1191
  888MPD2     N13024   4.682   0.397  14.862  0.2850 -0.7541 -0.2531
  888MPD2    H513025   4.663   0.432  14.955  0.8846 -1.4671  0.1350
  888MPD2    N113026   4.350   0.085  14.990  0.4526  0.1320  0.8341
  888MPD2    H713027   4.348   0.140  15.075 -1.0128  0.3944  0.6269
  889MPD2     C13028   3.599   4.345  12.887 -0.2781 -0.1643 -0.5456
  889MPD2    C113029   3.732   4.329  12.940 -0.3763 -0.7487  0.6116
  889MPD2    C213030   3.781   4.436  13.013 -0.2587 -0.0158  0.1953
  889MPD2    C313031   3.721   4.565  13.012 -0.0250 -0.5628 -0.2773
  889MPD2    C413032   3.597   4.582  12.949  0.3878  0.1917 -0.2485
  889MPD2    C513033   3.535   4.472  12.893 -0.2004 -0.0336 -0.1068
  889MPD2     H13034   3.881   4.422  13.053  0.4731  1.2972 -1.1860
  889MPD2    H113035   3.542   4.674  12.962 -1.8169 -1.1754  0.0248
  889MPD2    H213036   3.543   4.264  12.843 -1.9763  0.5321  0.3236
  889MPD2    H313037   3.432   4.491  12.865 -0.3306 -1.0071 -0.2754
  889MPD2     N13038   3.788   4.665  13.087  0.3164 -0.2414  0.0993
  889MPD2    H513039   3.862   4.626  13.144  0.4790 -0.3497 -0.1829
  889MPD2    N113040   3.799   4.210  12.955  0.5125 -0.3411 -0.4021
  889MPD2    H713041   3.897   4.216  12.981 -0.1758  0.6077  2.0134
  890MPD2     C13042   3.193   1.478  14.523 -0.3000  0.9098  0.7914
  890MPD2    C113043   3.285   1.534  14.611 -0.1589  0.6453 -0.1903
  890MPD2    C213044   3.353   1.440  14.688  0.9683 -0.0796  0.1562
  890MPD2    C313045   3.341   1.305  14.662 -0.6376 -0.8859  0.1554
  890MPD2    C413046   3.254   1.257  14.569  0.8629  0.1484 -0.0962
  890MPD2    C513047   3.184   1.347  14.491 -0.1303 -0.2406  0.0886
  890MPD2     H13048   3.430   1.462  14.760  1.4173  0.6274 -0.5368
  890MPD2    H113049   3.235   1.153  14.549  1.5719  0.1514 -0.7744
  890MPD2    H213050   3.125   1.542  14.469 -3.4930 -2.8425  0.3218
  890MPD2    H313051   3.106   1.317  14.422  0.4182  0.3734 -0.7950
  890MPD2     N13052   3.422   1.220  14.738 -0.0018  1.1521 -0.3152
  890MPD2    H513053   3.499   1.263  14.789  1.3303 -0.3129 -1.0835
  890MPD2    N113054   3.290   1.674  14.624 -0.1920  0.2790  0.0488
  890MPD2    H713055   3.220   1.728  14.574 -1.0481 -1.2218 -0.3633
  891MPD2     C13056   1.142   4.178  16.362  0.5833  0.0794  0.0489
  891MPD2    C113057   1.115   4.301  16.416  0.3071 -0.6422 -0.1962
  891MPD2    C213058   1.120   4.315  16.556 -0.2672  0.4960  0.4497
  891MPD2    C313059   1.147   4.202  16.635 -0.3034 -0.3410 -0.5557
  891MPD2    C413060   1.188   4.086  16.566 -0.2400 -0.1165  0.3870
  891MPD2    C513061   1.177   4.069  16.436  0.4892 -0.1077 -0.9504
  891MPD2     H13062   1.084   4.404  16.607  1.2618  1.4753 -0.1472
  891MPD2    H113063   1.216   3.999  16.623  0.1958  1.0091  1.8908
  891MPD2    H213064   1.138   4.173  16.253  3.6175 -0.7900 -0.0357
  891MPD2    H313065   1.194   3.978  16.380  0.4698 -1.3514  1.0532
  891MPD2     N13066   1.149   4.223  16.777  0.1356 -0.1342 -0.0540
  891MPD2    H513067   1.124   4.315  16.811 -0.3746  1.0441 -3.6378
  891MPD2    N113068   1.078   4.403  16.327  0.7683  0.0115  0.2580
  891MPD2    H713069   1.063   4.383  16.229 -1.4374 -1.3993  0.8767
  892MPD2     C13070   2.496   0.575  14.788 -0.0002 -0.4131 -0.4072
  892MPD2    C113071   2.383   0.582  14.716 -0.6275  0.0181  0.9501
  892MPD2    C213072   2.377   0.540  14.581 -0.4354  0.1348 -0.2342
  892MPD2    C313073   2.487   0.479  14.523 -0.0752  0.2113 -0.3710
  892MPD2    C413074   2.608   0.482  14.593 -0.6762 -0.2002  0.4067
  892MPD2    C513075   2.608   0.528  14.725  0.5878  0.0079  0.1075
  892MPD2     H13076   2.286   0.546  14.523  1.6189 -2.5965 -3.7348
  892MPD2    H113077   2.701   0.444  14.552  1.3552  1.5222  3.3882
  892MPD2    H213078   2.500   0.622  14.885  0.5548 -1.1352 -0.0843
  892MPD2    H313079   2.696   0.515  14.788 -0.8037 -2.6681  1.4964
  892MPD2     N13080   2.482   0.425  14.393 -0.6464  0.0053 -0.1860
  892MPD2    H513081   2.572   0.406  14.350 -1.2046 -0.7373 -1.0183
  892MPD2    N113082   2.261   0.631  14.775 -0.2329  0.7053 -0.0345
  892MPD2    H713083   2.180   0.635  14.714  1.3085  0.6138 -2.1251
  893MPD2     C13084   2.889   3.272   0.861 -0.2771  0.4213 -0.1718
  893MPD2    C113085   2.949   3.203   0.960 -0.2683  0.1643  0.2243
  893MPD2    C213086   2.872   3.134   1.061  0.0351 -0.1468 -0.1152
  893MPD2    C313087   2.735   3.131   1.051  0.0651 -0.7650  0.2100
  893MPD2    C413088   2.680   3.204   0.951 -1.0874 -0.6160  1.0215
  893MPD2    C513089   2.753   3.271   0.854  0.2650  0.3741 -0.6629
  893MPD2     H13090   2.924   3.079   1.138  0.3193 -0.3247 -0.4297
  893MPD2    H113091   2.572   3.204   0.940 -1.0570  3.7460  0.7589
  893MPD2    H213092   2.939   3.330   0.784  0.6342 -0.5011 -0.2804
  893MPD2    H313093   2.711   3.328   0.772  0.3162  0.3992 -0.6715
  893MPD2     N13094   2.650   3.068   1.141 -0.1085  0.0295  0.4286
  893MPD2    H513095   2.551   3.090   1.132  0.0086 -0.8820 -3.3477
  893MPD2    N113096   3.089   3.229   0.977  0.6143 -0.6271 -0.8333
  893MPD2    H713097   3.136   3.282   0.904 -0.1120  0.0864 -0.7830
  894MPD2     C13098   2.025   0.838   0.799 -0.5298  0.5298  0.0133
  894MPD2    C113099   1.934   0.925   0.848  0.0218  0.2602  0.0204
  894MPD2    C213100   1.941   1.057   0.805  0.1761 -0.0153 -0.1245
  894MPD2    C313101   2.053   1.104   0.745 -0.7091 -0.1891  0.4598
  894MPD2    C413102   2.151   1.016   0.703 -0.5909 -0.9789  0.4434
  894MPD2    C513103   2.132   0.876   0.721  0.4465  0.6605 -1.0346
  894MPD2     H13104   1.873   1.133   0.841  0.0260 -0.4960  0.6078
  894MPD2    H113105   2.241   1.039   0.648 -0.6286  0.8990  1.1418
  894MPD2    H213106   2.021   0.735   0.832  2.0940  0.1307 -0.9245
  894MPD2    H313107   2.208   0.805   0.690  0.5476  0.8045 -1.1128
  894MPD2     N13108   2.054   1.236   0.726  0.4819 -0.3299 -0.9570
  894MPD2    H513109   1.969   1.286   0.751  2.2089  0.0918  3.9865
  894MPD2    N113110   1.832   0.891   0.939  0.0497  0.6727 -0.4510
  894MPD2    H713111   1.793   0.973   0.984 -1.1348  0.4397 -1.0583
  895MPD2     C13112   1.615   4.708  13.513  0.0113  0.6269  1.6971
  895MPD2    C113113   1.493   4.634  13.500 -0.0535  0.2491 -0.2051
  895MPD2    C213114   1.487   4.502  13.470  0.0786  0.4869 -0.9718
  895MPD2    C313115   1.606   4.431  13.461  0.0616  0.6228  0.4387
  895MPD2    C413116   1.729   4.500  13.458 -0.4195 -0.5752  0.7016
  895MPD2    C513117   1.731   4.637  13.484  0.3370  0.1239  0.5158
  895MPD2     H13118   1.389   4.455  13.482  0.6779 -0.1319  1.4132
  895MPD2    H113119   1.821   4.446  13.443  0.2938  1.6266 -3.0680
  895MPD2    H213120   1.627   0.086  13.545  0.9884  0.7717  0.8847
  895MPD2    H313121   1.825   4.689  13.502 -0.3544  2.0023 -1.2690
  895MPD2     N13122   1.606   4.286  13.449 -0.5137  0.2047 -0.1329
  895MPD2    H513123   1.692   4.232  13.452  0.0590  1.1570  0.4776
  895MPD2    N113124   1.369   4.703  13.516 -0.3667  0.0681  0.0579
  895MPD2    H713125   1.282   4.651  13.506 -0.3916  0.0951  0.1276
  896MPD2     C13126   2.947   2.157   1.618 -0.6797  0.3964  0.2108
  896MPD2    C113127   3.033   2.167   1.505  0.6834 -0.7235 -0.6772
  896MPD2    C213128   2.984   2.206   1.379  0.9639  0.2856  0.0669
  896MPD2    C313129   2.853   2.248   1.375 -0.1290 -0.4779 -0.9473
  896MPD2    C413130   2.766   2.220   1.481  0.1800  0.6305  1.0391
  896MPD2    C513131   2.810   2.168   1.600 -0.2482  0.1274  0.0083
  896MPD2     H13132   3.044   2.222   1.290 -0.5082  3.1772 -0.3999
  896MPD2    H113133   2.659   2.236   1.477  0.1067 -0.7761 -2.5486
  896MPD2    H213134   2.996   2.129   1.711  0.5287  0.9080 -0.2673
  896MPD2    H313135   2.748   2.159   1.688  0.5768  0.1568  0.5901
  896MPD2     N13136   2.812   2.301   1.257 -0.3239 -0.4560  1.1028
  896MPD2    H513137   2.894   2.322   1.200 -1.3226  0.9866  0.1923
  896MPD2    N113138   3.173   2.130   1.523  0.2884 -0.0937 -0.1281
  896MPD2    H713139   3.214   2.138   1.615  0.5396  0.3972 -0.2834
  897MPD2     C13140   0.700   4.116  10.398 -0.0223 -0.4689  0.6562
  897MPD2    C113141   0.730   4.241  10.450  1.5824  0.4662  0.2205
  897MPD2    C213142   0.636   4.316  10.518  0.0426  0.1489 -0.2750
  897MPD2    C313143   0.501   4.276  10.509 -0.5296 -0.1110 -0.5185
  897MPD2    C413144   0.471   4.162  10.450  0.5075 -0.7031 -0.1608
  897MPD2    C513145   0.572   4.076  10.401  0.5554 -0.1930 -0.4630
  897MPD2     H13146   0.655   4.416  10.556 -0.6530  0.3392 -0.4253
  897MPD2    H113147   0.374   4.113  10.458 -1.6755  3.4476 -1.0944
  897MPD2    H213148   0.770   4.041  10.363 -0.0515  0.7768 -2.0579
  897MPD2    H313149   0.541   3.980  10.361 -4.0298  0.6002  1.0723
  897MPD2     N13150   0.401   4.347  10.585  0.6473 -0.2565 -0.3412
  897MPD2    H513151   0.430   4.434  10.631  2.4381 -1.6418  1.1523
  897MPD2    N113152   0.854   4.286  10.418 -0.5855 -0.2565  0.6431
  897MPD2    H713153   0.905   4.244  10.341 -0.8738  0.0248  0.3015
  898MPD2     C13154   1.943   4.583  17.499  0.3375 -0.2492 -0.5288
  898MPD2    C113155   2.057   4.630  17.563 -0.6678  0.0176  0.0414
  898MPD2    C213156   2.125   0.017  17.517 -0.6919 -0.2013  0.0648
  898MPD2    C313157   2.090   0.074  17.397  0.0701  0.0060 -0.2131
  898MPD2    C413158   1.988   0.015  17.321 -0.1675 -0.2772  0.0956
  898MPD2    C513159   1.910   4.637  17.377 -0.7107 -0.1259 -0.4403
  898MPD2     H13160   2.215   0.058  17.562 -1.5553  0.4324  1.2097
  898MPD2    H113161   1.955   0.047  17.223  0.7180 -0.4430 -0.2569
  898MPD2    H213162   1.907   4.482  17.512  0.3224 -0.3171 -1.0945
  898MPD2    H313163   1.841   4.590  17.307 -1.0267 -0.0445 -0.1844
  898MPD2     N13164   2.167   0.184  17.347  0.5645  0.1769  0.8927
  898MPD2    H513165   2.243   0.223  17.401  1.4851  0.0073 -0.2780
  898MPD2    N113166   2.107   4.567  17.679 -0.2188 -0.0777 -0.0035
  898MPD2    H713167   2.177   4.618   0.030 -1.9739  1.0056  1.2559
  899MPD2     C13168   3.172   0.736  16.781 -0.0020  0.5704 -0.0052
  899MPD2    C113169   3.222   0.806  16.886 -0.2593  0.9347 -0.9700
  899MPD2    C213170   3.173   0.794  17.016  0.2453  0.1288 -0.0911
  899MPD2    C313171   3.067   0.706  17.037  0.4148  0.4099 -0.4014
  899MPD2    C413172   3.013   0.634  16.932 -0.0676  0.4588  0.5423
  899MPD2    C513173   3.082   0.637  16.813  0.1340 -0.5451  0.5970
  899MPD2     H13174   3.210   0.862  17.092  0.4548 -2.1085  1.8138
  899MPD2    H113175   2.935   0.560  16.943  1.2085 -0.9344  0.1277
  899MPD2    H213176   3.230   0.733  16.689  1.0039  3.0313  0.5567
  899MPD2    H313177   3.049   0.564  16.740  0.7253 -0.1922 -0.0192
  899MPD2     N13178   2.997   0.698  17.162 -0.4124 -0.3402  0.2984
  899MPD2    H513179   2.901   0.664  17.167 -0.2386 -1.1731 -1.6941
  899MPD2    N113180   3.319   0.904  16.854 -0.3859  0.2401  0.1096
  899MPD2    H713181   3.332   0.934  16.758  0.3463 -2.1058 -0.5438
  900MPD2     C13182   2.425   2.557  12.703  0.0352 -0.6607 -0.0077
  900MPD2    C113183   2.506   2.473  12.629  0.2066 -0.2104  0.5243
  900MPD2    C213184   2.472   2.435  12.501  0.7729 -0.5338 -0.5357
  900MPD2    C313185   2.351   2.480  12.445 -0.0243 -0.9172 -0.3478
  900MPD2    C413186   2.273   2.567  12.519  0.0681  0.5970  0.7204
  900MPD2    C513187   2.305   2.602  12.645  0.2148  0.6726  0.1001
  900MPD2     H13188   2.534   2.373  12.437  1.3421 -0.8125  0.2898
  900MPD2    H113189   2.184   2.613  12.478  1.6595  2.8882 -0.1369
  900MPD2    H213190   2.447   2.590  12.803  3.1687 -0.0842 -0.8915
  900MPD2    H313191   2.246   2.681  12.689 -0.1613  1.1178 -1.1847
  900MPD2     N13192   2.319   2.430  12.315  0.5372 -0.8174 -0.1506
  900MPD2    H513193   2.374   2.352  12.278  1.1559 -0.1264 -0.6970
  900MPD2    N113194   2.624   2.427  12.697 -0.1262 -0.2533 -0.2080
  900MPD2    H713195   2.620   2.447  12.797 -0.4895 -0.6185 -0.1499
  901MPD2     C13196   2.628   1.630  13.141 -0.1081  0.1627  0.0491
  901MPD2    C113197   2.709   1.613  13.034  0.1669  0.2845  0.5363
  901MPD2    C213198   2.770   1.720  12.972  0.4314  0.3207 -0.2764
  901MPD2    C313199   2.763   1.847  13.021 -0.0950 -0.0094 -0.6238
  901MPD2    C413200   2.679   1.867  13.128  0.5105  0.7585 -0.2153
  901MPD2    C513201   2.611   1.765  13.184 -0.3232 -0.7324  0.0399
  901MPD2     H13202   2.827   1.713  12.880  1.5183  1.9905  0.2645
  901MPD2    H113203   2.646   1.968  13.150 -0.2155  0.0963  1.6981
  901MPD2    H213204   2.567   1.554  13.189 -1.5776 -0.0567 -2.1480
  901MPD2    H313205   2.538   1.788  13.260  0.3203  1.9860 -0.1693
  901MPD2     N13206   2.822   1.954  12.946  1.0789 -0.5750  0.1914
  901MPD2    H513207   2.875   1.933  12.862 -1.3471  1.6179 -1.8951
  901MPD2    N113208   2.720   1.479  12.989  0.6644  0.1651 -0.4117
  901MPD2    H713209   2.661   1.413  13.038  0.0921  0.3019 -0.9225
  902MPD2     C13210   2.048   0.606  12.821  0.5707 -0.2681 -0.0840
  902MPD2    C113211   1.940   0.530  12.810 -0.3484 -0.2038 -0.1138
  902MPD2    C213212   1.951   0.410  12.743 -0.0638  0.5312 -0.3713
  902MPD2    C313213   2.062   0.377  12.672 -0.0796  0.3710  1.0149
  902MPD2    C413214   2.169   0.459  12.681  0.4144 -0.1503 -0.0433
  902MPD2    C513215   2.161   0.572  12.763  0.1414 -0.1610 -0.0184
  902MPD2     H13216   1.858   0.356  12.738 -0.3865  1.1098 -0.6839
  902MPD2    H113217   2.253   0.452  12.614  0.0662  2.8900 -0.8006
  902MPD2    H213218   2.046   0.700  12.875  0.2012  0.0223 -0.6020
  902MPD2    H313219   2.246   0.639  12.764  0.7653 -0.8896 -3.1416
  902MPD2     N13220   2.073   0.259  12.593 -0.2107 -0.5487  0.1481
  902MPD2    H513221   2.145   0.260  12.522  1.1433 -1.4267  1.5091
  902MPD2    N113222   1.834   0.581  12.880 -0.3719 -0.3881  0.1842
  902MPD2    H713223   1.844   0.665  12.936  0.9251 -0.2402 -0.2703
  903MPD2     C13224   1.773   4.488  11.902 -0.3543 -0.6578  0.1992
  903MPD2    C113225   1.736   4.520  12.030  0.1354  0.3323 -0.2929
  903MPD2    C213226   1.600   4.550  12.048  0.2756  0.7532  0.6960
  903MPD2    C313227   1.498   4.529  11.955 -0.1082 -1.0887  0.5681
  903MPD2    C413228   1.544   4.469  11.838 -0.4801 -0.3119 -0.4523
  903MPD2    C513229   1.677   4.448  11.811  0.2201 -0.5295 -0.2426
  903MPD2     H13230   1.561   4.597  12.137 -3.1309 -1.8860  0.5779
  903MPD2    H113231   1.480   4.447  11.753 -1.2862  0.9125 -0.1631
  903MPD2    H213232   1.877   4.471  11.876 -0.6616  1.5056 -2.4348
  903MPD2    H313233   1.704   4.398  11.719 -0.4168 -0.2282 -0.5919
  903MPD2     N13234   1.358   4.558  11.984 -0.0126 -0.2071 -0.0850
  903MPD2    H513235   1.346   4.600  12.076 -3.2095  3.5683 -2.2267
  903MPD2    N113236   1.840   4.552  12.121 -0.1613  0.0493  0.2522
  903MPD2    H713237   1.935   4.547  12.086  0.4107 -1.6897  2.0030
  904MPD2     C13238   1.233   4.002  13.850  0.7881  0.3055 -0.3184
  904MPD2    C113239   1.211   3.987  13.981 -0.2056  0.1807 -0.7544
  904MPD2    C213240   1.313   4.025  14.065  0.3692 -0.5562 -0.4711
  904MPD2    C313241   1.435   4.068  14.025  0.4935  0.6029  0.8888
  904MPD2    C413242   1.451   4.098  13.890 -0.2199 -0.1316 -0.1287
  904MPD2    C513243   1.354   4.057  13.806 -0.6457 -0.3546 -0.1249
  904MPD2     H13244   1.303   4.000  14.170  0.2327  2.0743  0.1464
  904MPD2    H113245   1.535   4.144  13.838  0.6609 -0.5213  0.9701
  904MPD2    H213246   1.156   3.983  13.776  0.2289  0.3012  0.2612
  904MPD2    H313247   1.379   4.077  13.702 -2.2059 -2.4157 -0.8913
  904MPD2     N13248   1.542   4.081  14.117  0.0570  0.9967 -1.3203
  904MPD2    H513249   1.516   4.058  14.213 -0.4199  0.2714 -1.6264
  904MPD2    N113250   1.094   3.935  14.042 -0.1794 -0.0051 -0.5564
  904MPD2    H713251   1.088   3.944  14.143  1.4983 -0.9154 -0.3769
  905MPD2     C13252   0.764   4.020  13.465  0.0386 -0.6848 -0.0418
  905MPD2    C113253   0.848   3.964  13.559  0.4508  0.2677 -0.6446
  905MPD2    C213254   0.980   3.936  13.525 -0.1378 -1.0247  0.3825
  905MPD2    C313255   1.029   3.948  13.398 -0.1502 -0.6899 -0.3735
  905MPD2    C413256   0.944   4.000  13.302  0.4929 -0.2046 -0.5170
  905MPD2    C513257   0.814   4.042  13.338  0.0339  0.2288  0.3462
  905MPD2     H13258   1.042   3.895  13.603 -1.1255 -2.0040  0.6450
  905MPD2    H113259   0.969   4.026  13.200  1.6909 -1.6479 -0.5846
  905MPD2    H213260   0.660   4.042  13.483  0.7296  2.3002  0.2879
  905MPD2    H313261   0.742   4.083  13.268  1.0915  2.0046  0.3043
  905MPD2     N13262   1.164   3.916  13.364 -0.2351  0.1341  0.2131
  905MPD2    H513263   1.200   3.941  13.273 -0.5839 -0.2240 -0.0235
  905MPD2    N113264   0.815   3.941  13.691  0.1870  0.4848  0.3625
  905MPD2    H713265   0.885   3.892  13.745  1.4891  2.1451  0.1907
  906MPD2     C13266   3.715   4.023  11.427 -0.0765 -0.3851 -0.5115
  906MPD2    C113267   3.651   3.981  11.309  0.7487 -0.6573  0.5576
  906MPD2    C213268   3.541   3.900  11.323 -0.0432  0.4931 -0.0406
  906MPD2    C313269   3.491   3.872  11.446  0.4673 -0.0467 -0.3990
  906MPD2    C413270   3.554   3.916  11.562 -0.1497 -0.2376  1.0363
  906MPD2    C513271   3.669   4.003  11.554  0.3620  0.1868  0.1048
  906MPD2     H13272   3.502   3.851  11.235  0.0413  1.6405 -0.7157
  906MPD2    H113273   3.523   3.883  11.660 -1.9259  2.6142  1.4497
  906MPD2    H213274   3.811   4.074  11.428 -1.4995  2.1720  2.4466
  906MPD2    H313275   3.726   4.042  11.637 -0.5434  1.4134  0.1515
  906MPD2     N13276   3.392   3.772  11.468 -0.2605  0.7436  0.4463
  906MPD2    H513277   3.388   3.725  11.558 -1.7086 -1.3004 -0.6751
  906MPD2    N113278   3.698   3.999  11.175 -0.2696 -0.2247 -0.4082
  906MPD2    H713279   3.646   3.967  11.094  2.0718  0.7010 -2.2795
  907MPD2     C13280   2.222   3.566  15.801 -0.8200  0.3340 -0.0042
  907MPD2    C113281   2.269   3.437  15.812 -1.0389  0.7050 -0.1847
  907MPD2    C213282   2.354   3.402  15.915 -0.4281 -0.0391  0.1151
  907MPD2    C313283   2.392   3.495  16.014  0.1391  0.2299 -0.4861
  907MPD2    C413284   2.339   3.621  16.002  0.0810 -0.0354 -0.5546
  907MPD2    C513285   2.254   3.655  15.900 -0.8090  0.3541 -0.0156
  907MPD2     H13286   2.393   3.303  15.938  1.4170  0.7741  0.4585
  907MPD2    H113287   2.346   3.699  16.077  2.8866 -1.0477  0.2303
  907MPD2    H213288   2.171   3.610  15.716 -0.2097  2.2328  0.6002
  907MPD2    H313289   2.207   3.753  15.897  0.2638  0.8957  1.0765
  907MPD2     N13290   2.463   3.454  16.133  0.3657 -0.0136 -0.0819
  907MPD2    H513291   2.468   3.353  16.146  0.2197 -0.1653 -1.1999
  907MPD2    N113292   2.258   3.350  15.705  0.2512  0.1635  0.0640
  907MPD2    H713293   2.303   3.259  15.716  1.0486  0.6326  0.7078
  908MPD2     C13294   0.766   4.622   9.606 -0.8459  0.5134  0.3177
  908MPD2    C113295   0.726   4.518   9.686  0.2199 -0.6163 -0.0199
  908MPD2    C213296   0.786   4.484   9.809 -0.4899  0.0110  0.2582
  908MPD2    C313297   0.898   4.556   9.854  0.2120  0.4358 -0.0150
  908MPD2    C413298   0.952   4.654   9.769  0.1739 -0.1649  0.2928
  908MPD2    C513299   0.884   4.687   9.646  0.0958  0.6612  0.1182
  908MPD2     H13300   0.745   4.402   9.867 -0.5785  0.2360  0.5140
  908MPD2    H113301   1.048   4.701   9.789  0.2728 -0.3563  0.2597
  908MPD2    H213302   0.745   4.632   9.500 -0.0016  0.4785  0.1488
  908MPD2    H313303   0.927   0.036   9.580  0.8624 -0.5611 -0.7711
  908MPD2     N13304   0.943   4.537   9.990 -0.5321 -0.2426 -0.6507
  908MPD2    H513305   0.888   4.475  10.048  1.1361 -0.5108  0.6411
  908MPD2    N113306   0.617   4.434   9.647  0.1202 -0.1348  0.3288
  908MPD2    H713307   0.615   4.348   9.702 -1.2947 -0.2256  0.1397
  909MPD2     C13308   0.719   1.995  12.233  0.0134  0.2720 -0.2763
  909MPD2    C113309   0.694   2.076  12.126 -0.1771 -0.6591  0.0097
  909MPD2    C213310   0.595   2.170  12.140 -0.4458 -0.5712 -0.1158
  909MPD2    C313311   0.520   2.187  12.253  0.3252  0.1856 -0.9860
  909MPD2    C413312   0.550   2.097  12.355  0.0823 -0.4479  0.8454
  909MPD2    C513313   0.642   2.005  12.345  0.3755  0.3845 -0.2231
  909MPD2     H13314   0.571   2.231  12.053  0.3757  2.8966  2.1197
  909MPD2    H113315   0.495   2.096  12.448 -1.1331  1.5211  0.1625
  909MPD2    H213316   0.799   1.922  12.242 -1.2688 -1.1052  0.0261
  909MPD2    H313317   0.666   1.946  12.433  0.2527  1.8329  0.7909
  909MPD2     N13318   0.415   2.292  12.246  0.2621  0.0747  0.4494
  909MPD2    H513319   0.413   2.345  12.160 -1.4433 -0.8313 -0.0647
  909MPD2    N113320   0.771   2.054  12.002 -0.1812  0.1141 -0.6940
  909MPD2    H713321   0.733   2.109  11.925 -3.6751  0.5072  1.3318
  910MPD2     C13322   1.543   3.577  15.919  0.3729  0.2497  0.2119
  910MPD2    C113323   1.634   3.522  15.824 -0.2888  0.2913  0.3996
  910MPD2    C213324   1.599   3.530  15.688  0.4130 -0.3048 -0.6177
  910MPD2    C313325   1.474   3.585  15.653 -0.8342 -0.0814 -0.0313
  910MPD2    C413326   1.393   3.628  15.753 -0.8385 -0.0570  0.2990
  910MPD2    C513327   1.424   3.624  15.886 -0.2090  0.0776  0.1181
  910MPD2     H13328   1.669   3.505  15.610 -0.8280 -2.0348 -1.1896
  910MPD2    H113329   1.296   3.669  15.728  0.7530  2.1429 -2.2042
  910MPD2    H213330   1.569   3.601  16.022 -1.1458  0.4996  0.5374
  910MPD2    H313331   1.349   3.648  15.960  0.1221 -1.7042  1.0339
  910MPD2     N13332   1.433   3.606  15.520 -0.7530  0.4743  0.3613
  910MPD2    H513333   1.344   3.652  15.506 -1.0178  0.4689  2.0094
  910MPD2    N113334   1.763   3.466  15.855 -0.2287 -0.9883  0.0682
  910MPD2    H713335   1.818   3.431  15.777 -0.1254  1.4380 -0.9595
  911MPD2     C13336   4.463   4.406  16.717  0.4360  0.2905 -0.0879
  911MPD2    C113337   4.455   4.368  16.577 -0.0089  0.2381  0.5362
  911MPD2    C213338   4.335   4.346  16.510  0.2199 -0.4317 -0.8286
  911MPD2    C313339   4.218   4.372  16.582  0.3041 -0.0708  0.6887
  911MPD2    C413340   4.227   4.400  16.717 -0.2991 -0.3257 -0.1565
  911MPD2    C513341   4.346   4.405  16.782  0.2746  0.4598 -0.2288
  911MPD2     H13342   4.328   4.327  16.403 -1.9377 -3.2457 -0.1881
  911MPD2    H113343   4.139   4.420  16.777  0.6156  0.1462  1.0199
  911MPD2    H213344   4.555   4.416  16.773  0.2322  1.1027  0.0886
  911MPD2    H313345   4.345   4.420  16.889 -0.3746  0.8017 -0.2867
  911MPD2     N13346   4.087   4.377  16.532 -0.3365  0.0904  0.7832
  911MPD2    H513347   4.014   4.400  16.600 -2.1000 -0.9843 -0.7580
  911MPD2    N113348   4.582   4.361  16.517 -0.4057  0.0710  0.4525
  911MPD2    H713349   4.659   4.394  16.575  0.6783  0.9528 -1.4974
  912MPD2     C13350   3.579   3.816  16.793  0.2105 -0.2264  0.3395
  912MPD2    C113351   3.658   3.927  16.788  0.6818 -0.0850 -0.0196
  912MPD2    C213352   3.687   3.981  16.915 -0.1094 -0.1393  0.5503
  912MPD2    C313353   3.659   3.918  17.037  0.2191 -0.1791 -0.5055
  912MPD2    C413354   3.590   3.795  17.031 -0.3975 -0.0433  0.1279
  912MPD2    C513355   3.554   3.750  16.911 -0.3977  0.7964  0.1669
  912MPD2     H13356   3.728   4.081  16.916  1.8179 -0.9395  2.7726
  912MPD2    H113357   3.570   3.733  17.118  1.3933 -0.4831  0.2286
  912MPD2    H213358   3.541   3.769  16.703  0.1045 -0.7785  0.6743
  912MPD2    H313359   3.497   3.659  16.906 -1.2933  1.5188 -2.9031
  912MPD2     N13360   3.723   3.967  17.152 -0.4597  0.0226  0.0245
  912MPD2    H513361   3.770   4.057  17.143 -2.2380  1.2922  3.2925
  912MPD2    N113362   3.698   3.985  16.664  0.4964  0.3400 -0.5366
  912MPD2    H713363   3.649   3.956  16.580  0.1760  2.8236 -1.2060
  913MPD2     C13364   4.679   0.908  10.307  1.0569  0.2404  0.1741
  913MPD2    C113365   4.711   1.024  10.381 -0.3971  0.7707 -0.4442
  913MPD2    C213366   4.660   1.144  10.328  0.0957 -0.3606  0.2783
  913MPD2    C313367   4.595   1.150  10.205 -1.0630 -0.4259  0.3013
  913MPD2    C413368   4.563   1.033  10.140 -0.0958 -0.1061 -0.2924
  913MPD2    C513369   4.591   0.912  10.198 -0.0750  0.0540  0.6892
  913MPD2     H13370   4.685   1.234  10.383 -1.4162 -0.5221  1.2558
  913MPD2    H113371   4.506   1.034  10.048  0.2134 -0.8431 -0.4939
  913MPD2    H213372   4.694   0.810  10.351  1.8875 -0.9450 -2.7634
  913MPD2    H313373   4.564   0.815  10.158  2.5518  0.2032 -1.4303
  913MPD2     N13374   4.576   1.276  10.144 -0.0190 -0.5120  0.1861
  913MPD2    H513375   4.553   1.278  10.045  0.3339 -1.5844  0.0752
  913MPD2    N113376   0.055   1.006  10.502  0.7082 -0.2188 -0.9010
  913MPD2    H713377   0.096   0.915  10.523  1.3902  0.8585  2.3678
  914MPD2     C13378   2.288   1.008  12.348 -0.2098  1.0290 -0.3479
  914MPD2    C113379   2.330   1.140  12.365  0.4266  0.2566  0.2495
  914MPD2    C213380   2.387   1.184  12.485 -0.4982  0.3991 -0.3650
  914MPD2    C313381   2.408   1.091  12.583  0.0565 -0.4610 -0.0873
  914MPD2    C413382   2.352   0.966  12.573  0.1633 -0.2209  0.2980
  914MPD2    C513383   2.284   0.929  12.465  0.2256  0.3609  0.2778
  914MPD2     H13384   2.423   1.284  12.508  0.2810  0.2614 -0.9411
  914MPD2    H113385   2.355   0.892  12.653 -0.7917 -0.5449  0.0378
  914MPD2    H213386   2.243   0.964  12.259  0.9049  1.1977 -0.9934
  914MPD2    H313387   2.236   0.832  12.454 -0.3351  0.8691 -1.6875
  914MPD2     N13388   2.490   1.122  12.693 -0.5137 -0.3713 -0.5758
  914MPD2    H513389   2.521   1.219  12.700 -0.1521 -0.5422  0.2402
  914MPD2    N113390   2.318   1.224  12.253 -0.0795 -0.5020 -0.2775
  914MPD2    H713391   2.313   1.180  12.162 -0.4131 -1.7257  0.3304
  915MPD2     C13392   0.924   1.069  15.344  0.2675  0.3024  0.7156
  915MPD2    C113393   0.811   1.137  15.378  0.0363 -0.4970 -0.3499
  915MPD2    C213394   0.808   1.193  15.506 -0.1614 -0.1733  0.6864
  915MPD2    C313395   0.919   1.195  15.586 -0.0786 -0.1575 -0.2109
  915MPD2    C413396   1.036   1.141  15.544 -0.0826 -0.3749  0.0232
  915MPD2    C513397   1.036   1.077  15.425  0.0771  0.1492 -0.3874
  915MPD2     H13398   0.721   1.244  15.544  0.0374 -1.1172  2.4386
  915MPD2    H113399   1.124   1.142  15.607 -0.1461 -0.0792  0.1079
  915MPD2    H213400   0.935   1.013  15.252  2.3903  0.2657  0.9933
  915MPD2    H313401   1.124   1.016  15.409 -0.9767 -1.2525 -0.8333
  915MPD2     N13402   0.911   1.257  15.710  0.3651  0.2925 -0.7727
  915MPD2    H513403   0.829   1.317  15.714 -0.0630 -0.2707 -1.1275
  915MPD2    N113404   0.703   1.126  15.287  0.6159 -0.1388 -0.2574
  915MPD2    H713405   0.704   1.052  15.217  2.5732  0.7752 -1.1790
  916MPD2     C13406   3.328   4.126  15.717  0.6717  0.4132 -0.1234
  916MPD2    C113407   3.357   4.074  15.839  0.0623 -0.0414 -0.3903
  916MPD2    C213408   3.425   3.959  15.846 -0.1579 -0.1592 -0.0929
  916MPD2    C313409   3.464   3.897  15.727  0.1912  0.4707 -0.6359
  916MPD2    C413410   3.421   3.943  15.610 -0.2475 -0.1701 -0.3976
  916MPD2    C513411   3.362   4.064  15.603 -0.0684 -0.5258  0.3500
  916MPD2     H13412   3.447   3.907  15.938 -0.1915 -1.1910 -0.6700
  916MPD2    H113413   3.441   3.899  15.513 -3.9745  0.3299 -1.3868
  916MPD2    H213414   3.272   4.218  15.710 -2.2406 -1.4042 -0.7284
  916MPD2    H313415   3.336   4.114  15.510  0.5549 -1.9164 -0.5750
  916MPD2     N13416   3.539   3.773  15.734 -0.4866  0.5586  0.0729
  916MPD2    H513417   3.551   3.729  15.824  2.6683 -2.3686 -1.7678
  916MPD2    N113418   3.315   4.142  15.956  0.1004  1.0722 -0.2261
  916MPD2    H713419   3.254   4.222  15.945  1.1144  1.3609 -3.8243
  917MPD2     C13420   4.325   1.234  11.791  1.1557 -0.0205  0.3462
  917MPD2    C113421   4.241   1.299  11.706 -1.2923  0.0076  0.4097
  917MPD2    C213422   4.290   1.377  11.602  0.3464  0.5101 -0.7436
  917MPD2    C313423   4.430   1.384  11.586 -0.0576  0.0158  0.0671
  917MPD2    C413424   4.513   1.312  11.666  0.7171 -1.4221  0.2377
  917MPD2    C513425   4.459   1.239  11.768  0.1538  0.7144 -0.5575
  917MPD2     H13426   4.221   1.438  11.544  0.6027  4.3431  2.9798
  917MPD2    H113427   4.621   1.310  11.666  0.7248 -1.1318  0.7683
  917MPD2    H213428   4.305   1.196  11.890  0.4688  0.4777  0.3976
  917MPD2    H313429   4.521   1.195  11.844 -0.1604  2.2786  0.6084
  917MPD2     N13430   4.491   1.463  11.489 -0.1130  0.0149 -0.1834
  917MPD2    H513431   4.592   1.468  11.502  0.0826 -0.0838 -1.6497
  917MPD2    N113432   4.108   1.283  11.739  0.6438 -0.3347  0.0985
  917MPD2    H713433   4.093   1.240  11.830 -0.6604  2.6404  1.3232
  918MPD2     C13434   3.951   1.859  12.350  0.1632 -0.3403  0.0258
  918MPD2    C113435   4.048   1.764  12.341  0.4531 -0.2975 -0.1795
  918MPD2    C213436   4.024   1.656  12.255 -0.0337 -0.3160  0.2265
  918MPD2    C313437   3.911   1.641  12.183 -0.1347  0.0695 -0.0277
  918MPD2    C413438   3.825   1.748  12.181 -0.2936 -0.2461  0.0424
  918MPD2    C513439   3.847   1.855  12.266 -0.0678 -1.0509 -0.0555
  918MPD2     H13440   4.091   1.571  12.261  0.0896 -0.1970  0.5455
  918MPD2    H113441   3.727   1.755  12.135 -1.1290 -0.2395  1.8446
  918MPD2    H213442   3.958   1.938  12.425  3.9227  0.3382 -1.0142
  918MPD2    H313443   3.778   1.938  12.272  0.9463 -0.1457 -1.0928
  918MPD2     N13444   3.902   1.523  12.102  0.1095 -0.1728  0.5538
  918MPD2    H513445   3.984   1.465  12.087 -0.3883 -0.7756  0.1722
  918MPD2    N113446   4.171   1.767  12.411 -0.3220  0.3769  0.1564
  918MPD2    H713447   4.233   1.687  12.400 -1.5702 -0.4905 -0.6048
  919MPD2     C13448   4.637   0.706  11.975  0.1469 -0.1205  0.4269
  919MPD2    C113449   4.641   0.596  11.893 -0.6711  0.0093  0.1439
  919MPD2    C213450   4.713   0.603  11.776 -0.7025  0.2070  0.7684
  919MPD2    C313451   0.067   0.711  11.747  0.1339 -0.0133 -0.3969
  919MPD2    C413452   0.066   0.814  11.842 -0.7019  0.7410 -0.0042
  919MPD2    C513453   4.711   0.815  11.951  0.1252  0.3114 -0.2985
  919MPD2     H13454   4.711   0.513  11.717  2.9873  1.1179 -0.7821
  919MPD2    H113455   0.121   0.903  11.814 -3.1723  1.5813 -2.1902
  919MPD2    H213456   4.592   0.695  12.074 -1.0682  0.9400  0.0004
  919MPD2    H313457   4.714   0.895  12.024 -2.2751  0.4533 -0.3667
  919MPD2     N13458   0.146   0.718  11.627 -0.2273 -0.1556 -0.6070
  919MPD2    H513459   0.190   0.808  11.612  0.2584 -0.2691  0.1008
  919MPD2    N113460   4.578   0.473  11.930  0.1579 -0.7540 -0.5665
  919MPD2    H713461   4.590   0.401  11.860  0.3603 -0.8124 -0.4720
  920MPD2     C13462   4.711   1.333  10.877 -0.4057  0.0171  0.0745
  920MPD2    C113463   4.639   1.216  10.859 -0.7424 -0.5102  0.0852
  920MPD2    C213464   4.672   1.096  10.923  0.0959 -0.0550  0.0504
  920MPD2    C313465   0.049   1.098  11.020  0.4216 -0.4411 -0.4737
  920MPD2    C413466   0.117   1.214  11.042 -0.2086 -0.4339  0.0136
  920MPD2    C513467   0.088   1.324  10.964  0.4369 -0.8560 -0.1039
  920MPD2     H13468   4.622   1.000  10.913 -2.5165  1.1532  1.6539
  920MPD2    H113469   0.202   1.225  11.108  1.4283  0.6811 -2.3126
  920MPD2    H213470   4.698   1.429  10.830 -0.5148 -0.0364 -0.0048
  920MPD2    H313471   0.151   1.411  10.972 -0.8796  0.2292 -1.6152
  920MPD2     N13472   0.074   0.982  11.101 -0.2543  0.2900  0.2221
  920MPD2    H513473   0.016   0.903  11.075 -4.7924  3.1776  1.3973
  920MPD2    N113474   4.548   1.205  10.752  0.1879  0.4514 -0.2222
  920MPD2    H713475   4.510   1.111  10.741  1.3482 -0.2224  1.5696
  921MPD2     C13476   0.567   0.166  16.520 -0.8372  0.5308  0.3579
  921MPD2    C113477   0.575   0.086  16.412 -0.4837 -1.0618 -0.2846
  921MPD2    C213478   0.481   4.721  16.388 -0.2165 -0.0680  0.0408
  921MPD2    C313479   0.387   4.688  16.485  0.7127  0.2080 -0.2401
  921MPD2    C413480   0.373   0.048  16.595 -0.2429  0.2711 -0.1546
  921MPD2    C513481   0.461   0.156  16.603 -0.6251 -0.3634 -0.3779
  921MPD2     H13482   0.486   4.674  16.291 -1.4341  2.0513 -1.0500
  921MPD2    H113483   0.296   0.035  16.671 -0.1259 -0.7935 -0.2240
  921MPD2    H213484   0.634   0.250  16.534  0.0841 -0.2036  0.3733
  921MPD2    H313485   0.454   0.234  16.678  0.8986 -0.7201  0.1343
  921MPD2     N13486   0.292   4.581  16.473 -0.2722  0.1609  0.3301
  921MPD2    H513487   0.218   4.582  16.543 -1.2116 -0.6903 -0.6512
  921MPD2    N113488   0.689   0.111  16.329  0.0775 -0.0827  0.2520
  921MPD2    H713489   0.757   0.176  16.368 -0.3910 -0.7962  2.2545
  922MPD2     C13490   1.315   2.608  17.120  0.6987 -0.2757  0.1735
  922MPD2    C113491   1.254   2.596  17.244 -0.0522  0.1056  0.0150
  922MPD2    C213492   1.214   2.468  17.288 -0.1552 -0.2033  0.1911
  922MPD2    C313493   1.231   2.355  17.208 -0.6418  0.3074  0.2519
  922MPD2    C413494   1.290   2.359  17.082  0.0870  0.4467  0.0726
  922MPD2    C513495   1.330   2.490  17.048 -0.1973  0.0073  1.0661
  922MPD2     H13496   1.152   2.464  17.376  1.4704  2.7029  1.4654
  922MPD2    H113497   1.303   2.270  17.022  0.7918 -0.3021  1.3608
  922MPD2    H213498   1.375   2.692  17.089  1.5893 -0.1679  2.1450
  922MPD2    H313499   1.383   2.492  16.954 -0.2657  1.8915  1.0709
  922MPD2     N13500   1.183   2.232  17.245  0.2960 -0.1636  0.2715
  922MPD2    H513501   1.165   2.168  17.168  3.1987 -0.8863  0.2095
  922MPD2    N113502   1.220   2.701  17.331 -0.1756 -0.0100  0.4787
  922MPD2    H713503   1.179   2.677  17.421 -1.6869  3.6433  0.7530
  923MPD2     C13504   2.586   4.541   9.049 -0.0580 -0.2255  0.4161
  923MPD2    C113505   2.630   4.642   9.130  0.1133  0.9433  0.3012
  923MPD2    C213506   2.738   4.609   9.217  0.1911  1.5815 -0.3317
  923MPD2    C313507   2.813   4.492   9.204 -0.7325  0.0621  0.6795
  923MPD2    C413508   2.768   4.397   9.114  0.4838  0.6183  0.0206
  923MPD2    C513509   2.658   4.422   9.041  0.9069  0.1037 -0.0077
  923MPD2     H13510   2.766   4.680   9.295 -0.8261 -0.2617  1.6934
  923MPD2    H113511   2.815   4.299   9.113  0.3924  0.5734  0.1611
  923MPD2    H213512   2.503   4.553   8.980 -1.6411  2.5452  2.8034
  923MPD2    H313513   2.625   4.343   8.974 -0.9078  0.9840 -0.1157
  923MPD2     N13514   2.931   4.461   9.283 -0.3062  0.5841 -0.9560
  923MPD2    H513515   2.963   4.365   9.289 -1.3683  0.3863  1.3465
  923MPD2    N113516   2.566   0.044   9.131 -0.1342 -0.0759 -0.4819
  923MPD2    H713517   2.491   0.056   9.064 -2.2632 -0.5933  1.7830
  924MPD2     C13518   2.843   2.725  16.468  0.2107 -0.9460 -0.6938
  924MPD2    C113519   2.772   2.790  16.566  0.0131  0.0165 -0.3940
  924MPD2    C213520   2.759   2.928  16.559 -0.3048  0.0015 -0.4453
  924MPD2    C313521   2.801   3.000  16.449  0.2300 -0.0151  0.0384
  924MPD2    C413522   2.866   2.929  16.346 -0.1345  0.1075  0.3545
  924MPD2    C513523   2.897   2.797  16.364 -0.4326  0.1719  0.3019
  924MPD2     H13524   2.726   2.978  16.650 -1.9347  0.9540 -1.5549
  924MPD2    H113525   2.897   2.984  16.258 -0.6765 -0.1526 -0.0029
  924MPD2    H213526   2.871   2.623  16.489 -0.1249 -0.0875  3.9547
  924MPD2    H313527   2.958   2.745  16.291 -1.7911  0.0711 -0.7608
  924MPD2     N13528   2.781   3.145  16.432 -0.0837 -1.0016  0.1284
  924MPD2    H513529   2.826   3.199  16.360  2.1913  0.0993  2.3891
  924MPD2    N113530   2.690   2.711  16.652 -0.0409  0.0188  0.0609
  924MPD2    H713531   2.685   2.613  16.627  0.2175  0.0014  0.0730
  925MPD2     C13532   1.873   0.014  14.764  0.2050 -0.3674  0.1537
  925MPD2    C113533   1.763   0.084  14.713 -0.7202  0.1018 -0.3991
  925MPD2    C213534   1.659   0.104  14.800 -0.0704 -0.6544  0.3475
  925MPD2    C313535   1.660   0.058  14.933 -0.1304 -0.0994  0.1516
  925MPD2    C413536   1.763   4.719  14.974  0.1295  0.6297  0.6200
  925MPD2    C513537   1.874   4.697  14.893 -0.0510  1.0656 -0.0352
  925MPD2     H13538   1.564   0.137  14.759  0.6809  2.1002  0.8543
  925MPD2    H113539   1.764   4.689  15.078  1.5150  0.5873  0.5976
  925MPD2    H213540   1.953   4.717  14.694  1.3701  1.5287  0.8735
  925MPD2    H313541   1.960   4.638  14.921 -0.2534  0.5638 -0.4726
  925MPD2     N13542   1.555   0.068  15.026  0.4137  0.3594 -0.7862
  925MPD2    H513543   1.558   0.020  15.115 -1.0377 -0.0039 -0.9161
  925MPD2    N113544   1.740   0.138  14.584  0.1360  0.0833  0.1777
  925MPD2    H713545   1.653   0.185  14.560 -0.8176 -1.8739 -0.1894
  926MPD2     C13546   0.229   3.247  13.496 -0.4571  1.3141 -1.0972
  926MPD2    C113547   0.174   3.375  13.492 -0.3318 -0.1610 -0.2672
  926MPD2    C213548   0.232   3.472  13.421 -0.6300 -0.5522  0.0906
  926MPD2    C313549   0.353   3.446  13.353  0.3017  0.0089  0.2709
  926MPD2    C413550   0.408   3.326  13.374  0.6305  0.3783  0.4709
  926MPD2    C513551   0.351   3.229  13.444  0.1463 -0.1088 -0.1301
  926MPD2     H13552   0.181   3.567  13.406 -0.8486 -0.8143 -0.8096
  926MPD2    H113553   0.509   3.305  13.339  0.4889 -0.5821  0.6433
  926MPD2    H213554   0.174   3.163  13.537  1.3231  1.1362  0.9698
  926MPD2    H313555   0.393   3.129  13.444  2.7698  0.9886 -1.8237
  926MPD2     N13556   0.419   3.547  13.273  0.1425  0.1119  0.6006
  926MPD2    H513557   0.516   3.532  13.247  0.2124 -0.5872  1.2609
  926MPD2    N113558   0.042   3.391  13.536  0.1319 -0.3736 -0.7897
  926MPD2    H713559   4.719   3.306  13.565 -0.4844 -0.3821 -1.8464
  927MPD2     C13560   0.290   0.710   0.285 -0.2458 -0.5756  0.1334
  927MPD2    C113561   0.280   0.839   0.282  0.1238 -0.3531  0.3766
  927MPD2    C213562   0.226   0.908   0.170  0.5778 -0.2366 -0.5444
  927MPD2    C313563   0.197   0.839   0.060  0.8937 -0.7270  0.0316
  927MPD2    C413564   0.218   0.705   0.060 -0.0947 -0.5093 -0.0395
  927MPD2    C513565   0.254   0.637   0.176 -0.5959  0.0794  0.4107
  927MPD2     H13566   0.212   1.016   0.175  1.3157 -0.2058  0.7328
  927MPD2    H113567   0.194   0.646  17.674  2.3099 -0.6836 -0.5868
  927MPD2    H213568   0.328   0.665   0.376 -2.2121 -1.0787  0.6895
  927MPD2    H313569   0.265   0.529   0.178 -0.7614  0.0622  0.4401
  927MPD2     N13570   0.145   0.915  17.653 -0.0131 -0.0897  0.5807
  927MPD2    H513571   0.143   1.016  17.662  0.5939 -0.0352  0.1188
  927MPD2    N113572   0.322   0.905   0.398  0.9815  0.5065  0.8454
  927MPD2    H713573   0.369   0.850   0.469  0.0931 -0.8181  0.4112
  928MPD2     C13574   2.063   3.490   0.774  1.0025 -0.5945 -0.2885
  928MPD2    C113575   2.124   3.597   0.833 -0.0566  0.1055 -0.3713
  928MPD2    C213576   2.191   3.686   0.751  0.0895  0.0767  0.1582
  928MPD2    C313577   2.200   3.664   0.614  0.8772 -0.2790 -0.0642
  928MPD2    C413578   2.144   3.552   0.560  0.2041 -0.3113 -0.2707
  928MPD2    C513579   2.071   3.467   0.641  0.3049 -0.1683  0.3137
  928MPD2     H13580   2.225   3.780   0.793  1.4590 -0.3324 -0.0327
  928MPD2    H113581   2.149   3.537   0.453  0.6533  1.4676 -0.4911
  928MPD2    H213582   2.022   3.409   0.834  1.4120  0.5130  1.4895
  928MPD2    H313583   2.033   3.378   0.592  0.4959  0.1142 -0.3430
  928MPD2     N13584   2.285   3.739   0.530  0.2444  0.3566 -0.5952
  928MPD2    H513585   2.292   3.716   0.432  0.8703 -0.4203 -0.3681
  928MPD2    N113586   2.119   3.595   0.977  0.3042 -0.1359 -0.0797
  928MPD2    H713587   2.059   3.523   1.015 -1.5730  0.7365 -1.3888
  929MPD2     C13588   3.137   4.040  10.807  0.0113 -0.0807 -0.2987
  929MPD2    C113589   3.005   4.029  10.772  0.7033 -0.0967  0.3501
  929MPD2    C213590   2.958   4.097  10.657  0.1229  0.0069  0.1697
  929MPD2    C313591   3.027   4.209  10.603 -0.2939 -0.6956 -0.1049
  929MPD2    C413592   3.155   4.218  10.648 -0.2383 -1.1358  0.1768
  929MPD2    C513593   3.212   4.127  10.735  0.2733  0.3942  0.0523
  929MPD2     H13594   2.853   4.084  10.632 -0.3001  1.6749  1.0327
  929MPD2    H113595   3.210   4.308  10.625 -1.6194 -0.5286 -0.7145
  929MPD2    H213596   3.180   3.982  10.888 -0.9125  1.1227  1.0390
  929MPD2    H313597   3.316   4.138  10.762  0.9546 -3.4061 -1.0660
  929MPD2     N13598   2.980   4.303  10.517 -0.0159 -0.3956 -0.0287
  929MPD2    H513599   3.030   4.389  10.498 -2.6543  0.9610 -0.8833
  929MPD2    N113600   2.934   3.914  10.825  0.4193 -0.1611 -0.3303
  929MPD2    H713601   2.982   3.864  10.899  2.4801  2.2918 -0.0201
  930MPD2     C13602   3.884   1.565  14.342 -0.2670  0.2483 -0.3336
  930MPD2    C113603   4.015   1.573  14.308  0.2400 -0.3938 -0.1959
  930MPD2    C213604   4.061   1.509  14.198  0.5095 -0.5422  0.3196
  930MPD2    C313605   3.978   1.424  14.124 -0.3661 -0.2063  0.0898
  930MPD2    C413606   3.853   1.400  14.171 -0.3953  0.6570 -0.0655
  930MPD2    C513607   3.809   1.473  14.279 -0.8745 -0.3019  0.1179
  930MPD2     H13608   4.162   1.528  14.164  0.6071 -2.8685 -0.6846
  930MPD2    H113609   3.787   1.326  14.128 -0.8178  0.2927  1.1955
  930MPD2    H213610   3.840   1.610  14.430  0.2171 -0.4690  0.2805
  930MPD2    H313611   3.711   1.447  14.318  0.5627 -3.7505  1.3396
  930MPD2     N13612   4.019   1.372  14.000 -0.1366 -0.2230  0.3770
  930MPD2    H513613   3.939   1.331  13.952  0.5342  2.4815 -3.0826
  930MPD2    N113614   4.102   1.661  14.381 -0.3678  0.3055 -0.2464
  930MPD2    H713615   4.056   1.733  14.437  1.5729  2.0665 -0.9152
  931MPD2     C13616   0.929   0.963   0.814  0.0713  0.3869  0.5921
  931MPD2    C113617   0.807   0.905   0.777  0.0711 -0.3741  0.6676
  931MPD2    C213618   0.762   0.789   0.841 -0.5541  0.5786  0.2045
  931MPD2    C313619   0.832   0.742   0.947  0.0452  0.3538  0.1074
  931MPD2    C413620   0.949   0.792   0.989  0.2662  0.5577  0.1167
  931MPD2    C513621   0.992   0.903   0.918 -0.1703  0.4477 -0.3971
  931MPD2     H13622   0.658   0.762   0.823  0.8125 -2.7963 -2.6576
  931MPD2    H113623   1.007   0.744   1.067 -0.0443  1.4652  0.9107
  931MPD2    H213624   0.979   1.040   0.758 -2.1287 -0.2802 -2.2789
  931MPD2    H313625   1.095   0.935   0.933  0.0551  0.1501 -1.3020
  931MPD2     N13626   0.776   0.648   1.037  0.7975 -0.0791 -0.2468
  931MPD2    H513627   0.810   0.648   1.132  0.2402  1.4911 -0.0367
  931MPD2    N113628   0.726   0.957   0.676 -0.0415 -0.0145  0.2713
  931MPD2    H713629   0.637   0.915   0.650 -0.6554  1.4597  0.0334
  932MPD2     C13630   1.721   4.516  11.466 -0.3828  0.1541  0.1968
  932MPD2    C113631   1.824   4.571  11.545  0.1226  0.1363 -0.7769
  932MPD2    C213632   1.949   4.518  11.544 -0.0861 -0.4657 -0.7555
  932MPD2    C313633   1.978   4.424  11.454 -0.0840  0.2420  0.1798
  932MPD2    C413634   1.888   4.377  11.364  0.1089  0.7085  0.2935
  932MPD2    C513635   1.759   4.421  11.374  0.5763 -0.6231  0.0807
  932MPD2     H13636   2.029   4.543  11.614 -0.8133 -3.8309  1.2836
  932MPD2    H113637   1.917   4.297  11.297 -0.3525  0.6790  0.1271
  932MPD2    H213638   1.615   4.535  11.479 -0.0481  2.8803 -0.8570
  932MPD2    H313639   1.687   4.372  11.310 -2.4532 -1.1039  3.8720
  932MPD2     N13640   2.112   4.382  11.454  0.1060  0.3164  0.2832
  932MPD2    H513641   2.166   4.404  11.538  0.3619  3.2988 -0.6610
  932MPD2    N113642   1.782   4.673  11.631  0.0010 -0.2437 -0.3332
  932MPD2    H713643   1.688   4.709  11.622  0.6680  1.4022 -0.9318
  933MPD2     C13644   2.101   3.167   1.703  0.1234 -0.4467 -0.5351
  933MPD2    C113645   2.033   3.271   1.634  0.2586  0.2447  0.3399
  933MPD2    C213646   1.903   3.274   1.647  0.0136 -0.5468 -0.5287
  933MPD2    C313647   1.827   3.183   1.717 -0.1887 -0.4692  0.2103
  933MPD2    C413648   1.895   3.081   1.782  0.6863  0.2990  0.3377
  933MPD2    C513649   2.032   3.070   1.770  0.7408 -0.3720  0.7030
  933MPD2     H13650   1.852   3.366   1.619 -1.9465 -0.4792  3.2048
  933MPD2    H113651   1.852   2.991   1.825  3.0181  0.4716  3.0919
  933MPD2    H213652   2.208   3.158   1.712  0.2183  0.7732 -0.4248
  933MPD2    H313653   2.074   2.983   1.818  0.0010  0.4679  2.8848
  933MPD2     N13654   1.687   3.204   1.704  0.1687  0.1639  0.1967
  933MPD2    H513655   1.653   3.285   1.653 -0.8769 -1.4871 -1.7371
  933MPD2    N113656   2.116   3.354   1.547 -1.0276 -0.6188  0.0722
  933MPD2    H713657   2.216   3.341   1.557 -1.4072 -1.2754  2.9227
  934MPD2     C13658   3.152   1.846   1.798  0.2298  0.6501 -0.0892
  934MPD2    C113659   3.279   1.834   1.733 -0.4722 -0.0439 -0.1562
  934MPD2    C213660   3.282   1.804   1.598 -0.2831  0.3255 -0.1833
  934MPD2    C313661   3.159   1.784   1.530 -0.4263 -0.0560  1.0052
  934MPD2    C413662   3.041   1.801   1.593 -0.2671 -0.2395 -0.3923
  934MPD2    C513663   3.036   1.834   1.727 -0.7716  0.3207  0.1070
  934MPD2     H13664   3.376   1.812   1.545  1.9134  1.1564  3.8773
  934MPD2    H113665   2.947   1.801   1.540 -1.5175  1.8459  1.8567
  934MPD2    H213666   3.138   1.864   1.904  0.6280 -1.1656  0.2758
  934MPD2    H313667   2.937   1.851   1.767 -0.1301  2.6268  0.7151
  934MPD2     N13668   3.151   1.746   1.394  1.0216  0.6522 -0.5344
  934MPD2    H513669   3.060   1.734   1.352  0.0002  1.3113  1.5048
  934MPD2    N113670   3.393   1.852   1.810  0.3511 -0.2261 -0.4239
  934MPD2    H713671   3.374   1.875   1.907  2.5483  0.7975 -0.2460
  935MPD2     C13672   3.825   1.385   0.755  0.2669 -0.0913  0.4229
  935MPD2    C113673   3.704   1.336   0.717  0.6723 -0.1018 -0.4704
  935MPD2    C213674   3.587   1.390   0.763  0.3103 -0.2102 -0.7474
  935MPD2    C313675   3.598   1.498   0.850 -0.1331  0.0285  0.0586
  935MPD2    C413676   3.718   1.540   0.901  0.4203  0.2485 -0.4512
  935MPD2    C513677   3.830   1.483   0.853 -0.2706 -0.9070 -0.1015
  935MPD2     H13678   3.484   1.369   0.736  0.4051 -0.2127 -1.1089
  935MPD2    H113679   3.718   1.609   0.985  0.8316  0.3836 -0.5587
  935MPD2    H213680   3.918   1.351   0.710  1.5550  1.7053  1.7354
  935MPD2    H313681   3.931   1.517   0.875 -0.0520 -1.2246 -0.5953
  935MPD2     N13682   3.494   1.566   0.910 -0.4104 -0.3369 -0.3625
  935MPD2    H513683   3.523   1.637   0.976  1.0540 -1.5527  0.2993
  935MPD2    N113684   3.697   1.234   0.619  0.2695  0.3551  0.7308
  935MPD2    H713685   3.605   1.196   0.601  2.3209 -3.3138 -2.0914
  936MPD2     C13686   1.967   3.640  12.164  0.0092 -0.6055 -0.1840
  936MPD2    C113687   2.084   3.671  12.222  0.3876  0.4272 -0.4749
  936MPD2    C213688   2.143   3.792  12.208 -0.3617  0.2118 -0.1265
  936MPD2    C313689   2.075   3.896  12.143 -0.7218 -0.2590 -0.2586
  936MPD2    C413690   1.950   3.867  12.094  0.3352  0.3511  0.3376
  936MPD2    C513691   1.899   3.741  12.107 -0.1846  0.6519  0.0792
  936MPD2     H13692   2.226   3.826  12.268  0.5981  0.8604 -1.8161
  936MPD2    H113693   1.882   3.942  12.058  1.5674  1.5923  0.5987
  936MPD2    H213694   1.925   3.541  12.171 -0.7588 -0.1846  1.2507
  936MPD2    H313695   1.804   3.726  12.058  0.4780 -1.8333 -0.4865
  936MPD2     N13696   2.113   4.029  12.156 -0.1158  0.5023  0.6426
  936MPD2    H513697   2.048   4.103  12.130  0.2742  0.8122  0.5381
  936MPD2    N113698   2.144   3.573  12.311  0.0041 -0.0641 -0.4995
  936MPD2    H713699   2.238   3.598  12.338 -0.4446 -1.0853  1.9469
  937MPD2     C13700   4.536   4.605  11.538 -0.7493 -0.0038  0.1987
  937MPD2    C113701   4.615   4.695  11.610  0.6106  0.2363 -0.0551
  937MPD2    C213702   4.707   0.047  11.544 -0.0034  0.1820 -0.6743
  937MPD2    C313703   0.007   0.026  11.404 -0.6346 -0.6384  0.5595
  937MPD2    C413704   4.656   4.654  11.338 -0.0970 -0.7636 -0.2070
  937MPD2    C513705   4.556   4.590  11.403 -0.3119  0.7223 -0.3747
  937MPD2     H13706   0.040   0.122  11.597  0.4913  0.0803 -1.0749
  937MPD2    H113707   4.670   4.634  11.232 -0.5884 -0.9123 -0.2448
  937MPD2    H213708   4.447   4.554  11.574 -1.0865  0.7235  0.3818
  937MPD2    H313709   4.491   4.527  11.343 -2.2774  1.7457  0.6581
  937MPD2     N13710   0.114   0.090  11.340  0.0157 -0.6074  0.1808
  937MPD2    H513711   0.176   0.156  11.385 -1.9827 -0.3957  2.6482
  937MPD2    N113712   4.585   0.024  11.734 -0.0204 -0.3303 -0.0434
  937MPD2    H713713   4.624   0.115  11.757 -0.0050 -0.9155  2.3127
  938MPD2     C13714   2.685   0.999   0.490 -0.0257  0.0106 -0.6622
  938MPD2    C113715   2.603   1.069   0.579  0.2303  0.7332  0.3993
  938MPD2    C213716   2.590   1.021   0.712 -0.1737 -0.3482 -0.3271
  938MPD2    C313717   2.659   0.911   0.752  0.2302 -0.1237 -0.6048
  938MPD2    C413718   2.735   0.842   0.665 -0.7261  0.5145 -0.3590
  938MPD2    C513719   2.749   0.885   0.534  0.2589  0.4902  0.8656
  938MPD2     H13720   2.529   1.077   0.782  0.8957 -1.2535  1.3220
  938MPD2    H113721   2.802   0.764   0.699 -3.0678 -1.6379 -0.6479
  938MPD2    H213722   2.715   1.019   0.388 -2.0781 -0.1238 -1.2998
  938MPD2    H313723   2.823   0.833   0.474 -0.0879  2.9666 -1.7185
  938MPD2     N13724   2.643   0.847   0.876 -0.6789  0.2161  0.5239
  938MPD2    H513725   2.698   0.764   0.895 -0.9084 -0.1865 -0.6216
  938MPD2    N113726   2.541   1.193   0.544  0.2727  0.1695  0.4692
  938MPD2    H713727   2.475   1.239   0.606  1.1380  1.4996  0.4238
  939MPD2     C13728   3.342   2.155   0.775 -0.3152 -0.3831 -0.1413
  939MPD2    C113729   3.329   2.279   0.717  0.0255  0.9413 -0.5210
  939MPD2    C213730   3.418   2.325   0.623 -0.3250 -0.0800 -0.1900
  939MPD2    C313731   3.522   2.234   0.584  0.0558 -0.1309 -0.4148
  939MPD2    C413732   3.536   2.105   0.636  0.1437 -0.2479 -0.1457
  939MPD2    C513733   3.440   2.065   0.730  0.4330  0.4003 -0.3931
  939MPD2     H13734   3.405   2.424   0.579  0.8095  0.2463  0.2166
  939MPD2    H113735   3.616   2.039   0.607  1.0628 -0.1096  2.1037
  939MPD2    H213736   3.286   2.125   0.863  0.7718  1.1707  1.0662
  939MPD2    H313737   3.455   1.969   0.778 -2.1029  0.9153  1.4128
  939MPD2     N13738   3.614   2.281   0.488  0.3535  0.0737 -0.1865
  939MPD2    H513739   3.599   2.375   0.452 -0.8550  0.4782  1.3623
  939MPD2    N113740   3.227   2.365   0.767 -0.3160 -0.6565 -0.3821
  939MPD2    H713741   3.163   2.327   0.836  0.4405 -0.5958  0.3604
  940MPD2     C13742   2.456   2.987  13.099 -0.1548 -0.0938  0.4690
  940MPD2    C113743   2.595   3.023  13.099 -0.5916  0.6711  0.4066
  940MPD2    C213744   2.674   2.988  12.995 -0.1138 -0.8347 -0.2652
  940MPD2    C313745   2.633   2.905  12.894 -0.4675 -0.2905 -0.1413
  940MPD2    C413746   2.502   2.866  12.902 -0.4487 -0.8094  0.2277
  940MPD2    C513747   2.417   2.904  13.002 -0.6036 -0.2183 -0.2207
  940MPD2     H13748   2.776   3.023  13.003 -0.4316 -0.1538  0.8049
  940MPD2    H113749   2.446   2.820  12.821 -2.9820  2.4109  0.1484
  940MPD2    H213750   2.391   3.006  13.183 -0.2188 -0.3890  0.4862
  940MPD2    H313751   2.314   2.872  13.009 -0.1964 -1.2744  1.0229
  940MPD2     N13752   2.702   2.875  12.774  0.1246  0.3176  0.6190
  940MPD2    H513753   2.654   2.820  12.704 -0.1464  1.8247 -0.3717
  940MPD2    N113754   2.647   3.111  13.192  0.2714 -0.5784  0.0051
  940MPD2    H713755   2.739   3.143  13.164  0.5369  0.5940  2.1920
  941MPD2     C13756   2.505   2.751   9.853 -0.0483 -0.2305 -0.1921
  941MPD2    C113757   2.448   2.739   9.733  0.2058 -0.0659  0.1240
  941MPD2    C213758   2.360   2.634   9.703 -0.0723 -0.3828  0.6951
  941MPD2    C313759   2.327   2.545   9.805  0.1494 -0.7236  0.3273
  941MPD2    C413760   2.389   2.556   9.930 -0.1995 -0.4202  0.2712
  941MPD2    C513761   2.481   2.660   9.952 -0.0073  0.1351  0.2908
  941MPD2     H13762   2.325   2.628   9.601  0.8843  2.5588  0.1852
  941MPD2    H113763   2.371   2.484  10.008  3.2384 -1.6517 -0.0561
  941MPD2    H213764   2.579   2.828   9.875 -1.2825  0.5858  1.0210
  941MPD2    H313765   2.530   2.663  10.049 -0.0004 -0.1970  0.2986
  941MPD2     N13766   2.229   2.442   9.800  0.7437  0.2357 -0.3957
  941MPD2    H513767   2.216   2.385   9.883 -2.6234  1.8271  0.1688
  941MPD2    N113768   2.486   2.830   9.633  0.5023 -0.3812  0.6270
  941MPD2    H713769   2.474   2.796   9.539 -0.9774  0.3672  0.5516
  942MPD2     C13770   1.440   0.241   9.425 -0.0627  0.0867 -0.6784
  942MPD2    C113771   1.473   0.291   9.300  0.1490 -0.5818  1.0184
  942MPD2    C213772   1.578   0.230   9.234  0.1289  0.2944 -0.5760
  942MPD2    C313773   1.648   0.121   9.293 -0.7142  0.1394  0.6518
  942MPD2    C413774   1.614   0.080   9.420  0.7275 -0.2994 -1.0145
  942MPD2    C513775   1.510   0.138   9.480 -0.8350 -0.6021 -0.2335
  942MPD2     H13776   1.601   0.258   9.132  0.4971 -0.8360 -0.8070
  942MPD2    H113777   1.681   0.013   9.474  2.1593  0.6538 -1.6084
  942MPD2    H213778   1.366   0.286   9.489 -0.6446 -1.6364 -0.1423
  942MPD2    H313779   1.500   0.110   9.584 -1.1693 -0.5646 -0.2566
  942MPD2     N13780   1.769   0.056   9.244  0.3385 -0.0178  0.2452
  942MPD2    H513781   1.802   4.701   9.296 -0.4982 -0.3837  0.2151
  942MPD2    N113782   1.405   0.404   9.242 -0.2892  0.2740 -0.5495
  942MPD2    H713783   1.442   0.435   9.153  0.1452  1.4788  0.0430
  943MPD2     C13784   0.362   2.700   9.626  1.1880  0.0049 -0.5388
  943MPD2    C113785   0.480   2.691   9.697  0.6587 -0.1072 -0.0020
  943MPD2    C213786   0.563   2.802   9.691  0.3142 -0.2324 -0.6518
  943MPD2    C313787   0.528   2.918   9.634  1.0629  0.6341  0.6918
  943MPD2    C413788   0.400   2.931   9.577 -0.1621 -1.3611 -0.7982
  943MPD2    C513789   0.321   2.822   9.570  0.4674 -0.2684 -0.3219
  943MPD2     H13790   0.660   2.799   9.739 -0.4125  0.0815  0.8129
  943MPD2    H113791   0.367   3.024   9.533  0.0935 -0.4118  1.0499
  943MPD2    H213792   0.296   2.614   9.630  2.9578 -1.3339 -0.1199
  943MPD2    H313793   0.215   2.829   9.549  0.4672 -1.7470 -0.7657
  943MPD2     N13794   0.601   3.043   9.645 -0.1350 -0.0788 -0.3955
  943MPD2    H513795   0.570   3.112   9.578 -1.7642 -0.8625 -0.4530
  943MPD2    N113796   0.500   2.580   9.775  0.1350  0.2321 -0.8800
  943MPD2    H713797   0.438   2.501   9.767 -1.4184  1.2889  0.7841
  944MPD2     C13798   0.372   1.423  11.142 -0.3960  0.0349 -0.1352
  944MPD2    C113799   0.361   1.558  11.124 -0.8733 -0.4826  0.3165
  944MPD2    C213800   0.356   1.635  11.234 -0.3398 -0.4439 -0.1543
  944MPD2    C313801   0.372   1.582  11.359  0.1632 -0.1128 -0.2209
  944MPD2    C413802   0.388   1.446  11.375 -0.0102 -0.2885  0.3895
  944MPD2    C513803   0.376   1.365  11.265  0.6963 -0.2209 -0.1127
  944MPD2     H13804   0.354   1.743  11.223  2.1799 -0.3362  0.3310
  944MPD2    H113805   0.395   1.392  11.468 -0.3324  0.8840  1.0914
  944MPD2    H213806   0.358   1.356  11.059 -1.3565 -1.9373  1.6281
  944MPD2    H313807   0.382   1.258  11.277  2.0640 -0.2265 -0.8770
  944MPD2     N13808   0.364   1.676  11.465  0.0799 -0.8480 -0.1221
  944MPD2    H513809   0.338   1.774  11.452 -1.1348 -1.2305 -0.5989
  944MPD2    N113810   0.361   1.616  10.996  0.0552  0.2354 -0.2348
  944MPD2    H713811   0.359   1.556  10.914 -1.4339  0.7543 -0.5755
    1TCq1    O113812   3.111   2.312  14.099 -0.2669  0.3991 -0.1322
    1TCq1    C113813   3.129   2.370  14.215  0.4436  0.2826 -0.2678
    1TCq1    O213814   3.038   2.426  14.280  0.0938  0.1034 -0.4614
    1TCq1    C213815   3.263   2.339  14.269  0.2874  0.4101  0.9451
    1TCq1    C313816   3.352   2.249  14.216  0.7156  1.4206  0.3373
    1TCq1    C413817   3.462   2.213  14.285  0.1116  0.3256 -0.0942
    1TCq1    C513818   3.481   2.266  14.408  0.0289  0.4660  0.2414
    1TCq1    C613819   3.402   2.368  14.455  0.5607  0.1202 -0.4244
    1TCq1    C713820   3.282   2.394  14.392 -0.6415 -0.1867 -0.3063
    1TCq1    C813821   3.448   2.445  14.575  0.1599  0.3177  0.3133
    1TCq1    O413822   3.550   2.406  14.633  0.3768 -0.1294 -0.3030
    1TCq1    C913823   3.543   2.099  14.245  0.0216 -0.2323  0.6232
    1TCq1    O513824   3.604   2.029  14.333  0.2488  0.8594 -0.1353
    1TCq1    O613825   3.541   2.075  14.120 -0.8068  0.1739  0.2257
    1TCq1    H113826   3.190   2.309  14.041  0.3798  0.9608  0.7118
    1TCq1    H213827   3.341   2.211  14.115  0.7810 -2.1443  1.6740
    1TCq1    H313828   3.566   2.235  14.468 -0.3941  0.0775  0.6389
    1TCq1    H413829   3.205   2.457  14.434  1.2462  3.1404 -1.8496
    2MPD2     C13830   3.419   2.829  14.905  0.3475  0.2531  0.3149
    2MPD2    C113831   3.358   2.872  14.790  0.7892  0.3642 -0.1325
    2MPD2    C213832   3.342   2.778  14.688  0.1136 -0.1157 -0.3330
    2MPD2    C313833   3.395   2.649  14.697  0.2118  0.4593  0.2148
    2MPD2    C413834   3.449   2.611  14.817 -0.2254  0.7958 -0.4710
    2MPD2    C513835   3.478   2.705  14.912  0.0479 -0.4426 -0.1285
    2MPD2     H13836   3.299   2.802  14.591  0.3370  1.7576  0.0419
    2MPD2    H113837   3.481   2.508  14.832 -3.5505 -0.1852 -0.1319
    2MPD2    H213838   3.445   2.886  14.993  4.1714 -0.8613 -0.0939
    2MPD2    H313839   3.536   2.682  15.001 -1.1041 -1.7981  0.2762
    2MPD2     N13840   3.378   2.560  14.589  0.5396  0.0781  0.2778
    2MPD2    H513841   3.323   2.589  14.509 -0.4220  0.0166  0.9198
    2MPD2    N113842   3.337   3.007  14.767 -0.2327  0.1939  0.0648
    2MPD2    H713843   3.361   3.068  14.844 -0.5049 -0.4366  0.6440
    3TMC2    C113844   3.282   3.209  14.650  0.0150  0.1731  0.0328
    3TMC2    C213845   3.392   3.268  14.712 -0.3224 -0.1087 -0.0089
    3TMC2    C313846   3.432   3.393  14.673 -0.5869 -0.1040 -0.1296
    3TMC2    C413847   3.227   3.276  14.539 -0.1428 -0.5423  0.4923
    3TMC2    C513848   3.271   3.398  14.501 -0.5171 -0.0264  0.2274
    3TMC2    C613849   3.376   3.467  14.568  0.7613  0.6988  0.6841
    3TMC2     C13850   3.282   3.063  14.650 -0.3016 -0.3149 -0.3327
    3TMC2     O13851   3.212   3.016  14.560 -0.7476 -0.0568 -0.8226
    3TMC2     H13852   3.458   3.226  14.787  1.2368  0.4333 -1.0613
    3TMC2    H113853   3.162   3.229  14.466 -0.4857  1.0570 -0.2407
    3TMC2    H213854   3.406   3.567  14.536  1.5139  0.3044  0.1531
    3TMC2    C713855   3.260   3.422  14.357  0.1448 -0.3064 -0.1155
    3TMC2    C813856   3.543   3.467  14.736 -0.3828 -0.3248  0.2097
    3TMC2    O113857   3.172   3.376  14.285  0.0924 -0.2440 -0.0267
    3TMC2    O213858   3.537   3.590  14.741 -0.2551 -0.0838 -0.3563
    3TMC2    O513859   3.651   3.381  14.746  0.7592 -0.2651 -0.6142
    3TMC2    H513860   3.628   3.288  14.726 -0.9154  0.4691 -2.0351
    4MPD2     C13861   2.236   4.113  13.708 -0.1956  1.0122  0.1738
    4MPD2    C113862   2.305   4.115  13.590  0.3796 -0.3672 -0.2921
    4MPD2    C213863   2.441   4.096  13.598  0.1985 -0.3076  0.0890
    4MPD2    C313864   2.508   4.059  13.714 -0.0876  0.0241  0.6503
    4MPD2    C413865   2.435   4.054  13.828 -0.9609 -0.2591 -0.2889
    4MPD2    C513866   2.302   4.085  13.822  1.1448  0.7010  0.0154
    4MPD2     H13867   2.495   4.087  13.504  3.5570 -0.1890  1.9886
    4MPD2    H113868   2.483   4.031  13.923 -2.3129  1.9538  0.9274
    4MPD2    H213869   2.132   4.140  13.722 -0.4577  0.3568 -0.5216
    4MPD2    H313870   2.249   4.084  13.917 -0.8108 -1.7597 -1.1096
    4MPD2     N13871   2.636   4.011  13.699 -0.3586 -0.3478 -0.7787
    4MPD2    H513872   2.674   4.026  13.606 -0.8799 -0.3310 -0.9900
    4MPD2    N113873   2.226   4.126  13.471  0.1724 -0.0530 -0.9020
    4MPD2    H713874   2.125   4.136  13.471  0.2112  0.4302  1.0668
    5TCq2    C113875   2.690   3.920  13.789  0.3538 -0.1775  0.4089
    5TCq2    O213876   2.645   3.874  13.898  0.6655  0.3825  0.3180
    5TCq2    C213877   2.809   3.846  13.743  0.6507 -0.4575 -0.1634
    5TCq2    C313878   2.847   3.849  13.611 -0.1278 -0.2169 -0.3334
    5TCq2    C413879   2.977   3.809  13.585 -0.3726  1.0554  0.3265
    5TCq2    C513880   3.056   3.756  13.686 -0.3659 -0.4381 -0.0594
    5TCq2    C613881   3.006   3.756  13.810  0.3683  0.5305 -0.0826
    5TCq2    C713882   2.885   3.798  13.843  0.1717  0.6263 -0.2455
    5TCq2    C813883   3.073   3.686  13.920 -0.2542 -0.0952 -0.2606
    5TCq2    O413884   3.007   3.609  13.983  0.8540 -0.0750 -0.1812
    5TCq2    C913885   3.009   3.789  13.449  0.6774  0.4098 -0.9278
    5TCq2    O513886   3.115   3.731  13.425 -0.2744 -0.1430  0.3438
    5TCq2    O613887   2.929   3.824  13.359  0.4631 -0.4481 -0.5824
    5TCq2    H213888   2.788   3.884  13.527  0.4243 -0.2748 -0.7490
    5TCq2    H313889   3.145   3.698  13.667  0.0203  0.4966 -1.1272
    5TCq2    H413890   2.854   3.797  13.947  0.7599 -0.2783 -0.0792
    6MPD1     C13891   1.179   0.577  12.412 -0.3010 -0.1202  0.0776
    6MPD1    C113892   1.114   0.506  12.508 -0.1070  0.0873 -0.3580
    6MPD1    C213893   1.184   0.425  12.594  0.0362  0.6707 -0.2205
    6MPD1    C313894   1.321   0.427  12.594  0.1790  0.5227  0.3770
    6MPD1    C413895   1.386   0.506  12.495  0.5026 -0.2707 -0.3650
    6MPD1    C513896   1.316   0.580  12.407 -0.2152  0.4528  0.3273
    6MPD1     H13897   1.124   0.373  12.668  1.4719  1.1796  1.3096
    6MPD1    H113898   1.492   0.510  12.472  0.9547 -0.4654  1.7234
    6MPD1    H213899   1.129   0.648  12.347  0.1321  0.8647  0.8346
    6MPD1    H313900   1.367   0.639  12.332  0.8330 -0.4832  0.3071
    6MPD1     N13901   1.393   0.334  12.676  0.8923  0.2893 -0.4219
    6MPD1    H513902   1.494   0.340  12.669  0.9806 -0.6030 -0.0006
    6MPD1    N113903   0.971   0.500  12.503 -0.3648  0.0768 -0.0819
    6MPD1    H613904   0.932   0.593  12.487 -1.4241 -0.5058 -0.8796
    6MPD1    H713905   0.931   0.463  12.589 -0.1344  1.9129  0.8113
    7MPD2     C13906   1.510   4.428  12.941  0.4855  0.4186  0.5629
    7MPD2    C113907   1.563   4.443  13.065  0.2594  0.1748  0.1347
    7MPD2    C213908   1.645   4.342  13.107 -0.0594  0.1082 -0.3746
    7MPD2    C313909   1.669   4.226  13.039  0.0643  0.0675 -0.0094
    7MPD2    C413910   1.601   4.199  12.921  0.2578  0.0849  0.1207
    7MPD2    C513911   1.528   4.313  12.878  0.0832  0.2010  0.1562
    7MPD2     H13912   1.712   4.366  13.189  0.4630 -0.9319 -0.4993
    7MPD2    H113913   1.625   4.119  12.851  1.7846 -0.6590  1.5021
    7MPD2    H213914   1.461   4.509  12.888 -1.7955 -1.6746 -0.5607
    7MPD2    H313915   1.484   4.310  12.779  1.4616 -0.2764 -0.4465
    7MPD2     N13916   1.753   4.123  13.078  0.8492 -0.2942 -0.7146
    7MPD2    H513917   1.754   4.050  13.007 -2.9805 -0.2151 -0.8716
    7MPD2    N113918   1.552   4.558  13.151 -0.3160  1.0113  0.1543
    7MPD2    H713919   1.577   4.542  13.248  0.0239  0.3158 -0.0452
    8TMC3    C113920   1.958   4.044  13.174  0.7692 -0.4668  0.4640
    8TMC3    C213921   2.045   4.058  13.277 -0.4134  0.2174 -0.2381
    8TMC3    C313922   2.171   4.109  13.242 -0.2097 -0.0561 -0.4000
    8TMC3    C413923   2.002   4.058  13.046  0.3020  0.3367 -0.2094
    8TMC3    C513924   2.114   4.126  13.018  0.3713 -0.4495  0.0814
    8TMC3    C613925   2.205   4.146  13.118 -0.4544 -1.1898 -0.5067
    8TMC3     C13926   1.836   4.125  13.185  0.1649 -0.2388  0.0618
    8TMC3     O13927   1.815   4.182  13.288 -0.0001  0.6344 -0.2080
    8TMC3     H13928   2.010   4.049  13.379 -0.0145  0.5548 -0.0707
    8TMC3    H113929   1.932   4.037  12.966 -0.2586  0.3033  0.2942
    8TMC3    H213930   2.294   4.201  13.092 -0.3232 -1.2872 -0.2537
    8TMC3    C713931   2.100   4.227  12.920 -0.2215  0.2561  0.6913
    8TMC3    C813932   2.280   4.111  13.344 -0.0871  0.9804  1.3022
    8TMC3    O113933   2.160   4.332  12.953  0.4080 -0.5782  0.0572
    8TMC3    O213934   2.398   4.128  13.307  0.3016 -0.5830 -0.0125
    9TMC3    C113935   1.435   0.147  12.825 -0.0251 -0.0182  0.6003
    9TMC3    C213936   1.558   0.133  12.764  0.0463 -0.1865  0.4711
    9TMC3    C313937   1.647   0.050  12.819  0.4699 -0.3411  0.6296
    9TMC3    C413938   1.398   0.080  12.938 -0.4733  0.4052 -0.5562
    9TMC3    C513939   1.494   0.006  12.998 -0.5857  0.1416  0.1308
    9TMC3    C613940   1.622   4.719  12.941 -0.1946  0.0083  0.1936
    9TMC3     C13941   1.340   0.240  12.759 -0.8301  1.0455  0.4360
    9TMC3     O13942   1.224   0.225  12.790  0.5332 -0.2579 -0.0232
    9TMC3     H13943   1.587   0.178  12.670  1.1415 -1.7034  0.0724
    9TMC3    H113944   1.300   0.101  12.980 -0.0228  0.6797  0.3717
    9TMC3    H213945   1.705   4.666  12.985 -2.1470 -1.6990  1.8333
    9TMC3    C713946   1.468   4.670  13.125  0.9557 -0.1577  0.0805
    9TMC3    C813947   1.689   4.678  12.720 -0.8577 -0.1047  0.4035
    9TMC3    O113948   1.395   0.006  13.204  0.2505  0.1409  0.2376
    9TMC3    O213949   1.626   4.677  12.615 -0.0603  0.2563  0.3196
   10MPD2     C13950   1.867   4.200  12.643  0.0744 -0.6389 -0.8231
   10MPD2    C113951   1.939   4.262  12.741  0.0681 -0.2081  0.4316
   10MPD2    C213952   1.911   4.391  12.770 -0.3239 -0.4392 -0.5680
   10MPD2    C313953   1.823   4.471  12.704 -0.2840  0.2427 -0.5608
   10MPD2    C413954   1.766   4.417  12.588  0.1716 -0.7324  0.4561
   10MPD2    C513955   1.785   4.282  12.562 -0.2501  0.5159 -0.0663
   10MPD2     H13956   1.972   4.439  12.845 -0.2286 -4.3440  1.8655
   10MPD2    H113957   1.683   4.460  12.534  0.4497 -0.3755  0.3078
   10MPD2    H213958   1.882   4.095  12.617  2.1409 -0.6915  0.6261
   10MPD2    H313959   1.741   4.235  12.475  1.3376 -0.3609 -0.3875
   10MPD2     N13960   1.787   4.593  12.764 -0.3856 -0.2427  0.6993
   10MPD2    H513961   1.836   4.606  12.852  1.2860  1.4537 -0.4800
   10MPD2    N113962   2.038   4.187  12.805  0.3437 -0.1029  0.2291
   10MPD2    H713963   2.045   4.089  12.778 -1.7202 -0.0280 -0.5915
   11MPD2     C13964   3.521   3.598  14.164  0.2438 -0.6901 -0.7951
   11MPD2    C113965   3.391   3.561  14.192  0.4813  0.5289 -0.5674
   11MPD2    C213966   3.288   3.601  14.114 -0.1405  0.1439  0.3280
   11MPD2    C313967   3.303   3.669  14.000  0.1543 -0.5958 -0.7666
   11MPD2    C413968   3.433   3.714  13.975 -0.0754  0.0380 -0.3071
   11MPD2    C513969   3.543   3.670  14.050 -0.3708  0.2317 -0.3929
   11MPD2     H13970   3.188   3.566  14.137  0.2574  0.0691  1.9737
   11MPD2    H113971   3.450   3.776  13.888  1.6861  0.6663  0.4997
   11MPD2    H213972   3.598   3.569  14.234  0.8233  0.3394 -1.0096
   11MPD2    H313973   3.642   3.709  14.027  0.2245 -0.6662  0.6092
   11MPD2     N13974   3.205   3.707  13.914 -0.1624  0.4305  0.1890
   11MPD2    H513975   3.225   3.777  13.843  0.8394 -0.4465 -0.3994
   11MPD2    N113976   3.375   3.484  14.316 -0.0883 -0.1912  1.1413
   11MPD2    H713977   3.449   3.480  14.386 -0.3722  0.2328  1.4652
    1MPD1     C13978   0.734   0.096  16.832  0.2372  0.4407  0.5912
    1MPD1    C113979   0.841   0.156  16.900 -0.2749  0.6678  0.2029
    1MPD1    C213980   0.973   0.132  16.859 -0.2940  0.8269  0.0765
    1MPD1    C313981   0.997   0.049  16.755 -0.1725  0.1907 -0.2196
    1MPD1    C413982   0.892   4.718  16.686 -0.4278 -0.7279 -0.1192
    1MPD1    C513983   0.765   0.012  16.730 -0.1998  0.4741  0.0134
    1MPD1     H13984   1.052   0.186  16.909  0.0050 -0.3517  0.8851
    1MPD1    H113985   0.909   4.644  16.609 -0.3941 -0.0164 -0.7933
    1MPD1    H213986   0.631   0.123  16.849 -0.6383 -0.5541 -3.2800
    1MPD1    H313987   0.678   4.706  16.673 -0.5954  1.1415  0.2376
    1MPD1     N13988   1.126   0.014  16.704  0.8999 -0.3005 -0.0910
    1MPD1    H513989   1.120   4.680  16.621 -0.0589 -0.9317  0.4215
    1MPD1    N113990   0.818   0.263  16.991 -0.0664  0.3160  0.2375
    1MPD1    H613991   0.729   0.244  17.036 -0.2518 -1.3157 -0.8087
    1MPD1    H713992   0.893   0.276  17.058 -0.8538 -0.3328  1.2377
    2MPD1     C13993   2.191   4.636  16.890  0.2758  0.3995  0.7720
    2MPD1    C113994   2.181   4.649  16.756 -0.0197 -0.1739  0.0258
    2MPD1    C213995   2.062   4.673  16.699  0.0433 -0.0065  0.2782
    2MPD1    C313996   1.950   4.693  16.777 -0.1098  0.1118 -0.3391
    2MPD1    C413997   1.961   4.695  16.914  0.3747 -0.8066 -0.4157
    2MPD1    C513998   2.083   4.669  16.966 -0.0100 -0.1049  0.4666
    2MPD1     H13999   2.052   4.690  16.593 -1.1117  0.9449  0.5477
    2MPD1    H114000   1.878   4.716  16.981 -0.2539  1.2163 -1.8207
    2MPD1    H214001   2.289   4.621  16.936  0.4344  0.9363  0.6095
    2MPD1    H314002   2.112   4.685  17.069  2.8071 -1.8570 -0.0389
    2MPD1     N14003   1.822   4.710  16.711  0.1385 -0.2754 -0.7827
    2MPD1    H514004   1.825   4.693  16.611  1.2164  1.3272 -1.0167
    2MPD1    N114005   2.294   4.642  16.679  0.1208  0.0229  0.6269
    2MPD1    H614006   2.272   4.679  16.587 -1.3558 -2.1179  0.1076
    2MPD1    H714007   2.371   4.693  16.723  1.6525 -2.2607  0.5667
    3TMC3    C114008   1.588   0.058  16.682  0.0512  0.3650 -0.6990
    3TMC3    C214009   1.597   0.058  16.552  0.0597 -0.6831 -0.0778
    3TMC3    C314010   1.481   0.028  16.491 -0.4359  0.5893 -0.6548
    3TMC3    C414011   1.469   0.064  16.751  0.4369  0.2175 -0.8980
    3TMC3    C514012   1.357   0.040  16.681 -0.2577 -0.0958  0.0906
    3TMC3    C614013   1.360   0.021  16.547  0.1338 -0.0716 -0.0600
    3TMC3     C14014   1.704   0.025  16.770  0.5438 -0.2548  0.0575
    3TMC3     O14015   1.686   0.074  16.881 -0.2029  0.1281 -0.6549
    3TMC3     H14016   1.688   0.058  16.492 -0.6570  2.7688 -1.1238
    3TMC3    H114017   1.462   0.100  16.853  0.3594 -0.7514 -0.5553
    3TMC3    H214018   1.270   4.716  16.494 -0.4784  1.3947  0.1191
    3TMC3    C714019   1.241   0.057  16.764 -0.6987 -0.2246  0.5608
    3TMC3    C814020   1.482   4.711  16.351 -0.1096  0.0459  0.0328
    3TMC3    O114021   1.253   0.119  16.868 -0.6101 -0.5245 -0.4668
    3TMC3    O214022   1.563   0.041  16.278  0.1728 -0.4720 -0.6663
    4MPD1     C14023   1.366   4.370  15.981  0.7313  0.0983 -0.1924
    4MPD1    C114024   1.359   4.300  16.105 -0.1228 -0.0494 -0.3024
    4MPD1    C214025   1.382   4.378  16.218  0.3157 -0.1149 -0.3398
    4MPD1    C314026   1.403   4.518  16.217 -0.1262  0.3228 -0.1698
    4MPD1    C414027   1.415   4.580  16.099  0.9604 -0.9401  0.5628
    4MPD1    C514028   1.396   4.509  15.981 -0.9554  0.5516  0.5948
    4MPD1     H14029   1.373   4.332  16.316 -1.9407 -0.6133 -0.7826
    4MPD1    H114030   1.446   4.684  16.089  0.8742 -0.9282  0.4179
    4MPD1    H214031   1.357   4.324  15.884  0.0304  1.8407 -0.9640
    4MPD1    H314032   1.421   4.557  15.887 -0.1281 -2.5215 -0.7504
    4MPD1     N14033   1.423   4.591  16.338 -0.5155 -0.3169 -0.0034
    4MPD1    H514034   1.389   4.548  16.423  2.0322 -0.1598  1.0997
    4MPD1    N114035   1.366   4.161  16.107  0.0870 -0.2803  0.3970
    4MPD1    H614036   1.334   4.117  16.021 -0.1095 -0.3644  0.5145
    4MPD1    H714037   1.318   4.124  16.189  0.4633 -2.6573 -0.4689
    1TCq1    O114038   2.058   3.910  11.527  0.2523  0.1300 -0.0249
    1TCq1    C114039   2.007   3.908  11.403  0.0013  0.0852  0.4752
    1TCq1    O214040   1.896   3.943  11.365 -0.1575 -0.1605 -0.2078
    1TCq1    C214041   2.105   3.836  11.316  0.4833 -0.0891 -0.2070
    1TCq1    C314042   2.195   3.752  11.366 -0.0971 -1.1169  0.4096
    1TCq1    C414043   2.282   3.689  11.280 -1.0893  0.1159 -0.5260
    1TCq1    C514044   2.252   3.679  11.147 -0.3017  0.4133 -0.2341
    1TCq1    C614045   2.140   3.741  11.108 -0.7112  0.2157 -0.1909
    1TCq1    C714046   2.078   3.832  11.190  0.6541 -0.4934 -0.5750
    1TCq1    C814047   2.109   3.754  10.965 -0.5287  0.0494  0.1746
    1TCq1    O414048   1.992   3.775  10.931  0.7268 -0.4599  0.6013
    1TCq1    C914049   2.369   3.593  11.337 -0.1036  0.2790  0.2599
    1TCq1    O514050   2.322   3.543  11.441  0.2337  0.1875 -0.7601
    1TCq1    O614051   2.446   3.534  11.261 -0.3035  0.1863  0.3154
    1TCq1    H114052   2.154   3.893  11.536  0.0410 -0.3777  1.2975
    1TCq1    H214053   2.188   3.724  11.471  0.8674  3.3957  1.6769
    1TCq1    H314054   2.307   3.609  11.085  0.7677 -0.6938  2.0016
    1TCq1    H414055   1.987   3.876  11.151  1.2502  1.8967  0.7786
    2MPD1     C14056   2.273   3.858  10.479 -0.6173  0.8656  0.4759
    2MPD1    C114057   2.380   3.823  10.556 -0.4127  0.1789 -0.0639
    2MPD1    C214058   2.354   3.783  10.687 -0.1315  0.4741 -0.0763
    2MPD1    C314059   2.228   3.787  10.746 -0.1220 -0.6950  0.2830
    2MPD1    C414060   2.127   3.829  10.669 -0.6439 -0.7477  1.0560
    2MPD1    C514061   2.148   3.861  10.534  0.3144 -0.3474  0.1513
    2MPD1     H14062   2.443   3.736  10.728 -2.1860 -2.1622  1.3013
    2MPD1    H114063   2.029   3.853  10.707 -1.3707 -1.1209 -0.5618
    2MPD1    H214064   2.291   3.875  10.374  0.8877 -0.0554  0.5908
    2MPD1    H314065   2.065   3.897  10.474  0.1856  1.8482  1.6598
    2MPD1     N14066   2.219   3.751  10.881 -0.0583  0.9636  0.2763
    2MPD1    H514067   2.304   3.730  10.932  0.1738  0.4777 -0.3132
    2MPD1    N114068   2.507   3.809  10.499 -0.3583  0.0571  0.2206
    2MPD1    H614069   2.524   3.876  10.424  0.4003 -0.1433  0.2076
    2MPD1    H714070   2.577   3.824  10.572 -1.6729 -3.3334  2.1889
    1TCq1    O114071   1.123   0.675   0.743  0.1861 -0.2803  0.2674
    1TCq1    C114072   1.122   0.689   0.604  0.6635 -0.0899 -0.1823
    1TCq1    O214073   1.169   0.783   0.542  0.1545  0.5522  0.0981
    1TCq1    C214074   0.994   0.632   0.568  0.5260  0.1300  0.2238
    1TCq1    C314075   0.934   0.526   0.633  0.2799 -0.2439 -0.1845
    1TCq1    C414076   0.800   0.507   0.604 -0.2947  0.1504  0.3291
    1TCq1    C514077   0.734   0.595   0.518 -0.1184  0.1952 -0.2355
    1TCq1    C614078   0.793   0.701   0.460 -0.0226  0.5206  0.6821
    1TCq1    C714079   0.929   0.715   0.477 -0.5514  0.0211  0.4442
    1TCq1    C814080   0.719   0.786   0.362 -0.1692 -0.0893 -0.7620
    1TCq1    O414081   0.631   0.732   0.300 -0.7483  0.2913 -0.5472
    1TCq1    C914082   0.727   0.387   0.640  0.4151  0.1315  0.2749
    1TCq1    O514083   0.623   0.365   0.574 -0.4442  1.0100  0.1454
    1TCq1    O614084   0.796   0.300   0.709 -0.1607  0.6610 -0.0372
    1TCq1    H114085   1.072   0.598   0.777 -0.7625  0.0749 -0.3489
    1TCq1    H214086   0.990   0.444   0.676  2.0558  0.9279 -0.2546
    1TCq1    H314087   0.629   0.574   0.498 -0.4580 -0.0437  1.8202
    1TCq1    H414088   0.976   0.789   0.413 -0.0623 -1.8180 -1.2939
    2MPD1     C14089   0.620   1.240   0.127 -0.5924  0.1166 -0.3591
    2MPD1    C114090   0.740   1.256   0.201  0.7792  0.0118  0.3584
    2MPD1    C214091   0.790   1.139   0.257  0.6527 -0.0871 -0.0580
    2MPD1    C314092   0.721   1.020   0.270 -0.0680 -0.1503 -0.3998
    2MPD1    C414093   0.599   1.017   0.209  0.6336  0.5279  0.1669
    2MPD1    C514094   0.550   1.124   0.139  0.4726  1.0910  0.8187
    2MPD1     H14095   0.883   1.143   0.313 -0.7645  0.5979  2.2434
    2MPD1    H114096   0.532   0.931   0.204  0.3408  0.7111  1.1019
    2MPD1    H214097   0.578   1.321   0.068  0.4789 -0.3914 -1.8262
    2MPD1    H314098   0.447   1.115   0.108  1.3404 -1.2680 -1.3583
    2MPD1     N14099   0.767   0.912   0.352  0.2117  0.3332 -0.4059
    2MPD1    H514100   0.853   0.931   0.403 -0.8821  4.9233 -0.2739
    2MPD1    N114101   0.805   1.378   0.206 -0.2385 -0.5057  0.0205
    2MPD1    H614102   0.739   1.437   0.156  1.2721  1.0800 -0.0881
    2MPD1    H714103   0.887   1.383   0.146 -0.0998 -0.4977  0.2117
    1MPD1     C14104   3.339   4.173  11.851  0.0768 -0.3654  0.0000
    1MPD1    C114105   3.285   4.300  11.842  0.5510  0.3714  0.0454
    1MPD1    C214106   3.364   4.407  11.807  0.1036  0.1277  0.2967
    1MPD1    C314107   3.500   4.392  11.790  0.1924 -0.1133  0.5062
    1MPD1    C414108   3.555   4.264  11.787  0.0947  0.2734 -0.9347
    1MPD1    C514109   3.479   4.159  11.817  0.0319 -0.2040 -0.1416
    1MPD1     H14110   3.325   4.507  11.800  0.8664  0.5936  2.6473
    1MPD1    H114111   3.661   4.255  11.766  0.2830 -1.6209  0.7754
    1MPD1    H214112   3.286   4.082  11.873 -0.0632  0.3166  2.4791
    1MPD1    H314113   3.522   4.060  11.816 -0.2919 -0.3459  0.4117
    1MPD1     N14114   3.583   4.509  11.782  0.7174 -0.4533 -0.2135
    1MPD1    H514115   3.528   4.593  11.792 -0.0185 -1.0650  0.8890
    1MPD1    N114116   3.154   4.310  11.876 -0.0264  0.2817 -0.2827
    1MPD1    H614117   3.108   4.361  11.801  0.7843  0.1076 -0.9046
    1MPD1    H714118   3.116   4.216  11.883  0.1809  0.4430  2.9830
    2MPD1     C14119   3.140   0.466  11.306 -0.7820 -0.3172  1.2168
    2MPD1    C114120   3.216   0.539  11.223  0.0472 -0.3070  0.3810
    2MPD1    C214121   3.334   0.485  11.172 -0.5536 -0.3856  0.0111
    2MPD1    C314122   3.383   0.364  11.217 -0.3474  0.0674 -1.0185
    2MPD1    C414123   3.305   0.302  11.317  0.4201 -0.8643  0.0575
    2MPD1    C514124   3.186   0.350  11.354 -0.1519 -0.4455  0.9105
    2MPD1     H14125   3.396   0.555  11.117  1.0481 -1.4929  0.3868
    2MPD1    H114126   3.341   0.209  11.361 -1.3572 -0.2373  2.8477
    2MPD1    H214127   3.045   0.507  11.340 -0.9083 -1.6032  2.4011
    2MPD1    H314128   3.131   0.308  11.438 -0.5299 -0.0813  0.8445
    2MPD1     N14129   3.509   0.308  11.175  0.2956  0.3781  1.7260
    2MPD1    H514130   3.532   0.219  11.217  0.9991 -0.5762 -0.6919
    2MPD1    N114131   3.168   0.663  11.177  0.1831  0.2566 -0.3684
    2MPD1    H614132   3.099   0.705  11.239  0.8102  0.7003  0.0278
    2MPD1    H714133   3.239   0.727  11.143  1.0095 -1.3111 -1.5882
    3MPD1     C14134   3.497   4.236  11.215 -0.0792  0.1488 -0.8072
    3MPD1    C114135   3.516   4.336  11.305  0.1432  0.3229  0.9203
    3MPD1    C214136   3.553   4.466  11.264 -0.4636 -0.1982  0.1275
    3MPD1    C314137   3.600   4.487  11.140 -0.1542 -0.6019  0.5321
    3MPD1    C414138   3.585   4.382  11.049 -0.3400 -0.4003 -0.5684
    3MPD1    C514139   3.526   4.266  11.092  0.4884 -0.5415  0.0812
    3MPD1     H14140   3.563   4.548  11.335 -1.9055 -0.2613  0.4098
    3MPD1    H114141   3.608   4.400  10.944  0.8327  0.8504 -0.1026
    3MPD1    H214142   3.441   4.144  11.231 -0.8689  0.5868 -1.0258
    3MPD1    H314143   3.520   4.189  11.017  2.3010 -1.0503  0.4693
    3MPD1     N14144   3.645   4.613  11.095 -0.3196 -0.7355  1.0419
    3MPD1    H514145   3.627   4.693  11.154 -2.6338  0.4113 -1.1876
    3MPD1    N114146   3.479   4.310  11.440  0.1743  0.3154  0.4687
    3MPD1    H614147   3.476   4.209  11.454  1.6043 -0.2058 -3.1486
    3MPD1    H714148   3.535   4.359  11.510  1.2330  0.1683 -0.2787
    4MPD2     C14149   3.796   0.405  11.383  0.2435  0.3213  0.0025
    4MPD2    C114150   3.876   0.394  11.498 -0.6147  0.5138 -0.2729
    4MPD2    C214151   4.000   0.449  11.500  0.3511 -0.1944 -0.6092
    4MPD2    C314152   4.053   0.520  11.395  0.5196  0.4045  0.1892
    4MPD2    C414153   3.971   0.538  11.287 -0.0510  0.2564  0.5270
    4MPD2    C514154   3.851   0.482  11.278  1.1463  1.0571  0.3513
    4MPD2     H14155   4.053   0.424  11.592 -1.0781  1.8551  0.7867
    4MPD2    H114156   4.019   0.583  11.200 -1.5307  0.0867 -0.3761
    4MPD2    H214157   3.694   0.370  11.382  0.2253  0.2136  2.9787
    4MPD2    H314158   3.793   0.492  11.187 -0.7053 -0.4757  1.3748
    4MPD2     N14159   4.183   0.579  11.390  0.3653  0.1338 -0.3644
    4MPD2    H514160   4.222   0.594  11.297 -0.3127 -2.6125 -1.1230
    4MPD2    N114161   3.832   0.315  11.610 -0.0172  0.0639  0.1728
    4MPD2    H714162   3.901   0.313  11.684 -0.3813  0.3758  0.5247
    5TMC3    C114163   3.737   0.158  11.739  0.0565 -0.4867 -0.0384
    5TMC3    C214164   3.691   0.029  11.728 -0.8451  0.5831 -0.0142
    5TMC3    C314165   3.768   4.656  11.777  0.0031 -0.2858  0.2423
    5TMC3    C414166   3.851   0.183  11.800 -0.2307  0.0056 -0.1257
    5TMC3    C514167   3.937   0.083  11.838 -0.3112  1.2335  0.1976
    5TMC3    C614168   3.895   4.676  11.826 -0.1648 -0.0955 -1.1089
    5TMC3     C14169   3.719   0.237  11.626  0.3650  0.0557 -0.2271
    5TMC3     O14170   3.636   0.195  11.549  0.0775 -0.9006  0.7191
    5TMC3     H14171   3.593   0.010  11.686 -0.5448 -0.2316 -0.3443
    5TMC3    H114172   3.863   0.279  11.848 -1.2390  0.7662 -1.4163
    5TMC3    H214173   3.956   4.592  11.857 -0.4355  0.9748  2.2928
    5TMC3    C714174   4.073   0.120  11.798  0.0305  0.0359 -0.3092
    5TMC3    C814175   3.721   4.519  11.780 -0.6329  0.4435  0.5743
    5TMC3    O114176   4.093   0.241  11.785 -0.1568 -0.2155 -0.6936
    5TMC3    O214177   3.806   4.429  11.791 -0.0501  0.4735  0.6615
    6TMC3    C114178   3.681   0.262  11.028 -0.3047  0.6362 -0.2361
    6TMC3    C214179   3.642   0.132  11.016 -0.4208 -1.2430 -0.2111
    6TMC3    C314180   3.723   0.052  10.949 -0.0912  0.1695 -0.2179
    6TMC3    C414181   3.791   0.308  10.962 -0.6131  0.0227  0.1096
    6TMC3    C514182   3.877   0.218  10.903 -0.0517 -0.6453  0.2083
    6TMC3    C614183   3.845   0.086  10.892 -0.3459 -0.6951 -0.3339
    6TMC3     C14184   3.591   0.362  11.076  0.1970  0.3780 -0.6242
    6TMC3     O14185   3.604   0.470  11.035 -0.0101  0.1215 -0.1144
    6TMC3     H14186   3.549   0.093  11.056 -0.6872  1.0513  1.3920
    6TMC3    H114187   3.809   0.413  10.944  2.9852 -0.7414 -0.7463
    6TMC3    H214188   3.908   0.010  10.846 -0.7374 -1.7859  0.9184
    6TMC3    C714189   4.015   0.262  10.923  0.6093 -0.1459  0.5173
    6TMC3    C814190   3.702   4.637  10.971  0.1411 -0.0828  0.6445
    6TMC3    O114191   4.033   0.371  10.973 -0.0584 -0.1413 -0.4835
    6TMC3    O214192   3.759   4.554  10.900  0.0504 -0.1541 -0.0993
    7MPD2     C14193   4.283   0.090  11.353 -0.6125 -0.1057 -0.7327
    7MPD2    C114194   4.330   0.161  11.458  0.1953  0.5565 -0.0154
    7MPD2    C214195   4.272   0.144  11.585  0.8586 -0.0149  0.1639
    7MPD2    C314196   4.186   0.035  11.601 -0.2172 -0.3407 -1.0203
    7MPD2    C414197   4.159   4.673  11.492 -0.2895  0.2811 -0.1923
    7MPD2    C514198   4.200   4.705  11.364 -0.8443 -0.6336 -0.5693
    7MPD2     H14199   4.288   0.212  11.668  0.7438  1.0255 -0.6689
    7MPD2    H114200   4.087   4.592  11.494  1.2807 -1.0933  1.2513
    7MPD2    H214201   4.327   0.113  11.256 -1.4921  1.8566 -0.6627
    7MPD2    H314202   4.173   4.640  11.282 -1.2042  0.3846 -1.2570
    7MPD2     N14203   4.114   0.018  11.718  0.3512  0.3394 -0.0629
    7MPD2    H514204   4.049   4.665  11.714  0.3635  0.2854  0.7377
    7MPD2    N114205   4.428   0.261  11.431 -0.5386 -0.2410  0.3362
    7MPD2    H714206   4.433   0.289  11.334 -0.4715 -1.4588 -0.0131
    8TMC3    C114207   4.549   0.445  11.479 -0.6619  0.2545  0.0841
    8TMC3    C214208   4.575   0.450  11.346  0.5293  0.0873 -0.1951
    8TMC3    C314209   4.513   0.543  11.265 -0.0643 -0.4820 -0.0353
    8TMC3    C414210   4.473   0.536  11.544 -0.7659 -0.0900 -0.5452
    8TMC3    C514211   4.406   0.624  11.462 -0.5828 -0.2604  1.3631
    8TMC3    C614212   4.436   0.634  11.329  0.4946 -0.3720  0.6437
    8TMC3     C14213   4.508   0.318  11.528  0.3541 -0.0253  1.0534
    8TMC3     O14214   4.521   0.297  11.650  0.3699 -0.1359  0.2010
    8TMC3     H14215   4.639   0.373  11.303  2.3191  0.8022  1.2145
    8TMC3    H114216   4.432   0.516  11.643  0.5779  0.0886  0.0529
    8TMC3    H214217   4.383   0.713  11.278  2.3672  0.1022 -0.5717
    8TMC3    C714218   4.267   0.593  11.502 -0.1554  0.3238 -0.3042
    8TMC3    C814219   4.436   0.479  11.154 -0.0479  0.0091 -0.3933
    8TMC3    O114220   4.232   0.587  11.620 -0.2904  0.2772  0.5219
    8TMC3    O214221   4.331   0.531  11.125  0.1608  0.2620 -0.1253
    9MPD2     C14222   4.508   0.136  11.026 -0.3497  0.0062 -0.7104
    9MPD2    C114223   4.432   0.251  11.048  0.1653 -0.0857 -0.1263
    9MPD2    C214224   4.302   0.262  11.009  0.7493 -0.1560  0.3534
    9MPD2    C314225   4.240   0.164  10.932 -0.6298  1.1230 -0.4100
    9MPD2    C414226   4.322   0.050  10.904 -0.3093  0.6956 -0.0613
    9MPD2    C514227   4.448   0.036  10.950 -0.0238 -0.0054  0.5671
    9MPD2     H14228   4.241   0.349  11.031  2.3438  0.5927  1.8490
    9MPD2    H114229   4.271   4.696  10.851 -0.2538  1.2667 -0.9762
    9MPD2    H214230   4.608   0.124  11.066 -0.8086 -2.2491 -0.2412
    9MPD2    H314231   4.500   4.668  10.933 -0.4772 -0.3179  0.9126
    9MPD2     N14232   4.105   0.162  10.898  0.3270  0.4982  0.9264
    9MPD2    H514233   4.072   0.074  10.860 -2.3794  1.7294  0.4082
    9MPD2    N114234   4.495   0.358  11.117 -0.0482  0.3254  0.8579
    9MPD2    H714235   4.594   0.342  11.134  0.0136 -2.4497 -2.1351
    1MPD1     C14236   2.211   3.923  16.646  0.5399  0.3102 -0.5051
    1MPD1    C114237   2.327   3.950  16.721 -0.3431 -0.6324 -0.3115
    1MPD1    C214238   2.445   3.931  16.655  0.1243 -0.0104  0.7250
    1MPD1    C314239   2.459   3.869  16.530 -0.0234  0.3374  0.4807
    1MPD1    C414240   2.338   3.834  16.464  0.0085  0.4188  0.2234
    1MPD1    C514241   2.217   3.870  16.517 -0.0304 -0.1953  0.0041
    1MPD1     H14242   2.531   3.960  16.714 -1.4415  3.0608  1.4601
    1MPD1    H114243   2.343   3.777  16.372  0.4155  1.9684 -0.7078
    1MPD1    H214244   2.115   3.948  16.689  0.5724  0.5491 -0.5668
    1MPD1    H314245   2.130   3.871  16.451 -0.2213  3.5847  0.3491
    1MPD1     N14246   2.582   3.823  16.470  0.2904  0.1535 -0.0891
    1MPD1    H514247   2.579   3.789  16.374 -0.7306  0.2381 -0.0882
    1MPD1    N114248   2.318   4.020  16.839 -0.6565  0.1729 -0.2899
    1MPD1    H614249   2.244   3.988  16.902  0.9469 -0.3308  1.3365
    1MPD1    H714250   2.396   3.996  16.900 -0.0004  0.6093 -0.9588
    2MPD1     C14251   3.550   3.329  16.453  0.6128  0.3874 -0.3464
    2MPD1    C114252   3.529   3.393  16.330 -0.5358  0.4255  0.1851
    2MPD1    C214253   3.420   3.483  16.326  0.3041 -0.4060 -0.5997
    2MPD1    C314254   3.316   3.478  16.419  0.3492 -0.4561 -0.1285
    2MPD1    C414255   3.333   3.406  16.535  0.0388 -1.1435 -0.5373
    2MPD1    C514256   3.454   3.338  16.543 -0.0943 -0.0843  1.0660
    2MPD1     H14257   3.409   3.539  16.234  0.9760  0.6335 -0.0423
    2MPD1    H114258   3.258   3.389  16.611  2.0933  0.5099  1.8797
    2MPD1    H214259   3.644   3.281  16.479  0.1323 -0.4392 -0.1352
    2MPD1    H314260   3.479   3.287  16.636  2.4006  1.2526  1.1249
    2MPD1     N14261   3.201   3.557  16.392  0.1720  0.3255  0.2598
    2MPD1    H514262   3.201   3.614  16.308 -1.1217 -1.0870 -0.6795
    2MPD1    N114263   3.639   3.419  16.243 -0.2640  0.1905 -0.3741
    2MPD1    H614264   3.697   3.335  16.253  0.6317  0.6897 -1.4715
    2MPD1    H714265   3.619   3.439  16.146 -0.3514  1.2629 -0.1288
    3TCq2    C114266   3.084   3.533  16.455 -0.1987  0.3096  0.2895
    3TCq2    O214267   3.057   3.462  16.552 -0.2519  0.0677 -0.4842
    3TCq2    C214268   2.983   3.632  16.409  0.3584  0.4100  0.3701
    3TCq2    C314269   2.973   3.657  16.275 -0.5258 -0.2759 -0.2521
    3TCq2    C414270   2.873   3.740  16.233 -0.3414  0.8877 -1.0579
    3TCq2    C514271   2.788   3.807  16.316 -0.2587  0.1541 -0.3579
    3TCq2    C614272   2.801   3.784  16.450 -0.7327  0.1029 -0.2818
    3TCq2    C714273   2.893   3.692  16.503 -0.5574  0.4121  0.0936
    3TCq2    C814274   2.701   3.828  16.535  0.6994 -0.6970  0.1383
    3TCq2    O414275   2.728   3.832  16.655 -0.6712 -0.4264  0.1747
    3TCq2    C914276   2.880   3.786  16.098  0.0624 -0.1815 -0.1222
    3TCq2    O514277   2.829   3.900  16.068  0.2498  0.1533  0.1416
    3TCq2    O614278   2.965   3.730  16.023  0.2250 -0.0008 -0.0408
    3TCq2    H214279   3.052   3.625  16.208  0.4247  0.9510  0.2732
    3TCq2    H314280   2.728   3.889  16.279  0.0521 -0.1457 -1.5398
    3TCq2    H414281   2.894   3.665  16.608  3.0179  1.2909  0.2817
    1TCq1    O114282   1.094   2.695  12.159 -0.2717 -0.1624  0.2050
    1TCq1    C114283   1.033   2.615  12.242  0.4372 -0.1266  1.3987
    1TCq1    O214284   0.911   2.595  12.245 -0.1744  0.1587 -0.2176
    1TCq1    C214285   1.116   2.599  12.357 -0.3373 -0.8454 -0.3274
    1TCq1    C314286   1.052   2.596  12.473  0.1116 -0.6179  0.5635
    1TCq1    C414287   1.124   2.570  12.588 -0.2326  0.8576  0.1920
    1TCq1    C514288   1.258   2.543  12.589  0.0053 -0.2566  1.0000
    1TCq1    C614289   1.317   2.536  12.464 -0.5091  0.1744  0.3001
    1TCq1    C714290   1.244   2.557  12.347  0.0872  1.0701 -0.2058
    1TCq1    C814291   1.462   2.541  12.444  0.9573  0.0884 -0.4846
    1TCq1    O414292   1.513   2.501  12.341 -0.7653  0.1521  0.1729
    1TCq1    C914293   1.058   2.585  12.714 -0.1069 -0.0303 -0.5338
    1TCq1    O514294   1.132   2.565  12.816  0.1084 -0.4699 -0.3437
    1TCq1    O614295   0.941   2.628  12.709 -0.4374 -0.6199  0.7135
    1TCq1    H114296   1.184   2.726  12.185  0.7665 -1.5001 -1.7101
    1TCq1    H214297   0.951   2.635  12.472  0.2050 -0.3090  2.5808
    1TCq1    H314298   1.318   2.512  12.674  1.3831 -0.4127 -0.0082
    1TCq1    H414299   1.283   2.548  12.246  1.5067  2.6267  0.1940
    2MPD2     C14300   1.756   2.609  12.487  0.2801  0.0881 -0.1934
    2MPD2    C114301   1.657   2.618  12.579 -0.4180  0.3397  0.3573
    2MPD2    C214302   1.691   2.664  12.701 -0.0625  0.2545 -0.1873
    2MPD2    C314303   1.824   2.689  12.741 -0.3797  0.5294  0.0806
    2MPD2    C414304   1.923   2.677  12.648  0.2841 -1.0946 -0.2830
    2MPD2    C514305   1.885   2.636  12.523 -0.4688  1.0025  0.0362
    2MPD2     H14306   1.613   2.689  12.772 -0.8414 -1.1750 -0.5279
    2MPD2    H114307   2.027   2.697  12.672 -0.5752  1.4833  1.2580
    2MPD2    H214308   1.732   2.592  12.383 -1.8488 -1.7608  0.5926
    2MPD2    H314309   1.964   2.634  12.449 -0.4404 -1.2409  0.1052
    2MPD2     N14310   1.853   2.730  12.876  0.1967  0.0670  0.0475
    2MPD2    H514311   1.783   2.708  12.947 -0.8362  2.0808 -0.3227
    2MPD2    N114312   1.518   2.595  12.556 -0.0697 -0.2154 -0.1071
    2MPD2    H714313   1.458   2.633  12.628 -0.6354  0.8058 -1.1322
    3TCq1    O114314   1.804   2.683  13.482 -0.4302 -0.3252  0.0309
    3TCq1    C114315   1.770   2.701  13.354  0.0103  0.1433  0.3763
    3TCq1    O214316   1.665   2.676  13.303  0.1117 -0.2668  0.1337
    3TCq1    C214317   1.886   2.747  13.285 -0.4131 -0.5506  0.3132
    3TCq1    C314318   1.957   2.847  13.347  0.2709  0.0624 -0.1857
    3TCq1    C414319   2.038   2.911  13.260 -0.1803  0.5030  0.0828
    3TCq1    C514320   2.044   2.889  13.125  0.4848  0.0484 -0.1620
    3TCq1    C614321   1.971   2.789  13.073  0.2798 -0.2245  0.1822
    3TCq1    C714322   1.892   2.715  13.154  0.5055  0.9690 -0.2035
    3TCq1    C814323   1.974   2.777  12.925 -0.0552  0.0103  0.5360
    3TCq1    O414324   2.076   2.816  12.866  0.2635  0.4389  0.5008
    3TCq1    C914325   2.114   3.023  13.315 -0.6116 -0.3120  0.4121
    3TCq1    O514326   2.163   3.104  13.233  0.6916  0.3612 -0.8715
    3TCq1    O614327   2.135   3.019  13.434 -0.2468  0.2177  0.1772
    3TCq1    H114328   1.897   2.708  13.501 -1.2526  3.6742 -1.1600
    3TCq1    H214329   1.947   2.874  13.451 -2.4091  0.2716 -0.5065
    3TCq1    H314330   2.092   2.959  13.057  1.1472  0.8994  1.1801
    3TCq1    H414331   1.839   2.630  13.114  1.3287  0.1770  0.3832
    1MPD2     C14332   0.125   3.946  14.527 -0.4623 -0.0640  0.3515
    1MPD2    C114333   0.127   3.932  14.666  0.2276 -0.0998  0.0963
    1MPD2    C214334   0.173   3.810  14.711  0.1704 -0.3901  0.3899
    1MPD2    C314335   0.223   3.711  14.628 -0.4313 -0.0079 -0.3955
    1MPD2    C414336   0.219   3.728  14.492  0.0268 -0.0144  0.6411
    1MPD2    C514337   0.159   3.842  14.442  0.6273  0.6461  0.1595
    1MPD2     H14338   0.174   3.792  14.818 -0.5885  0.5751  0.5636
    1MPD2    H114339   0.271   3.675  14.413  0.0732 -1.7444  1.8182
    1MPD2    H214340   0.085   4.034  14.478 -0.5559 -0.9002 -1.0810
    1MPD2    H314341   0.147   3.853  14.335  1.1577 -2.1729 -0.1889
    1MPD2     N14342   0.294   3.621  14.701 -0.2804 -0.3341 -0.4098
    1MPD2    H514343   0.289   3.632  14.802 -1.2047 -0.4294 -0.4439
    1MPD2    N114344   0.078   4.034  14.749  0.2660 -0.2115 -0.0777
    1MPD2    H714345   0.027   4.111  14.705  0.3141 -0.2162 -0.1422
    2TMC3    C114346   0.058   4.167  14.946 -0.0843 -0.0230 -0.3199
    2TMC3    C214347   0.066   4.153  15.084  0.4263 -0.4176  0.0117
    2TMC3    C314348   0.142   4.243  15.158 -0.2020  0.4247 -0.1834
    2TMC3    C414349   0.114   4.265  14.881  0.2275  0.7610 -0.1979
    2TMC3    C514350   0.209   4.330  14.952  0.2791 -0.3588  0.0339
    2TMC3    C614351   0.228   4.320  15.087 -0.0813 -0.4126  0.3126
    2TMC3     C14352   0.078   4.034  14.883 -0.1645 -0.2457 -0.5138
    2TMC3     O14353   0.113   3.946  14.964 -0.2149  0.0044  0.4318
    2TMC3     H14354   4.725   4.086  15.139 -0.1749 -0.7122 -1.0719
    2TMC3    H114355   0.106   4.271  14.773  1.0926  4.2663 -0.0669
    2TMC3    H214356   0.302   4.376  15.143  0.3776 -1.5612  0.8509
    2TMC3    C714357   0.303   4.415  14.871 -0.5293  0.6694  0.5860
    2TMC3    C814358   0.211   4.177  15.265  0.0687  0.3319  0.2492
    2TMC3    O114359   0.305   4.401  14.754 -0.1153 -0.9146  0.2223
    2TMC3    O214360   0.289   4.238  15.332  0.2754  0.0099 -0.5446
    3TCq1    O114361   0.837   0.754  15.131 -0.2317 -0.1776  0.1422
    3TCq1    C114362   0.714   0.753  15.182  0.2040  0.2660 -0.4091
    3TCq1    O214363   0.656   0.838  15.244  0.0162 -0.6369  1.0816
    3TCq1    C214364   0.667   0.613  15.204  0.2708 -0.3683 -0.0370
    3TCq1    C314365   0.613   0.584  15.325  0.4996 -0.1171 -0.7495
    3TCq1    C414366   0.588   0.453  15.347 -0.3601 -0.3981 -0.2021
    3TCq1    C514367   0.616   0.351  15.261  0.0516 -0.4947 -0.5679
    3TCq1    C614368   0.679   0.380  15.142  0.7122 -0.4727 -0.7495
    3TCq1    C714369   0.702   0.512  15.114 -0.1011  0.1808  0.7111
    3TCq1    C814370   0.699   0.279  15.033 -0.0159  0.1842 -0.2380
    3TCq1    O414371   0.748   0.318  14.928  0.0718  0.0563  0.5781
    3TCq1    C914372   0.544   0.409  15.477 -0.4537 -0.7895 -0.2325
    3TCq1    O514373   0.502   0.497  15.557 -0.0194  0.4108 -0.0440
    3TCq1    O614374   0.525   0.285  15.493 -0.5318  0.7210  0.0469
    3TCq1    H114375   0.872   0.664  15.111  1.1051  0.6023 -1.0395
    3TCq1    H214376   0.601   0.656  15.406 -0.3024  0.8184 -1.6950
    3TCq1    H314377   0.607   0.246  15.288 -0.2796  0.2164  2.0837
    3TCq1    H414378   0.732   0.547  15.016 -0.0095 -1.4127  0.1749
    4MPD2     C14379   0.621   0.088  14.821 -0.2487 -0.0629 -0.1936
    4MPD2    C114380   0.592   0.072  14.958  1.2562 -0.0574  0.4450
    4MPD2    C214381   0.495   4.701  14.989 -0.0016  0.9423 -0.1248
    4MPD2    C314382   0.443   4.614  14.896 -0.6436 -0.2456  0.4560
    4MPD2    C414383   0.483   4.631  14.762 -0.4502  1.0701  0.1720
    4MPD2    C514384   0.569   0.003  14.728  0.4281  0.4938  0.1247
    4MPD2     H14385   0.469   4.694  15.094  1.6359 -0.6428  0.1741
    4MPD2    H114386   0.454   4.565  14.681  2.1180 -0.7520  0.7457
    4MPD2    H214387   0.687   0.163  14.779 -0.3097 -0.4526 -0.9906
    4MPD2    H314388   0.604   0.018  14.626 -0.5696 -3.0581 -0.7164
    4MPD2     N14389   0.353   4.517  14.941 -0.1661  0.2957 -0.1035
    4MPD2    H514390   0.330   4.522  15.040  4.5400 -0.7328  1.0612
    4MPD2    N114391   0.634   0.161  15.058 -0.3573 -0.2013  0.2158
    4MPD2    H714392   0.598   0.143  15.151 -2.7841  1.3057 -0.4159
    5TMC2    C114393   0.408   3.455  15.001 -0.5822  0.3373  0.3059
    5TMC2    C214394   0.541   3.432  14.997 -0.2836 -0.8505 -0.0172
    5TMC2    C314395   0.605   3.402  14.880 -0.0095  0.1954 -0.2221
    5TMC2    C414396   0.339   3.449  14.885  0.3372 -1.0951 -0.7161
    5TMC2    C514397   0.405   3.431  14.763 -0.3281 -0.0311 -0.7698
    5TMC2    C614398   0.538   3.401  14.756  0.3142  0.6073 -0.2408
    5TMC2     C14399   0.372   3.585  15.047  0.1357  0.2591  0.3601
    5TMC2     O14400   0.284   3.651  14.990 -0.1336 -0.2293  0.2921
    5TMC2     H14401   0.597   3.432  15.090  0.8333  0.1122 -0.6842
    5TMC2    H114402   0.232   3.460  14.890  0.3436 -1.4669  0.1525
    5TMC2    H214403   0.590   3.391  14.661 -1.0054 -1.6523 -0.7255
    5TMC2    C714404   0.359   3.511  14.652  0.2421  0.1508  0.7223
    5TMC2    C814405   0.748   3.382  14.872  0.1429 -1.2222 -0.1389
    5TMC2    O114406   0.412   3.496  14.543  0.3518 -0.8599 -0.2099
    5TMC2    O214407   0.796   3.329  14.772 -0.2099  0.2227  0.3769
    5TMC2    O514408   0.799   3.368  14.995  0.2034  0.8009  0.4976
    5TMC2    H514409   0.746   3.420  15.059  2.4937  0.2317  2.8815
    6MPD2     C14410   0.400   3.970  15.393 -0.3622 -0.0414 -0.3474
    6MPD2    C114411   0.319   3.953  15.285  0.7267 -0.7273  0.3463
    6MPD2    C214412   0.330   3.838  15.212 -0.5818 -0.1188 -0.3977
    6MPD2    C314413   0.426   3.740  15.241  0.0801  0.1044  0.1467
    6MPD2    C414414   0.516   3.767  15.343 -0.4758 -0.2486  0.2746
    6MPD2    C514415   0.499   3.882  15.422 -0.7231  0.5180  0.1074
    6MPD2     H14416   0.265   3.824  15.126  0.9710  1.0402 -1.7405
    6MPD2    H114417   0.593   3.695  15.369 -1.3298 -1.4589 -0.5456
    6MPD2    H214418   0.411   4.066  15.443 -0.8845 -1.5446  2.6404
    6MPD2    H314419   0.562   3.898  15.509  0.3852  0.0735 -0.6176
    6MPD2     N14420   0.447   3.622  15.160  0.0250 -0.0791 -0.3851
    6MPD2    H514421   0.525   3.565  15.192 -0.4953 -1.0449 -0.8148
    6MPD2    N114422   0.227   4.044  15.232 -0.0944 -0.3313  0.0806
    6MPD2    H714423   0.175   4.017  15.149  0.1898  1.0726 -0.5658
  945NH3     N114424   4.167   3.336  16.536 -0.4158 -0.6876  0.1214
  945NH3     H214425   4.123   3.248  16.513  1.3405 -1.7293  0.8110
  945NH3     H314426   4.087   3.398  16.544 -1.3695 -1.7160 -1.5529
  945NH3     H414427   4.199   3.361  16.443 -0.4674  0.2046  0.3385
  946SOD     NA14428   0.260   1.685  15.262  0.4564  0.0490 -0.3643
  947SOD     NA14429   3.720   3.437  17.152  0.5821  0.1439  0.1307
  948SOD     NA14430   4.083   1.208   1.166 -0.0881  0.0312  0.1990
  949SOD     NA14431   0.990   2.549  12.990  0.1242 -0.1820  0.4399
  950SOD     NA14432   2.614   0.455   2.347  0.1690  0.1240 -0.3195
  951SOD     NA14433   1.091   1.889   9.768  0.8122 -0.2639  0.4636
  952SOD     NA14434   0.667   2.282  11.443 -0.1452 -0.0453 -0.4021
  953SOD     NA14435   0.936   2.655  10.354  0.2233  0.4454 -0.1163
  954SOD     NA14436   2.934   2.592  11.358  0.8448  0.6263  0.0026
  955SOD     NA14437   3.637   3.523  15.125 -0.4670 -0.0278 -0.3794
  956SOD     NA14438   2.528   3.672  16.979 -0.0913 -0.4143  0.1538
  957SOD     NA14439   1.787   4.237   9.692 -0.3418 -0.1760  0.5307
  958SOD     NA14440   0.745   1.866   7.960 -0.2778 -0.1370 -0.3829
  959SOD     NA14441   2.556   2.478  14.177 -0.1937 -0.3125 -0.7198
  960SOD     NA14442   3.755   0.786   4.220  0.3006  0.6775  0.0270
  961SOD     NA14443   2.281   4.680  10.685  0.3081 -0.3897 -0.6303
  962SOD     NA14444   2.775   2.812  11.057  0.2882 -0.5606  0.3854
  963SOD     NA14445   0.689   2.287  10.588 -0.5613 -0.2982 -0.2294
  964SOD     NA14446   1.092   3.434   9.281 -0.2213 -0.7212  0.1233
  965SOD     NA14447   2.806   2.846  14.629  0.1930  0.1649 -0.1991
  966SOD     NA14448   0.798   3.777  14.668 -0.1374 -0.0162  0.4404
  967SOD     NA14449   2.118   2.676  11.571 -0.2272 -0.1792  0.0090
  968SOD     NA14450   4.390   4.127   2.573  0.1264 -0.3172  0.1081
  969SOD     NA14451   2.109   1.778  12.650  0.1488  0.2869  0.1378
  970SOD     NA14452   2.034   2.437   1.757  0.4967  0.5336  0.1185
  971SOD     NA14453   3.775   0.707  15.548 -0.2502 -0.2450  0.0435
  972SOD     NA14454   3.484   3.998  12.757  0.2496  0.5506 -0.6822
  973SOD     NA14455   0.712   3.800   2.369 -0.0579 -0.0071  0.8850
  974SOD     NA14456   2.899   3.093  15.001 -0.1491 -0.3096  0.0139
  975SOD     NA14457   1.906   4.531   5.941 -0.1651 -0.0091  0.1439
  976SOD     NA14458   2.089   2.803  11.880 -0.3384  0.3455 -0.2711
  977SOD     NA14459   2.782   3.713  13.241 -0.1454  0.0308 -0.3635
  978SOD     NA14460   2.797   2.742  17.274  0.2455 -0.2603  0.2631
  979SOD     NA14461   2.302   3.207  13.362  0.0463  0.0198  0.3484
  980SOD     NA14462   1.893   4.369   2.087  0.0078  0.3925  0.2376
  981SOD     NA14463   4.457   4.192   1.469 -0.0752  0.7824  0.4866
  982SOD     NA14464   4.037   2.874   0.195 -0.0934 -0.1790  0.4362
  983SOD     NA14465   2.828   1.361  16.542 -0.0394  0.0510  0.4975
  984SOD     NA14466   4.420   2.227  11.931  0.2860  0.1801  0.0626
  985SOD     NA14467   0.947   2.343  10.443 -0.2493  0.5476 -0.2523
  986SOD     NA14468   1.131   1.456   6.071  0.2483  0.0002 -0.1835
  987SOD     NA14469   0.085   3.841   5.215  0.0217  0.1171 -0.5420
  988SOD     NA14470   3.566   1.113  17.480  0.4836  0.3253  0.0089
  989SOD     NA14471   2.184   1.897   0.202  0.4006 -0.5017  0.3104
  990SOD     NA14472   3.264   2.173   8.525 -0.0344 -0.1328 -0.3392
  991SOD     NA14473   2.945   3.758  15.594  0.0689  0.6248  0.0598
  992SOD     NA14474   3.539   1.775  12.868 -0.5764  0.3740  0.2243
  993SOD     NA14475   3.816   1.098  11.148  0.3067  0.0611  0.1197
  994SOD     NA14476   2.359   3.785  11.798  0.3321  0.2610 -0.2930
  995SOD     NA14477   1.452   2.297  15.081  0.6458 -0.1494  0.4282
  996SOD     NA14478   1.072   2.535  10.148  0.2086  0.2435  0.1026
  997SOD     NA14479   0.432   4.089  11.099  0.5675 -0.4161  0.1528
  998SOD     NA14480   1.636   2.952   9.779 -0.3822 -0.6531  0.3384
  999SOD     NA14481   2.583   4.572   0.628  0.5414 -0.0020  0.1588
 1000SOD     NA14482   0.563   0.215   0.442  0.1129 -1.2455  0.1448
 1001SOD     NA14483   0.200   1.944  14.260 -0.0824 -0.1651 -0.2562
 1002SOD     NA14484   3.411   1.895  13.514  0.5953 -0.2618 -0.5061
 1003SOD     NA14485   1.397   2.208   9.233  0.0442 -0.0950  0.3187
 1004SOD     NA14486   0.342   2.202  12.894  0.2864  0.0233 -0.4879
 1005SOD     NA14487   0.786   0.169  13.062  0.1841  0.0384 -0.0938
 1006SOD     NA14488   1.146   2.203  10.603 -0.2588  0.3191  0.2689
 1007SOD     NA14489   4.258   3.058   2.439  0.3043  0.0453  0.4116
 1008SOD     NA14490   2.573   2.614  14.495 -0.1648  0.1362 -0.0388
 1009SOD     NA14491   0.502   4.289  14.606  0.0726 -0.0095 -0.9126
 1010SOD     NA14492   0.103   0.605   9.746  0.3710 -0.1570 -0.4022
 1011SOD     NA14493   0.758   4.222  10.972 -0.0346  0.8479  0.1834
 1012SOL     OW14494   3.468   0.258   8.190  0.1258  0.2994  0.5421
 1012SOL    HW114495   3.427   0.175   8.212  1.8375  0.1029  3.0213
 1012SOL    HW214496   3.449   0.264   8.096  0.0169 -1.5068  0.4523
 1013SOL     OW14497   3.048   2.340   9.075  0.3377 -0.0250 -0.1302
 1013SOL    HW114498   3.066   2.326   9.168 -0.1970 -1.7116 -0.2860
 1013SOL    HW214499   2.963   2.382   9.084 -0.2857 -1.1556 -0.7176
 1014SOL     OW14500   2.829   2.582   5.372  0.6537 -0.8956 -0.3463
 1014SOL    HW114501   2.756   2.558   5.316 -0.1741  0.3912  0.1818
 1014SOL    HW214502   2.855   2.667   5.336  1.9375 -0.6849  1.0786
 1015SOL     OW14503   1.026   2.823  10.447 -0.4649  0.0218 -0.3545
 1015SOL    HW114504   1.077   2.898  10.416 -0.5025  0.6121  0.9873
 1015SOL    HW214505   0.994   2.877  10.520 -0.0204  0.2271 -0.3099
 1016SOL     OW14506   0.712   1.741   6.436  0.0306 -0.2953  0.0693
 1016SOL    HW114507   0.620   1.768   6.437  0.6415  1.7608  1.1898
 1016SOL    HW214508   0.724   1.681   6.509  0.8750  1.0777  1.0654
 1017SOL     OW14509   3.828   3.557   5.970  0.0815  0.3203  0.9261
 1017SOL    HW114510   3.866   3.470   5.980  1.2423  0.6761 -0.3813
 1017SOL    HW214511   3.838   3.587   6.061  1.5189 -0.2181  0.9461
 1018SOL     OW14512   3.225   3.333   7.971  0.0356  0.0487 -0.2620
 1018SOL    HW114513   3.303   3.386   7.955  0.9367 -0.8020  1.2577
 1018SOL    HW214514   3.160   3.388   7.926  1.1126  0.6095 -1.1104
 1019SOL     OW14515   2.104   1.461  16.158 -0.1158  0.6337  0.0927
 1019SOL    HW114516   2.144   1.531  16.105  0.4954 -0.0724 -0.3858
 1019SOL    HW214517   2.092   1.515  16.236  2.0517  0.2004  0.7341
 1020SOL     OW14518   2.930   3.685   5.798 -0.6255  0.0463  0.1912
 1020SOL    HW114519   2.920   3.622   5.869  0.5113 -0.6624 -0.2643
 1020SOL    HW214520   3.023   3.707   5.797 -0.6187  0.0191  0.2905
 1021SOL     OW14521   0.762   0.990  11.285 -0.2048  0.1983 -0.2759
 1021SOL    HW114522   0.830   1.051  11.260  1.1185 -0.7755  0.9396
 1021SOL    HW214523   0.819   0.925  11.326  0.3663 -0.8474 -2.7428
 1022SOL     OW14524   2.366   1.488   8.866  0.0433 -0.5997 -0.3315
 1022SOL    HW114525   2.423   1.549   8.820  0.0676  1.5491  2.5812
 1022SOL    HW214526   2.390   1.501   8.957 -0.2381 -0.5711 -0.2604
 1023SOL     OW14527   2.506   2.174   4.104  0.8245 -0.1347  0.0396
 1023SOL    HW114528   2.441   2.229   4.060  2.6843  0.0579 -2.4606
 1023SOL    HW214529   2.582   2.231   4.109  1.9844 -1.6540 -0.0866
 1024SOL     OW14530   0.527   2.874   4.163  0.2231  0.1094  0.5810
 1024SOL    HW114531   0.441   2.838   4.140  0.7605 -0.3275 -0.7371
 1024SOL    HW214532   0.579   2.821   4.104  0.2749 -0.6449  1.2965
 1025SOL     OW14533   1.451   3.812   3.441 -0.1228  0.1688 -0.5779
 1025SOL    HW114534   1.529   3.865   3.426  0.1650 -0.8105 -2.6621
 1025SOL    HW214535   1.488   3.742   3.495 -0.4459 -1.6013 -2.6514
 1026SOL     OW14536   1.025   2.785   5.814  0.4078 -0.0261  0.1448
 1026SOL    HW114537   0.967   2.821   5.746 -0.5299  0.4098  1.1711
 1026SOL    HW214538   1.022   2.695   5.781  0.7125 -0.3139  0.8916
 1027SOL     OW14539   2.845   1.591   6.005  0.0895  0.1946 -0.5966
 1027SOL    HW114540   2.769   1.636   6.042 -0.0036 -0.3206 -0.1660
 1027SOL    HW214541   2.878   1.541   6.079 -1.0539 -0.3744 -0.4710
 1028SOL     OW14542   3.303   3.904   2.649 -0.2842  0.1606 -0.0284
 1028SOL    HW114543   3.217   3.917   2.608 -0.1139  2.3038  0.3147
 1028SOL    HW214544   3.319   3.989   2.690  0.4507 -1.1542  2.3933
 1029SOL     OW14545   3.828   4.626   4.223 -0.1416  0.0937 -0.0347
 1029SOL    HW114546   3.911   4.581   4.242 -0.0989 -0.1829 -0.8957
 1029SOL    HW214547   3.828   4.695   4.289  4.3181  0.6687 -0.5872
 1030SOL     OW14548   4.344   2.636   1.748  0.3362 -0.0766  0.3017
 1030SOL    HW114549   4.388   2.690   1.815 -0.3443  1.8436 -0.8095
 1030SOL    HW214550   4.405   2.563   1.732  1.3637  0.8076  0.1426
 1031SOL     OW14551   0.850   1.364   7.215 -0.1177  0.2085 -0.1431
 1031SOL    HW114552   0.868   1.413   7.134 -0.7057  0.1831 -0.2869
 1031SOL    HW214553   0.868   1.270   7.209 -0.6229  0.0731  0.5124
 1032SOL     OW14554   1.959   3.846   2.622  0.4540 -0.4197  0.1145
 1032SOL    HW114555   2.016   3.858   2.698  0.2675 -0.1730  0.2158
 1032SOL    HW214556   1.933   3.934   2.596 -0.9183 -1.1066 -0.8331
 1033SOL     OW14557   4.145   1.200   9.003 -0.4211 -0.3313  0.8663
 1033SOL    HW114558   4.189   1.281   8.977 -1.3105 -0.4028 -0.8790
 1033SOL    HW214559   4.204   1.131   8.973  0.8172  1.0960  0.0241
 1034SOL     OW14560   1.292   3.076   7.575 -0.6813 -0.2134  0.3151
 1034SOL    HW114561   1.228   3.146   7.586 -0.2422  0.2063  0.1915
 1034SOL    HW214562   1.269   3.042   7.662 -1.5260  0.8995  0.5313
 1035SOL     OW14563   1.580   0.224  11.028 -0.0087 -0.1603  0.1762
 1035SOL    HW114564   1.507   0.164  11.043  0.7375 -1.3647 -0.9497
 1035SOL    HW214565   1.570   0.272  11.110 -0.5790  1.9823 -1.1393
 1036SOL     OW14566   2.665   3.325  12.760 -0.0160  0.3073  0.0635
 1036SOL    HW114567   2.732   3.383  12.724 -1.5644  1.6270 -0.6647
 1036SOL    HW214568   2.652   3.260  12.691 -1.6910  0.5103  0.1928
 1037SOL     OW14569   1.735   4.442   1.625 -0.0783 -0.6466  0.0134
 1037SOL    HW114570   1.735   4.533   1.596 -1.6765  0.1804  2.6430
 1037SOL    HW214571   1.774   4.397   1.550  0.1939 -0.8477  0.2746
 1038SOL     OW14572   0.039   1.257   5.270 -0.2246  0.1841 -0.3762
 1038SOL    HW114573   0.001   1.186   5.219  0.9360  0.4301 -1.5822
 1038SOL    HW214574   4.685   1.308   5.286  0.6739  1.1729  0.9212
 1039SOL     OW14575   1.970   3.673  12.557  0.3943 -0.5680 -0.3112
 1039SOL    HW114576   1.951   3.705  12.468  1.2759  0.2765 -0.2014
 1039SOL    HW214577   1.888   3.629  12.577  0.2725 -0.5617 -0.7802
 1040SOL     OW14578   4.122   0.348   2.919 -0.1748 -0.5037  0.0454
 1040SOL    HW114579   4.027   0.333   2.920 -0.6189  2.2893  1.3081
 1040SOL    HW214580   4.140   0.388   2.834 -2.3983  2.6624  1.0699
 1041SOL     OW14581   3.989   3.239  12.518  0.1132  0.1919 -0.3573
 1041SOL    HW114582   4.057   3.263  12.580 -1.3593  0.4832  1.1534
 1041SOL    HW214583   3.907   3.231  12.568 -0.4541  1.6241 -1.0535
 1042SOL     OW14584   1.071   4.546  12.605  0.2825 -0.0475  0.5743
 1042SOL    HW114585   1.036   4.544  12.515  1.5127  0.7308  0.0731
 1042SOL    HW214586   1.066   4.641  12.617  1.2402  0.2671 -1.5506
 1043SOL     OW14587   3.746   4.067   8.396 -0.4287  0.0483  0.3630
 1043SOL    HW114588   3.819   4.018   8.433  1.3085  2.2449 -0.1570
 1043SOL    HW214589   3.785   4.129   8.335 -0.6540 -0.4970 -0.3239
 1044SOL     OW14590   0.770   2.824   3.004 -0.2765  0.2134  0.1236
 1044SOL    HW114591   0.709   2.775   2.949  0.2994  1.0827 -1.2800
 1044SOL    HW214592   0.849   2.831   2.950 -1.1726  0.4313 -1.1482
 1045SOL     OW14593   1.766   0.244   3.852 -0.2363  0.2681  0.4836
 1045SOL    HW114594   1.739   0.289   3.772  2.8797 -0.3708 -0.9235
 1045SOL    HW214595   1.846   0.296   3.862 -0.1360  0.2556 -0.2325
 1046SOL     OW14596   2.049   0.135  13.257 -0.1800 -0.6334 -0.4910
 1046SOL    HW114597   2.128   0.174  13.295 -0.6970  1.6929 -1.8071
 1046SOL    HW214598   2.079   0.044  13.248  0.9669 -0.5489  2.3659
 1047SOL     OW14599   1.996   2.715  12.066 -0.0845  0.3663  0.1100
 1047SOL    HW114600   1.920   2.750  12.113 -0.4654 -0.0912 -0.1638
 1047SOL    HW214601   2.057   2.683  12.132 -1.6557  0.9314  1.8435
 1048SOL     OW14602   4.259   4.580   4.302  0.3500  0.2854  0.1706
 1048SOL    HW114603   4.227   4.642   4.237  0.4884 -1.6068 -1.6852
 1048SOL    HW214604   4.223   4.616   4.383 -0.9382  0.8109 -0.6328
 1049SOL     OW14605   0.497   1.950   9.349  0.2187 -0.3964  0.2776
 1049SOL    HW114606   0.519   1.860   9.325  0.1767 -0.3026 -0.1188
 1049SOL    HW214607   0.471   1.985   9.264 -0.1099  1.0283  0.9773
 1050SOL     OW14608   4.700   1.656  13.964 -0.8670  0.0522 -0.1351
 1050SOL    HW114609   4.641   1.642  14.038  0.1112 -1.9814  0.2600
 1050SOL    HW214610   4.650   1.598  13.905 -1.9281 -0.2529  1.0637
 1051SOL     OW14611   3.542   4.090   2.249 -0.3835  0.0049 -0.5756
 1051SOL    HW114612   3.521   4.007   2.207  0.3806  0.0763 -1.1046
 1051SOL    HW214613   3.558   4.140   2.169 -1.4563 -0.2212 -0.9303
 1052SOL     OW14614   3.716   1.831   9.341  0.6209  0.5827  0.4632
 1052SOL    HW114615   3.784   1.807   9.278 -0.0897 -2.2666  0.7926
 1052SOL    HW214616   3.764   1.820   9.424 -1.4940  0.5410  1.6737
 1053SOL     OW14617   0.191   2.342   2.948 -0.0377  0.1576  0.0915
 1053SOL    HW114618   0.151   2.258   2.970 -0.0993  0.7361  2.2234
 1053SOL    HW214619   0.241   2.312   2.872 -0.7008  0.1598 -0.3387
 1054SOL     OW14620   4.249   1.374   3.664 -0.7778  0.1824  0.1161
 1054SOL    HW114621   4.201   1.359   3.582  0.3937  1.3676 -0.7895
 1054SOL    HW214622   4.183   1.353   3.730 -0.1933 -2.7282 -0.2222
 1055SOL     OW14623   1.357   2.967  11.825 -0.0842 -0.0549 -0.1276
 1055SOL    HW114624   1.273   2.923  11.814  0.7107 -1.4148 -0.8432
 1055SOL    HW214625   1.404   2.922  11.754 -2.8772 -0.7318 -1.5584
 1056SOL     OW14626   0.066   4.527  12.161  0.2463  0.5571 -0.8351
 1056SOL    HW114627   0.111   4.492  12.238 -0.2926  2.6369  0.4335
 1056SOL    HW214628   0.124   4.489  12.095 -1.8782 -2.2942 -1.0234
 1057SOL     OW14629   0.583   2.652   2.345 -0.2998 -0.4115  0.4225
 1057SOL    HW114630   0.580   2.693   2.259 -0.7734  0.0519  0.6591
 1057SOL    HW214631   0.670   2.683   2.369 -0.4371 -0.4144  0.9186
 1058SOL     OW14632   2.557   3.571  15.205 -0.4253 -0.2212  0.3604
 1058SOL    HW114633   2.530   3.658  15.178 -0.8536 -0.3804  0.2747
 1058SOL    HW214634   2.550   3.526  15.120 -2.0231  0.5479  0.0972
 1059SOL     OW14635   0.080   2.906   2.508  0.0938  0.3496  0.6427
 1059SOL    HW114636   0.032   2.896   2.590 -2.4347 -1.2273 -1.0306
 1059SOL    HW214637   0.165   2.871   2.535 -0.2998  0.8898  2.5386
 1060SOL     OW14638   1.190   4.516   6.137 -0.0012 -0.2130  0.2461
 1060SOL    HW114639   1.243   4.487   6.062  1.1249 -1.0218  1.3444
 1060SOL    HW214640   1.248   4.484   6.206  2.3832  0.5504 -1.4094
 1061SOL     OW14641   3.230   3.230   3.400  0.3289  0.0622  0.0438
 1061SOL    HW114642   3.208   3.240   3.307 -1.3315 -1.5917  0.2643
 1061SOL    HW214643   3.150   3.188   3.431 -0.0714  0.5107 -0.3555
 1062SOL     OW14644   2.941   3.570   8.379  0.6358 -0.3380 -0.3010
 1062SOL    HW114645   2.864   3.612   8.416  0.3120 -1.9817  0.8586
 1062SOL    HW214646   2.981   3.507   8.439 -0.4874  0.2054  0.9964
 1063SOL     OW14647   2.077   0.742   5.057 -0.3939  0.1403 -0.0629
 1063SOL    HW114648   1.987   0.743   5.025 -0.7314  1.2739  0.9047
 1063SOL    HW214649   2.061   0.708   5.145 -1.3393 -0.3776 -0.4505
 1064SOL     OW14650   2.589   1.784   1.569 -0.3484  0.3284 -0.5754
 1064SOL    HW114651   2.637   1.715   1.524 -1.9609  0.0725 -1.8734
 1064SOL    HW214652   2.600   1.858   1.510  1.3920  1.8406  1.6046
 1065SOL     OW14653   1.017   1.025   0.472  0.3982  0.3703 -0.3570
 1065SOL    HW114654   1.044   0.970   0.546 -1.2266 -0.3090 -0.2514
 1065SOL    HW214655   1.062   1.106   0.494  0.6975  0.7958 -2.5843
 1066SOL     OW14656   4.189   3.335   8.049 -0.1839 -0.1634 -0.7962
 1066SOL    HW114657   4.183   3.305   8.140  0.2599  2.2919  0.0609
 1066SOL    HW214658   4.259   3.397   8.067 -0.2565 -0.4423  0.4422
 1067SOL     OW14659   0.425   0.360   5.287  0.0500 -0.3580  0.2897
 1067SOL    HW114660   0.445   0.271   5.258  0.5518 -0.6536  1.5427
 1067SOL    HW214661   0.430   0.409   5.204  1.8659  0.2128  0.7364
 1068SOL     OW14662   2.265   1.552   4.362  0.2670  0.5200 -0.5437
 1068SOL    HW114663   2.225   1.637   4.379 -1.0050 -0.0950 -0.4460
 1068SOL    HW214664   2.262   1.547   4.266 -0.2696 -0.7951 -0.4641
 1069SOL     OW14665   4.533   0.360   1.768 -0.0230  0.2930 -0.0503
 1069SOL    HW114666   4.567   0.274   1.789 -0.3288  0.8027  2.5150
 1069SOL    HW214667   4.616   0.408   1.768  0.1554 -0.0228 -0.0148
 1070SOL     OW14668   0.804   3.243   9.079  0.0221 -0.2298 -0.4728
 1070SOL    HW114669   0.797   3.300   9.155 -1.4002  0.3247 -1.0343
 1070SOL    HW214670   0.711   3.247   9.059 -0.2173 -1.6346  0.3065
 1071SOL     OW14671   3.598   1.032   2.869  0.2008  0.1771 -0.3424
 1071SOL    HW114672   3.521   0.980   2.888 -0.7370  1.6751 -0.0328
 1071SOL    HW214673   3.658   1.010   2.940 -1.3531 -0.3823  0.7755
 1072SOL     OW14674   2.300   0.516   2.509  0.4792  0.0992  0.0947
 1072SOL    HW114675   2.277   0.455   2.439  2.5471  0.1054 -0.5854
 1072SOL    HW214676   2.338   0.455   2.572 -0.3381 -0.2221  0.2711
 1073SOL     OW14677   2.843   1.198   8.578 -0.3501 -0.2027  0.0055
 1073SOL    HW114678   2.828   1.288   8.550  0.5480 -1.0327 -3.2196
 1073SOL    HW214679   2.892   1.159   8.505 -1.6508  0.7986 -1.3973
 1074SOL     OW14680   3.667   1.245   2.224  0.3692 -0.0971  0.0992
 1074SOL    HW114681   3.578   1.227   2.195  0.1106 -1.3757  1.6861
 1074SOL    HW214682   3.664   1.339   2.237 -0.6157 -0.0872 -0.2019
 1075SOL     OW14683   0.790   1.611  13.756  0.1489 -0.0741 -0.1203
 1075SOL    HW114684   0.713   1.554  13.759  0.3644 -0.3501  0.1225
 1075SOL    HW214685   0.768   1.661  13.677 -1.2060  0.7129  0.7505
 1076SOL     OW14686   1.730   1.048  12.157 -0.0220  0.0547  0.0105
 1076SOL    HW114687   1.697   1.072  12.070  0.6772 -0.9163 -0.5187
 1076SOL    HW214688   1.676   1.092  12.223 -0.0450 -1.3747  0.9628
 1077SOL     OW14689   4.095   0.001   1.216  0.3574 -0.0170  0.0995
 1077SOL    HW114690   4.000   4.718   1.221  0.3643  0.3656  0.7986
 1077SOL    HW214691   4.113   4.678   1.135 -1.5816 -0.2562 -0.1975
 1078SOL     OW14692   2.038   2.897   1.060 -0.2009  0.2161 -0.0931
 1078SOL    HW114693   2.071   2.953   1.130  0.1989 -0.3390  0.1673
 1078SOL    HW214694   1.942   2.895   1.058 -0.2721  1.2627  2.3931
 1079SOL     OW14695   2.804   1.980   3.065 -0.2499  0.0653 -0.6173
 1079SOL    HW114696   2.720   1.960   3.106 -0.8025  0.4893 -1.5598
 1079SOL    HW214697   2.865   1.958   3.136 -0.2714  0.5311 -0.4511
 1080SOL     OW14698   3.187   3.085   3.147 -0.3692 -0.3474  0.6374
 1080SOL    HW114699   3.243   3.012   3.172 -0.4876 -0.1964  1.3299
 1080SOL    HW214700   3.252   3.148   3.117 -1.1989  0.1816 -0.0902
 1081SOL     OW14701   2.641   4.021   6.801  0.0267 -0.2228  0.2916
 1081SOL    HW114702   2.547   4.032   6.787  0.1711  2.7812  1.6198
 1081SOL    HW214703   2.648   4.071   6.883  0.7818  2.3292 -1.3104
 1082SOL     OW14704   1.262   0.645  10.945 -0.1640 -0.7309 -0.0526
 1082SOL    HW114705   1.314   0.725  10.942 -2.1870  0.5865 -0.1987
 1082SOL    HW214706   1.289   0.604  11.028  1.3229  0.4280  0.0211
 1083SOL     OW14707   3.965   2.057   3.513  0.1407 -0.4411 -0.1888
 1083SOL    HW114708   3.952   2.118   3.441  0.7780 -1.7572 -1.4170
 1083SOL    HW214709   3.972   1.970   3.473 -1.2548  0.4167 -2.2929
 1084SOL     OW14710   0.842   4.082  17.186  0.2480  0.1469  0.1715
 1084SOL    HW114711   0.826   4.095  17.092 -1.0423 -0.5934  0.2946
 1084SOL    HW214712   0.923   4.032  17.189  1.3138  1.8735  0.0167
 1085SOL     OW14713   0.721   1.487   4.170  0.1708 -0.0910 -0.1905
 1085SOL    HW114714   0.681   1.421   4.113 -1.3718  0.8371 -0.2017
 1085SOL    HW214715   0.803   1.445   4.195  1.0088  1.6680 -0.0207
 1086SOL     OW14716   3.622   2.957  12.918  0.0763  0.2155 -0.6015
 1086SOL    HW114717   3.650   3.047  12.901 -1.0290  0.4678 -1.1138
 1086SOL    HW214718   3.549   2.960  12.980 -1.2624 -2.0422 -2.0579
 1087SOL     OW14719   1.033   2.752   5.265 -0.3080 -0.1799  0.3045
 1087SOL    HW114720   1.013   2.759   5.171 -0.5639 -0.0047  0.3729
 1087SOL    HW214721   1.119   2.794   5.261  0.1444 -0.9481  1.9537
 1088SOL     OW14722   3.220   4.250   2.481 -0.3242  0.5130 -0.2533
 1088SOL    HW114723   3.156   4.300   2.532  2.4369  2.3518  1.4701
 1088SOL    HW214724   3.266   4.325   2.443 -1.6140  0.8417 -1.1689
 1089SOL     OW14725   0.759   2.704   6.111 -0.5475  0.7921  0.1906
 1089SOL    HW114726   0.721   2.683   6.196 -0.4486 -0.5718 -0.1097
 1089SOL    HW214727   0.799   2.790   6.126 -0.5514  0.5833  1.3528
 1090SOL     OW14728   0.586   0.233  17.164 -0.2496 -0.1062  0.4097
 1090SOL    HW114729   0.549   0.314  17.129 -1.7502 -1.3012 -0.7715
 1090SOL    HW214730   0.518   0.167  17.152 -2.0765  1.7351  0.4852
 1091SOL     OW14731   3.154   3.263   7.134 -0.2107 -0.3647  0.1866
 1091SOL    HW114732   3.142   3.178   7.093  1.8387 -0.4385 -0.2568
 1091SOL    HW214733   3.248   3.272   7.147 -0.0624  0.2314 -1.2934
 1092SOL     OW14734   1.311   4.122   7.824 -0.3753  0.0284 -0.0617
 1092SOL    HW114735   1.378   4.102   7.889 -0.5543 -0.7365 -0.1197
 1092SOL    HW214736   1.367   4.181   7.772  1.3066 -2.1219 -0.6907
 1093SOL     OW14737   3.832   4.663   5.137 -0.5405  0.3957  0.0698
 1093SOL    HW114738   3.772   4.612   5.083  0.5021 -0.3448 -0.3835
 1093SOL    HW214739   3.769   0.004   5.166 -0.5199  1.8242 -3.1534
 1094SOL     OW14740   2.539   3.503  12.145 -0.0346  0.2234 -0.8426
 1094SOL    HW114741   2.515   3.493  12.053  2.8880 -1.4453 -1.4244
 1094SOL    HW214742   2.635   3.503  12.143 -0.0208 -0.0149 -0.3329
 1095SOL     OW14743   1.193   4.132   8.850 -0.2601 -0.2514  0.1710
 1095SOL    HW114744   1.197   4.224   8.873  1.6941 -0.3912  0.4287
 1095SOL    HW214745   1.209   4.142   8.756  0.7116 -3.7837 -0.0661
 1096SOL     OW14746   1.114   1.815  10.570 -0.0958 -0.1909 -0.4089
 1096SOL    HW114747   1.077   1.901  10.592  0.7090  0.0215  0.1097
 1096SOL    HW214748   1.198   1.831  10.613  0.0560  0.4231 -0.9364
 1097SOL     OW14749   0.958   0.450   6.631 -0.0607 -0.4709 -0.6110
 1097SOL    HW114750   0.900   0.455   6.555 -3.3816  0.7364  1.9763
 1097SOL    HW214751   1.021   0.380   6.617 -1.1256 -1.3201 -1.1663
 1098SOL     OW14752   2.185   3.776   3.447 -0.5311  0.1168  0.5286
 1098SOL    HW114753   2.269   3.755   3.488 -0.1152  0.4447 -0.1679
 1098SOL    HW214754   2.137   3.793   3.529 -1.0358 -0.0850  0.2788
 1099SOL     OW14755   4.310   1.123   2.375  0.2925 -0.3137  0.1590
 1099SOL    HW114756   4.383   1.180   2.353 -0.6578 -0.0621 -2.3180
 1099SOL    HW214757   4.283   1.091   2.289  0.9379  1.7675 -0.8168
 1100SOL     OW14758   1.401   1.390  11.140  0.5451 -0.6684 -0.4451
 1100SOL    HW114759   1.309   1.414  11.149  0.7706  0.6257 -1.4511
 1100SOL    HW214760   1.412   1.419  11.050 -0.6884 -0.4395 -0.5262
 1101SOL     OW14761   4.306   3.786   9.567 -0.1319 -0.1873 -0.6192
 1101SOL    HW114762   4.227   3.760   9.521 -0.5611 -1.2396  0.7301
 1101SOL    HW214763   4.268   3.797   9.654 -1.5087 -1.2877 -1.0904
 1102SOL     OW14764   0.313   3.652   7.601 -0.0310  0.0937 -0.0527
 1102SOL    HW114765   0.331   3.627   7.510  0.4924  1.1668 -0.2407
 1102SOL    HW214766   0.312   3.745   7.581  2.4807  0.2592  0.5204
 1103SOL     OW14767   1.910   3.846   9.960  0.3186 -0.1519 -0.0023
 1103SOL    HW114768   1.880   3.934   9.983  0.1009 -0.9388  2.7445
 1103SOL    HW214769   1.905   3.845   9.864 -0.6892  2.4527  0.0129
 1104SOL     OW14770   2.318   3.456   5.951 -0.3622  0.0587  0.0376
 1104SOL    HW114771   2.233   3.440   5.991 -0.2794 -2.0286 -0.6557
 1104SOL    HW214772   2.375   3.429   6.023 -1.0615 -0.0942  0.5317
 1105SOL     OW14773   1.153   0.542   4.424 -0.5873 -0.4899 -0.1334
 1105SOL    HW114774   1.115   0.560   4.338 -0.3030  2.8893  0.4340
 1105SOL    HW214775   1.076   0.574   4.471 -1.0270 -2.5188  0.5065
 1106SOL     OW14776   2.304   2.169   0.999  0.0268  0.1343  0.9509
 1106SOL    HW114777   2.220   2.124   1.013  0.0034 -0.5702 -1.4006
 1106SOL    HW214778   2.292   2.250   1.049 -1.5862  0.1300  0.5943
 1107SOL     OW14779   4.125   1.116   9.258  1.0206  0.3128  0.1209
 1107SOL    HW114780   4.114   1.126   9.163  0.4093 -1.4794 -0.0108
 1107SOL    HW214781   4.203   1.169   9.274  2.0344 -1.2647  0.3667
 1108SOL     OW14782   3.423   0.708   5.789  0.2294  0.1194 -0.0442
 1108SOL    HW114783   3.506   0.659   5.785 -0.9736 -1.8336 -1.2133
 1108SOL    HW214784   3.361   0.637   5.810  0.1768  0.4003  0.7479
 1109SOL     OW14785   1.949   4.153  10.810 -0.4735 -0.5642  0.0480
 1109SOL    HW114786   1.970   4.114  10.895  1.0944 -0.7187 -0.4210
 1109SOL    HW214787   1.854   4.163  10.807 -0.6263 -1.2219  2.3040
 1110SOL     OW14788   0.386   4.107  13.326  0.0801 -0.1361  0.5632
 1110SOL    HW114789   0.308   4.105  13.270  0.4298  0.1545  0.0620
 1110SOL    HW214790   0.381   4.030  13.382 -1.8864 -0.0445  0.4994
 1111SOL     OW14791   2.724   0.742   5.851  0.1538  0.4458  0.4555
 1111SOL    HW114792   2.767   0.754   5.766 -0.4960 -1.2099 -0.1007
 1111SOL    HW214793   2.641   0.784   5.828  1.8525  2.7100 -1.5304
 1112SOL     OW14794   2.674   2.254   7.949 -0.2264 -0.1465 -0.4762
 1112SOL    HW114795   2.704   2.164   7.938 -0.7080 -0.3535 -0.1133
 1112SOL    HW214796   2.632   2.276   7.866  0.4002 -0.3319 -0.8425
 1113SOL     OW14797   3.697   1.312  11.166 -0.1654 -0.2067  0.2192
 1113SOL    HW114798   3.717   1.405  11.163  1.0310 -0.5265 -1.3921
 1113SOL    HW214799   3.604   1.326  11.186 -0.2075  0.2884 -0.3129
 1114SOL     OW14800   2.900   3.965   2.287  0.2507  0.1482 -0.3874
 1114SOL    HW114801   2.889   3.987   2.195  1.9107 -1.1859 -0.9045
 1114SOL    HW214802   2.961   3.892   2.280 -0.4625 -0.3933 -0.9608
 1115SOL     OW14803   4.559   3.919   7.259 -0.3474  0.6679  0.1855
 1115SOL    HW114804   4.531   3.962   7.340 -0.5869  0.8137  0.0245
 1115SOL    HW214805   4.557   3.993   7.198  3.4555  1.5340  1.0995
 1116SOL     OW14806   0.391   0.547  11.947  0.3513  0.8599 -0.3516
 1116SOL    HW114807   0.339   0.556  12.027 -0.1273 -1.3578 -0.4250
 1116SOL    HW214808   0.399   0.638  11.918  0.3921  1.2403  0.8696
 1117SOL     OW14809   1.281   4.153   0.240  0.0026 -0.5668 -0.2423
 1117SOL    HW114810   1.289   4.161   0.335  0.7998 -1.8027 -0.2079
 1117SOL    HW214811   1.359   4.201   0.214 -0.7380 -0.1807 -1.7703
 1118SOL     OW14812   3.622   4.437   4.523 -0.3708 -0.7312 -0.3290
 1118SOL    HW114813   3.619   4.518   4.472 -1.5600  0.2478  1.2583
 1118SOL    HW214814   3.587   4.366   4.469 -0.2355 -0.5520 -0.6522
 1119SOL     OW14815   0.208   2.472   9.432  0.0166  0.6790 -0.8529
 1119SOL    HW114816   0.197   2.382   9.399 -0.8125  0.6393 -0.4504
 1119SOL    HW214817   0.138   2.490   9.494  0.0511 -1.7008 -0.0904
 1120SOL     OW14818   0.295   0.645  15.491  0.2142  0.0397 -0.1720
 1120SOL    HW114819   0.284   0.697  15.571  1.7106  0.5381 -0.3021
 1120SOL    HW214820   0.382   0.609  15.506 -0.2150 -1.1580 -0.5429
 1121SOL     OW14821   1.185   1.866   0.034 -0.2900  0.2728  0.1973
 1121SOL    HW114822   1.200   1.954   0.002  2.6605  0.3836  1.8912
 1121SOL    HW214823   1.171   1.881   0.128 -0.0740 -1.8661  0.5738
 1122SOL     OW14824   0.417   4.633   2.908 -0.2276  0.1967 -0.1376
 1122SOL    HW114825   0.427   4.542   2.933 -1.6785  0.0185 -0.1830
 1122SOL    HW214826   0.482   4.683   2.957 -2.3201  2.9363 -0.0971
 1123SOL     OW14827   3.547   1.449   8.585 -0.6579  0.7619  0.6737
 1123SOL    HW114828   3.595   1.531   8.594  1.8508 -0.6887  0.3843
 1123SOL    HW214829   3.507   1.477   8.502 -0.8322 -1.7133 -0.0573
 1124SOL     OW14830   2.853   1.392   2.401 -0.1338  0.0613 -0.3178
 1124SOL    HW114831   2.929   1.403   2.458 -0.2242 -0.5808 -0.0661
 1124SOL    HW214832   2.840   1.486   2.387 -2.6622 -0.3162 -0.4620
 1125SOL     OW14833   3.574   0.237   9.105 -0.1869  0.4121 -0.2421
 1125SOL    HW114834   3.594   0.285   9.186 -1.8158  1.3289 -0.3890
 1125SOL    HW214835   3.479   0.251   9.097 -0.6034 -1.8920  0.6626
 1126SOL     OW14836   0.194   2.338   6.922  0.3500  0.2502 -0.1477
 1126SOL    HW114837   0.264   2.276   6.941  0.0778  0.0349  0.1632
 1126SOL    HW214838   0.134   2.286   6.868 -0.0896  1.0221 -0.4027
 1127SOL     OW14839   1.007   4.148   1.410 -0.4389  0.5635 -0.7737
 1127SOL    HW114840   1.012   4.173   1.502 -1.0513 -1.7545 -0.1074
 1127SOL    HW214841   1.058   4.067   1.413 -0.8600  0.3369  0.1827
 1128SOL     OW14842   3.206   3.037  14.278  0.5409 -0.4535  0.1573
 1128SOL    HW114843   3.124   3.087  14.281  1.5972  1.1986  1.1369
 1128SOL    HW214844   3.202   3.001  14.367 -1.3039  2.3904  1.2204
 1129SOL     OW14845   0.377   2.050   8.807 -0.1351 -0.3681 -0.4870
 1129SOL    HW114846   0.372   1.988   8.734 -0.9308 -2.6313  1.4973
 1129SOL    HW214847   0.341   2.130   8.768  0.7846 -0.1233 -0.8206
 1130SOL     OW14848   2.034   2.538  10.097  0.2551  0.2957 -0.2146
 1130SOL    HW114849   2.052   2.446  10.112  3.0264  0.8352 -0.1349
 1130SOL    HW214850   1.960   2.531  10.036 -0.7153  1.9564  0.7773
 1131SOL     OW14851   0.638   0.682  15.721 -0.1386  0.2330 -0.0391
 1131SOL    HW114852   0.614   0.606  15.668  0.4156  1.0819 -1.5310
 1131SOL    HW214853   0.701   0.732  15.670 -0.0792 -0.1547 -0.3441
 1132SOL     OW14854   4.242   4.411   8.469  0.1575  0.2884  0.1834
 1132SOL    HW114855   4.236   4.501   8.435  3.1086  0.3565 -0.1285
 1132SOL    HW214856   4.189   4.423   8.548  0.3469 -1.1209  0.5090
 1133SOL     OW14857   4.066   3.276   0.145  0.0045 -0.7794 -0.1858
 1133SOL    HW114858   3.984   3.313   0.113  0.7586  1.2639  0.2665
 1133SOL    HW214859   4.136   3.340   0.135  1.1583 -1.6565  2.1508
 1134SOL     OW14860   4.477   2.543   2.495 -0.1088 -0.1658  0.4613
 1134SOL    HW114861   4.539   2.470   2.503 -0.4166 -0.4033  0.6627
 1134SOL    HW214862   4.425   2.491   2.434 -0.5957 -1.3524  1.9064
 1135SOL     OW14863   1.635   2.066   4.770  0.4160  0.2296 -0.4848
 1135SOL    HW114864   1.694   2.051   4.697  2.5341  0.1773  1.2247
 1135SOL    HW214865   1.561   2.085   4.712  0.1854 -2.5320 -1.0690
 1136SOL     OW14866   3.343   2.786   9.395  0.7295  0.1015  0.3848
 1136SOL    HW114867   3.403   2.793   9.469 -1.7671  0.8296  2.3143
 1136SOL    HW214868   3.318   2.694   9.382  0.6468  0.2629 -0.6187
 1137SOL     OW14869   4.454   3.014   8.263 -0.2823 -0.1539  0.4337
 1137SOL    HW114870   4.486   3.015   8.353 -0.5653  1.0155  0.5182
 1137SOL    HW214871   4.526   3.043   8.207  0.2366 -1.1108  0.6083
 1138SOL     OW14872   2.598   4.087   1.852  0.3238 -0.2371 -0.1727
 1138SOL    HW114873   2.611   4.064   1.944  0.2061 -1.3609 -0.4275
 1138SOL    HW214874   2.558   4.174   1.856 -0.6731 -0.6798 -0.3931
 1139SOL     OW14875   0.483   2.074   6.198  0.5595  0.4020  0.4916
 1139SOL    HW114876   0.492   1.996   6.143 -1.3564  1.3702 -1.2017
 1139SOL    HW214877   0.395   2.103   6.171  0.2248  2.3740  3.7067
 1140SOL     OW14878   0.569   4.345  15.275  0.9409 -0.5807 -0.3923
 1140SOL    HW114879   0.555   4.270  15.217  0.2637  0.2215 -1.2567
 1140SOL    HW214880   0.485   4.340  15.320  0.3598 -1.4113 -1.5665
 1141SOL     OW14881   0.910   2.537  10.574 -0.0963  0.1505  0.4509
 1141SOL    HW114882   0.851   2.590  10.628  0.5213  1.2690  0.0347
 1141SOL    HW214883   0.967   2.505  10.644 -1.1877 -0.0048  1.2831
 1142SOL     OW14884   1.240   2.235   1.581 -0.3042  0.1072 -0.5519
 1142SOL    HW114885   1.325   2.275   1.565  0.5701 -1.9953 -1.1698
 1142SOL    HW214886   1.251   2.158   1.525 -1.3343 -2.0012  2.1253
 1143SOL     OW14887   1.356   1.474  13.084  0.2356 -0.4592 -0.1657
 1143SOL    HW114888   1.331   1.562  13.056 -2.2080 -0.9925  0.3055
 1143SOL    HW214889   1.394   1.439  13.003 -1.9443 -2.0338 -0.5211
 1144SOL     OW14890   3.285   2.185   2.699  0.2876  0.3665  0.2858
 1144SOL    HW114891   3.240   2.133   2.632 -0.8277  2.2199 -0.4002
 1144SOL    HW214892   3.220   2.252   2.721 -1.0400 -0.3051 -1.4996
 1145SOL     OW14893   1.563   1.424  14.339  0.3914  0.1842  0.2292
 1145SOL    HW114894   1.495   1.491  14.331 -0.3461 -0.6404 -0.3753
 1145SOL    HW214895   1.513   1.349  14.308  1.8437  0.4572 -2.7246
 1146SOL     OW14896   1.818   1.920   0.922  0.0526 -0.3014  0.2532
 1146SOL    HW114897   1.725   1.921   0.899  0.7629  2.7045 -2.4537
 1146SOL    HW214898   1.826   1.836   0.968  0.2265  0.8133  2.2524
 1147SOL     OW14899   1.282   0.688   5.645  0.2271  0.0291  0.2742
 1147SOL    HW114900   1.221   0.706   5.574 -0.7680 -0.1251  1.0996
 1147SOL    HW214901   1.338   0.619   5.609  0.8764  1.2349 -1.0367
 1148SOL     OW14902   0.507   4.714   4.754  0.2076 -0.7963 -0.3100
 1148SOL    HW114903   0.430   0.035   4.721  0.8825  0.2990 -0.3606
 1148SOL    HW214904   0.565   0.063   4.771 -2.4801  1.3273 -0.4332
 1149SOL     OW14905   1.573   3.657   3.647  0.3193 -0.1217 -0.3737
 1149SOL    HW114906   1.659   3.672   3.609  0.1075  0.4237 -0.6274
 1149SOL    HW214907   1.575   3.684   3.739  2.0171 -0.8824 -0.1870
 1150SOL     OW14908   2.466   3.046  17.154  0.5342 -0.0617  0.0463
 1150SOL    HW114909   2.496   3.132  17.184 -1.8601  0.3318  1.2608
 1150SOL    HW214910   2.436   3.055  17.064  1.1223  2.3957  0.1082
 1151SOL     OW14911   2.345   3.643   3.845  0.6422 -0.5970 -0.5726
 1151SOL    HW114912   2.335   3.697   3.766 -2.4787  1.0401  0.9746
 1151SOL    HW214913   2.414   3.580   3.825  0.6894 -0.5329 -0.6124
 1152SOL     OW14914   2.551   1.624  11.018 -0.0663  0.3852 -0.4669
 1152SOL    HW114915   2.506   1.543  11.044 -0.5555  1.0753  0.8135
 1152SOL    HW214916   2.509   1.687  11.076 -0.5462  0.0573 -0.4615
 1153SOL     OW14917   3.559   0.779  15.559 -0.0176 -0.1114 -0.7969
 1153SOL    HW114918   3.567   0.874  15.548  0.3161 -0.0517 -0.0813
 1153SOL    HW214919   3.470   0.769  15.591 -0.6482 -0.6418 -2.7593
 1154SOL     OW14920   2.117   0.746  16.101  0.3732 -0.7732 -0.1017
 1154SOL    HW114921   2.033   0.734  16.056 -1.3546  0.5205  2.7718
 1154SOL    HW214922   2.104   0.829  16.147 -0.9427 -3.3612  4.2146
 1155SOL     OW14923   3.590   2.321   4.551  0.0401  0.0340  0.0379
 1155SOL    HW114924   3.583   2.273   4.469 -1.6825  0.9940 -0.3778
 1155SOL    HW214925   3.516   2.382   4.549 -0.2140 -0.2499  0.7989
 1156SOL     OW14926   1.879   0.456   5.050 -0.8893 -0.0080  0.0433
 1156SOL    HW114927   1.898   0.488   5.138  2.4148 -4.5977  0.9628
 1156SOL    HW214928   1.968   0.457   5.014 -1.4027  0.1280 -1.2436
 1157SOL     OW14929   2.967   3.701  17.449 -0.2998  0.1155 -0.4236
 1157SOL    HW114930   2.977   3.657  17.533 -0.5788  0.0893 -0.4057
 1157SOL    HW214931   2.998   3.791  17.459 -1.6750  0.7628 -1.8533
 1158SOL     OW14932   4.132   1.358   4.385 -0.1819  0.1062  0.0591
 1158SOL    HW114933   4.127   1.374   4.291 -1.9855 -0.1966  0.1013
 1158SOL    HW214934   4.040   1.366   4.408 -0.0824  1.1495  0.0978
 1159SOL     OW14935   3.785   1.838  16.096 -1.0376  0.0501 -0.1528
 1159SOL    HW114936   3.823   1.762  16.054 -1.2621 -0.1876  0.0748
 1159SOL    HW214937   3.694   1.818  16.071 -0.9849  1.0436 -1.1725
 1160SOL     OW14938   3.154   2.479   7.813  0.1418  0.3360  0.3405
 1160SOL    HW114939   3.064   2.451   7.829  0.6972 -0.5367  1.9389
 1160SOL    HW214940   3.188   2.390   7.803  0.1369  0.3178  0.4855
 1161SOL     OW14941   0.811   4.471  15.177 -0.4344  0.1254 -0.5580
 1161SOL    HW114942   0.723   4.459  15.212 -0.9689 -0.1072 -1.9916
 1161SOL    HW214943   0.794   4.463  15.083  1.5439  0.9984 -0.9977
 1162SOL     OW14944   0.479   2.405   6.085  0.7706 -0.2033  0.0334
 1162SOL    HW114945   0.559   2.358   6.107 -0.2508 -2.2391 -0.5731
 1162SOL    HW214946   0.444   2.422   6.172  0.4770  1.9113 -0.5095
 1163SOL     OW14947   1.471   2.598   5.453 -0.0854  0.0060 -0.0617
 1163SOL    HW114948   1.461   2.607   5.358  0.9875  2.1474  0.0294
 1163SOL    HW214949   1.544   2.535   5.456 -1.7654 -1.9181  0.2131
 1164SOL     OW14950   0.087   1.732   3.441  0.3621  0.4411  0.5206
 1164SOL    HW114951   0.034   1.654   3.426  1.8546 -0.6803  1.0808
 1164SOL    HW214952   0.046   1.797   3.384 -0.1310 -1.9394 -1.8500
 1165SOL     OW14953   1.578   4.674  15.275 -0.1907  0.5824  0.6543
 1165SOL    HW114954   1.529   0.025  15.307  0.4686  0.7109  1.3668
 1165SOL    HW214955   1.660   4.686  15.323  0.7884  0.3747 -0.9727
 1166SOL     OW14956   4.347   1.266   1.959  0.1037  0.1546  0.6514
 1166SOL    HW114957   4.405   1.338   1.937 -2.3735  1.9502  0.0497
 1166SOL    HW214958   4.417   1.200   1.960 -0.3111 -0.3344 -2.5620
 1167SOL     OW14959   0.596   4.669   7.047  0.3908  0.3695  0.0071
 1167SOL    HW114960   0.691   4.671   7.039  0.1072  1.9567 -3.0979
 1167SOL    HW214961   0.572   4.577   7.036 -0.7226  0.4094  2.2051
 1168SOL     OW14962   4.522   1.564   5.154 -0.3444 -0.2261 -0.7372
 1168SOL    HW114963   4.587   1.519   5.099 -0.9279 -1.2685 -0.5750
 1168SOL    HW214964   4.512   1.498   5.223  1.0154 -0.8840 -1.1823
 1169SOL     OW14965   1.004   0.919   7.977 -0.0790  0.5116 -0.4065
 1169SOL    HW114966   0.955   0.908   7.895  0.4744  1.4165 -0.8538
 1169SOL    HW214967   0.972   1.008   7.993  0.1165  0.5871 -0.4410
 1170SOL     OW14968   4.477   2.831  15.990 -0.1963 -0.0570 -0.3142
 1170SOL    HW114969   4.419   2.866  15.923 -0.1556  1.2623  0.3322
 1170SOL    HW214970   4.465   2.736  15.993  1.0316 -0.3127 -4.2892
 1171SOL     OW14971   3.980   1.089   4.633  0.4132  0.2096 -0.0444
 1171SOL    HW114972   4.030   1.123   4.706  0.0300 -2.0730  1.2755
 1171SOL    HW214973   3.904   1.147   4.635 -1.0052 -1.7330  2.0722
 1172SOL     OW14974   4.591   3.300   8.456 -0.2685 -0.1234 -0.6949
 1172SOL    HW114975   4.679   3.267   8.474 -0.6040 -0.7169 -0.1666
 1172SOL    HW214976   4.540   3.233   8.501 -0.4839  0.8376  0.5138
 1173SOL     OW14977   1.500   1.284  11.518  0.0939  0.7797  0.5922
 1173SOL    HW114978   1.416   1.268  11.563 -0.6024 -1.2657 -1.4330
 1173SOL    HW214979   1.546   1.202  11.538  0.8125  1.4208  1.5737
 1174SOL     OW14980   1.537   2.136   5.373  0.1125  0.4656 -0.4561
 1174SOL    HW114981   1.486   2.201   5.324  0.6730 -0.0569 -1.7075
 1174SOL    HW214982   1.587   2.100   5.301 -0.1524 -2.1902  0.6890
 1175SOL     OW14983   1.096   0.444   2.203  0.7441 -0.3937 -0.6012
 1175SOL    HW114984   1.138   0.424   2.120  2.1511  0.2269 -0.0354
 1175SOL    HW214985   1.087   0.539   2.196  1.2671 -0.3279 -0.3471
 1176SOL     OW14986   1.253   4.032  10.026  0.0358  0.1524  0.0041
 1176SOL    HW114987   1.301   4.088  10.087  1.0171  1.0687 -1.6120
 1176SOL    HW214988   1.261   4.078   9.943  2.0096  2.6784  1.5857
 1177SOL     OW14989   1.957   0.903  12.041  0.1441 -0.3372  0.2748
 1177SOL    HW114990   1.991   0.974  11.988 -2.0156 -0.7221 -1.6245
 1177SOL    HW214991   1.880   0.941  12.083  0.1670 -0.3457  0.3239
 1178SOL     OW14992   2.014   4.493   8.100  0.9440  0.3489 -0.2448
 1178SOL    HW114993   2.049   4.489   8.011 -0.6291 -0.4894 -0.8191
 1178SOL    HW214994   2.005   4.400   8.118 -0.8903  0.6043  0.1580
 1179SOL     OW14995   4.617   3.518   5.776 -0.3715  0.3628 -0.7954
 1179SOL    HW114996   4.614   3.432   5.818  1.7253  0.3017 -0.7650
 1179SOL    HW214997   4.701   3.516   5.731  1.7913 -0.6834  3.2885
 1180SOL     OW14998   2.847   1.988   6.440  0.1492  0.1368  0.1267
 1180SOL    HW114999   2.886   1.910   6.401 -1.9399 -1.6527  1.6457
 1180SOL    HW215000   2.820   2.036   6.361 -1.9583  0.2218  0.8937
 1181SOL     OW15001   2.494   2.753   6.296 -0.0591 -0.3058 -0.2357
 1181SOL    HW115002   2.460   2.838   6.321  1.3482  0.0387  0.5455
 1181SOL    HW215003   2.428   2.689   6.324 -0.8291  0.6041  0.0026
 1182SOL     OW15004   2.600   3.322  10.244  0.1005 -0.6183 -0.4725
 1182SOL    HW115005   2.564   3.394  10.296 -0.9589 -0.6423 -1.1688
 1182SOL    HW215006   2.521   3.313  10.190 -0.7723 -0.8882  0.8629
 1183SOL     OW15007   3.630   1.745   3.429 -0.3877  0.3339  0.0286
 1183SOL    HW115008   3.693   1.674   3.440 -1.6998 -1.0952 -1.5790
 1183SOL    HW215009   3.691   1.807   3.389  1.4780 -1.7975 -0.4359
 1184SOL     OW15010   1.219   2.703   2.916  0.1081 -0.1877 -0.2874
 1184SOL    HW115011   1.300   2.749   2.942 -1.8111  2.1621  1.5445
 1184SOL    HW215012   1.155   2.723   2.985 -0.3958 -2.3797 -0.1262
 1185SOL     OW15013   3.774   0.807   4.899  0.0033  0.1587  0.7965
 1185SOL    HW115014   3.771   0.730   4.955 -2.0935  0.7387  1.4850
 1185SOL    HW215015   3.829   0.762   4.835 -0.1617 -0.7939  1.3300
 1186SOL     OW15016   4.572   1.456   1.533 -0.0527 -0.7563  0.1936
 1186SOL    HW115017   4.574   1.383   1.472  0.2165  1.7187 -2.7520
 1186SOL    HW215018   4.478   1.472   1.539  0.2564  2.4195 -3.1775
 1187SOL     OW15019   4.476   4.711   8.386  0.1148  0.2262  0.3490
 1187SOL    HW115020   4.384   4.685   8.391  0.1638 -0.4657 -2.2770
 1187SOL    HW215021   4.478   0.073   8.425 -0.2261  0.0131  0.8462
 1188SOL     OW15022   2.457   2.695   4.161  0.5433  0.3760  0.2592
 1188SOL    HW115023   2.375   2.646   4.161 -0.5136  2.1714 -0.7599
 1188SOL    HW215024   2.479   2.707   4.069 -0.7625 -0.0056 -0.0947
 1189SOL     OW15025   3.247   4.725   0.309  0.0576 -0.4747  0.0217
 1189SOL    HW115026   3.175   0.040   0.358  0.1043  0.4401 -0.6658
 1189SOL    HW215027   3.313   0.069   0.312 -1.1025  0.7189 -1.8942
 1190SOL     OW15028   0.779   2.255   9.916  0.2219 -0.3911  0.2628
 1190SOL    HW115029   0.744   2.273   9.829  0.0016  1.2206  0.6829
 1190SOL    HW215030   0.712   2.192   9.943 -0.6809  1.2406  1.8715
 1191SOL     OW15031   0.780   0.370  11.417  0.2932 -0.2162 -0.3038
 1191SOL    HW115032   0.728   0.372  11.497  0.8730 -0.7336  0.0925
 1191SOL    HW215033   0.799   0.276  11.416 -0.1022 -0.2793 -2.7927
 1192SOL     OW15034   4.267   2.333   3.475 -0.0771  0.2382  0.0953
 1192SOL    HW115035   4.258   2.369   3.386 -2.2914  1.4068  0.7849
 1192SOL    HW215036   4.292   2.410   3.526  0.6310 -0.1569  0.3351
 1193SOL     OW15037   0.429   0.797   7.301 -0.2877  0.4769  0.3470
 1193SOL    HW115038   0.341   0.783   7.336  0.2058 -0.1737  1.3158
 1193SOL    HW215039   0.455   0.885   7.328  0.8352  0.6428 -1.2590
 1194SOL     OW15040   4.681   1.685   3.991 -0.5845 -0.1351 -0.1893
 1194SOL    HW115041   4.705   1.687   3.898 -0.7710  0.4386 -0.2275
 1194SOL    HW215042   4.635   1.768   4.001  1.3236  1.0638 -1.3101
 1195SOL     OW15043   3.530   2.536   8.398  0.8071  0.1818  0.3464
 1195SOL    HW115044   3.507   2.609   8.341  0.6706 -0.0042  0.1640
 1195SOL    HW215045   3.585   2.592   8.453 -2.3548  2.8293  0.7978
 1196SOL     OW15046   1.507   2.931  14.387 -0.5730  0.0168 -0.3524
 1196SOL    HW115047   1.509   2.908  14.480  0.1322 -1.0476 -0.6266
 1196SOL    HW215048   1.490   3.025  14.392  1.7502  0.3864  0.6786
 1197SOL     OW15049   0.674   0.703   2.636 -0.2582  0.3143  0.3531
 1197SOL    HW115050   0.594   0.710   2.585 -0.4271 -0.1871  0.5530
 1197SOL    HW215051   0.727   0.645   2.581 -1.3073 -0.1774 -0.1273
 1198SOL     OW15052   3.734   4.384   8.772  0.0652  0.4764  0.0540
 1198SOL    HW115053   3.658   4.442   8.767  0.0147  0.2114 -2.4398
 1198SOL    HW215054   3.782   4.417   8.847 -0.6671  1.8101 -0.0641
 1199SOL     OW15055   4.520   3.585   6.333  0.0377 -0.2637  0.3606
 1199SOL    HW115056   4.492   3.571   6.423 -0.4942 -1.0532  0.0671
 1199SOL    HW215057   4.445   3.579   6.274  1.2198 -1.2980 -1.0594
 1200SOL     OW15058   1.676   3.397   7.104 -0.2623  0.0398  0.2242
 1200SOL    HW115059   1.721   3.312   7.104  1.2572  0.8520 -3.4394
 1200SOL    HW215060   1.733   3.451   7.158 -0.8846  0.9218 -0.0189
 1201SOL     OW15061   0.426   1.919  13.358  0.2368 -0.1887 -0.5103
 1201SOL    HW115062   0.423   1.974  13.436 -1.8614 -0.0253 -0.7236
 1201SOL    HW215063   0.342   1.874  13.350 -0.4749  0.9737  0.5608
 1202SOL     OW15064   4.543   2.169   7.133  0.0399 -0.8785  0.1982
 1202SOL    HW115065   4.484   2.242   7.114  2.2347  1.6840  3.1821
 1202SOL    HW215066   4.605   2.208   7.194  0.3098 -2.8312  1.1560
 1203SOL     OW15067   1.070   0.697   5.469 -1.1069  0.5743  0.0314
 1203SOL    HW115068   0.993   0.646   5.494  1.1042 -2.9383 -0.1959
 1203SOL    HW215069   1.105   0.655   5.390  0.1583 -2.8535  2.4159
 1204SOL     OW15070   2.979   0.163   9.562 -0.3091 -0.6501  0.5936
 1204SOL    HW115071   3.051   0.217   9.530 -0.6548  0.3845  1.5323
 1204SOL    HW215072   2.977   0.093   9.497  1.2521 -1.2047  1.1503
 1205SOL     OW15073   2.643   0.536   6.377  0.1062 -0.7539  0.3199
 1205SOL    HW115074   2.616   0.582   6.457  0.4189  0.4586 -0.2723
 1205SOL    HW215075   2.737   0.522   6.390  0.2660 -1.2134 -1.3971
 1206SOL     OW15076   0.581   2.218   3.178  0.1961 -0.1608 -0.2710
 1206SOL    HW115077   0.522   2.277   3.225  1.3129  0.6071  0.1518
 1206SOL    HW215078   0.527   2.141   3.158  1.4654 -1.1919  0.2605
 1207SOL     OW15079   3.927   2.410   1.800  0.7077  0.0683 -0.0438
 1207SOL    HW115080   3.979   2.335   1.828 -2.1533 -0.9450  2.5276
 1207SOL    HW215081   3.879   2.381   1.722  0.9126 -1.3171  0.3428
 1208SOL     OW15082   2.968   3.362  14.141 -0.2004  0.0802  0.0839
 1208SOL    HW115083   2.980   3.455  14.121 -0.0235  0.1979  0.7597
 1208SOL    HW215084   3.039   3.353  14.204 -1.1503 -0.4716  1.0668
 1209SOL     OW15085   0.613   2.294   8.711 -0.3069  0.0976  0.0421
 1209SOL    HW115086   0.535   2.292   8.656 -0.4663 -0.9530  0.3152
 1209SOL    HW215087   0.596   2.371   8.766 -0.3986  1.8339 -2.3939
 1210SOL     OW15088   4.632   1.145   2.542 -0.3982  0.3451  0.2264
 1210SOL    HW115089   4.724   1.141   2.569  0.1074 -2.1369 -1.8046
 1210SOL    HW215090   4.620   1.052   2.521 -1.7435  0.1141  2.0299
 1211SOL     OW15091   0.480   0.112  13.580  0.3042 -0.2695  0.3189
 1211SOL    HW115092   0.451   0.161  13.656 -2.8903 -0.2077 -0.9229
 1211SOL    HW215093   0.454   0.024  13.608 -0.9409 -0.1477 -0.4496
 1212SOL     OW15094   4.300   3.612   5.058 -0.6949  0.0232  0.4710
 1212SOL    HW115095   4.354   3.688   5.034  0.1158 -0.7964 -0.3175
 1212SOL    HW215096   4.302   3.566   4.974  1.5729 -1.2682  1.2392
 1213SOL     OW15097   1.529   0.393   9.991 -0.0186  0.1953 -0.1856
 1213SOL    HW115098   1.525   0.382  10.086 -1.4479 -0.9627 -0.3750
 1213SOL    HW215099   1.597   0.328   9.972 -1.0114 -0.7747 -0.4423
 1214SOL     OW15100   0.199   0.680   7.397 -0.1495  0.3506  0.2242
 1214SOL    HW115101   0.141   0.605   7.391  0.0412  0.2076  0.1616
 1214SOL    HW215102   0.169   0.724   7.476 -0.3109  1.7409 -0.6029
 1215SOL     OW15103   0.729   4.535   3.192 -0.6849 -0.2876  0.0679
 1215SOL    HW115104   0.815   4.504   3.167  0.2633  1.4619  1.1488
 1215SOL    HW215105   0.737   4.557   3.285  0.6211 -2.1750  0.3945
 1216SOL     OW15106   3.087   4.532  12.085  0.0067 -0.1206  0.4025
 1216SOL    HW115107   3.118   4.468  12.020  0.3083 -0.8073  1.2272
 1216SOL    HW215108   3.019   4.478  12.126  0.0238  1.8714  2.9912
 1217SOL     OW15109   3.338   2.724  13.348 -0.0192 -0.8224  0.0385
 1217SOL    HW115110   3.319   2.815  13.324  0.6491  0.4745  4.3899
 1217SOL    HW215111   3.385   2.696  13.269 -0.1654  0.9817 -0.6941
 1218SOL     OW15112   2.064   2.893   3.107  0.0512 -0.2527  0.2363
 1218SOL    HW115113   2.065   2.870   3.014  0.1111  0.3328  0.0924
 1218SOL    HW215114   1.996   2.960   3.114 -0.4981 -0.8665  0.7238
 1219SOL     OW15115   2.672   3.272   4.036  0.0630  0.1762 -0.1844
 1219SOL    HW115116   2.604   3.225   4.084 -0.7321  0.5182 -0.9777
 1219SOL    HW215117   2.727   3.198   4.008  1.6810  1.7303 -1.0938
 1220SOL     OW15118   2.027   3.797   1.657  0.3454  0.1084 -0.2721
 1220SOL    HW115119   2.028   3.818   1.564  2.7539 -1.4357 -0.6068
 1220SOL    HW215120   1.949   3.842   1.690  1.1498  1.5778 -0.4186
 1221SOL     OW15121   2.851   3.525   7.449 -0.4634 -0.2303 -0.5870
 1221SOL    HW115122   2.860   3.605   7.500 -0.6300 -1.3602  1.2407
 1221SOL    HW215123   2.787   3.480   7.505 -0.3333  0.3178  0.0056
 1222SOL     OW15124   2.735   0.143   5.226 -0.2861 -0.0247  0.0988
 1222SOL    HW115125   2.655   0.184   5.192 -0.9778 -0.0460  1.6984
 1222SOL    HW215126   2.747   0.182   5.312 -0.6563  1.6051 -0.5946
 1223SOL     OW15127   0.008   2.576   8.429 -0.0741  0.7684 -0.6208
 1223SOL    HW115128   4.638   2.579   8.425 -0.1356 -1.6317 -0.8889
 1223SOL    HW215129   0.025   2.501   8.372 -1.6620 -1.0766  1.3368
 1224SOL     OW15130   0.036   3.225  16.240  0.2706 -0.1873  0.5482
 1224SOL    HW115131   0.028   3.302  16.296  0.1878 -1.6700  2.5462
 1224SOL    HW215132   4.670   3.199  16.248  0.1018 -0.1967 -1.3334
 1225SOL     OW15133   4.269   1.525   6.690 -0.4081  0.9718  0.5786
 1225SOL    HW115134   4.239   1.516   6.600  2.1265  0.1161 -0.1643
 1225SOL    HW215135   4.255   1.440   6.732 -1.9498  0.4661 -0.9571
 1226SOL     OW15136   4.142   0.401   6.764 -0.0371 -0.2643  0.3257
 1226SOL    HW115137   4.174   0.491   6.767 -0.1925 -0.2451  1.1958
 1226SOL    HW215138   4.065   0.413   6.820  0.9217 -1.8157  1.9377
 1227SOL     OW15139   4.552   0.086   1.804  0.3592  0.2774  0.0644
 1227SOL    HW115140   4.502   0.027   1.860 -0.4257  2.8074  1.9838
 1227SOL    HW215141   4.636   0.048   1.832 -0.2640 -0.8886  0.3463
 1228SOL     OW15142   1.027   4.259   2.455 -0.4609  0.1050  0.7034
 1228SOL    HW115143   1.044   4.346   2.492  0.0058  0.0360  0.6551
 1228SOL    HW215144   0.938   4.256   2.491 -1.1702  0.6570 -0.9903
 1229SOL     OW15145   3.710   2.832   4.277 -0.0990  0.1002 -1.0275
 1229SOL    HW115146   3.680   2.853   4.188 -0.5854 -1.3100 -1.1870
 1229SOL    HW215147   3.713   2.919   4.318 -1.6793 -0.1484 -0.4202
 1230SOL     OW15148   2.049   2.256   6.983 -0.5170 -0.4276 -0.0357
 1230SOL    HW115149   2.025   2.178   6.933 -0.6337 -0.5227  0.1663
 1230SOL    HW215150   1.961   2.273   7.017 -0.5191 -1.0821  0.2925
 1231SOL     OW15151   1.505   0.267  14.562 -0.0325 -0.0253  0.6418
 1231SOL    HW115152   1.437   0.268  14.629 -1.7238 -0.8187 -1.0445
 1231SOL    HW215153   1.468   0.332  14.502 -0.5361 -0.6242  0.2999
 1232SOL     OW15154   2.295   3.596   4.738  0.2896 -0.0692  0.4878
 1232SOL    HW115155   2.378   3.549   4.750 -0.7793 -1.7158  1.4117
 1232SOL    HW215156   2.295   3.638   4.824  2.4788  1.7259 -0.3796
 1233SOL     OW15157   1.565   3.521  12.676 -0.2605  0.5929  0.9625
 1233SOL    HW115158   1.567   3.462  12.602  0.2562  0.2171  1.2699
 1233SOL    HW215159   1.603   3.594  12.627 -2.4878 -0.3715 -2.1164
 1234SOL     OW15160   2.989   0.418   7.350  0.1888  0.1946 -0.4334
 1234SOL    HW115161   2.993   0.338   7.402  0.1937  0.1849 -0.4486
 1234SOL    HW215162   2.897   0.434   7.371 -0.0532 -2.3504  0.4873
 1235SOL     OW15163   1.000   2.106   5.695 -0.0228  0.2238 -0.0127
 1235SOL    HW115164   1.033   2.191   5.668 -2.2809  0.6411 -1.4476
 1235SOL    HW215165   0.965   2.082   5.609 -0.6163  0.7817  0.0759
 1236SOL     OW15166   2.297   2.112   1.691 -0.3622  0.3108 -0.2124
 1236SOL    HW115167   2.281   2.155   1.607 -0.6584  0.9218  0.1524
 1236SOL    HW215168   2.392   2.101   1.692 -0.5417 -1.1584  0.6972
 1237SOL     OW15169   0.965   1.316   4.217  0.3017  0.2534 -0.2192
 1237SOL    HW115170   1.028   1.375   4.259  0.3282 -0.0622  0.1829
 1237SOL    HW215171   0.943   1.251   4.284  0.9872 -2.3773 -2.5983
 1238SOL     OW15172   4.461   1.736   2.424  0.5384 -0.1859  0.2173
 1238SOL    HW115173   4.408   1.663   2.391  0.6662 -1.7098  3.3549
 1238SOL    HW215174   4.536   1.688   2.460  1.3395  1.0055  0.1321
 1239SOL     OW15175   3.198   0.411   3.574  0.5438 -0.4105 -0.2328
 1239SOL    HW115176   3.281   0.377   3.607  1.0457  1.1570  0.1304
 1239SOL    HW215177   3.143   0.334   3.585  1.5323 -1.0252  0.4377
 1240SOL     OW15178   4.464   0.379   4.310 -0.0594 -0.4016 -0.3421
 1240SOL    HW115179   4.425   0.338   4.387 -1.1573  0.8909 -0.1978
 1240SOL    HW215180   4.428   0.324   4.240 -1.4729  0.2646 -0.1444
 1241SOL     OW15181   1.676   3.049  10.963  0.1550  0.0120  0.1476
 1241SOL    HW115182   1.771   3.055  10.975  0.3463 -1.8685 -0.4233
 1241SOL    HW215183   1.664   2.959  10.992  1.0558 -0.0578  0.2923
 1242SOL     OW15184   1.448   1.001  15.906 -0.2202  0.5051  0.2069
 1242SOL    HW115185   1.376   0.984  15.845 -0.3541  3.1866 -0.4007
 1242SOL    HW215186   1.444   1.095  15.923 -1.8837  0.0443  2.3868
 1243SOL     OW15187   0.689   1.623   2.332  0.1026  0.2682  0.9538
 1243SOL    HW115188   0.660   1.695   2.388 -0.2914 -1.1452  2.5641
 1243SOL    HW215189   0.617   1.625   2.269 -1.3202 -0.2612  2.5630
 1244SOL     OW15190   2.457   2.741   0.152 -0.1810 -0.2002 -0.9093
 1244SOL    HW115191   2.530   2.684   0.127  0.4485  0.7739 -1.3169
 1244SOL    HW215192   2.473   2.757   0.245 -0.4259  1.1595 -1.1029
 1245SOL     OW15193   1.248   2.499   8.820 -0.2478  0.1273 -0.4831
 1245SOL    HW115194   1.287   2.500   8.732 -3.1807 -0.4444 -1.7993
 1245SOL    HW215195   1.266   2.587   8.853  0.4160 -0.4411  0.6505
 1246SOL     OW15196   2.622   1.850  12.711 -0.0519 -0.2492 -0.3289
 1246SOL    HW115197   2.712   1.870  12.687 -0.6585  1.3284 -1.3510
 1246SOL    HW215198   2.590   1.940  12.721  0.4967 -0.1075  0.1152
 1247SOL     OW15199   0.411   0.428  10.381  0.2900 -0.4638 -0.3857
 1247SOL    HW115200   0.339   0.490  10.395  0.3990 -0.2972 -0.5717
 1247SOL    HW215201   0.381   0.371  10.452  1.6150  0.0521  0.5807
 1248SOL     OW15202   2.692   1.779  11.742  0.4307  0.6194  0.8509
 1248SOL    HW115203   2.732   1.767  11.828  1.7572 -0.3044  0.1058
 1248SOL    HW215204   2.713   1.695  11.701  0.3612 -0.1555  2.4071
 1249SOL     OW15205   2.749   1.133   7.662  0.1170 -0.1185 -0.2317
 1249SOL    HW115206   2.776   1.080   7.736 -0.2683 -0.4711 -0.3449
 1249SOL    HW215207   2.803   1.206   7.692  1.9228 -1.0303 -1.3123
 1250SOL     OW15208   0.510   1.136   2.655 -0.2802  0.3237  0.7236
 1250SOL    HW115209   0.602   1.110   2.662 -0.9231 -2.0404  0.1708
 1250SOL    HW215210   0.475   1.053   2.623 -0.4943  0.9375 -0.6345
 1251SOL     OW15211   2.141   1.341   9.121 -0.0850  0.3866  0.0878
 1251SOL    HW115212   2.171   1.405   9.184 -0.7778  0.4005  0.4048
 1251SOL    HW215213   2.048   1.365   9.112  0.4750  1.9172 -1.6082
 1252SOL     OW15214   2.301   2.017   6.562 -0.2934  0.0098 -0.2033
 1252SOL    HW115215   2.386   2.023   6.519  0.6237 -3.1131  1.1447
 1252SOL    HW215216   2.283   1.924   6.544  2.0206 -0.2613 -1.0863
 1253SOL     OW15217   1.300   1.026   4.116  0.1031  0.0122 -0.3368
 1253SOL    HW115218   1.231   0.961   4.101 -1.0624  1.0999  0.2991
 1253SOL    HW215219   1.342   1.005   4.199  0.8570 -0.7647 -0.9209
 1254SOL     OW15220   1.178   1.224   6.213 -0.4762 -0.3769 -0.1166
 1254SOL    HW115221   1.163   1.280   6.289  0.3245  0.1695 -0.3533
 1254SOL    HW215222   1.245   1.164   6.245  0.9366  0.6036 -1.1755
 1255SOL     OW15223   1.098   0.030   6.777 -0.0788  0.2150 -0.3623
 1255SOL    HW115224   1.184   0.062   6.803 -0.7953  1.3963  0.5684
 1255SOL    HW215225   1.081   0.100   6.713 -2.1341  0.6369  0.6173
 1256SOL     OW15226   3.141   2.186  16.596 -0.2670 -0.1901  0.1027
 1256SOL    HW115227   3.188   2.106  16.618  1.4888  0.0898 -2.6089
 1256SOL    HW215228   3.100   2.201  16.681 -1.6762  2.1144 -0.9724
 1257SOL     OW15229   1.623   1.414   3.409  0.2148  0.0172 -0.0578
 1257SOL    HW115230   1.556   1.413   3.478  0.1670  0.2201 -0.1001
 1257SOL    HW215231   1.582   1.359   3.342 -0.4886  0.9938 -0.4263
 1258SOL     OW15232   1.971   0.891   6.695 -0.0835  0.6732  0.2891
 1258SOL    HW115233   1.901   0.840   6.655  0.7067 -1.4896  1.6703
 1258SOL    HW215234   1.989   0.832   6.768  0.0890 -0.4024 -0.6158
 1259SOL     OW15235   0.858   1.463   2.978 -0.2225  0.0979  0.0754
 1259SOL    HW115236   0.904   1.448   2.896 -1.0176 -1.4837 -0.0971
 1259SOL    HW215237   0.764   1.464   2.959 -0.4768 -1.1464  1.2284
 1260SOL     OW15238   3.448   0.197   0.345 -0.3961 -0.0790 -0.1706
 1260SOL    HW115239   3.400   0.240   0.415 -3.4758  1.8773 -3.4963
 1260SOL    HW215240   3.494   0.271   0.304 -2.8128  1.4559 -0.0549
 1261SOL     OW15241   3.466   4.718   7.873 -0.1419  0.3741 -0.2125
 1261SOL    HW115242   3.453   4.648   7.938  0.6602  0.1451 -0.2986
 1261SOL    HW215243   3.434   4.679   7.792  2.3803 -1.5030 -0.3167
 1262SOL     OW15244   4.636   0.480   3.800  0.3467 -0.0331 -0.3137
 1262SOL    HW115245   4.575   0.434   3.743 -1.8655  1.3417  0.9619
 1262SOL    HW215246   4.707   0.496   3.737 -0.0363  3.2796  0.1059
 1263SOL     OW15247   2.695   4.097  17.162  0.6565 -0.1463 -0.0070
 1263SOL    HW115248   2.636   4.046  17.217  0.7813  1.3378  1.4992
 1263SOL    HW215249   2.783   4.063  17.177  0.5976  0.0834  0.8885
 1264SOL     OW15250   3.533   0.914  17.602  0.1433  0.2125  0.6763
 1264SOL    HW115251   3.605   0.851  17.609 -0.3491 -0.5172 -0.6214
 1264SOL    HW215252   3.493   0.894  17.686 -0.5039  0.9312  0.5419
 1265SOL     OW15253   3.127   2.187   4.390 -0.0362 -0.0305 -0.0505
 1265SOL    HW115254   3.215   2.151   4.400 -0.1259 -0.5660 -1.2082
 1265SOL    HW215255   3.106   2.204   4.481  0.4525 -1.3260  0.3057
 1266SOL     OW15256   3.147   3.119  17.326  0.2911 -0.0029  0.8200
 1266SOL    HW115257   3.107   3.033  17.334 -1.5406  0.9214  1.5494
 1266SOL    HW215258   3.072   3.178  17.334 -0.1130 -0.5775  1.2377
 1267SOL     OW15259   4.418   3.937   7.635 -0.1781  0.1802  0.2454
 1267SOL    HW115260   4.445   4.016   7.682 -0.9899  0.3967  0.3425
 1267SOL    HW215261   4.481   3.870   7.661 -1.4968 -0.8817  0.7265
 1268SOL     OW15262   2.738   1.796  10.451  0.1397  0.3480  0.0411
 1268SOL    HW115263   2.743   1.888  10.475 -2.2050  0.4277  0.1598
 1268SOL    HW215264   2.833   1.785  10.439 -0.5819 -2.5393 -2.7749
 1269SOL     OW15265   2.964   1.751   3.478 -0.3739  0.0296  0.3006
 1269SOL    HW115266   3.035   1.770   3.539 -0.0510  1.8665 -0.6788
 1269SOL    HW215267   2.897   1.711   3.534 -0.1464  0.9114  1.2031
 1270SOL     OW15268   3.387   1.800  11.332  0.1621  0.1106 -0.6144
 1270SOL    HW115269   3.417   1.716  11.368  1.0433  0.3002 -0.9039
 1270SOL    HW215270   3.293   1.790  11.320 -0.0463  1.9420 -0.3870
 1271SOL     OW15271   4.660   2.608   7.232  0.2553 -0.4069  0.3835
 1271SOL    HW115272   4.644   2.699   7.257  1.3191 -0.6345  1.8988
 1271SOL    HW215273   4.702   2.582   7.314  1.1467  0.6784  0.2773
 1272SOL     OW15274   1.571   0.346  16.928 -0.3624  0.4134 -0.0973
 1272SOL    HW115275   1.651   0.293  16.923 -1.9309 -1.8523 -0.7592
 1272SOL    HW215276   1.539   0.333  16.839 -0.3010 -1.0729  0.0979
 1273SOL     OW15277   2.458   3.757   3.577  0.1941 -0.3823 -0.2638
 1273SOL    HW115278   2.493   3.701   3.508 -0.2645  0.0462 -0.8389
 1273SOL    HW215279   2.530   3.767   3.640 -0.4862  1.7210  0.1840
 1274SOL     OW15280   2.639   0.161   1.721  0.4036 -0.1507  0.1212
 1274SOL    HW115281   2.727   0.125   1.736  0.8070  0.2735 -1.2272
 1274SOL    HW215282   2.624   0.128   1.632 -0.3803 -1.2330  0.6441
 1275SOL     OW15283   0.815   2.475   5.944 -0.2265  0.4392 -0.0687
 1275SOL    HW115284   0.760   2.543   5.982 -2.0335 -1.6233  0.9931
 1275SOL    HW215285   0.774   2.402   5.990 -2.0286  1.4193 -0.1080
 1276SOL     OW15286   4.166   4.416   8.159  0.3991 -0.5814  0.4642
 1276SOL    HW115287   4.155   4.429   8.253  3.0055  0.4396  0.6335
 1276SOL    HW215288   4.082   4.440   8.122  0.2993 -0.8871  0.4980
 1277SOL     OW15289   3.854   3.045   0.060 -0.2697 -0.1546  0.1105
 1277SOL    HW115290   3.897   3.078  17.684 -0.4233 -1.7878 -0.6506
 1277SOL    HW215291   3.829   3.126   0.105  0.5162 -0.0157  0.3032
 1278SOL     OW15292   2.418   1.425   3.602 -0.3089 -0.0190 -0.2182
 1278SOL    HW115293   2.483   1.357   3.581 -0.2437  0.2221 -0.7932
 1278SOL    HW215294   2.347   1.383   3.650  0.1141  0.1600  0.5591
 1279SOL     OW15295   2.870   3.072  10.041 -0.5385 -0.4869 -0.0549
 1279SOL    HW115296   2.782   3.040  10.061 -0.2812 -1.4180 -0.4546
 1279SOL    HW215297   2.920   3.064  10.123 -2.2643 -1.7411  0.8618
 1280SOL     OW15298   1.005   2.531   1.529 -0.8427 -0.3605 -0.3478
 1280SOL    HW115299   0.950   2.608   1.541 -0.9630 -0.2828 -1.3998
 1280SOL    HW215300   0.941   2.465   1.503 -1.5581  0.0500  0.4082
 1281SOL     OW15301   4.056   3.810   3.001 -0.6199  0.3988 -0.0247
 1281SOL    HW115302   4.104   3.875   3.052  0.3116  0.2471 -0.7069
 1281SOL    HW215303   4.071   3.848   2.915 -0.5006 -0.4084 -0.3624
 1282SOL     OW15304   1.316   2.340   4.224  0.6160 -0.3339  0.6210
 1282SOL    HW115305   1.374   2.309   4.155  0.3830 -1.7424  1.0641
 1282SOL    HW215306   1.283   2.419   4.181  0.4004  0.2470  1.8696
 1283SOL     OW15307   3.839   1.038   5.198  0.4654  0.7538 -0.3613
 1283SOL    HW115308   3.871   1.124   5.169  0.4135  1.8242  2.8176
 1283SOL    HW215309   3.772   1.064   5.260 -2.0426 -1.4566 -2.1486
 1284SOL     OW15310   1.616   2.841   8.698 -0.3680  0.6323 -0.1588
 1284SOL    HW115311   1.557   2.822   8.625  0.2541 -1.0909 -0.2156
 1284SOL    HW215312   1.582   2.925   8.729 -1.2934  0.3037 -0.2922
 1285SOL     OW15313   3.542   2.816   7.138 -0.1209 -0.1552  0.1742
 1285SOL    HW115314   3.558   2.731   7.097  1.2093  0.2080 -0.0612
 1285SOL    HW215315   3.558   2.871   7.061  2.3036 -1.1679 -0.0232
 1286SOL     OW15316   4.725   2.320  15.790  0.2978 -0.0217 -0.2820
 1286SOL    HW115317   4.701   2.288  15.703  0.9410  0.5611 -0.6733
 1286SOL    HW215318   0.058   2.393  15.772 -0.7723  0.2349 -2.7461
 1287SOL     OW15319   4.718   3.696  10.631  0.2433 -0.1404  0.3537
 1287SOL    HW115320   4.624   3.691  10.652 -0.4300  1.2189 -2.2957
 1287SOL    HW215321   0.014   3.781  10.669  0.3841 -0.7189  1.5599
 1288SOL     OW15322   2.173   0.399   6.616 -0.1998 -0.0608 -0.8754
 1288SOL    HW115323   2.260   0.434   6.602 -0.1992  0.7276  1.1791
 1288SOL    HW215324   2.181   0.319   6.564 -2.5992  0.6597 -2.3714
 1289SOL     OW15325   0.225   3.857   5.649  0.2261 -0.3408  0.3921
 1289SOL    HW115326   0.304   3.901   5.616 -0.8610 -0.1762 -2.0408
 1289SOL    HW215327   0.195   3.923   5.711  0.1979  0.6230 -0.6320
 1290SOL     OW15328   3.533   1.722   9.150  0.3838 -0.2467 -0.4814
 1290SOL    HW115329   3.542   1.783   9.078  2.2290 -0.9879 -0.8608
 1290SOL    HW215330   3.606   1.739   9.210 -0.2433  0.6902  0.0241
 1291SOL     OW15331   2.974   4.342  12.627  0.0561 -0.0028  0.4367
 1291SOL    HW115332   2.931   4.399  12.563  0.5141  0.2139  0.3205
 1291SOL    HW215333   2.911   4.273  12.646 -0.3417  0.5979  1.3035
 1292SOL     OW15334   2.361   1.916   7.841 -0.3188  0.1443  0.2497
 1292SOL    HW115335   2.435   1.882   7.791  0.7740  0.9600  1.3098
 1292SOL    HW215336   2.398   1.928   7.929 -0.0482  1.1480 -0.0037
 1293SOL     OW15337   2.126   2.699   3.901  0.1248  0.1349 -0.3776
 1293SOL    HW115338   2.159   2.788   3.906  0.9135 -0.2072  0.4297
 1293SOL    HW215339   2.108   2.698   3.807 -0.2903  2.0351 -0.3078
 1294SOL     OW15340   0.883   4.002   4.415  0.2515  0.3212  0.1541
 1294SOL    HW115341   0.901   3.909   4.403 -0.9254  0.2090 -0.7521
 1294SOL    HW215342   0.863   4.004   4.508  0.4599  1.1491  0.1810
 1295SOL     OW15343   1.900   3.141  10.285  0.1505  0.1152 -0.4919
 1295SOL    HW115344   1.935   3.183  10.364  3.5164  0.4679 -2.1432
 1295SOL    HW215345   1.982   3.117  10.241  0.0261  0.7385 -1.0507
 1296SOL     OW15346   0.930   1.430   3.780  0.1065 -0.5583 -0.0200
 1296SOL    HW115347   0.983   1.495   3.826  0.2568 -1.0793  0.5401
 1296SOL    HW215348   0.972   1.353   3.817 -0.0034 -0.3132  0.6103
 1297SOL     OW15349   0.565   3.275   8.948  0.0325 -0.3554  0.3348
 1297SOL    HW115350   0.473   3.277   8.973 -0.2468  1.6438 -0.8493
 1297SOL    HW215351   0.574   3.371   8.950 -2.1753 -0.1467 -0.6445
 1298SOL     OW15352   1.652   3.642   0.775  0.3469  0.6146  0.6379
 1298SOL    HW115353   1.566   3.626   0.738  0.6642 -0.0810  0.2049
 1298SOL    HW215354   1.697   3.564   0.741  1.2174  0.1158  2.9175
 1299SOL     OW15355   3.647   4.444   1.420 -0.5703 -0.1979  0.4517
 1299SOL    HW115356   3.739   4.466   1.406 -0.2898 -2.6542 -1.5755
 1299SOL    HW215357   3.647   4.400   1.505 -1.5746 -0.1669  0.4658
 1300SOL     OW15358   1.738   2.177   6.315 -0.1525 -0.2060  0.2347
 1300SOL    HW115359   1.658   2.124   6.309 -0.8408  0.9264 -0.7429
 1300SOL    HW215360   1.728   2.217   6.401 -0.0587  1.4752 -0.5300
 1301SOL     OW15361   1.190   2.590   2.670  0.3754 -0.6745  0.6608
 1301SOL    HW115362   1.264   2.529   2.677  0.0878 -1.1433 -0.3399
 1301SOL    HW215363   1.193   2.628   2.757 -1.1517  0.7955  0.0613
 1302SOL     OW15364   2.235   3.812   2.534  0.2669 -0.0327 -0.5550
 1302SOL    HW115365   2.210   3.852   2.451  0.8041  1.5324  0.0520
 1302SOL    HW215366   2.147   3.803   2.569  0.7692 -3.1312 -0.0289
 1303SOL     OW15367   4.423   3.080   4.706 -0.2259 -0.1849  0.3328
 1303SOL    HW115368   4.471   3.006   4.743  0.2334  0.0352  0.1701
 1303SOL    HW215369   4.486   3.151   4.696  0.9837 -1.0441  1.8217
 1304SOL     OW15370   0.144   4.268  12.900 -0.4819  0.0438  0.1720
 1304SOL    HW115371   0.070   4.217  12.933 -0.3476  0.6068  1.3653
 1304SOL    HW215372   0.215   4.203  12.894 -1.2104 -0.8701  1.3740
 1305SOL     OW15373   3.920   2.293   2.259  0.6271 -0.4351 -0.2518
 1305SOL    HW115374   3.835   2.250   2.252  1.1244 -1.4328 -0.3242
 1305SOL    HW215375   3.897   2.384   2.243  1.0477 -0.2819  0.0199
 1306SOL     OW15376   1.702   2.160   3.146  0.1616 -0.0136 -0.1500
 1306SOL    HW115377   1.627   2.166   3.205  0.0926 -0.6136 -0.1779
 1306SOL    HW215378   1.777   2.139   3.201  1.8134  1.4867 -1.8053
 1307SOL     OW15379   0.854   4.230   0.590 -0.4006 -0.1913 -0.6105
 1307SOL    HW115380   0.815   4.144   0.575  0.3737 -0.6020 -0.2729
 1307SOL    HW215381   0.916   4.217   0.518  0.4868  2.1999 -0.2660
 1308SOL     OW15382   4.234   0.720  12.009  0.6771 -0.5271 -0.0506
 1308SOL    HW115383   4.200   0.698  11.922 -1.4138 -1.7798  1.0725
 1308SOL    HW215384   4.277   0.803  11.990  0.6775 -0.2982  0.9659
 1309SOL     OW15385   3.399   3.622  11.721 -0.2644 -0.0617  0.2898
 1309SOL    HW115386   3.475   3.632  11.779 -1.6679 -2.0874  2.4590
 1309SOL    HW215387   3.439   3.553  11.669 -2.2578 -1.1813  0.2808
 1310SOL     OW15388   2.293   1.797   3.778 -0.1385  0.3578  0.2550
 1310SOL    HW115389   2.283   1.874   3.723 -0.6766 -0.5959 -0.9950
 1310SOL    HW215390   2.210   1.802   3.825 -0.0043 -1.5448  0.7112
 1311SOL     OW15391   0.594   3.178   1.743  0.3448  0.1312  0.0693
 1311SOL    HW115392   0.613   3.228   1.823 -2.9671 -0.9943  1.5694
 1311SOL    HW215393   0.604   3.095   1.790  0.8293 -1.2851 -2.5794
 1312SOL     OW15394   2.113   3.453   3.143 -0.2344 -0.4053 -0.4305
 1312SOL    HW115395   2.184   3.502   3.100 -1.3053  0.2295 -1.4855
 1312SOL    HW215396   2.047   3.459   3.074  0.0030  0.5900 -0.5749
 1313SOL     OW15397   1.678   3.532  10.143  0.4630 -0.5418  0.3714
 1313SOL    HW115398   1.742   3.586  10.189 -1.3423 -0.3182  2.6881
 1313SOL    HW215399   1.730   3.464  10.100  1.2128  1.5131 -1.9124
 1314SOL     OW15400   2.295   1.337   7.727 -0.0455  0.3215 -0.2892
 1314SOL    HW115401   2.216   1.291   7.698  0.2601  1.3870 -2.8001
 1314SOL    HW215402   2.255   1.387   7.798  2.7292 -0.7651  2.0521
 1315SOL     OW15403   0.773   3.830   3.881  0.2018  0.3954 -0.1872
 1315SOL    HW115404   0.826   3.870   3.813  0.6006  1.3120  0.6517
 1315SOL    HW215405   0.723   3.907   3.911  0.7236  0.4039  0.6809
 1316SOL     OW15406   1.368   3.005   7.109  0.0688  0.4637  0.1004
 1316SOL    HW115407   1.367   3.086   7.058  0.3077  0.4466  0.0683
 1316SOL    HW215408   1.304   2.947   7.068  0.4275  0.2632 -0.1629
 1317SOL     OW15409   3.021   1.970  13.849  0.3887  0.7740 -0.5198
 1317SOL    HW115410   3.062   1.989  13.765  1.8921  0.8782  0.2471
 1317SOL    HW215411   3.039   1.877  13.862  3.3597  1.5289  0.6675
 1318SOL     OW15412   4.424   3.129   6.209  0.0627 -0.6364  0.3050
 1318SOL    HW115413   4.408   3.073   6.133 -0.1876  0.1199 -0.1989
 1318SOL    HW215414   4.517   3.137   6.188  0.5415  0.2160  2.7153
 1319SOL     OW15415   4.341   1.665  13.815  0.0654  0.1238  0.5447
 1319SOL    HW115416   4.261   1.688  13.862 -0.6105 -1.5006  0.2056
 1319SOL    HW215417   4.376   1.603  13.879  1.2753 -1.0661 -1.2667
 1320SOL     OW15418   4.447   2.431   7.188  0.0683  0.2420  0.3882
 1320SOL    HW115419   4.530   2.475   7.207 -0.4020  1.1692  0.3172
 1320SOL    HW215420   4.379   2.494   7.214 -1.3144 -0.7604 -0.8427
 1321SOL     OW15421   3.004   1.239   6.965 -0.1876 -0.1396 -0.0900
 1321SOL    HW115422   3.086   1.206   6.929  0.0706 -1.4696  1.6969
 1321SOL    HW215423   2.959   1.155   6.963 -2.2514  0.9654 -0.3625
 1322SOL     OW15424   1.410   3.285   8.876  0.0431 -0.3862  0.4047
 1322SOL    HW115425   1.415   3.368   8.923  1.0615  0.9641 -2.1067
 1322SOL    HW215426   1.336   3.249   8.927 -1.0198 -0.5075 -1.2337
 1323SOL     OW15427   2.601   3.699  17.200  0.6297 -0.3128  0.2065
 1323SOL    HW115428   2.688   3.739  17.195  0.1094  1.3127  3.9787
 1323SOL    HW215429   2.616   3.651  17.282 -0.7133  0.2486  0.7793
 1324SOL     OW15430   4.191   2.330   7.889  0.1459 -0.7542 -0.4045
 1324SOL    HW115431   4.263   2.277   7.854  0.3926 -0.8520  0.2477
 1324SOL    HW215432   4.243   2.408   7.910 -1.9894  1.0993 -2.0234
 1325SOL     OW15433   2.406   0.985   2.395 -0.1796 -0.3921 -0.1307
 1325SOL    HW115434   2.352   1.032   2.331 -3.1417 -1.8543  1.2947
 1325SOL    HW215435   2.339   0.977   2.463  0.5019 -2.3091  0.3009
 1326SOL     OW15436   3.909   1.792   8.513  0.1998 -0.0911  0.6564
 1326SOL    HW115437   3.966   1.864   8.485 -0.4242 -0.2947 -1.1332
 1326SOL    HW215438   3.919   1.740   8.433  1.4949 -1.0985  1.4545
 1327SOL     OW15439   3.573   1.235  16.465  0.3039  0.1605  0.4430
 1327SOL    HW115440   3.534   1.164  16.414  3.7248 -2.2681  1.2076
 1327SOL    HW215441   3.655   1.194  16.494  1.2659  1.1930 -0.8460
 1328SOL     OW15442   2.708   2.853   8.737  0.6592 -0.6701 -0.0113
 1328SOL    HW115443   2.633   2.818   8.786  1.1409 -0.0800  1.1592
 1328SOL    HW215444   2.679   2.939   8.706  2.6810  1.0484  2.9387
 1329SOL     OW15445   0.078   2.304   4.869 -0.4256  0.4108  0.6659
 1329SOL    HW115446   0.059   2.277   4.959 -0.2421  0.6347  0.7694
 1329SOL    HW215447   0.023   2.245   4.816  0.3745  0.8628 -0.6633
 1330SOL     OW15448   1.462   4.051   5.066 -0.1715 -0.5740 -0.3723
 1330SOL    HW115449   1.455   4.091   4.980 -0.6053  1.3618  0.5543
 1330SOL    HW215450   1.556   4.042   5.077 -0.0517  1.8022  0.6441
 1331SOL     OW15451   2.208   4.497   3.587 -0.1715  0.1109 -0.1133
 1331SOL    HW115452   2.133   4.461   3.541 -0.2513 -0.2749  0.3224
 1331SOL    HW215453   2.179   4.588   3.580 -1.7294 -0.2782  1.2102
 1332SOL     OW15454   1.883   3.381   1.090  0.3031  0.5428  0.0688
 1332SOL    HW115455   1.932   3.307   1.055 -0.8300  0.2268 -0.8382
 1332SOL    HW215456   1.799   3.366   1.047  0.5020 -1.6915  0.4576
 1333SOL     OW15457   0.291   3.683  10.398  0.4433  0.3410  0.3312
 1333SOL    HW115458   0.233   3.616  10.435  0.1485 -0.3004 -1.2732
 1333SOL    HW215459   0.371   3.631  10.387  1.2606  1.8471 -0.7802
 1334SOL     OW15460   1.644   1.812   6.016 -0.3306  0.2796 -0.2034
 1334SOL    HW115461   1.591   1.851   6.085 -0.9402 -2.3265  0.7935
 1334SOL    HW215462   1.716   1.777   6.068  0.9949  2.7115 -0.4010
 1335SOL     OW15463   2.831   4.195   4.173  0.3864 -0.2079  0.4449
 1335SOL    HW115464   2.799   4.218   4.085  0.4961  1.0699  0.7371
 1335SOL    HW215465   2.748   4.185   4.221  0.5452 -0.3843  0.6826
 1336SOL     OW15466   0.993   2.012   2.119  0.3372  0.2118  0.0330
 1336SOL    HW115467   0.957   1.924   2.130  0.4277  0.4127  1.9207
 1336SOL    HW215468   1.070   1.989   2.067 -0.0239  3.2192 -1.8419
 1337SOL     OW15469   2.981   1.345   7.757 -0.2198 -0.3885  0.3954
 1337SOL    HW115470   3.008   1.302   7.838 -3.1703  0.1566  1.6558
 1337SOL    HW215471   2.923   1.411   7.793  0.4784 -0.3522  1.4535
 1338SOL     OW15472   3.639   3.235   6.835 -0.1837  0.4130  0.3104
 1338SOL    HW115473   3.621   3.270   6.922 -3.2028  0.1594 -0.2018
 1338SOL    HW215474   3.565   3.272   6.786  0.4090  0.7410 -0.3314
 1339SOL     OW15475   3.433   3.691   5.092 -0.1745 -0.1024  0.8877
 1339SOL    HW115476   3.341   3.673   5.110  0.2824 -1.5336  1.8252
 1339SOL    HW215477   3.443   3.748   5.167  2.5202 -0.8224  1.1072
 1340SOL     OW15478   0.978   3.473   6.805  0.1867  0.5521  0.5633
 1340SOL    HW115479   0.977   3.438   6.716 -0.3904  1.0749  0.3696
 1340SOL    HW215480   1.061   3.519   6.795 -0.0500  1.4266  2.8184
 1341SOL     OW15481   0.817   3.481   4.806  0.0097 -0.6378  0.3198
 1341SOL    HW115482   0.769   3.564   4.805 -1.0508 -1.2576 -0.2943
 1341SOL    HW215483   0.777   3.424   4.740  0.3634 -0.5571  0.0362
 1342SOL     OW15484   2.793   0.872   8.163  0.5673 -0.3661  0.3811
 1342SOL    HW115485   2.738   0.799   8.135 -0.1063 -1.1733  3.7952
 1342SOL    HW215486   2.731   0.943   8.148 -0.1622 -1.0074  0.3803
 1343SOL     OW15487   1.605   4.085   3.544 -0.1130 -0.6870  0.4066
 1343SOL    HW115488   1.539   4.064   3.610 -0.0214 -1.4045  0.2647
 1343SOL    HW215489   1.672   4.119   3.603  0.8089 -1.4796 -0.1865
 1344SOL     OW15490   2.804   3.316   5.137  0.2442 -0.8723  0.0150
 1344SOL    HW115491   2.841   3.231   5.114 -0.8905 -0.8223 -2.0356
 1344SOL    HW215492   2.747   3.284   5.206  0.6632 -1.9592 -0.1512
 1345SOL     OW15493   0.345   3.313   1.714 -0.1068 -0.7075  0.1466
 1345SOL    HW115494   0.380   3.348   1.632  2.3025  0.5799  1.7266
 1345SOL    HW215495   0.419   3.261   1.745 -0.4430  0.3203  2.7016
 1346SOL     OW15496   2.776   1.102   6.015 -0.0288  0.0995 -0.0096
 1346SOL    HW115497   2.787   1.103   6.110  4.2494  1.2059 -0.5162
 1346SOL    HW215498   2.758   1.009   5.999 -0.2424  0.2991 -0.9248
 1347SOL     OW15499   0.386   4.049   2.197 -0.1673  0.0440  0.2267
 1347SOL    HW115500   0.405   3.967   2.152 -1.0609 -0.3014  0.4730
 1347SOL    HW215501   0.462   4.054   2.255 -1.6111 -0.3136  2.1628
 1348SOL     OW15502   0.818   1.078   2.127 -0.2870 -0.0699  0.4552
 1348SOL    HW115503   0.757   1.151   2.134  0.9525  0.9864  0.4269
 1348SOL    HW215504   0.896   1.124   2.159 -0.1253  0.7573 -1.1714
 1349SOL     OW15505   0.998   4.585   2.208 -0.2217  0.8419  0.6936
 1349SOL    HW115506   0.973   4.516   2.147  1.1219  1.2411 -0.2918
 1349SOL    HW215507   0.927   4.591   2.272 -0.7218  1.8799  0.0543
 1350SOL     OW15508   3.393   0.240   4.781 -0.1590 -0.3701 -0.5956
 1350SOL    HW115509   3.350   0.207   4.860  0.8095  0.4560  0.2697
 1350SOL    HW215510   3.318   0.267   4.727 -1.6652  1.7346  2.5450
 1351SOL     OW15511   4.339   0.344   9.707  0.2582 -0.3953  0.2136
 1351SOL    HW115512   4.394   0.270   9.732 -0.9657 -1.1021  0.8096
 1351SOL    HW215513   4.393   0.371   9.633 -0.6250  0.3792 -0.1406
 1352SOL     OW15514   0.884   2.498  16.091 -0.4387 -0.8685  0.4448
 1352SOL    HW115515   0.803   2.452  16.071  0.2090 -1.2841 -1.2347
 1352SOL    HW215516   0.887   2.493  16.187  1.2065  3.5523  0.5996
 1353SOL     OW15517   2.736   0.887   3.371  0.9512  0.0447  0.2423
 1353SOL    HW115518   2.654   0.884   3.322  1.2550 -0.5099 -0.2185
 1353SOL    HW215519   2.709   0.873   3.462  1.7965 -1.6808  0.2291
 1354SOL     OW15520   2.929   2.122   9.815 -0.3122  0.1156 -0.0463
 1354SOL    HW115521   3.015   2.157   9.790  0.3386 -2.8906 -2.0656
 1354SOL    HW215522   2.952   2.102   9.906  0.2804  1.2137  0.0392
 1355SOL     OW15523   2.399   0.910   3.546  0.1719  0.3073  0.0465
 1355SOL    HW115524   2.353   0.988   3.515 -0.1542 -0.7640 -2.2005
 1355SOL    HW215525   2.459   0.944   3.612  0.2686  0.6831 -0.2337
 1356SOL     OW15526   0.369   1.974   8.499  0.3891  0.7351  0.2607
 1356SOL    HW115527   0.296   1.922   8.534  0.2755  0.6539 -0.0917
 1356SOL    HW215528   0.330   2.036   8.438 -0.6717 -2.5031 -2.3753
 1357SOL     OW15529   1.567   0.587   6.832  0.2076 -0.1483 -0.2542
 1357SOL    HW115530   1.556   0.669   6.783 -0.6736 -0.2492 -0.2191
 1357SOL    HW215531   1.496   0.596   6.895 -0.5266  0.2169 -1.1306
 1358SOL     OW15532   3.588   4.227   5.892 -0.3496 -0.5836  0.3829
 1358SOL    HW115533   3.631   4.147   5.922  0.3283 -0.1082  0.6766
 1358SOL    HW215534   3.564   4.212   5.801  1.6349  0.1575 -0.2770
 1359SOL     OW15535   1.021   1.740   8.798  0.4326  0.4852 -0.0473
 1359SOL    HW115536   0.947   1.731   8.857  0.7319  0.0085  0.2605
 1359SOL    HW215537   0.996   1.806   8.734  0.7395 -0.2337 -0.9123
 1360SOL     OW15538   2.672   4.172  14.068  0.3496 -0.0206 -0.2123
 1360SOL    HW115539   2.594   4.136  14.110  1.6159 -1.9397  0.4950
 1360SOL    HW215540   2.642   4.236  14.003 -0.4978 -0.1348  0.0587
 1361SOL     OW15541   1.095   2.964   1.032 -0.0705  0.1895  0.1457
 1361SOL    HW115542   1.033   2.965   0.959  1.1784 -2.1078 -0.9618
 1361SOL    HW215543   1.179   2.971   0.986 -0.3582 -0.2410 -0.4601
 1362SOL     OW15544   0.932   4.117   0.858  0.8421  0.5538 -0.2128
 1362SOL    HW115545   0.996   4.185   0.838 -0.6060  2.2781  1.0418
 1362SOL    HW215546   0.857   4.176   0.864  0.7208  0.3667  0.0999
 1363SOL     OW15547   4.121   4.450  14.725  0.0560 -0.3598  0.2440
 1363SOL    HW115548   4.157   4.525  14.772 -0.2884 -0.6745  1.0010
 1363SOL    HW215549   4.043   4.432  14.777  0.2634  1.0056  1.0311
 1364SOL     OW15550   0.581   0.298   7.763 -0.2697 -0.1017  0.3076
 1364SOL    HW115551   0.593   0.322   7.671 -0.3184 -1.2638 -0.0104
 1364SOL    HW215552   0.591   0.375   7.818  0.1473 -1.0340  1.5423
 1365SOL     OW15553   3.986   1.217   0.955  0.5522  0.3610  0.3210
 1365SOL    HW115554   4.027   1.200   0.870 -0.8776  1.0004 -0.4990
 1365SOL    HW215555   3.895   1.187   0.957  0.6442  0.0858  0.3809
 1366SOL     OW15556   3.695   3.767   2.373  0.2172 -0.2384 -0.1713
 1366SOL    HW115557   3.713   3.805   2.287 -2.1897  1.2936  0.0155
 1366SOL    HW215558   3.648   3.839   2.415  1.7315  1.8229 -1.9310
 1367SOL     OW15559   3.507   1.320   6.002 -0.1322  0.4530  0.0005
 1367SOL    HW115560   3.594   1.282   5.987 -0.8029 -0.7581 -0.8396
 1367SOL    HW215561   3.500   1.380   5.928 -1.4649  0.9656  0.5377
 1368SOL     OW15562   2.153   0.934   5.308 -0.0543 -0.2032  0.3665
 1368SOL    HW115563   2.131   0.840   5.310  1.4291 -0.5515  0.1420
 1368SOL    HW215564   2.076   0.968   5.354 -0.8653  0.5586 -1.5440
 1369SOL     OW15565   2.710   0.008   3.835  0.2212  0.1045  0.0836
 1369SOL    HW115566   2.793   4.686   3.840 -0.0809 -0.4101  0.2600
 1369SOL    HW215567   2.744   0.077   3.778  0.8430  0.5157  0.9359
 1370SOL     OW15568   4.442   2.027  13.227 -0.6225 -0.0062  0.4145
 1370SOL    HW115569   4.501   2.082  13.280  1.1238 -2.1406  0.6947
 1370SOL    HW215570   4.391   1.985  13.296  2.0937  2.3849  3.9545
 1371SOL     OW15571   1.179   3.973   4.222 -0.2847  0.0071 -0.0631
 1371SOL    HW115572   1.128   3.902   4.183 -2.1662  0.8674  0.8054
 1371SOL    HW215573   1.215   4.015   4.144 -0.9683 -0.4869 -0.6467
 1372SOL     OW15574   3.781   1.674  11.699  0.3151  0.7031 -0.3089
 1372SOL    HW115575   3.697   1.700  11.737  0.5462  1.3049 -0.2141
 1372SOL    HW215576   3.832   1.754  11.696  2.9611 -1.0329 -1.7455
 1373SOL     OW15577   1.535   0.653   7.953  0.1507  0.5077  0.1817
 1373SOL    HW115578   1.485   0.650   8.035 -0.1285 -1.9811 -0.0720
 1373SOL    HW215579   1.560   0.561   7.947 -0.9968  0.2122 -0.1028
 1374SOL     OW15580   0.398   0.656  14.041  0.6491  0.9449  0.1551
 1374SOL    HW115581   0.447   0.738  14.048  0.1554  1.1884  0.8291
 1374SOL    HW215582   0.348   0.647  14.122  0.6717  0.8259  0.1563
 1375SOL     OW15583   3.998   4.193   4.787  0.3838  0.4145  0.4708
 1375SOL    HW115584   3.988   4.107   4.829  2.2695  0.2734  0.5999
 1375SOL    HW215585   3.915   4.236   4.809 -0.1146 -1.1467  1.6524
 1376SOL     OW15586   2.535   0.552   5.180 -0.0099  0.2572  0.7570
 1376SOL    HW115587   2.535   0.648   5.174  1.0802  0.1523 -0.8528
 1376SOL    HW215588   2.627   0.525   5.177 -1.1893 -3.6413  0.2700
 1377SOL     OW15589   2.354   4.623   0.637 -0.0673  0.2955  0.4442
 1377SOL    HW115590   2.307   4.667   0.565  0.1119  1.6167  1.1370
 1377SOL    HW215591   2.327   4.683   0.706 -1.3514 -0.4677  0.6074
 1378SOL     OW15592   4.109   0.922   1.879 -0.2445  0.0896  1.0537
 1378SOL    HW115593   4.059   0.916   1.961 -1.0414 -2.5915  0.3484
 1378SOL    HW215594   4.039   0.940   1.817  1.4096  2.1496 -0.2350
 1379SOL     OW15595   0.110   3.578   3.550 -0.1520 -0.1273  0.3681
 1379SOL    HW115596   0.049   3.648   3.525 -0.5878 -0.2562  1.0810
 1379SOL    HW215597   0.177   3.589   3.482 -2.2166  0.2534 -1.5886
 1380SOL     OW15598   3.828   1.906  16.363 -0.4555 -0.5970 -0.2935
 1380SOL    HW115599   3.816   1.879  16.272  0.1799 -0.4885 -0.4133
 1380SOL    HW215600   3.854   1.824  16.405  0.2974  1.0173  2.4370
 1381SOL     OW15601   1.991   3.763   4.810  0.0018 -0.2735 -0.2875
 1381SOL    HW115602   1.939   3.816   4.750 -0.5433 -2.8252 -2.0821
 1381SOL    HW215603   2.070   3.745   4.758  0.4727 -0.2277  0.4141
 1382SOL     OW15604   4.688   0.437   5.457  0.5985  0.1800 -0.0965
 1382SOL    HW115605   4.662   0.441   5.549 -1.0614 -1.5098 -0.5003
 1382SOL    HW215606   0.004   0.522   5.445 -0.1471  0.0418 -3.7434
 1383SOL     OW15607   2.575   1.338  16.500  0.4309  0.0722  0.4381
 1383SOL    HW115608   2.546   1.268  16.443  1.5039 -1.0660  1.2803
 1383SOL    HW215609   2.568   1.299  16.587 -0.7411  2.5070  1.4501
 1384SOL     OW15610   0.844   4.710   7.646  0.3458 -0.1740 -0.5718
 1384SOL    HW115611   0.840   0.051   7.577 -1.6364  0.3435  0.0700
 1384SOL    HW215612   0.758   0.003   7.682  0.3276 -2.6210  0.6134
 1385SOL     OW15613   2.941   1.079   2.139  0.1359  0.7363  0.6245
 1385SOL    HW115614   2.974   1.025   2.067  0.8838  0.1898  1.3718
 1385SOL    HW215615   3.014   1.138   2.153 -0.9521  2.3260 -0.3988
 1386SOL     OW15616   3.354   4.249   8.458  0.0317 -0.3279 -0.3099
 1386SOL    HW115617   3.286   4.307   8.493  0.5623  1.4255 -2.1908
 1386SOL    HW215618   3.398   4.212   8.534 -0.0236  1.0216  0.3813
 1387SOL     OW15619   1.140   2.799   8.558  0.2524  0.0930 -0.2590
 1387SOL    HW115620   1.115   2.808   8.650 -2.0298 -2.5324 -0.6441
 1387SOL    HW215621   1.144   2.889   8.525 -0.8189 -0.1316 -1.0114
 1388SOL     OW15622   3.830   3.287   5.955 -0.0771  0.2866  0.2916
 1388SOL    HW115623   3.837   3.251   6.043 -1.2564  0.2609  0.3677
 1388SOL    HW215624   3.736   3.304   5.948  0.0663  1.4605  1.1026
 1389SOL     OW15625   1.133   0.829   7.669  0.3819  0.2636  0.8178
 1389SOL    HW115626   1.061   0.767   7.657  2.3780 -1.6023 -1.3846
 1389SOL    HW215627   1.202   0.770   7.700 -0.4267 -1.6835 -1.0617
 1390SOL     OW15628   2.435   0.090   2.807  0.2154  0.1296 -0.2374
 1390SOL    HW115629   2.409   0.054   2.892 -3.1316  0.6438 -1.0429
 1390SOL    HW215630   2.529   0.107   2.816  0.3103  0.2772 -1.5180
 1391SOL     OW15631   1.873   4.116   9.955 -0.0939 -0.5365 -0.6094
 1391SOL    HW115632   1.939   4.104  10.023  1.1091  0.3865 -1.6136
 1391SOL    HW215633   1.906   4.198   9.917 -3.0647  0.8911 -0.1317
 1392SOL     OW15634   1.986   2.993   9.148  0.0614  0.1481  0.3059
 1392SOL    HW115635   2.000   2.903   9.117 -0.3936 -0.3432  1.5187
 1392SOL    HW215636   2.064   3.041   9.120  0.7517 -1.1268  0.0193
 1393SOL     OW15637   4.216   3.305   5.047 -0.0330 -0.0968  0.2391
 1393SOL    HW115638   4.173   3.364   4.985 -0.8604  1.3040  2.1541
 1393SOL    HW215639   4.152   3.235   5.065 -1.5270  1.1356 -0.3041
 1394SOL     OW15640   0.058   1.311   5.865 -0.1809 -0.1559  0.2229
 1394SOL    HW115641   4.718   1.304   5.795  1.8182 -0.8915 -1.5569
 1394SOL    HW215642   0.045   1.234   5.920 -0.8945  0.4682  0.9184
 1395SOL     OW15643   3.163   3.926   8.846 -0.2615  0.4257 -0.6902
 1395SOL    HW115644   3.106   3.854   8.817  0.2435  0.2222 -1.1831
 1395SOL    HW215645   3.164   3.912   8.940  1.4455  1.3964 -0.5528
 1396SOL     OW15646   4.353   2.119   4.700  0.0245  0.0202  0.1457
 1396SOL    HW115647   4.443   2.090   4.715  0.2471  0.8112  0.3558
 1396SOL    HW215648   4.327   2.126   4.792 -1.4259 -2.8195 -0.0695
 1397SOL     OW15649   1.574   1.081   7.967 -0.3742  0.0152  0.7493
 1397SOL    HW115650   1.491   1.071   8.014 -1.1748  0.2148 -0.6316
 1397SOL    HW215651   1.623   1.120   8.039  2.7649 -0.3856 -1.1738
 1398SOL     OW15652   3.107   0.053   8.656  0.6190  0.4076  0.2115
 1398SOL    HW115653   3.122   0.147   8.646  0.5376  0.2050 -1.6938
 1398SOL    HW215654   3.013   0.059   8.672  0.8074 -0.2940  1.6118
 1399SOL     OW15655   3.676   0.714  14.233 -0.3916 -0.2255  0.5042
 1399SOL    HW115656   3.699   0.775  14.302 -0.1747  0.6315 -0.3245
 1399SOL    HW215657   3.670   0.774  14.158  3.3041  0.1100  0.5000
 1400SOL     OW15658   1.838   0.358   5.771  0.2870 -0.0497 -0.2151
 1400SOL    HW115659   1.930   0.332   5.779  0.2681  0.3590  1.3596
 1400SOL    HW215660   1.835   0.429   5.706 -2.7692  0.7008  0.7452
 1401SOL     OW15661   0.449   4.371   1.459 -0.5481  0.0342  0.1719
 1401SOL    HW115662   0.443   4.467   1.462 -0.3443  0.0122  1.4557
 1401SOL    HW215663   0.545   4.360   1.460 -0.4927  0.2321 -2.6688
 1402SOL     OW15664   1.444   4.613  10.888  0.2483  0.2902  0.0831
 1402SOL    HW115665   1.397   4.683  10.934 -0.1854 -0.5925  0.9873
 1402SOL    HW215666   1.518   4.660  10.848  0.5106  0.3013  0.5797
 1403SOL     OW15667   1.185   3.967   6.364  0.0751 -0.2025  0.3358
 1403SOL    HW115668   1.198   3.924   6.449 -1.0191 -0.5977  0.2952
 1403SOL    HW215669   1.095   3.995   6.377 -0.1310  0.7172 -3.0935
 1404SOL     OW15670   1.604   4.371   7.138  0.5221  0.1235  0.4056
 1404SOL    HW115671   1.552   4.390   7.061  1.3249 -2.0223 -0.6715
 1404SOL    HW215672   1.547   4.302   7.171  0.9479  0.2232  1.3561
 1405SOL     OW15673   3.934   1.797   2.612  0.1225  0.1185 -0.0264
 1405SOL    HW115674   3.883   1.717   2.626  1.1874 -0.1818  2.1817
 1405SOL    HW215675   4.002   1.774   2.549 -0.6412  0.8381 -1.1152
 1406SOL     OW15676   3.673   1.636   7.088  0.0923  0.2065  0.0642
 1406SOL    HW115677   3.653   1.582   7.012  0.5547  2.0971 -1.4211
 1406SOL    HW215678   3.767   1.622   7.085  0.1641  0.6579  0.1125
 1407SOL     OW15679   1.751   2.555  14.949  0.0473  0.3780  0.4899
 1407SOL    HW115680   1.661   2.526  14.935  0.3793 -0.4142 -0.0410
 1407SOL    HW215681   1.802   2.520  14.876 -0.7718  2.4458 -1.0617
 1408SOL     OW15682   1.967   2.247   5.516  0.2777 -0.2825 -0.5990
 1408SOL    HW115683   1.929   2.335   5.518 -0.3846 -0.5179 -3.0422
 1408SOL    HW215684   2.020   2.255   5.437  1.2921 -1.8403 -0.0823
 1409SOL     OW15685   4.567   1.838   8.107  0.1182 -0.0981  0.0898
 1409SOL    HW115686   4.554   1.913   8.166 -0.2287  0.9918 -1.3754
 1409SOL    HW215687   4.656   1.848   8.075 -0.1680  1.1075 -0.3284
 1410SOL     OW15688   2.134   2.359   6.616  0.4139 -0.4214  0.9325
 1410SOL    HW115689   2.069   2.410   6.663 -1.2467 -1.0687 -0.6462
 1410SOL    HW215690   2.076   2.300   6.567 -0.0736  0.0237  0.9795
 1411SOL     OW15691   1.230   2.024  16.888 -0.2383 -0.2377  0.2912
 1411SOL    HW115692   1.156   1.973  16.921  1.7095 -2.0860  1.7646
 1411SOL    HW215693   1.296   1.993  16.949 -0.5387 -2.8585 -0.7385
 1412SOL     OW15694   1.655   2.232  15.171  0.4554  0.0162 -0.1085
 1412SOL    HW115695   1.684   2.163  15.112  2.1569  0.8435 -0.2525
 1412SOL    HW215696   1.732   2.288  15.157 -0.5210  0.9842 -1.5971
 1413SOL     OW15697   0.441   1.248   6.948 -0.2560  0.7403 -0.1159
 1413SOL    HW115698   0.400   1.332   6.968  0.4462  0.8028  1.0752
 1413SOL    HW215699   0.518   1.278   6.899  0.5081 -0.4404  0.3767
 1414SOL     OW15700   0.680   0.407   7.306 -0.3125  0.4449  0.2522
 1414SOL    HW115701   0.603   0.459   7.328 -0.4019  0.9538 -1.2080
 1414SOL    HW215702   0.713   0.456   7.231 -2.1146  0.5461 -0.4872
 1415SOL     OW15703   1.447   0.915  16.234  0.1852  0.5325 -0.1136
 1415SOL    HW115704   1.411   0.858  16.302  2.0055 -1.2331 -0.6508
 1415SOL    HW215705   1.390   0.993  16.237 -0.0100  0.3124  1.7698
 1416SOL     OW15706   4.139   1.305   8.257 -0.3975 -0.5473  0.4950
 1416SOL    HW115707   4.154   1.278   8.167 -1.8785 -1.1557  0.4338
 1416SOL    HW215708   4.048   1.334   8.255  0.0432  0.6537 -1.5862
 1417SOL     OW15709   4.068   2.466  17.579 -0.9117 -0.1754  0.7371
 1417SOL    HW115710   4.053   2.378  17.543  0.9452 -0.4948  0.7307
 1417SOL    HW215711   3.992   2.507  17.539 -0.2007  1.4500  1.0426
 1418SOL     OW15712   2.894   4.698   2.703  0.2956 -0.1987  0.1890
 1418SOL    HW115713   2.858   0.060   2.685  0.0772 -0.1343  0.9291
 1418SOL    HW215714   2.813   4.646   2.705  0.8808 -1.0997  0.1898
 1419SOL     OW15715   2.773   3.693   2.188 -0.0689 -0.3144 -0.3069
 1419SOL    HW115716   2.858   3.708   2.230 -0.7164  0.2171  0.8350
 1419SOL    HW215717   2.736   3.622   2.240 -0.1881  0.0810  0.1550
 1420SOL     OW15718   0.615   3.893   4.362  0.2242 -0.1225 -0.0237
 1420SOL    HW115719   0.551   3.884   4.291 -0.1219  1.6633  0.0576
 1420SOL    HW215720   0.570   3.959   4.415 -0.6097 -0.5144 -0.2420
 1421SOL     OW15721   4.553   1.698  10.637  0.2213  0.4617  0.4150
 1421SOL    HW115722   4.568   1.604  10.647  0.1901  0.2505 -1.3872
 1421SOL    HW215723   4.621   1.719  10.572  0.1995  0.7249  0.4764
 1422SOL     OW15724   0.057   1.763  16.784  0.0774 -0.0751 -0.1671
 1422SOL    HW115725   0.007   1.824  16.730 -1.6902 -0.3193  1.2015
 1422SOL    HW215726   0.022   1.787  16.870 -0.0453  2.1914 -0.8545
 1423SOL     OW15727   3.488   1.253   1.792  0.2240  0.3592  0.1805
 1423SOL    HW115728   3.478   1.337   1.746  2.3550  1.1244  1.0949
 1423SOL    HW215729   3.470   1.191   1.722  1.4272  0.2774 -0.0604
 1424SOL     OW15730   4.534   2.425   0.505 -0.4202  0.3672  0.6983
 1424SOL    HW115731   4.626   2.398   0.514 -0.2552 -0.0819 -2.2688
 1424SOL    HW215732   4.480   2.352   0.535 -1.8175  0.7888 -0.8295
 1425SOL     OW15733   2.767   2.656   7.164  0.2434 -0.1289  0.3215
 1425SOL    HW115734   2.735   2.603   7.237  0.0969  0.1145  0.4378
 1425SOL    HW215735   2.728   2.611   7.089 -2.8493  0.7210  1.4205
 1426SOL     OW15736   3.325   4.536   5.455 -0.5694 -0.6352  0.6048
 1426SOL    HW115737   3.237   4.570   5.474  0.1024  1.4968 -0.0751
 1426SOL    HW215738   3.373   4.615   5.429 -1.7553 -0.0286  0.2632
 1427SOL     OW15739   2.268   3.614  11.683 -0.4324 -0.1917 -0.3074
 1427SOL    HW115740   2.256   3.522  11.706 -0.9730  0.4172  1.7830
 1427SOL    HW215741   2.292   3.597  11.592  1.0705 -1.5465  0.3338
 1428SOL     OW15742   3.494   0.685   9.119 -0.3004  0.0172  0.6876
 1428SOL    HW115743   3.435   0.760   9.128  1.0024  1.0937  0.2951
 1428SOL    HW215744   3.557   0.700   9.190  0.1964 -1.8579  0.6327
 1429SOL     OW15745   3.044   0.375   4.071 -0.3783 -0.4082 -0.4300
 1429SOL    HW115746   2.958   0.335   4.057 -0.2767 -0.7119 -0.1985
 1429SOL    HW215747   3.050   0.407   3.981 -1.9885  2.3445  0.4627
 1430SOL     OW15748   1.173   3.149  13.230  0.2475  1.0085  0.2295
 1430SOL    HW115749   1.242   3.177  13.169 -1.2824  1.2527 -1.3641
 1430SOL    HW215750   1.235   3.109  13.292 -2.1852 -0.0247  1.9681
 1431SOL     OW15751   1.412   1.978  10.135  0.0334  0.2545  0.1579
 1431SOL    HW115752   1.403   1.919  10.209  1.5542  1.9220  1.6830
 1431SOL    HW215753   1.508   1.977  10.140  0.0652  0.2315 -0.4284
 1432SOL     OW15754   4.320   3.573   4.105  0.1177  0.6112  0.3583
 1432SOL    HW115755   4.321   3.503   4.040  0.9506 -1.0805  2.2161
 1432SOL    HW215756   4.268   3.538   4.177  2.2976 -0.7039  1.2771
 1433SOL     OW15757   4.712   1.933   5.576  0.1444 -0.0658  0.2293
 1433SOL    HW115758   4.695   1.997   5.507  1.5442 -0.8428 -0.8259
 1433SOL    HW215759   4.626   1.895   5.589 -0.1132  0.4459  0.0275
 1434SOL     OW15760   3.625   0.740  11.241  0.0336 -0.0540  0.3912
 1434SOL    HW115761   3.703   0.693  11.212  0.1250 -1.2662  2.6132
 1434SOL    HW215762   3.630   0.717  11.334  1.1352  1.4500  0.7179
 1435SOL     OW15763   2.250   2.671  15.766 -0.0269 -0.2240 -0.2542
 1435SOL    HW115764   2.298   2.749  15.740  1.3824 -0.8171  0.5928
 1435SOL    HW215765   2.265   2.615  15.689 -0.3702 -0.3374 -0.2405
 1436SOL     OW15766   1.279   3.958  17.397  0.2063 -0.3233 -0.1236
 1436SOL    HW115767   1.310   4.029  17.453 -0.9081  0.3504 -0.3612
 1436SOL    HW215768   1.316   3.880  17.438  2.1322  1.8956  2.3734
 1437SOL     OW15769   2.264   1.960   7.023 -0.0207  0.4484 -0.9907
 1437SOL    HW115770   2.171   1.945   7.003 -0.0905 -1.7824  0.9764
 1437SOL    HW215771   2.291   2.012   6.947  1.9370 -0.8557 -1.1742
 1438SOL     OW15772   4.270   1.050  14.059 -0.0868 -0.1713  0.2607
 1438SOL    HW115773   4.217   1.002  14.122  0.8282  0.2516  1.3545
 1438SOL    HW215774   4.213   1.064  13.983 -0.2588 -0.3252  0.3630
 1439SOL     OW15775   3.056   2.494  14.763 -0.1114  0.6289  0.0721
 1439SOL    HW115776   3.085   2.404  14.781  2.5725  1.6650  0.9008
 1439SOL    HW215777   3.026   2.487  14.673 -0.6711  0.9513  0.2335
 1440SOL     OW15778   4.307   1.904   6.884 -0.1582 -0.6996  0.4937
 1440SOL    HW115779   4.328   1.936   6.796 -4.1454 -0.1308 -0.2606
 1440SOL    HW215780   4.390   1.922   6.928 -0.5010 -1.8442  1.6082
 1441SOL     OW15781   2.673   0.692  15.534 -0.0561  0.2408 -0.4183
 1441SOL    HW115782   2.650   0.784  15.546 -3.0734 -0.5873  0.1064
 1441SOL    HW215783   2.714   0.695  15.447 -0.5482  1.4629 -0.6150
 1442SOL     OW15784   4.010   0.225  11.244  0.9267 -0.3442 -0.0773
 1442SOL    HW115785   3.978   0.261  11.327 -2.1247  0.1306 -1.4729
 1442SOL    HW215786   4.003   0.302  11.188  1.0202 -0.9577 -0.9323
 1443SOL     OW15787   1.128   4.241   4.646 -0.2005  0.3946  0.3186
 1443SOL    HW115788   1.148   4.335   4.647 -2.1967  0.8259  1.9373
 1443SOL    HW215789   1.036   4.249   4.670 -0.0477  0.5043  0.8637
 1444SOL     OW15790   4.299   3.880  13.084  0.0393  0.4971 -0.2940
 1444SOL    HW115791   4.277   3.878  12.991  2.0677 -2.8934 -0.7068
 1444SOL    HW215792   4.370   3.943  13.085 -0.2251  0.7706  0.8601
 1445SOL     OW15793   1.689   4.367   2.765 -0.3421  0.2124 -0.7317
 1445SOL    HW115794   1.712   4.299   2.829 -1.4988  1.8082  1.3928
 1445SOL    HW215795   1.753   4.437   2.770  0.5117 -0.6336  0.1443
 1446SOL     OW15796   0.906   3.946   8.109  0.1880 -0.2826 -0.2228
 1446SOL    HW115797   0.972   3.948   8.039 -1.9719  1.9929 -2.1799
 1446SOL    HW215798   0.850   4.022   8.096 -0.7884 -1.3265 -2.1834
 1447SOL     OW15799   2.407   0.232   3.737  0.1085 -0.0201  0.0696
 1447SOL    HW115800   2.392   0.139   3.757  0.7464 -0.0918  0.2081
 1447SOL    HW215801   2.382   0.273   3.820  0.2328  2.1925 -0.9921
 1448SOL     OW15802   2.834   3.745   7.623 -0.1452  0.4297 -0.6543
 1448SOL    HW115803   2.763   3.714   7.678 -0.0263  1.0670 -0.1407
 1448SOL    HW215804   2.899   3.769   7.689  0.1967  3.0932 -1.9793
 1449SOL     OW15805   1.238   4.409   0.446  0.0410 -0.2446  0.6956
 1449SOL    HW115806   1.329   4.426   0.422 -0.2148  1.0854  0.6890
 1449SOL    HW215807   1.218   4.500   0.468  0.5479 -0.4695  2.0747
 1450SOL     OW15808   0.823   1.914   4.640  0.2791 -0.0233  0.2870
 1450SOL    HW115809   0.897   1.858   4.619  0.4631 -0.5059  2.1610
 1450SOL    HW215810   0.758   1.897   4.572  0.8469 -1.4974  0.1093
 1451SOL     OW15811   3.789   0.719   4.003 -0.5958  0.4885 -0.4826
 1451SOL    HW115812   3.781   0.729   3.908  1.3874  1.1047 -0.5681
 1451SOL    HW215813   3.861   0.656   4.002 -2.2271 -1.3928 -0.0663
 1452SOL     OW15814   1.034   4.076   8.392  0.2895 -0.0346 -0.3168
 1452SOL    HW115815   0.952   4.027   8.403  0.9687 -0.9049  0.9417
 1452SOL    HW215816   1.006   4.161   8.360  0.8227 -0.4422 -1.8789
 1453SOL     OW15817   1.968   2.423   7.822 -0.0927  0.2680 -0.2977
 1453SOL    HW115818   2.014   2.434   7.739 -0.3380  3.1686 -0.0467
 1453SOL    HW215819   1.901   2.490   7.816  0.4082  0.8516  0.5612
 1454SOL     OW15820   1.555   3.001  15.176 -0.3798  0.6662 -0.0450
 1454SOL    HW115821   1.549   2.954  15.259  1.7236 -0.6933 -0.6495
 1454SOL    HW215822   1.592   2.932  15.121 -2.6424 -0.7087  0.1428
 1455SOL     OW15823   2.685   4.645   1.234 -0.3572  0.6367 -0.2053
 1455SOL    HW115824   2.606   4.654   1.181 -1.9547 -0.3935  1.9940
 1455SOL    HW215825   2.757   4.649   1.171 -0.0220  0.4260  0.1680
 1456SOL     OW15826   4.195   3.438  16.227 -0.0234 -0.4566 -0.3877
 1456SOL    HW115827   4.268   3.376  16.224 -0.8947 -1.4581 -0.7674
 1456SOL    HW215828   4.113   3.401  16.193 -0.7447 -2.0695  2.9948
 1457SOL     OW15829   0.729   2.966  10.410 -0.5481  0.2906  0.3697
 1457SOL    HW115830   0.788   2.973  10.486 -1.4375 -0.6981  1.1540
 1457SOL    HW215831   0.659   3.024  10.441 -1.0268  0.1920 -0.5467
 1458SOL     OW15832   2.618   2.225   0.477 -0.2508 -0.2525 -0.0051
 1458SOL    HW115833   2.682   2.154   0.466 -1.5508 -1.7873  2.4490
 1458SOL    HW215834   2.540   2.182   0.444  0.1678 -1.4634  0.5919
 1459SOL     OW15835   1.245   4.249   6.591  0.0996 -0.5102  0.1657
 1459SOL    HW115836   1.316   4.202   6.547  0.8023 -0.7224  1.5050
 1459SOL    HW215837   1.231   4.322   6.531 -1.3831  0.0694  1.2245
 1460SOL     OW15838   1.254   1.664  17.560 -0.2707  0.3671  0.6241
 1460SOL    HW115839   1.318   1.642  17.628  0.6620 -1.2434 -0.7779
 1460SOL    HW215840   1.221   1.746  17.598 -0.1141  0.5357  0.3975
 1461SOL     OW15841   4.269   4.381  15.989  0.1532  0.0260  0.3637
 1461SOL    HW115842   4.272   4.286  16.001 -3.4267 -0.4335 -2.2497
 1461SOL    HW215843   4.196   4.387  15.927  1.0984  2.0149 -0.5789
 1462SOL     OW15844   4.572   4.023   2.453 -0.6290  0.5440  0.3932
 1462SOL    HW115845   4.661   4.045   2.426 -0.1848 -1.0748  0.5546
 1462SOL    HW215846   4.561   3.933   2.425  2.3528 -0.4122  2.3163
 1463SOL     OW15847   3.069   3.207  15.789  0.0710  0.1490 -0.5493
 1463SOL    HW115848   3.063   3.140  15.721 -0.7982 -0.6452  0.3060
 1463SOL    HW215849   2.990   3.257  15.770 -0.3791  0.0505  1.0584
 1464SOL     OW15850   1.054   0.929  10.566  0.2126  0.0416 -0.3623
 1464SOL    HW115851   1.127   0.954  10.623  0.7422 -0.1351 -0.9682
 1464SOL    HW215852   1.011   0.865  10.622  0.4041  2.1831  2.2880
 1465SOL     OW15853   0.885   0.584   4.094 -0.4369 -0.4898 -0.1824
 1465SOL    HW115854   0.901   0.588   4.000 -2.2698 -0.0793 -0.4718
 1465SOL    HW215855   0.948   0.517   4.120  0.7401  0.0838 -1.6057
 1466SOL     OW15856   4.159   2.013  11.026 -0.6209 -0.5028 -0.6360
 1466SOL    HW115857   4.226   2.012  11.094 -1.0475  2.2802 -0.1901
 1466SOL    HW215858   4.094   2.077  11.055 -0.5196 -0.9938  0.6444
 1467SOL     OW15859   3.819   3.619   6.540  0.9542 -0.0868 -0.1999
 1467SOL    HW115860   3.805   3.591   6.450  0.8196 -0.6999  0.0134
 1467SOL    HW215861   3.735   3.598   6.580  1.2503 -0.4901  0.2082
 1468SOL     OW15862   0.496   3.583   8.193 -0.1902 -0.2717  0.0737
 1468SOL    HW115863   0.479   3.495   8.160 -0.1912 -0.3804  0.3645
 1468SOL    HW215864   0.545   3.627   8.123  2.1112 -1.6134  0.8367
 1469SOL     OW15865   4.392   1.139   5.450  0.5602  0.1113  0.1686
 1469SOL    HW115866   4.367   1.131   5.542  0.1633 -2.5924 -0.1734
 1469SOL    HW215867   4.306   1.123   5.411 -0.9967 -1.0289  4.0723
 1470SOL     OW15868   3.654   3.008   2.214 -0.5122 -0.8002  0.5542
 1470SOL    HW115869   3.714   3.082   2.213  1.4335 -2.3882 -1.8179
 1470SOL    HW215870   3.681   2.955   2.139 -0.5682  0.2440 -0.1875
 1471SOL     OW15871   1.510   0.944   6.112  0.4317  0.3739  0.0212
 1471SOL    HW115872   1.467   1.029   6.118  1.1817  0.8018 -0.5916
 1471SOL    HW215873   1.508   0.916   6.021 -1.2251 -0.2191  0.2424
 1472SOL     OW15874   3.576   2.847  12.494 -0.3430 -1.0103  0.1801
 1472SOL    HW115875   3.653   2.826  12.442 -0.1786 -1.2320  0.5144
 1472SOL    HW215876   3.532   2.763  12.476 -1.9547 -0.3957  1.2866
 1473SOL     OW15877   1.999   1.866   6.360 -0.5109  0.4510  0.1160
 1473SOL    HW115878   1.950   1.796   6.316  0.5128 -1.7624  2.5347
 1473SOL    HW215879   2.017   1.920   6.283  2.9954  0.8761  1.2184
 1474SOL     OW15880   4.265   4.320   4.977 -0.5943 -0.5215  0.0543
 1474SOL    HW115881   4.327   4.381   4.937 -0.7030 -0.7850 -0.5186
 1474SOL    HW215882   4.189   4.378   4.979 -0.7448 -0.6611 -1.3450
 1475SOL     OW15883   3.952   2.814   5.244 -0.4486  0.4187 -0.3430
 1475SOL    HW115884   3.900   2.827   5.323 -0.5778  1.5830 -0.6142
 1475SOL    HW215885   3.885   2.806   5.176 -0.9218  0.9654  0.0508
 1476SOL     OW15886   0.219   0.873  16.947 -0.3412  1.1202 -0.0364
 1476SOL    HW115887   0.172   0.810  17.002  0.8354 -0.5232 -0.9238
 1476SOL    HW215888   0.232   0.945  17.008 -0.7830  0.5445  0.7414
 1477SOL     OW15889   2.409   0.035  10.857  0.1431 -0.2310 -0.5192
 1477SOL    HW115890   2.499   0.019  10.828  0.1962 -0.8308 -0.0297
 1477SOL    HW215891   2.425   0.089  10.934 -1.2069 -1.0012  0.2944
 1478SOL     OW15892   3.657   2.894  11.894 -0.1107 -0.1789  0.2956
 1478SOL    HW115893   3.605   2.834  11.841 -1.5264  0.9738  0.3741
 1478SOL    HW215894   3.743   2.851  11.894 -0.0934 -0.1239 -2.7225
 1479SOL     OW15895   3.580   1.290  13.051 -0.1437 -0.3183 -0.1082
 1479SOL    HW115896   3.522   1.216  13.036 -2.6102  1.1700  2.0842
 1479SOL    HW215897   3.537   1.328  13.127  2.1620 -1.2385  1.6606
 1480SOL     OW15898   3.191   2.753  17.469 -0.1687  0.0085 -0.2021
 1480SOL    HW115899   3.232   2.834  17.499 -1.3947  0.9690 -1.1146
 1480SOL    HW215900   3.248   2.684  17.502 -2.4982 -1.2987  1.0817
 1481SOL     OW15901   1.991   2.913  11.202 -0.3452 -0.7050 -0.4231
 1481SOL    HW115902   2.015   2.911  11.109  1.8093  1.3957  0.0783
 1481SOL    HW215903   2.058   2.973  11.238  1.4235 -2.3540 -0.9575
 1482SOL     OW15904   1.405   0.242   5.704 -0.2907  0.0389 -0.7629
 1482SOL    HW115905   1.386   0.203   5.619 -3.1102 -3.0766  1.2423
 1482SOL    HW215906   1.496   0.215   5.710 -0.6900 -1.2624 -0.4378
 1483SOL     OW15907   0.023   0.962   9.474 -0.7266 -0.4449 -0.1715
 1483SOL    HW115908   0.002   1.055   9.464  0.1856 -0.1629  0.5373
 1483SOL    HW215909   4.687   0.949   9.547 -0.8494 -1.1199 -0.3908
 1484SOL     OW15910   4.660   4.186   9.152 -0.9106  0.7383 -0.0265
 1484SOL    HW115911   4.599   4.163   9.222 -0.3225  1.0021  0.5779
 1484SOL    HW215912   4.620   4.259   9.105 -2.4684  0.1923  0.4390
 1485SOL     OW15913   4.445   3.017  16.726 -0.4108  0.1591 -0.0891
 1485SOL    HW115914   4.428   3.072  16.803 -0.4860 -0.5617  0.4079
 1485SOL    HW215915   4.448   3.083  16.657 -1.5457  1.6070  1.2385
 1486SOL     OW15916   3.477   3.416  11.553  0.3454  0.0731 -0.1252
 1486SOL    HW115917   3.511   3.326  11.550  0.0324 -0.0380 -0.3407
 1486SOL    HW215918   3.530   3.461  11.487 -0.4243  0.4497 -0.4828
 1487SOL     OW15919   4.226   0.935   2.168  0.1114  0.1003  0.2964
 1487SOL    HW115920   4.310   0.936   2.123  0.2463  0.5083  0.5555
 1487SOL    HW215921   4.174   1.008   2.134  0.0216 -1.2458 -2.4476
 1488SOL     OW15922   0.810   0.126   4.016 -0.2527 -0.2092 -0.5651
 1488SOL    HW115923   0.844   0.038   3.999  3.2105  1.1175 -0.5022
 1488SOL    HW215924   0.868   0.182   3.965  1.8076 -1.3619  0.5523
 1489SOL     OW15925   4.533   3.182   7.839  0.8663 -0.3287  0.3316
 1489SOL    HW115926   4.588   3.166   7.762  0.5088  2.3309 -0.4873
 1489SOL    HW215927   4.447   3.154   7.806  0.8167 -1.4830  1.4374
 1490SOL     OW15928   1.952   0.609  14.037 -0.1148  0.2650 -0.0989
 1490SOL    HW115929   1.861   0.613  14.007 -1.2823 -0.4536  3.3342
 1490SOL    HW215930   1.961   0.516  14.059  2.9407 -0.1807 -3.2314
 1491SOL     OW15931   0.556   4.700   2.228 -0.2326  0.1724 -0.2367
 1491SOL    HW115932   0.564   4.640   2.302  0.1356 -0.5492 -0.8664
 1491SOL    HW215933   0.601   4.653   2.158 -0.0958 -0.3258  0.1916
 1492SOL     OW15934   3.796   4.309   3.233 -0.1104  0.2590 -0.2703
 1492SOL    HW115935   3.799   4.214   3.246  0.8281  0.3004 -0.1762
 1492SOL    HW215936   3.848   4.334   3.309 -1.0538  0.0839  0.4403
 1493SOL     OW15937   1.620   1.485   2.154 -0.5274  0.2306 -0.3728
 1493SOL    HW115938   1.681   1.556   2.175 -1.3225  0.5697  0.8171
 1493SOL    HW215939   1.571   1.505   2.074  0.5308  2.0533 -0.5822
 1494SOL     OW15940   2.013   1.200   5.739  0.2033 -0.2852 -0.2597
 1494SOL    HW115941   2.044   1.283   5.775 -2.0607 -0.0894  1.2661
 1494SOL    HW215942   1.924   1.189   5.774  0.8515 -1.3912  1.0318
 1495SOL     OW15943   0.079   1.869   5.846  0.0194  0.5780 -0.3955
 1495SOL    HW115944   4.723   1.831   5.879  1.1734  0.3428  2.1793
 1495SOL    HW215945   0.048   1.936   5.785 -0.4693  1.3401  0.6672
 1496SOL     OW15946   4.360   2.648   5.648  0.3981 -0.2508  0.6166
 1496SOL    HW115947   4.314   2.647   5.564 -0.8299  1.7655  1.2713
 1496SOL    HW215948   4.439   2.615   5.607  0.4944 -0.1249  0.7013
 1497SOL     OW15949   3.848   2.637   8.402 -0.1230 -0.1390 -0.0357
 1497SOL    HW115950   3.928   2.684   8.427 -1.0214  2.8718 -2.7693
 1497SOL    HW215951   3.790   2.659   8.475  0.0155 -1.0628  0.3440
 1498SOL     OW15952   0.160   4.552   4.001  0.5406  0.2850 -0.2756
 1498SOL    HW115953   0.198   4.630   3.962  0.1062  0.6829  0.0900
 1498SOL    HW215954   0.095   4.608   4.045  0.9861 -1.4484  2.6131
 1499SOL     OW15955   2.723   4.503   0.010  0.2194  0.8160  0.2223
 1499SOL    HW115956   2.708   4.555   0.090 -2.8361  0.0588  0.1583
 1499SOL    HW215957   2.719   4.417   0.052  1.8280 -0.8748 -3.0904
 1500SOL     OW15958   4.082   2.472   7.003 -0.4094 -0.2135 -0.2848
 1500SOL    HW115959   4.080   2.377   7.000 -0.8358 -0.2003 -0.5103
 1500SOL    HW215960   4.133   2.480   6.923  0.7873 -0.1250  0.4892
 1501SOL     OW15961   2.751   1.895   5.637  0.2993 -0.6567  0.0978
 1501SOL    HW115962   2.699   1.881   5.716  0.8246 -0.0119  0.5551
 1501SOL    HW215963   2.693   1.842   5.583 -0.2969 -0.3349  0.4301
 1502SOL     OW15964   0.664   1.031   1.116  0.1204  0.3533 -0.2772
 1502SOL    HW115965   0.710   1.102   1.070 -2.5408  1.8007 -0.7151
 1502SOL    HW215966   0.598   1.019   1.047  0.7850 -1.9179 -0.5075
 1503SOL     OW15967   2.823   2.970   7.437  0.6549  0.4608 -0.1377
 1503SOL    HW115968   2.882   3.041   7.462  0.1018  0.2793  1.7338
 1503SOL    HW215969   2.827   2.970   7.342 -3.1219 -0.2103 -0.2978
 1504SOL     OW15970   2.803   1.939   5.212 -0.3221  0.0145 -0.0428
 1504SOL    HW115971   2.880   1.960   5.264 -0.2045  0.8803 -0.5876
 1504SOL    HW215972   2.843   1.877   5.151 -0.7582 -2.0256  1.7114
 1505SOL     OW15973   1.492   2.886   7.512  0.2328 -0.0993  0.3778
 1505SOL    HW115974   1.433   2.948   7.554  0.5740 -1.8900  3.5580
 1505SOL    HW215975   1.516   2.927   7.429 -1.6492  0.6201  0.2021
 1506SOL     OW15976   4.065   3.541   7.877 -0.4548  0.0034 -0.2546
 1506SOL    HW115977   4.126   3.549   7.803  0.3342  1.0561  0.5022
 1506SOL    HW215978   4.129   3.516   7.943  1.2418 -2.1605 -2.7005
 1507SOL     OW15979   0.619   0.328   4.156 -0.1531 -0.3949 -1.0381
 1507SOL    HW115980   0.628   0.326   4.061  3.5654 -1.2548 -0.6731
 1507SOL    HW215981   0.705   0.297   4.184 -0.2657  0.9082  0.7837
 1508SOL     OW15982   1.765   2.823   3.160  0.3656 -0.2490  0.2608
 1508SOL    HW115983   1.727   2.910   3.173  1.8818  0.0726  2.5365
 1508SOL    HW215984   1.759   2.801   3.067 -0.2832  2.1635 -0.2609
 1509SOL     OW15985   2.930   0.760   2.177 -0.4076  0.7893  0.0882
 1509SOL    HW115986   2.969   0.805   2.102  0.8948 -0.0124  0.2859
 1509SOL    HW215987   2.988   0.685   2.169 -1.1856  0.0644  1.1803
 1510SOL     OW15988   0.288   3.870  10.585  0.6533 -0.3593  0.1344
 1510SOL    HW115989   0.219   3.931  10.562 -1.6379 -2.3971  1.5791
 1510SOL    HW215990   0.290   3.810  10.510  0.4198  0.1476 -0.2702
 1511SOL     OW15991   2.722   4.115  11.887 -0.0770  0.1968 -0.5600
 1511SOL    HW115992   2.725   4.029  11.844  2.9401  0.3054 -0.5850
 1511SOL    HW215993   2.775   4.165  11.825  1.5082 -1.8760 -0.8748
 1512SOL     OW15994   3.967   2.014   1.134 -0.7907 -0.0727  0.0906
 1512SOL    HW115995   3.937   2.099   1.165 -0.2393 -0.6016  2.0949
 1512SOL    HW215996   3.919   1.952   1.190 -0.6485  0.1454  0.4503
 1513SOL     OW15997   2.236   4.253   6.090  0.2255  0.4707  0.0053
 1513SOL    HW115998   2.250   4.207   6.172  1.4563  1.1907  0.1960
 1513SOL    HW215999   2.155   4.299   6.113 -0.9908 -0.6929 -1.9778
 1514SOL     OW16000   2.735   0.915  15.789 -0.0311  0.0439 -0.2112
 1514SOL    HW116001   2.641   0.902  15.776  0.5796 -1.9102 -2.6212
 1514SOL    HW216002   2.755   0.875  15.874 -1.3011  0.6462  0.3673
 1515SOL     OW16003   1.046   1.863   1.375 -0.2952 -0.1268 -0.0301
 1515SOL    HW116004   0.956   1.892   1.389 -0.9260 -1.5312 -1.1345
 1515SOL    HW216005   1.089   1.944   1.346  1.5296 -0.8972  0.4914
 1516SOL     OW16006   0.999   2.525   0.711  0.1644 -0.0533 -0.3050
 1516SOL    HW116007   1.093   2.535   0.726 -0.1551  1.5626  0.5932
 1516SOL    HW216008   0.980   2.452   0.770  1.8385  1.1014  1.6740
 1517SOL     OW16009   2.875   3.061   5.068 -0.6939 -0.3798  0.6445
 1517SOL    HW116010   2.798   3.023   5.111 -2.7938  2.0297 -0.9793
 1517SOL    HW216011   2.944   3.002   5.098 -1.4684 -1.2938  0.6540
 1518SOL     OW16012   3.420   4.261  15.108  0.3703 -0.0079  0.3832
 1518SOL    HW116013   3.383   4.238  15.193  0.2914 -0.8934  0.1029
 1518SOL    HW216014   3.336   4.254  15.064  0.6489 -0.0812 -0.1294
 1519SOL     OW16015   0.540   4.605   8.911 -0.5353  0.3560 -0.5269
 1519SOL    HW116016   0.496   4.621   8.827  1.0531  4.6232 -0.5709
 1519SOL    HW216017   0.573   4.517   8.897  0.2194  0.7633 -1.2932
 1520SOL     OW16018   1.043   2.338  10.004  0.7226 -0.3024  0.1109
 1520SOL    HW116019   0.949   2.328  10.021  1.1306 -3.9892  0.1349
 1520SOL    HW216020   1.039   2.280   9.928  1.3831  0.7718 -0.7353
 1521SOL     OW16021   2.482   3.206   4.975 -0.3938  0.2235 -0.5080
 1521SOL    HW116022   2.414   3.264   5.011  0.0270 -0.2299  0.9814
 1521SOL    HW216023   2.511   3.272   4.912 -0.9652 -1.0570 -2.1269
 1522SOL     OW16024   4.368   0.053  16.370 -0.2562  0.3098  0.1484
 1522SOL    HW116025   4.332   0.055  16.282 -0.7357 -0.8602  0.3158
 1522SOL    HW216026   4.338   4.691  16.397 -3.0904  1.0007 -0.7586
 1523SOL     OW16027   4.306   1.114   5.745 -0.1089  0.6777 -0.3529
 1523SOL    HW116028   4.222   1.085   5.780 -0.8233  2.1109 -0.8853
 1523SOL    HW216029   4.299   1.210   5.744 -0.3787  0.6552 -0.9374
 1524SOL     OW16030   2.616   2.196   0.075  0.4733  0.0467  0.7279
 1524SOL    HW116031   2.696   2.212   0.125  0.0412 -2.4194  2.2214
 1524SOL    HW216032   2.551   2.220   0.142 -0.5032  2.5686 -1.1033
 1525SOL     OW16033   1.568   3.177  11.178 -0.0163 -0.1483 -0.1832
 1525SOL    HW116034   1.588   3.095  11.224  0.0327  0.3783  0.7287
 1525SOL    HW216035   1.595   3.139  11.094  2.3026  2.1587 -0.4812
 1526SOL     OW16036   2.609   0.369   5.676  0.3607  0.1411  0.0499
 1526SOL    HW116037   2.656   0.290   5.703  0.8494  0.0152 -1.1701
 1526SOL    HW216038   2.680   0.418   5.634  0.3780 -0.1292 -0.2389
 1527SOL     OW16039   3.384   0.999   2.450  0.3117  0.4937  0.1056
 1527SOL    HW116040   3.369   0.949   2.530 -2.0739  1.4226  0.2456
 1527SOL    HW216041   3.470   1.033   2.473  2.0763 -2.7472 -1.6473
 1528SOL     OW16042   2.364   4.310   8.645 -0.2796  0.1772  0.0507
 1528SOL    HW116043   2.365   4.318   8.740 -0.8103  2.4632 -0.1306
 1528SOL    HW216044   2.293   4.246   8.640 -0.2060 -0.0135  1.6211
 1529SOL     OW16045   4.137   2.583   2.039  0.1247  0.3665  0.1131
 1529SOL    HW116046   4.152   2.644   1.967  1.1200  0.9863  0.8397
 1529SOL    HW216047   4.053   2.607   2.077 -1.0062  1.7498 -3.2923
 1530SOL     OW16048   1.966   4.147  11.092 -0.6472 -0.3374 -0.5761
 1530SOL    HW116049   2.004   4.154  11.179 -1.7491  1.1016 -0.2047
 1530SOL    HW216050   1.877   4.170  11.115 -0.3020 -0.4392  0.8198
 1531SOL     OW16051   1.795   3.352   9.990  0.0748 -0.2312  0.0417
 1531SOL    HW116052   1.779   3.377   9.899 -0.6828 -0.2516  0.1738
 1531SOL    HW216053   1.878   3.306   9.977  0.6506  0.9364 -0.4037
 1532SOL     OW16054   3.041   3.889   5.636 -0.2714  0.0575  0.0558
 1532SOL    HW116055   3.041   3.983   5.654 -1.1714 -0.4968  3.0507
 1532SOL    HW216056   2.959   3.860   5.675 -0.6050  2.3303  1.0162
 1533SOL     OW16057   2.037   0.102   2.325  0.4714  0.1588 -0.0227
 1533SOL    HW116058   2.110   0.162   2.336 -0.5132  1.1858  0.9344
 1533SOL    HW216059   2.003   0.135   2.242 -0.8481 -0.8635  0.0953
 1534SOL     OW16060   3.514   0.480   0.385 -0.1377  0.0896 -0.9415
 1534SOL    HW116061   3.607   0.471   0.364 -0.0697  0.3416 -0.7442
 1534SOL    HW216062   3.502   0.452   0.475  0.4077 -2.7847 -1.7650
 1535SOL     OW16063   1.566   4.660   6.195  0.8752 -0.2670  0.0761
 1535SOL    HW116064   1.562   4.706   6.112  3.6679 -1.8886 -0.9573
 1535SOL    HW216065   1.521   4.724   6.251 -0.7220 -1.9460  0.7124
 1536SOL     OW16066   0.775   4.638   1.436  0.0679  0.1995  0.7774
 1536SOL    HW116067   0.852   4.595   1.473  1.1029  1.3389 -0.0381
 1536SOL    HW216068   0.738   4.577   1.372  0.8310 -2.2498  2.6904
 1537SOL     OW16069   2.480   2.185  13.069 -0.1737 -0.3473  0.1262
 1537SOL    HW116070   2.569   2.188  13.103  0.2568  2.6853 -1.2968
 1537SOL    HW216071   2.436   2.193  13.153 -0.9629 -0.4520 -0.2747
 1538SOL     OW16072   4.416   2.197   5.651 -0.4402  0.1528 -0.5130
 1538SOL    HW116073   4.424   2.212   5.745 -0.1274  1.2436 -0.7156
 1538SOL    HW216074   4.461   2.113   5.638 -1.3287 -0.2927 -0.7516
 1539SOL     OW16075   4.101   3.908  11.291  0.3071 -0.2180  0.1689
 1539SOL    HW116076   4.055   3.992  11.292 -0.8302 -0.8185 -1.7299
 1539SOL    HW216077   4.151   3.912  11.210  0.1195  0.1274  0.0709
 1540SOL     OW16078   2.717   3.994  17.630 -0.3478 -0.2858  0.7891
 1540SOL    HW116079   2.732   4.059  17.561 -2.4239 -0.5518  0.1074
 1540SOL    HW216080   2.804   3.975  17.666 -0.3708 -0.0479  0.9740
 1541SOL     OW16081   1.906   1.729   4.919 -0.5218  0.4224  0.3076
 1541SOL    HW116082   1.972   1.682   4.971 -2.2076 -0.6794  1.4326
 1541SOL    HW216083   1.930   1.694   4.833  1.7094  2.0905  0.2499
 1542SOL     OW16084   1.226   0.485   3.978  0.8351  0.1736 -0.1820
 1542SOL    HW116085   1.282   0.470   3.902  0.3350  1.2885 -0.7687
 1542SOL    HW216086   1.142   0.498   3.935 -0.7525  0.1535  2.8990
 1543SOL     OW16087   1.851   0.869   4.024 -0.2475 -0.4668 -0.3267
 1543SOL    HW116088   1.821   0.925   3.953  0.5017  0.1605 -0.1530
 1543SOL    HW216089   1.846   0.925   4.101 -0.9322  0.1520 -0.8194
 1544SOL     OW16090   1.223   1.415   5.829 -0.2053 -0.0787  0.0767
 1544SOL    HW116091   1.179   1.360   5.764  4.7636  0.1147 -3.5031
 1544SOL    HW216092   1.222   1.501   5.787 -2.7911  0.4081  1.1915
 1545SOL     OW16093   1.817   4.695   8.008  0.0409  0.7659 -0.1195
 1545SOL    HW116094   1.883   4.626   8.011  0.1891  0.9108 -0.0518
 1545SOL    HW216095   1.756   4.661   8.074 -1.7873  1.5622 -1.3818
 1546SOL     OW16096   4.319   2.810   2.421 -0.2943 -0.9448  0.6583
 1546SOL    HW116097   4.256   2.746   2.453  0.3468 -1.8206  0.1903
 1546SOL    HW216098   4.398   2.756   2.424 -1.0155 -1.8985  2.1534
 1547SOL     OW16099   3.442   2.997  13.176 -0.1338  0.2020  0.1581
 1547SOL    HW116100   3.462   3.085  13.206  0.6885  0.1485 -0.2187
 1547SOL    HW216101   3.359   2.979  13.220 -0.4285  0.7774 -0.1613
 1548SOL     OW16102   0.905   4.171   6.829 -0.1344 -0.2458 -0.3104
 1548SOL    HW116103   0.820   4.128   6.839 -0.1933  0.6460  3.1338
 1548SOL    HW216104   0.905   4.184   6.734 -0.7094 -4.1432 -0.8527
 1549SOL     OW16105   1.868   1.288   1.951 -0.5047  0.3422 -0.3154
 1549SOL    HW116106   1.931   1.321   2.014 -0.4367  1.0198 -0.7393
 1549SOL    HW216107   1.839   1.371   1.913  2.2215  0.4689 -2.1335
 1550SOL     OW16108   0.018   3.325  13.829  0.6586  0.1008  0.0108
 1550SOL    HW116109   0.073   3.296  13.902 -0.3198 -1.2868  0.1884
 1550SOL    HW216110   0.073   3.389  13.784  0.7110  1.5453  2.1447
 1551SOL     OW16111   4.005   3.500   4.851 -0.0050 -0.2555 -0.7393
 1551SOL    HW116112   3.947   3.436   4.893 -0.9124  1.0735  0.0231
 1551SOL    HW216113   4.061   3.438   4.803 -0.4677  0.0620 -1.7018
 1552SOL     OW16114   0.188   0.477   2.469  0.1505  0.2994 -0.4403
 1552SOL    HW116115   0.277   0.445   2.483 -0.1023 -1.1580 -2.1252
 1552SOL    HW216116   0.184   0.476   2.373 -2.0396 -0.8837 -0.3498
 1553SOL     OW16117   2.136   0.594   0.005  0.1563  0.7127 -0.0192
 1553SOL    HW116118   2.075   0.558  17.643  0.9567  0.5044 -0.6570
 1553SOL    HW216119   2.200   0.639  17.654 -0.0632 -0.6474 -1.4071
 1554SOL     OW16120   3.078   2.620   4.433 -0.1108  0.1854  0.2225
 1554SOL    HW116121   2.986   2.628   4.459 -0.4172 -2.8157  0.1182
 1554SOL    HW216122   3.122   2.631   4.518  0.5128  1.1842 -0.2297
 1555SOL     OW16123   2.832   0.522   1.859  0.4256  0.5749 -0.3011
 1555SOL    HW116124   2.784   0.585   1.912  0.5807 -0.0962  0.6198
 1555SOL    HW216125   2.914   0.571   1.852  2.2851 -2.6338 -0.8470
 1556SOL     OW16126   2.838   4.389  15.687  0.3919 -0.1128  0.1128
 1556SOL    HW116127   2.775   4.458  15.710 -1.1217 -2.4741  3.0093
 1556SOL    HW216128   2.803   4.334  15.757 -0.9933 -1.0225 -1.2982
 1557SOL     OW16129   4.434   0.853   2.743  0.5352 -0.8192  0.6544
 1557SOL    HW116130   4.414   0.771   2.698  0.5075 -0.5974  0.2601
 1557SOL    HW216131   4.359   0.899   2.705  1.8574  0.6288 -0.2284
 1558SOL     OW16132   0.334   0.582  14.447  0.0800  0.0481  0.0994
 1558SOL    HW116133   0.342   0.507  14.389  1.7673  2.5145 -2.9033
 1558SOL    HW216134   0.310   0.642  14.376  0.6445  0.1612  0.0039
 1559SOL     OW16135   2.965   1.080   7.940  1.0556 -0.1035 -0.0802
 1559SOL    HW116136   3.009   1.052   7.860  1.3783  1.1567 -0.3436
 1559SOL    HW216137   2.899   1.012   7.953 -0.0140  1.3867  2.3487
 1560SOL     OW16138   2.890   0.530   6.500  0.2798  0.2687  0.4062
 1560SOL    HW116139   2.961   0.510   6.440 -0.3495 -1.1818  0.1531
 1560SOL    HW216140   2.894   0.626   6.504  0.7167  0.2259  0.9966
 1561SOL     OW16141   2.629   4.011  10.290  0.4319  0.0246  0.1609
 1561SOL    HW116142   2.716   4.034  10.322  0.8785 -0.4586 -0.7150
 1561SOL    HW216143   2.577   4.084  10.324 -0.3482 -1.4479  2.1468
 1562SOL     OW16144   1.980   4.212   6.194  0.2009 -0.3791 -0.4859
 1562SOL    HW116145   1.907   4.205   6.255  1.2919  2.0151  1.0998
 1562SOL    HW216146   2.015   4.124   6.183 -0.7250 -1.1384  2.6026
 1563SOL     OW16147   0.613   4.013   2.315  0.7546 -0.3911 -0.0789
 1563SOL    HW116148   0.610   4.074   2.389  1.5051  2.3270 -2.2595
 1563SOL    HW216149   0.687   4.052   2.268 -1.4121  1.2874 -2.1403
 1564SOL     OW16150   0.199   0.160   0.887 -0.6082 -0.6559 -0.1273
 1564SOL    HW116151   0.173   0.076   0.924 -0.6726 -0.2982  0.6306
 1564SOL    HW216152   0.286   0.140   0.853 -1.0354 -2.7059 -0.0135
 1565SOL     OW16153   3.216   2.220   4.648 -0.0537  0.6521 -0.0803
 1565SOL    HW116154   3.182   2.196   4.735  0.3534 -0.5816 -0.2501
 1565SOL    HW216155   3.310   2.214   4.667 -0.2141 -0.1901  0.4814
 1566SOL     OW16156   1.607   1.196   1.148  0.1806  0.0523  0.1918
 1566SOL    HW116157   1.633   1.222   1.237 -1.9805 -0.4296  0.9729
 1566SOL    HW216158   1.628   1.274   1.096 -0.0101  0.0279  0.0770
 1567SOL     OW16159   0.812   2.152   4.758 -0.3208 -0.2618  0.1916
 1567SOL    HW116160   0.812   2.068   4.714  2.0151  0.5740 -1.4067
 1567SOL    HW216161   0.767   2.208   4.695 -1.5984  0.8330  2.0601
 1568SOL     OW16162   2.728   3.269   5.937  0.4512 -0.1279  0.1690
 1568SOL    HW116163   2.734   3.213   6.014 -0.8120 -2.7052 -1.6003
 1568SOL    HW216164   2.638   3.276   5.905  0.7433 -0.2365 -0.6886
 1569SOL     OW16165   0.523   3.842   7.056  0.0452  0.0482 -0.3060
 1569SOL    HW116166   0.587   3.891   7.003  0.4494  1.4795  1.5028
 1569SOL    HW216167   0.586   3.804   7.117  0.2460  0.5464 -0.2026
 1570SOL     OW16168   1.153   0.724  10.717 -0.2893 -0.7617 -0.2968
 1570SOL    HW116169   1.201   0.686  10.644 -1.6139 -0.2693 -1.4139
 1570SOL    HW216170   1.205   0.687  10.789 -2.0473 -0.9570  0.8539
 1571SOL     OW16171   1.342   1.502   0.076  0.6099  0.3921 -0.0874
 1571SOL    HW116172   1.369   1.540   0.160  0.6612 -1.3998  0.6987
 1571SOL    HW216173   1.391   1.421   0.088  0.1834 -0.2106 -2.5102
 1572SOL     OW16174   0.168   4.263   8.072  0.4037  0.1370  0.1399
 1572SOL    HW116175   0.197   4.314   8.148 -0.1534  1.5564 -0.5952
 1572SOL    HW216176   0.142   4.187   8.124 -0.5260 -0.2919 -0.9672
 1573SOL     OW16177   1.252   4.004   8.530  0.5528 -0.0608 -0.0719
 1573SOL    HW116178   1.195   4.012   8.453  1.1572  0.5527 -0.4574
 1573SOL    HW216179   1.199   3.938   8.575 -1.4637  0.3358 -1.8705
 1574SOL     OW16180   4.659   1.503   2.924  0.4387  0.0373 -0.6349
 1574SOL    HW116181   4.565   1.521   2.936  0.6715  0.2041  0.9557
 1574SOL    HW216182   4.689   1.572   2.865  1.0164  1.7444  1.6389
 1575SOL     OW16183   1.448   1.217   2.829  0.1706 -0.3779 -0.2183
 1575SOL    HW116184   1.404   1.292   2.869 -0.4611 -0.6967 -0.3090
 1575SOL    HW216185   1.537   1.247   2.813  0.3681 -0.3220  1.0079
 1576SOL     OW16186   0.545   4.320  11.965  0.8253  0.3487 -0.4023
 1576SOL    HW116187   0.552   4.396  12.022  1.8448 -0.9965  1.2582
 1576SOL    HW216188   0.632   4.279  11.960 -0.0180 -1.5254  0.4138
 1577SOL     OW16189   4.325   0.840  10.890  0.1427  0.2568  0.2192
 1577SOL    HW116190   4.259   0.880  10.947 -1.6015  0.8712 -2.2294
 1577SOL    HW216191   4.272   0.766  10.859 -0.2988  0.8725 -0.5046
 1578SOL     OW16192   1.887   1.049  16.838  0.1521 -0.2270 -0.6654
 1578SOL    HW116193   1.846   1.112  16.898 -0.4783 -0.5471 -0.7618
 1578SOL    HW216194   1.828   0.975  16.853  0.3150 -0.3263 -0.5141
 1579SOL     OW16195   2.163   1.167  11.640 -0.0961 -0.3949 -0.1230
 1579SOL    HW116196   2.140   1.260  11.639 -1.4492 -0.7208  0.0810
 1579SOL    HW216197   2.254   1.174  11.668 -0.4479  1.0210  0.6803
 1580SOL     OW16198   2.580   2.650  17.244  0.1796  0.5111 -0.1284
 1580SOL    HW116199   2.507   2.668  17.303  1.2678 -0.1972  1.4347
 1580SOL    HW216200   2.550   2.568  17.204  0.8608  0.9046 -1.4434
 1581SOL     OW16201   2.341   2.291   5.728 -0.2575  0.2559 -0.0046
 1581SOL    HW116202   2.333   2.289   5.633 -0.0633 -0.9361  0.0062
 1581SOL    HW216203   2.258   2.337   5.745  0.0411  0.0057  2.1822
 1582SOL     OW16204   1.478   4.702   7.090 -0.1913 -0.3555 -0.5104
 1582SOL    HW116205   1.530   4.649   7.030 -0.3139 -1.8831  0.7392
 1582SOL    HW216206   1.533   0.046   7.127  0.4989 -1.2344  0.1057
 1583SOL     OW16207   4.084   4.161   9.345  0.3828  0.6923 -0.0884
 1583SOL    HW116208   4.042   4.226   9.402  1.7488  2.8091 -1.4941
 1583SOL    HW216209   4.074   4.079   9.394 -0.3291  0.1894 -1.0603
 1584SOL     OW16210   2.741   0.248   8.519  0.1650 -0.1544 -0.2708
 1584SOL    HW116211   2.648   0.231   8.508 -0.1419  1.0481  0.3771
 1584SOL    HW216212   2.776   0.159   8.519  3.4648  1.1503 -0.8173
 1585SOL     OW16213   1.440   0.308   3.358  0.0605 -0.4007 -0.1014
 1585SOL    HW116214   1.431   0.241   3.426  1.1940 -0.7526 -0.2940
 1585SOL    HW216215   1.474   0.255   3.285  0.7533 -2.0117  1.3939
 1586SOL     OW16216   0.653   0.461   7.978  0.2119  0.2379  0.4369
 1586SOL    HW116217   0.606   0.416   8.049 -0.1549 -1.6319 -0.9806
 1586SOL    HW216218   0.600   0.541   7.975  2.0160  1.4078  0.0398
 1587SOL     OW16219   0.828   0.684  12.287  0.3960 -0.5613 -0.1261
 1587SOL    HW116220   0.896   0.682  12.219 -0.8767  0.7410 -1.4660
 1587SOL    HW216221   0.797   0.775  12.286  2.0962  0.0479  1.5991
 1588SOL     OW16222   0.962   4.547  17.670 -0.2918 -0.3311  0.2188
 1588SOL    HW116223   0.869   4.529  17.656  0.3812 -2.8304 -0.9407
 1588SOL    HW216224   0.968   4.642  17.669  2.2324 -0.5108 -0.8713
 1589SOL     OW16225   3.604   1.727   1.403 -0.1531  0.2222 -0.0454
 1589SOL    HW116226   3.517   1.691   1.386  0.5966 -2.5161  2.0573
 1589SOL    HW216227   3.600   1.758   1.494  1.6939 -2.6825  1.0148
 1590SOL     OW16228   1.581   4.346   5.646  0.1640  0.3037  0.0093
 1590SOL    HW116229   1.569   4.328   5.553 -1.5363 -0.5449  0.3943
 1590SOL    HW216230   1.525   4.284   5.693  2.3119 -0.8998  0.9849
 1591SOL     OW16231   3.092   2.436   6.713 -0.1265  0.0595  0.2544
 1591SOL    HW116232   3.030   2.371   6.679  1.9438 -0.7264 -2.0679
 1591SOL    HW216233   3.106   2.411   6.804 -0.0658 -0.2432  0.1597
 1592SOL     OW16234   0.460   3.268   9.538 -0.2448 -0.2894  0.5832
 1592SOL    HW116235   0.445   3.302   9.450 -1.1009 -2.9102 -0.2814
 1592SOL    HW216236   0.372   3.252   9.571 -1.0898 -0.3215 -1.7141
 1593SOL     OW16237   4.229   1.360  12.785 -0.1324  0.4105 -0.3532
 1593SOL    HW116238   4.284   1.422  12.738  2.2343 -1.0337  0.4763
 1593SOL    HW216239   4.283   1.334  12.860  1.8255 -1.5215 -2.4371
 1594SOL     OW16240   4.362   1.627   2.700  0.0321 -0.3186 -0.6402
 1594SOL    HW116241   4.348   1.573   2.622  1.4950  0.7695 -1.6636
 1594SOL    HW216242   4.326   1.709   2.666 -0.3193  0.3267  1.2996
 1595SOL     OW16243   3.408   4.425   0.588  0.1534  0.2181  0.1539
 1595SOL    HW116244   3.490   4.470   0.570  0.1227  0.5386  0.8390
 1595SOL    HW216245   3.352   4.446   0.513  0.4500 -0.2298 -0.1962
 1596SOL     OW16246   2.415   3.548   8.077  0.2830  0.1766  0.1424
 1596SOL    HW116247   2.459   3.464   8.067  2.4011  1.2203  0.7294
 1596SOL    HW216248   2.329   3.532   8.039 -1.9820  2.3460  4.3460
 1597SOL     OW16249   4.182   2.621   6.193 -0.4614  0.3420 -0.2641
 1597SOL    HW116250   4.120   2.694   6.191 -0.0796  0.6870  0.4794
 1597SOL    HW216251   4.196   2.620   6.287  1.8754  1.6755 -0.5775
 1598SOL     OW16252   2.773   1.166   1.867  0.5617  0.1212 -0.6615
 1598SOL    HW116253   2.818   1.234   1.816 -1.7481  1.2854 -1.1661
 1598SOL    HW216254   2.839   1.142   1.931 -0.8989 -0.0471  0.7757
 1599SOL     OW16255   2.557   3.897  12.277  0.0138  0.2988 -0.4413
 1599SOL    HW116256   2.610   3.943  12.342 -0.3773  1.4462 -0.9314
 1599SOL    HW216257   2.494   3.962  12.247 -0.5865  0.6909  1.6635
 1600SOL     OW16258   3.220   3.772   7.506  0.5014 -0.4212  0.3055
 1600SOL    HW116259   3.205   3.857   7.465  2.6282  0.6997  1.8918
 1600SOL    HW216260   3.215   3.719   7.427 -0.7488 -1.0454  0.7971
 1601SOL     OW16261   1.100   4.361   5.869  0.0917 -0.1977 -0.4842
 1601SOL    HW116262   1.044   4.301   5.821  2.1577 -2.2680 -0.2965
 1601SOL    HW216263   1.101   4.320   5.955  0.0194  3.5540  1.3310
 1602SOL     OW16264   2.413   1.961   6.124  0.4075  0.3008 -0.0458
 1602SOL    HW116265   2.379   1.930   6.040 -1.1790  2.1968 -0.1027
 1602SOL    HW216266   2.416   2.057   6.117  1.8698  0.2151 -0.6549
 1603SOL     OW16267   0.414   0.278   9.156  0.4876  0.3676  0.6813
 1603SOL    HW116268   0.430   0.325   9.074  2.4868  1.0488  1.4588
 1603SOL    HW216269   0.421   0.353   9.215 -0.1867 -0.3193  1.6250
 1604SOL     OW16270   1.341   3.580   8.783 -0.0618 -0.3735 -0.0723
 1604SOL    HW116271   1.431   3.557   8.763 -0.2662 -1.0744 -0.1977
 1604SOL    HW216272   1.359   3.673   8.796  1.1081 -0.9082  2.1259
 1605SOL     OW16273   2.439   2.021   7.252  0.2414  0.5404 -0.5840
 1605SOL    HW116274   2.387   2.007   7.173  0.9486 -3.7030 -0.3014
 1605SOL    HW216275   2.378   1.997   7.322  0.9618  0.1205 -0.1075
 1606SOL     OW16276   2.659   2.595   0.066  0.1426 -0.0039  0.3980
 1606SOL    HW116277   2.713   2.527   0.026  1.7556  1.6028 -0.1474
 1606SOL    HW216278   2.681   2.584   0.159 -2.0643 -0.2102  0.8855
 1607SOL     OW16279   2.207   0.248   5.529  0.1448 -0.7744  0.7752
 1607SOL    HW116280   2.151   0.253   5.607 -2.0102 -1.8693 -0.7011
 1607SOL    HW216281   2.260   0.325   5.551  0.3688 -0.8243  0.3946
 1608SOL     OW16282   2.312   1.541  15.085 -0.1467  0.0711  0.8976
 1608SOL    HW116283   2.348   1.629  15.096  0.9419 -0.2060 -0.3684
 1608SOL    HW216284   2.368   1.490  15.143 -0.2552 -0.5945  0.4116
 1609SOL     OW16285   1.005   2.684  15.309  0.1528  0.2459  0.3036
 1609SOL    HW116286   1.017   2.603  15.259  0.0332 -1.2022  2.6005
 1609SOL    HW216287   0.988   2.747  15.239 -1.8089 -0.0940  0.4936
 1610SOL     OW16288   1.904   2.280  15.028  0.2537  0.3751  0.3906
 1610SOL    HW116289   1.869   2.250  14.944 -0.7247 -0.9706  1.2709
 1610SOL    HW216290   1.951   2.359  15.001  0.1008  0.4214  0.2585
 1611SOL     OW16291   4.455   4.087   8.722  0.4944 -0.2871  0.1589
 1611SOL    HW116292   4.415   4.168   8.754  2.2295  1.2450 -1.5768
 1611SOL    HW216293   4.537   4.098   8.770  0.2585 -0.2569  0.5600
 1612SOL     OW16294   1.239   1.605   5.655 -0.4381 -0.3042  0.4999
 1612SOL    HW116295   1.232   1.700   5.657  2.4272 -0.0492 -1.4165
 1612SOL    HW216296   1.155   1.601   5.609  0.3779 -0.3324 -0.9819
 1613SOL     OW16297   3.479   3.199   3.125 -0.2710  0.3483 -0.5378
 1613SOL    HW116298   3.541   3.253   3.175 -0.6725 -1.0897  1.5373
 1613SOL    HW216299   3.514   3.111   3.141 -1.7550 -0.6516 -2.7910
 1614SOL     OW16300   0.175   1.770   3.023  0.0818 -0.0101 -0.2464
 1614SOL    HW116301   0.133   1.855   3.027  0.0504  0.0770 -2.3659
 1614SOL    HW216302   0.237   1.786   3.095  0.4007 -0.1848 -0.4782
 1615SOL     OW16303   2.893   2.271   6.639  0.5819 -0.3350  0.1237
 1615SOL    HW116304   2.836   2.335   6.597 -1.0501 -1.9989 -0.2005
 1615SOL    HW216305   2.843   2.257   6.720  0.1432  1.8851  0.2191
 1616SOL     OW16306   3.246   1.874   7.209 -0.5015  0.1980  0.0478
 1616SOL    HW116307   3.211   1.872   7.121  0.6923 -1.2304 -0.4060
 1616SOL    HW216308   3.328   1.824   7.200 -1.2905 -1.0347 -0.2624
 1617SOL     OW16309   3.457   1.770   6.829 -0.8357 -0.7197 -0.3214
 1617SOL    HW116310   3.419   1.776   6.742  0.1979  0.2949 -0.7081
 1617SOL    HW216311   3.377   1.763   6.881 -0.6185 -0.9925 -0.0236
 1618SOL     OW16312   3.619   1.365   7.272 -0.1257 -0.1499 -0.2565
 1618SOL    HW116313   3.656   1.451   7.287  1.6687 -1.1602  1.1411
 1618SOL    HW216314   3.527   1.376   7.295 -0.7364  1.5037 -3.5324
 1619SOL     OW16315   2.411   3.787  12.012 -0.3798  0.4488  0.3627
 1619SOL    HW116316   2.489   3.762  12.061  1.0285 -0.8993 -2.5597
 1619SOL    HW216317   2.371   3.859  12.060 -0.8869  1.6907 -1.9212
 1620SOL     OW16318   3.460   3.809   5.341 -0.3402  0.2192  0.0229
 1620SOL    HW116319   3.491   3.744   5.404 -0.9599 -1.7843 -1.7537
 1620SOL    HW216320   3.399   3.860   5.395  1.1847  2.4706 -0.3353
 1621SOL     OW16321   3.926   0.811   2.898 -0.0638 -0.3000 -0.1157
 1621SOL    HW116322   3.949   0.879   2.834  1.2386 -0.2686  0.3865
 1621SOL    HW216323   3.884   0.864   2.966  1.4249 -1.1632  1.4753
 1622SOL     OW16324   2.133   3.111   8.500 -0.1211 -0.0427  0.4147
 1622SOL    HW116325   2.175   3.031   8.530  1.2156 -0.6754 -3.1438
 1622SOL    HW216326   2.207   3.165   8.470 -1.3730  1.1188 -0.6485
 1623SOL     OW16327   1.311   1.369   3.532  0.1318  0.0965 -0.1245
 1623SOL    HW116328   1.279   1.296   3.479 -1.1660  0.1016  0.6827
 1623SOL    HW216329   1.267   1.450   3.507 -2.6670 -0.8005  1.9804
 1624SOL     OW16330   1.817   2.352   0.959  0.8672 -0.3931  0.0131
 1624SOL    HW116331   1.872   2.413   0.909  0.0552 -1.6984 -2.4928
 1624SOL    HW216332   1.827   2.271   0.909  2.0545 -1.4575  1.9621
 1625SOL     OW16333   4.297   4.383   9.556 -0.0482 -0.0065  0.2224
 1625SOL    HW116334   4.225   4.321   9.561 -1.7246  1.6935 -2.8815
 1625SOL    HW216335   4.244   4.461   9.539  0.9864  0.6047 -0.2476
 1626SOL     OW16336   4.125   1.215   5.956 -0.1981  0.1680 -0.0043
 1626SOL    HW116337   4.075   1.147   5.911 -0.3639  1.5607 -1.9201
 1626SOL    HW216338   4.076   1.293   5.929 -2.0707 -0.9810  0.1259
 1627SOL     OW16339   0.366   4.602   8.635 -0.0326  0.0885 -0.0466
 1627SOL    HW116340   0.429   4.674   8.638  0.1657 -0.0646 -0.4963
 1627SOL    HW216341   0.285   4.631   8.591  1.7354 -1.5679 -4.3886
 1628SOL     OW16342   2.819   2.814  17.044 -0.6070  0.0217 -0.4096
 1628SOL    HW116343   2.743   2.808  16.986 -0.8168  0.3964 -0.1752
 1628SOL    HW216344   2.854   2.902  17.052  0.5419 -0.4851  0.2412
 1629SOL     OW16345   3.921   0.071  15.975  0.0900  0.5171  0.0080
 1629SOL    HW116346   3.838   0.112  16.001  1.0048  1.6495  1.1581
 1629SOL    HW216347   3.898   4.704  15.966 -0.6161  0.6352  0.5200
 1630SOL     OW16348   2.697   4.651   4.927 -0.9367 -0.2039 -0.2709
 1630SOL    HW116349   2.772   4.604   4.963  0.8129  1.3925 -1.8293
 1630SOL    HW216350   2.646   4.670   5.007  0.0182  2.2281 -0.2420
 1631SOL     OW16351   1.547   2.427   0.999  0.1855 -0.3956 -0.0255
 1631SOL    HW116352   1.639   2.409   0.978 -0.9114 -3.6243 -2.1869
 1631SOL    HW216353   1.515   2.410   0.911  0.7334 -0.1870 -0.2667
 1632SOL     OW16354   0.852   0.487  16.824  0.3629 -0.2967 -0.6131
 1632SOL    HW116355   0.813   0.399  16.821  2.2331 -1.0236 -3.6053
 1632SOL    HW216356   0.929   0.467  16.876 -0.5004 -1.6521  0.1516
 1633SOL     OW16357   2.484   3.400   4.769 -0.1366 -0.2911  0.1552
 1633SOL    HW116358   2.558   3.397   4.708 -0.4413 -2.0514 -0.1332
 1633SOL    HW216359   2.425   3.334   4.731 -0.3370 -0.6401  1.0716
 1634SOL     OW16360   1.314   2.058   1.395 -0.4474  0.2509 -0.5418
 1634SOL    HW116361   1.340   1.970   1.420  2.6081  1.1340 -0.6418
 1634SOL    HW216362   1.381   2.089   1.333 -0.5671  0.4620 -0.5661
 1635SOL     OW16363   2.056   4.302   3.873  0.4444 -0.6980  0.2857
 1635SOL    HW116364   2.075   4.230   3.813  0.0851 -0.7892  0.2830
 1635SOL    HW216365   2.142   4.341   3.892 -0.5927  1.1687  1.2404
 1636SOL     OW16366   0.138   1.756   1.768  0.0641 -0.1738 -0.0013
 1636SOL    HW116367   0.194   1.770   1.844  0.7125  1.0994 -0.7282
 1636SOL    HW216368   0.102   1.844   1.756 -0.3850 -0.3290  0.1867
 1637SOL     OW16369   2.446   3.761   4.079  0.0449 -0.3088  0.0266
 1637SOL    HW116370   2.394   3.749   4.000  2.7866 -3.7923 -1.2746
 1637SOL    HW216371   2.375   3.762   4.143 -1.3577  1.0995 -1.5699
 1638SOL     OW16372   0.801   2.899   9.361  0.1594  0.1824 -0.2210
 1638SOL    HW116373   0.832   2.881   9.272  0.4619  3.3012 -0.7516
 1638SOL    HW216374   0.824   2.991   9.372 -2.1259  0.8015 -0.5345
 1639SOL     OW16375   3.104   4.460   8.900  0.5403  0.5433 -0.0084
 1639SOL    HW116376   3.048   4.537   8.887  0.2921  0.5916  1.3773
 1639SOL    HW216377   3.058   4.409   8.966 -0.3641  0.2182 -0.8808
 1640SOL     OW16378   1.203   1.993   1.728 -0.4857  0.3917  0.4854
 1640SOL    HW116379   1.185   2.082   1.699 -0.1295  0.4705  0.5083
 1640SOL    HW216380   1.118   1.953   1.713 -1.5654  2.4988  0.9477
 1641SOL     OW16381   2.484   0.193   1.182 -0.1054  0.2632 -0.6967
 1641SOL    HW116382   2.453   0.103   1.191 -0.0055  0.2683 -0.2802
 1641SOL    HW216383   2.518   0.219   1.268  0.2055 -2.2215 -0.0631
 1642SOL     OW16384   2.269   1.414   7.457  0.4387 -0.0172  0.0415
 1642SOL    HW116385   2.176   1.398   7.447  0.2034  2.4965 -1.8634
 1642SOL    HW216386   2.286   1.412   7.551  2.0795 -0.1770 -0.2458
 1643SOL     OW16387   3.223   3.198   1.454 -0.2546 -0.1293  0.0920
 1643SOL    HW116388   3.228   3.104   1.471  1.0976 -0.4298 -1.9069
 1643SOL    HW216389   3.158   3.215   1.386 -1.2543 -2.3338  0.4874
 1644SOL     OW16390   1.705   1.216   1.411  0.6023 -0.8222  0.0111
 1644SOL    HW116391   1.727   1.308   1.428 -1.6619 -0.4970  1.1965
 1644SOL    HW216392   1.777   1.172   1.457  1.1805  1.1091  0.9469
 1645SOL     OW16393   3.942   3.381   2.523 -0.0327 -0.2034  0.7872
 1645SOL    HW116394   3.852   3.414   2.511 -0.8784 -1.8729  2.6521
 1645SOL    HW216395   3.936   3.287   2.508 -0.2361 -0.1215  0.3502
 1646SOL     OW16396   4.277   4.541   7.202 -0.2746 -0.2599 -0.1918
 1646SOL    HW116397   4.263   4.557   7.295  1.0876  2.7841 -0.5061
 1646SOL    HW216398   4.231   4.457   7.196  1.5442 -1.1665 -1.3515
 1647SOL     OW16399   3.616   3.774   7.921  0.2100 -0.5205  0.1253
 1647SOL    HW116400   3.656   3.853   7.955 -0.7659  0.3551 -0.7672
 1647SOL    HW216401   3.573   3.747   8.002 -1.1732 -0.1930 -0.4991
 1648SOL     OW16402   3.185   2.315   3.033  0.3258 -0.2561 -0.1494
 1648SOL    HW116403   3.202   2.347   2.945  0.5474 -1.9294 -0.7083
 1648SOL    HW216404   3.258   2.255   3.046 -0.8159 -1.6308 -0.1120
 1649SOL     OW16405   1.603   0.207   6.249 -0.8356 -0.2749 -0.4850
 1649SOL    HW116406   1.534   0.271   6.267 -1.5761 -1.0527 -0.5428
 1649SOL    HW216407   1.647   0.249   6.175 -0.2040 -0.1248 -0.0181
 1650SOL     OW16408   0.110   4.205   6.705  0.4148  0.6865  0.2166
 1650SOL    HW116409   0.043   4.274   6.707 -0.0660  0.2298 -0.1017
 1650SOL    HW216410   0.055   4.127   6.715  0.1797  0.6834 -1.1112
 1651SOL     OW16411   4.171   1.314   9.669 -0.2792  0.2624 -0.1827
 1651SOL    HW116412   4.223   1.382   9.713  0.4526 -0.4854  0.1203
 1651SOL    HW216413   4.080   1.343   9.670 -0.3058  0.1985 -0.8768
 1652SOL     OW16414   2.260   2.779  10.550  0.3070  1.2212  0.4938
 1652SOL    HW116415   2.170   2.748  10.541  0.2346  2.1209 -1.8103
 1652SOL    HW216416   2.278   2.810  10.462 -0.5018  1.7803  0.5356
 1653SOL     OW16417   4.674   1.322   2.071 -0.0114  0.3770 -0.0889
 1653SOL    HW116418   4.642   1.317   1.981  1.3498  2.7433 -0.7196
 1653SOL    HW216419   0.008   1.248   2.068  0.4635  0.7524 -0.0247
 1654SOL     OW16420   3.843   0.520  10.249 -0.0195 -0.7644 -0.2774
 1654SOL    HW116421   3.907   0.559  10.189  0.9292 -0.3343  1.0178
 1654SOL    HW216422   3.888   0.463  10.310  1.2736  0.6081  0.0658
 1655SOL     OW16423   0.201   0.888   6.214 -0.1788 -0.5456  0.1863
 1655SOL    HW116424   0.263   0.907   6.284  0.1538  0.4881 -0.3809
 1655SOL    HW216425   0.248   0.818   6.169 -0.1420 -0.8526  0.7073
 1656SOL     OW16426   0.119   0.088  15.408 -0.1766 -0.1914 -0.6095
 1656SOL    HW116427   0.161   0.076  15.493  2.2301  0.2938 -1.7186
 1656SOL    HW216428   0.180   0.157  15.382 -1.9057  1.4330 -0.3002
 1657SOL     OW16429   4.381   1.488   4.083 -0.3672 -0.1560  0.0395
 1657SOL    HW116430   4.325   1.414   4.060 -0.4758 -0.5882  1.6470
 1657SOL    HW216431   4.329   1.538   4.146 -2.2755 -0.0159 -1.6869
 1658SOL     OW16432   4.599   4.096   5.676 -0.3031 -0.1017 -0.3576
 1658SOL    HW116433   4.523   4.154   5.681  0.0376  0.3424 -0.2144
 1658SOL    HW216434   4.559   4.013   5.654  1.5301 -1.1983  0.4103
 1659SOL     OW16435   1.042   0.455   8.333 -0.0109  0.0569 -0.3927
 1659SOL    HW116436   1.135   0.434   8.340 -0.1694 -1.1131 -1.7920
 1659SOL    HW216437   1.046   0.532   8.276  3.0088  0.2255  0.0517
 1660SOL     OW16438   3.442   3.472   7.938 -0.2778 -0.3629 -0.4129
 1660SOL    HW116439   3.507   3.510   7.996  2.0519 -1.8187 -2.1051
 1660SOL    HW216440   3.422   3.546   7.880 -0.1650 -0.1536 -0.1806
 1661SOL     OW16441   2.338   4.072   4.178  0.1741  0.4622 -0.1916
 1661SOL    HW116442   2.273   4.045   4.242  2.5201 -2.8403  0.8371
 1661SOL    HW216443   2.421   4.070   4.226  0.8271  0.5305 -1.3150
 1662SOL     OW16444   0.168   3.511   6.040 -0.1053  0.4158  0.1404
 1662SOL    HW116445   0.106   3.439   6.025 -0.1771  0.1711  1.5601
 1662SOL    HW216446   0.112   3.586   6.061  1.1885  1.5183 -0.4067
 1663SOL     OW16447   4.112   3.071   6.176 -0.4148 -0.5934  0.0871
 1663SOL    HW116448   4.096   2.977   6.184  4.0100 -1.3318  0.3037
 1663SOL    HW216449   4.187   3.078   6.117 -0.3930 -0.6578  0.1070
 1664SOL     OW16450   0.445   3.458   1.477 -0.3804  0.1567 -0.2590
 1664SOL    HW116451   0.367   3.509   1.499 -1.7696 -1.4656 -1.3955
 1664SOL    HW216452   0.509   3.529   1.476 -0.9801  0.7421  2.3023
 1665SOL     OW16453   4.544   0.506  17.514  0.2646  0.3720 -1.0282
 1665SOL    HW116454   4.544   0.598  17.486  3.5183  1.2181  1.7774
 1665SOL    HW216455   4.450   0.499  17.528  0.3910  0.0180 -0.3928
 1666SOL     OW16456   1.936   2.488   4.979 -0.2673 -0.5483  0.2261
 1666SOL    HW116457   1.931   2.455   4.889  0.1806 -1.9052  0.6970
 1666SOL    HW216458   2.026   2.473   5.010  0.1987  0.4812 -0.6419
 1667SOL     OW16459   0.210   1.399   4.466  0.4362 -0.1795  0.1996
 1667SOL    HW116460   0.132   1.453   4.453 -0.7974 -1.2578  3.4262
 1667SOL    HW216461   0.243   1.416   4.554 -1.5455  1.5676  0.6191
 1668SOL     OW16462   0.896   1.605  11.344 -0.1768  0.3450 -0.1779
 1668SOL    HW116463   0.921   1.650  11.263 -2.1671 -1.6356 -1.9097
 1668SOL    HW216464   0.802   1.618  11.344 -0.4914 -2.0933  1.8995
 1669SOL     OW16465   1.501   3.031  17.119 -0.4802  0.5147 -0.9488
 1669SOL    HW116466   1.448   3.077  17.054  1.1568  1.2873 -1.7308
 1669SOL    HW216467   1.437   2.966  17.149 -1.0739 -0.1162 -3.5921
 1670SOL     OW16468   2.421   1.654   2.780 -0.0661 -0.1357 -0.2407
 1670SOL    HW116469   2.482   1.633   2.709  1.9293  1.5129  0.9928
 1670SOL    HW216470   2.343   1.665   2.725 -1.5907 -1.1510  1.7355
 1671SOL     OW16471   1.541   3.464  11.873 -0.7899  0.3593  0.6324
 1671SOL    HW116472   1.541   3.476  11.778  0.2889 -0.7039  0.4928
 1671SOL    HW216473   1.524   3.369  11.876 -0.3868  0.2663 -0.0513
 1672SOL     OW16474   4.378   3.453   4.795  0.7319  0.2019  0.1297
 1672SOL    HW116475   4.454   3.412   4.753 -0.4672 -1.3368 -0.5418
 1672SOL    HW216476   4.305   3.397   4.770  0.7002 -0.9871  2.9282
 1673SOL     OW16477   2.221   0.226   4.100 -0.3406  0.2649 -0.0317
 1673SOL    HW116478   2.182   0.169   4.034 -2.7330  0.5691  1.1257
 1673SOL    HW216479   2.166   0.303   4.086  0.2150  0.4545 -1.0923
 1674SOL     OW16480   4.042   1.009  10.822 -0.3160 -0.1370 -0.0585
 1674SOL    HW116481   4.055   1.090  10.773 -0.9363  0.6638  1.0722
 1674SOL    HW216482   3.981   1.032  10.893  0.1430 -0.6503  0.5080
 1675SOL     OW16483   1.461   4.647   5.475  0.2100 -0.8795 -0.8150
 1675SOL    HW116484   1.519   4.621   5.547 -1.1523  2.6885  1.5806
 1675SOL    HW216485   1.448   4.558   5.442 -0.7542 -0.7148 -0.8766
 1676SOL     OW16486   2.483   3.947   8.944 -0.0970  0.2236  0.7080
 1676SOL    HW116487   2.454   3.883   9.009  0.8647 -2.3382 -1.3910
 1676SOL    HW216488   2.512   4.013   9.008  1.2275 -1.8673  2.2870
 1677SOL     OW16489   4.241   2.379  12.699 -0.0210  0.1437  0.5544
 1677SOL    HW116490   4.327   2.348  12.729  1.0397  2.4521 -0.0773
 1677SOL    HW216491   4.192   2.404  12.777 -1.8836  0.4452 -0.7210
 1678SOL     OW16492   1.509   0.621   6.462  0.5120 -0.0339 -0.3815
 1678SOL    HW116493   1.477   0.708   6.439  1.4694  0.3320 -0.3260
 1678SOL    HW216494   1.602   0.634   6.481 -0.6067  3.7533  2.5522
 1679SOL     OW16495   1.012   2.342   6.704 -1.0513  0.0824  0.0882
 1679SOL    HW116496   0.967   2.272   6.752 -0.3858 -0.8686 -0.6583
 1679SOL    HW216497   1.075   2.288   6.656  0.4073  2.5044 -0.6880
 1680SOL     OW16498   1.397   4.500   3.360 -0.1126 -0.4143  0.5032
 1680SOL    HW116499   1.408   4.570   3.296 -1.4528  2.7967  3.7969
 1680SOL    HW216500   1.327   4.446   3.325  0.0221  0.3910 -1.0146
 1681SOL     OW16501   2.385   3.303   1.569  0.5028  0.3031  0.8429
 1681SOL    HW116502   2.398   3.226   1.624 -0.0758  0.1492  0.7634
 1681SOL    HW216503   2.475   3.337   1.573 -0.2610  2.5575 -1.2592
 1682SOL     OW16504   3.412   3.120  10.045  0.7249  0.2171  0.3187
 1682SOL    HW116505   3.382   3.030  10.054  0.3054  0.1697 -1.6638
 1682SOL    HW216506   3.346   3.169  10.095  0.5800  1.1162 -0.7533
 1683SOL     OW16507   0.230   1.249   3.620 -0.3977  0.0476  0.1957
 1683SOL    HW116508   0.216   1.271   3.528 -0.9828 -1.5726 -0.0945
 1683SOL    HW216509   0.169   1.306   3.666 -0.6401 -1.0159  1.1906
 1684SOL     OW16510   4.657   0.413  15.168 -0.3936  0.1929 -0.4925
 1684SOL    HW116511   4.589   0.379  15.226  0.5384  0.5667  0.8160
 1684SOL    HW216512   0.003   0.350  15.179 -0.5495 -0.3910 -2.6627
 1685SOL     OW16513   3.810   0.087   2.397 -0.3786 -0.2856 -0.5833
 1685SOL    HW116514   3.858   0.111   2.317 -0.0852  3.2807  0.6415
 1685SOL    HW216515   3.826   4.718   2.400  0.3655 -0.1908 -1.3623
 1686SOL     OW16516   4.221   2.336   4.230  0.4461 -0.1364  0.3056
 1686SOL    HW116517   4.141   2.292   4.203  1.9071 -1.3430 -2.0435
 1686SOL    HW216518   4.247   2.297   4.313 -1.6843 -1.1123  0.5153
 1687SOL     OW16519   2.507   4.589  10.649  0.6102  0.2316 -0.4882
 1687SOL    HW116520   2.588   4.629  10.618  0.6791 -0.7833 -1.6111
 1687SOL    HW216521   2.521   4.496  10.634  1.0727 -0.1309  2.2654
 1688SOL     OW16522   4.596   4.510   8.554 -0.1832  0.1829 -0.2240
 1688SOL    HW116523   4.584   4.573   8.483 -0.5119 -1.4631 -1.6352
 1688SOL    HW216524   4.506   4.475   8.559  0.4960 -1.2314  2.1091
 1689SOL     OW16525   4.342   2.920   5.457  0.2327 -0.2501  0.3298
 1689SOL    HW116526   4.418   2.893   5.406  1.5654  1.8966  1.1937
 1689SOL    HW216527   4.277   2.850   5.450  0.5857 -0.5279 -0.1156
 1690SOL     OW16528   3.471   0.857   3.490  0.0973 -0.4115 -0.4312
 1690SOL    HW116529   3.390   0.808   3.472 -1.2552  1.4481  0.6075
 1690SOL    HW216530   3.531   0.795   3.448 -0.3536 -0.4571 -1.0108
 1691SOL     OW16531   2.883   2.236   7.612 -0.1177  0.0389 -0.2739
 1691SOL    HW116532   2.907   2.222   7.704 -1.5081 -1.2219 -0.0893
 1691SOL    HW216533   2.792   2.257   7.632 -0.6994 -0.9560 -1.8761
 1692SOL     OW16534   2.220   4.451   2.356  0.4831 -0.2695  0.6010
 1692SOL    HW116535   2.293   4.408   2.311 -0.0213 -2.0618  1.5011
 1692SOL    HW216536   2.156   4.467   2.286  0.6087 -0.2077  0.5008
 1693SOL     OW16537   1.679   1.619   6.416 -0.3355 -0.2794 -0.2251
 1693SOL    HW116538   1.632   1.681   6.472 -1.4356 -0.3536 -1.0611
 1693SOL    HW216539   1.641   1.538   6.450 -2.1459  1.3562  1.6535
 1694SOL     OW16540   4.524   1.182   4.024 -0.0658  0.0276  0.4418
 1694SOL    HW116541   4.619   1.171   4.024 -0.4706 -3.4882  0.8363
 1694SOL    HW216542   4.515   1.273   4.054  1.3416  0.3690 -0.1515
 1695SOL     OW16543   2.132   1.432  14.905  0.4742 -0.0442 -0.1123
 1695SOL    HW116544   2.207   1.451  14.962  1.8469 -0.6431 -1.7332
 1695SOL    HW216545   2.172   1.367  14.847 -0.5976 -1.0764  0.3018
 1696SOL     OW16546   1.355   2.926   6.641  0.3260 -0.2037  0.0608
 1696SOL    HW116547   1.320   3.004   6.598  0.0349  0.5076  1.5837
 1696SOL    HW216548   1.281   2.914   6.700 -0.2716 -0.7954 -0.7950
 1697SOL     OW16549   0.853   3.728   6.851  0.0775 -0.5845  0.1859
 1697SOL    HW116550   0.882   3.768   6.769  1.2515  0.2453  1.0013
 1697SOL    HW216551   0.857   3.639   6.816 -2.0457 -0.4993 -0.2688
 1698SOL     OW16552   2.328   1.824  14.333  0.6873 -0.2044  0.2110
 1698SOL    HW116553   2.403   1.883  14.329 -0.1243  0.8008 -0.1821
 1698SOL    HW216554   2.286   1.827  14.246  1.1613 -1.3411 -0.0513
 1699SOL     OW16555   0.697   2.568   4.919  0.9825  0.0427  0.3122
 1699SOL    HW116556   0.753   2.635   4.959 -2.1368  1.6732  1.9766
 1699SOL    HW216557   0.678   2.520   4.999 -0.9681  1.4873  0.7270
 1700SOL     OW16558   2.744   3.222  11.609 -0.3116 -0.3773  0.4747
 1700SOL    HW116559   2.732   3.212  11.514  0.2567 -1.0257  0.4742
 1700SOL    HW216560   2.830   3.262  11.615 -0.0719 -1.1024  1.7358
 1701SOL     OW16561   0.483   1.624   5.728  0.1287 -0.3040  0.5645
 1701SOL    HW116562   0.439   1.553   5.774  3.3004 -2.0869  0.8998
 1701SOL    HW216563   0.405   1.676   5.709  1.2562  0.2030 -2.6508
 1702SOL     OW16564   0.881   1.849  12.980 -0.0200  0.3914 -0.3652
 1702SOL    HW116565   0.832   1.896  12.913  0.3940  1.1849 -0.1141
 1702SOL    HW216566   0.877   1.764  12.937  1.4478  0.7058 -1.1319
 1703SOL     OW16567   0.684   3.568   4.492 -0.1182 -0.2408  0.0820
 1703SOL    HW116568   0.614   3.583   4.428 -0.2027 -2.1827 -0.3003
 1703SOL    HW216569   0.675   3.640   4.554  2.1515  0.8188 -0.8145
 1704SOL     OW16570   3.810   1.426   5.767  0.7163 -0.2432  0.3239
 1704SOL    HW116571   3.746   1.490   5.800  0.6313  0.1084 -0.5221
 1704SOL    HW216572   3.881   1.483   5.738  0.2721  1.1425  1.9592
 1705SOL     OW16573   3.135   2.735   9.713  0.2467 -0.1083  0.3661
 1705SOL    HW116574   3.082   2.751   9.634 -1.9444  1.6334  2.1896
 1705SOL    HW216575   3.106   2.807   9.770 -0.9323  0.7466 -1.3020
 1706SOL     OW16576   2.944   1.003   8.358 -0.1679  0.1768  0.1501
 1706SOL    HW116577   2.994   1.055   8.295 -0.7106 -0.7344 -1.0401
 1706SOL    HW216578   2.888   0.944   8.307 -0.4371 -0.7888  1.5579
 1707SOL     OW16579   2.572   2.022   5.049 -0.1711 -0.2862 -0.6735
 1707SOL    HW116580   2.630   2.020   5.125  0.2327  1.4165 -0.9325
 1707SOL    HW216581   2.608   1.952   4.995  0.7984 -1.7272  1.8599
 1708SOL     OW16582   3.011   0.314   0.007 -0.2798  0.3142  0.5153
 1708SOL    HW116583   3.025   0.398  17.667 -0.9844 -0.0274 -0.3950
 1708SOL    HW216584   3.034   0.333   0.098 -2.5911 -2.7021  1.7465
 1709SOL     OW16585   1.409   0.607   7.087  0.5130 -0.1390 -0.1940
 1709SOL    HW116586   1.343   0.662   7.128  2.8106  0.9991  1.9636
 1709SOL    HW216587   1.373   0.521   7.112 -1.9412  0.5675 -1.2890
 1710SOL     OW16588   4.129   2.740   8.157  0.5953 -0.0977 -0.0004
 1710SOL    HW116589   4.043   2.762   8.122  0.6290 -0.0935 -0.0796
 1710SOL    HW216590   4.111   2.744   8.251 -0.1606 -0.3791 -0.1391
 1711SOL     OW16591   4.557   2.516   5.230 -0.2559 -0.5405 -0.3169
 1711SOL    HW116592   4.639   2.520   5.279 -0.6895 -2.3069  0.5613
 1711SOL    HW216593   4.497   2.483   5.297  0.4337  0.8131  0.9690
 1712SOL     OW16594   3.364   2.413   8.604  0.7056  0.3112 -0.5509
 1712SOL    HW116595   3.335   2.504   8.613 -0.4304 -0.4165  3.0374
 1712SOL    HW216596   3.426   2.417   8.531  0.3378 -2.9127 -1.0528
 1713SOL     OW16597   4.387   0.195   4.106  0.2689  0.3817 -0.7387
 1713SOL    HW116598   4.297   0.164   4.117  1.1879 -2.2011 -0.5199
 1713SOL    HW216599   4.425   0.130   4.165  0.7159 -1.1082 -2.6671
 1714SOL     OW16600   3.956   3.635  13.402 -0.5521  0.5333  0.1858
 1714SOL    HW116601   4.012   3.561  13.378 -0.2172  1.0376 -0.5693
 1714SOL    HW216602   4.024   3.688  13.442 -1.3311  1.2548  0.5577
 1715SOL     OW16603   2.420   4.165   4.651 -0.0910 -0.4518  0.5748
 1715SOL    HW116604   2.482   4.166   4.578  0.6950 -2.7693  1.2128
 1715SOL    HW216605   2.355   4.230   4.624  2.0803  1.5496  0.1603
 1716SOL     OW16606   1.966   3.117   0.257 -0.4475 -0.7092  0.6160
 1716SOL    HW116607   1.984   3.200   0.301  0.3820 -0.5317 -0.0593
 1716SOL    HW216608   1.941   3.154   0.172 -0.7787  1.9850  1.8801
 1717SOL     OW16609   2.348   2.593  11.056  0.6593  0.3041 -0.7931
 1717SOL    HW116610   2.265   2.563  11.019 -0.4038  1.7100  0.4643
 1717SOL    HW216611   2.382   2.513  11.096 -1.0317 -0.9231 -1.7880
 1718SOL     OW16612   3.794   0.958   5.982 -0.1450 -0.3877 -0.1329
 1718SOL    HW116613   3.776   0.972   5.889  1.3252  0.6878 -0.2608
 1718SOL    HW216614   3.793   1.046   6.020  0.7292 -0.3577 -0.1837
 1719SOL     OW16615   4.548   1.298   0.137 -0.4016 -0.2980 -0.1154
 1719SOL    HW116616   4.509   1.385   0.144 -0.5056 -0.3851  0.3906
 1719SOL    HW216617   4.488   1.254   0.077 -0.2082 -0.5049 -0.1583
 1720SOL     OW16618   3.186   1.790   6.966 -0.1357 -0.1680  0.2625
 1720SOL    HW116619   3.148   1.736   6.897  2.1542  1.2299 -2.0635
 1720SOL    HW216620   3.139   1.871   6.946  0.5072 -0.3180 -1.8139
 1721SOL     OW16621   0.109   2.982   6.555 -0.0896  0.0573  0.1394
 1721SOL    HW116622   0.138   3.058   6.503 -2.0492  1.1922  0.6987
 1721SOL    HW216623   0.144   3.019   6.635  0.2961  0.8455 -0.3882
 1722SOL     OW16624   3.717   1.580  10.072 -0.5750 -0.0188 -0.6971
 1722SOL    HW116625   3.664   1.502  10.055 -0.5748 -0.4625  1.3396
 1722SOL    HW216626   3.792   1.567  10.013 -0.7698  0.1862 -0.9893
 1723SOL     OW16627   1.860   0.850   9.425  0.2783  0.1857  0.4840
 1723SOL    HW116628   1.951   0.875   9.442  0.7872 -0.0032 -1.9682
 1723SOL    HW216629   1.841   0.833   9.518  1.1968  1.5656  0.9213
 1724SOL     OW16630   1.338   4.653   5.134  0.0117  0.2337  0.3747
 1724SOL    HW116631   1.318   4.644   5.041 -2.6913  1.0589  0.8704
 1724SOL    HW216632   1.295   4.580   5.178 -0.6812 -0.5489 -1.6035
 1725SOL     OW16633   2.998   2.848  17.309  0.0474  0.4006  0.0185
 1725SOL    HW116634   3.060   2.804  17.367 -1.6198  0.3307  1.7241
 1725SOL    HW216635   3.059   2.841  17.235 -0.6947 -0.4082 -0.5061
 1726SOL     OW16636   3.090   0.168   3.548 -0.2279 -0.0709  0.1748
 1726SOL    HW116637   3.013   0.123   3.512 -1.4084  1.5628  0.6682
 1726SOL    HW216638   3.159   0.144   3.486  0.3808 -1.7492  1.4911
 1727SOL     OW16639   4.039   4.107  14.581 -0.7390  0.2930 -0.1804
 1727SOL    HW116640   4.009   4.017  14.590  2.1376 -0.6570 -0.1398
 1727SOL    HW216641   4.053   4.139  14.670 -2.3796  2.6969 -0.7726
 1728SOL     OW16642   3.792   1.102  16.579 -0.5780 -0.0979  0.1442
 1728SOL    HW116643   3.847   1.056  16.642 -0.4251  1.2440  0.9911
 1728SOL    HW216644   3.791   1.036  16.509 -0.8208 -0.5270  0.5486
 1729SOL     OW16645   2.369   4.616   8.494 -0.0756  0.3083  0.1280
 1729SOL    HW116646   2.313   4.601   8.571 -1.0022 -1.0518 -0.7940
 1729SOL    HW216647   2.311   4.619   8.417 -0.2767  0.5876  0.2899
 1730SOL     OW16648   1.888   3.510   8.100  0.1161 -0.2151 -0.9812
 1730SOL    HW116649   1.820   3.455   8.140 -0.6456  1.8352  0.5204
 1730SOL    HW216650   1.840   3.590   8.081 -0.0945  0.4290  2.2653
 1731SOL     OW16651   3.728   1.986  14.939  0.3349 -0.3659 -0.0642
 1731SOL    HW116652   3.818   2.002  14.968 -0.6775  5.0550  0.2002
 1731SOL    HW216653   3.728   2.043  14.863 -3.0874  1.1006  1.0288
 1732SOL     OW16654   4.234   0.691   6.596 -0.4347  0.0546 -0.3359
 1732SOL    HW116655   4.327   0.710   6.585  0.1976 -2.2070  1.1223
 1732SOL    HW216656   4.207   0.725   6.510 -0.4310  0.2809 -0.2488
 1733SOL     OW16657   3.506   2.751   2.523 -0.3312 -0.1709 -0.6989
 1733SOL    HW116658   3.525   2.659   2.542 -2.0309 -0.7651 -1.8399
 1733SOL    HW216659   3.423   2.767   2.568  0.5088  1.4823  0.2361
 1734SOL     OW16660   2.394   1.697  16.196 -0.5525  0.7248 -0.4733
 1734SOL    HW116661   2.362   1.690  16.106  2.3264 -0.0097 -1.4357
 1734SOL    HW216662   2.367   1.613  16.233  1.5125 -0.8450 -2.5248
 1735SOL     OW16663   3.238   3.206   8.948 -0.1005 -0.3414  0.0759
 1735SOL    HW116664   3.206   3.294   8.968  0.4899  0.1712 -1.2306
 1735SOL    HW216665   3.280   3.182   9.031 -0.7073  2.0712  1.0923
 1736SOL     OW16666   2.079   2.380   1.536  0.2074  0.0960  0.3486
 1736SOL    HW116667   2.152   2.322   1.516  1.0355  2.4345 -3.4489
 1736SOL    HW216668   2.117   2.458   1.496 -0.4797 -0.6761 -1.8006
 1737SOL     OW16669   4.443   3.647  11.692  0.4645 -0.0502  0.3853
 1737SOL    HW116670   4.424   3.568  11.640  3.8742 -1.5562  1.4680
 1737SOL    HW216671   4.475   3.601  11.769 -1.1484  3.1381  2.9485
 1738SOL     OW16672   0.706   0.989  15.994 -0.3013 -0.6186  0.2232
 1738SOL    HW116673   0.705   1.010  16.087  1.9275 -0.6102  0.2517
 1738SOL    HW216674   0.682   0.896  15.995  1.3234 -1.0469 -0.0014
 1739SOL     OW16675   2.055   2.005  15.579  0.4670 -0.0776  0.4845
 1739SOL    HW116676   2.010   2.089  15.580 -0.9560 -0.8426 -0.1511
 1739SOL    HW216677   2.001   1.947  15.526  0.4247 -0.2174  0.6848
 1740SOL     OW16678   3.554   3.499   9.140 -0.2845  0.5922  0.4552
 1740SOL    HW116679   3.502   3.461   9.212 -3.6082  0.9541 -1.7624
 1740SOL    HW216680   3.507   3.579   9.116 -3.4331 -1.9280 -1.7857
 1741SOL     OW16681   0.907   1.234   2.566 -0.0547  0.1220 -0.0576
 1741SOL    HW116682   0.818   1.256   2.593 -0.0867 -0.8323  0.6063
 1741SOL    HW216683   0.915   1.250   2.472 -0.9990  1.2464  0.0498
 1742SOL     OW16684   3.918   0.276   2.571  0.3209 -0.7196 -0.0387
 1742SOL    HW116685   3.879   0.273   2.483 -2.8129  2.8271  1.2059
 1742SOL    HW216686   3.976   0.200   2.575  3.3864  1.5925 -0.5758
 1743SOL     OW16687   2.452   2.502   7.711  0.0955  0.0364 -0.0378
 1743SOL    HW116688   2.436   2.584   7.664 -2.8118 -1.0406 -0.9501
 1743SOL    HW216689   2.362   2.469   7.723  0.1318 -0.0445  0.0160
 1744SOL     OW16690   0.713   2.278   2.747  0.5204 -1.0635 -0.1533
 1744SOL    HW116691   0.781   2.303   2.685  0.4218  2.6275  1.2074
 1744SOL    HW216692   0.759   2.286   2.830 -0.8185  0.3466  0.4684
 1745SOL     OW16693   0.353   0.635   4.197 -0.9026 -0.1507  0.2459
 1745SOL    HW116694   0.384   0.653   4.109  2.4552 -0.6431  1.3171
 1745SOL    HW216695   0.285   0.703   4.200  0.2714  1.0255  0.3814
 1746SOL     OW16696   0.379   0.662  12.462  0.4193  0.1707  0.3255
 1746SOL    HW116697   0.376   0.604  12.538  0.6041 -0.1464  0.0933
 1746SOL    HW216698   0.332   0.737  12.497 -0.5301 -0.9607  1.4494
 1747SOL     OW16699   1.658   0.830   9.235 -0.3616  0.1336  0.0989
 1747SOL    HW116700   1.730   0.856   9.292  0.0773 -0.6089 -0.1165
 1747SOL    HW216701   1.585   0.876   9.276  1.4898  1.7412  1.5860
 1748SOL     OW16702   2.057   1.795   2.090  0.2998 -0.4005 -0.4180
 1748SOL    HW116703   2.077   1.861   2.157  0.3426  1.5174 -2.3148
 1748SOL    HW216704   2.109   1.838   2.021 -0.0964  0.5447 -0.1372
 1749SOL     OW16705   3.839   4.519   4.698 -0.2980 -0.1635 -0.1629
 1749SOL    HW116706   3.806   4.467   4.770 -2.2449  2.3873  0.7722
 1749SOL    HW216707   3.788   4.484   4.625 -0.6035  0.7853 -0.4079
 1750SOL     OW16708   1.970   1.331   1.097  0.2844 -0.3903 -0.2502
 1750SOL    HW116709   1.975   1.238   1.122 -0.1500 -0.1315  0.7899
 1750SOL    HW216710   1.907   1.333   1.025 -0.5722  0.5879  0.5307
 1751SOL     OW16711   1.997   1.224   4.577 -0.0152  0.7686  0.3776
 1751SOL    HW116712   2.055   1.241   4.651 -0.4031 -2.2098  1.3799
 1751SOL    HW216713   1.992   1.301   4.521  1.0454 -0.2719 -1.1564
 1752SOL     OW16714   1.451   3.852   4.244 -0.0766 -0.8214 -0.3204
 1752SOL    HW116715   1.374   3.906   4.228 -0.5037 -1.0412  0.9820
 1752SOL    HW216716   1.423   3.775   4.294 -1.7944  0.0671  0.0627
 1753SOL     OW16717   0.252   0.526   5.487 -0.7303 -0.4589  0.0043
 1753SOL    HW116718   0.267   0.612   5.447  0.0372 -1.0959 -1.0491
 1753SOL    HW216719   0.300   0.471   5.426 -0.4865  1.4918 -1.5659
 1754SOL     OW16720   2.056   1.505   9.893  0.3408  0.6050 -0.6130
 1754SOL    HW116721   1.969   1.534   9.919 -0.3100 -0.4655 -1.5618
 1754SOL    HW216722   2.036   1.494   9.800 -1.4574 -1.3329  0.0057
 1755SOL     OW16723   3.234   1.313   9.165 -0.4765  0.1592 -0.1505
 1755SOL    HW116724   3.296   1.349   9.228 -1.7519  1.2521  0.4819
 1755SOL    HW216725   3.286   1.310   9.085 -0.7103 -3.1871 -0.1622
 1756SOL     OW16726   0.865   3.322  17.569 -0.0358  0.3149  0.2479
 1756SOL    HW116727   0.947   3.368  17.551  0.8833 -1.2237  0.4764
 1756SOL    HW216728   0.816   3.392  17.610  0.0438  0.5688 -0.0933
 1757SOL     OW16729   1.160   1.684   5.050  0.5232  0.4290 -0.0284
 1757SOL    HW116730   1.147   1.777   5.069  1.5936  0.8653 -1.4070
 1757SOL    HW216731   1.254   1.679   5.033  0.3661  0.3695 -0.8915
 1758SOL     OW16732   1.062   3.485   8.581 -0.0202 -0.0358 -0.2398
 1758SOL    HW116733   0.997   3.433   8.629  1.4152 -1.6095 -0.0055
 1758SOL    HW216734   1.096   3.554   8.638 -0.9947 -0.4438  0.8358
 1759SOL     OW16735   1.200   0.547   3.026  0.0167  0.8071  0.4917
 1759SOL    HW116736   1.158   0.630   3.001 -0.4451 -0.7724 -3.8975
 1759SOL    HW216737   1.243   0.513   2.948  1.0937  1.7666  0.6681
 1760SOL     OW16738   3.638   0.352   0.114  0.6045  0.1303 -0.1007
 1760SOL    HW116739   3.701   0.331   0.183 -0.4527 -0.1123  0.7793
 1760SOL    HW216740   3.696   0.397   0.053 -1.1549  2.7009  0.1299
 1761SOL     OW16741   3.669   4.370   5.133  0.0472  0.2998 -0.1147
 1761SOL    HW116742   3.582   4.337   5.154  0.5592 -0.8333  0.1813
 1761SOL    HW216743   3.681   4.431   5.206 -1.7287  0.3570  0.1338
 1762SOL     OW16744   4.108   4.068   7.893 -0.2818 -0.1000  0.4386
 1762SOL    HW116745   4.042   4.089   7.960  0.7972  2.9351  0.5544
 1762SOL    HW216746   4.123   3.975   7.911 -0.6175 -0.4407 -1.0798
 1763SOL     OW16747   1.223   2.146   3.326 -0.0556  0.2812 -0.0618
 1763SOL    HW116748   1.176   2.063   3.319 -0.1586  0.2858  0.5447
 1763SOL    HW216749   1.155   2.212   3.340 -0.2725  0.5955 -2.6182
 1764SOL     OW16750   2.887   0.665   8.535  0.1090 -0.0685  0.1345
 1764SOL    HW116751   2.932   0.750   8.534 -0.3244  0.1579 -0.1333
 1764SOL    HW216752   2.801   0.699   8.563  0.6584  1.2434  0.2606
 1765SOL     OW16753   1.715   1.002   3.838  0.1216 -0.0082  0.1105
 1765SOL    HW116754   1.708   0.924   3.782 -1.6904  0.2000  0.0571
 1765SOL    HW216755   1.624   1.010   3.866 -0.0236 -2.6841  0.4375
 1766SOL     OW16756   3.000   1.566   5.790  0.5508 -0.2860 -0.2636
 1766SOL    HW116757   2.939   1.537   5.723  0.9929  0.4214 -0.9735
 1766SOL    HW216758   2.942   1.587   5.863  1.2614  0.9140 -0.0424
 1767SOL     OW16759   0.099   1.068   7.675  0.1722  0.0689  0.6238
 1767SOL    HW116760   0.123   0.991   7.624  0.2097  0.0604  0.6543
 1767SOL    HW216761   0.147   1.062   7.758 -0.8684 -0.1717  1.2084
 1768SOL     OW16762   2.824   3.081  17.067  0.0978 -0.6678  0.4330
 1768SOL    HW116763   2.883   3.156  17.069 -0.7541  0.0756 -2.0624
 1768SOL    HW216764   2.753   3.100  17.005  0.6552 -1.9323 -0.5983
 1769SOL     OW16765   1.370   4.325   1.100 -0.6055 -0.0187  0.1477
 1769SOL    HW116766   1.288   4.364   1.070  0.2891  2.9281  1.5887
 1769SOL    HW216767   1.422   4.342   1.022 -3.1315  0.6063 -1.4054
 1770SOL     OW16768   0.574   0.731  12.890  0.3991 -0.2978 -0.3124
 1770SOL    HW116769   0.643   0.712  12.953  0.1448  1.5068  0.5221
 1770SOL    HW216770   0.501   0.682  12.928 -0.5543  0.5577 -1.0216
 1771SOL     OW16771   0.266   3.609   7.020  0.5533 -0.4942 -0.2908
 1771SOL    HW116772   0.359   3.622   7.037 -0.2557  0.3114  3.5089
 1771SOL    HW216773   0.245   3.662   6.943 -0.9608 -0.8961 -0.1530
 1772SOL     OW16774   4.416   0.652  16.083  0.1077 -0.1343 -0.4940
 1772SOL    HW116775   4.378   0.615  16.003  2.8286 -1.1245 -1.3545
 1772SOL    HW216776   4.385   0.742  16.070 -2.0765 -0.7197  0.7187
 1773SOL     OW16777   1.828   2.892   7.001  0.0327  0.2207  0.0564
 1773SOL    HW116778   1.909   2.859   6.961 -0.1212 -2.4058  1.9615
 1773SOL    HW216779   1.799   2.820   7.056  0.5875 -0.4878 -0.5704
 1774SOL     OW16780   0.243   3.992   4.826  0.5073 -0.3881  0.2591
 1774SOL    HW116781   0.151   3.991   4.800  0.8709 -0.6616 -1.0125
 1774SOL    HW216782   0.255   4.081   4.859  2.4252 -0.8138  0.6732
 1775SOL     OW16783   3.004   3.469   2.318 -0.1520 -0.3656 -0.4663
 1775SOL    HW116784   2.933   3.437   2.373  0.0497  1.8042  1.0521
 1775SOL    HW216785   3.021   3.402   2.252  0.4987 -1.3492  0.7059
 1776SOL     OW16786   3.407   3.061   1.704  0.1956  0.5133  0.4861
 1776SOL    HW116787   3.451   3.075   1.788  0.2676 -2.3101  0.9245
 1776SOL    HW216788   3.322   3.096   1.727  0.3194  1.5470 -0.6024
 1777SOL     OW16789   3.808   3.191   1.043 -0.2661  0.1239  0.0514
 1777SOL    HW116790   3.784   3.177   1.134  2.8284 -1.1745  0.6451
 1777SOL    HW216791   3.889   3.241   1.039  0.0634 -0.4641 -0.4433
 1778SOL     OW16792   1.067   3.838  10.058 -0.5423 -0.2681 -0.4585
 1778SOL    HW116793   0.978   3.863  10.033 -0.2954  0.2676 -0.7989
 1778SOL    HW216794   1.124   3.914  10.063  2.0135 -2.2824  1.1687
 1779SOL     OW16795   2.975   3.135  12.468 -0.5568 -0.0812 -0.4602
 1779SOL    HW116796   2.895   3.113  12.419 -0.8717  2.3119 -0.9919
 1779SOL    HW216797   2.954   3.228  12.477  2.4032  0.3132  2.2115
 1780SOL     OW16798   3.558   4.578   7.413 -0.3526  0.4359 -0.0902
 1780SOL    HW116799   3.518   4.658   7.380 -2.5281 -0.7225 -0.2473
 1780SOL    HW216800   3.647   4.607   7.432 -0.3313  2.2477 -2.8811
 1781SOL     OW16801   4.591   1.997   9.007  0.0208  0.0163 -0.1194
 1781SOL    HW116802   4.572   2.085   9.039 -1.5825 -0.1164 -0.7017
 1781SOL    HW216803   4.673   2.009   8.958  0.7394 -1.5249  0.7081
 1782SOL     OW16804   4.516   2.811   3.085 -0.3844 -0.1864 -0.1883
 1782SOL    HW116805   4.467   2.890   3.107  0.4275  0.3099 -0.1266
 1782SOL    HW216806   4.602   2.848   3.064 -0.1195  0.4895  2.0967
 1783SOL     OW16807   3.428   2.265   2.393 -0.5680  0.3572 -0.2999
 1783SOL    HW116808   3.471   2.207   2.331 -0.2280  2.3733 -1.9489
 1783SOL    HW216809   3.338   2.269   2.361 -1.2488 -0.1102  1.5126
 1784SOL     OW16810   4.702   3.169   6.191 -0.0553 -0.2655  0.3093
 1784SOL    HW116811   0.023   3.085   6.186  2.1276  1.0114 -1.2412
 1784SOL    HW216812   4.712   3.189   6.283 -0.1760 -0.4683  0.3669
 1785SOL     OW16813   0.258   2.055   3.302 -0.4272  0.2475  0.4104
 1785SOL    HW116814   0.298   2.141   3.314  1.1785 -0.6297  1.3390
 1785SOL    HW216815   0.200   2.075   3.229  0.9733 -0.7918 -0.9661
 1786SOL     OW16816   3.178   1.423   5.992  0.5192 -0.0558  0.0058
 1786SOL    HW116817   3.124   1.472   5.930  0.3847 -0.2745 -0.0534
 1786SOL    HW216818   3.237   1.373   5.935 -1.2633 -0.3312 -1.5886
 1787SOL     OW16819   3.732   1.413   6.738 -0.0413  0.1075 -0.5394
 1787SOL    HW116820   3.687   1.370   6.665 -0.9572 -0.9824  0.6646
 1787SOL    HW216821   3.655   1.440   6.788  0.1780  0.9750 -0.6647
 1788SOL     OW16822   2.683   3.691   7.866 -0.2056  0.4160  0.5299
 1788SOL    HW116823   2.709   3.739   7.945  0.6116 -0.0185  0.5249
 1788SOL    HW216824   2.590   3.715   7.866 -0.1878  0.4867  0.3075
 1789SOL     OW16825   1.133   1.539   3.982 -0.1751  0.4497 -0.0140
 1789SOL    HW116826   1.192   1.465   3.968  0.7689  1.3737 -0.9617
 1789SOL    HW216827   1.173   1.572   4.062 -1.4651 -0.7261  1.1139
 1790SOL     OW16828   2.447   4.060  14.189  0.2596 -0.1496  0.1702
 1790SOL    HW116829   2.362   4.103  14.199 -0.2305 -1.5151  1.7716
 1790SOL    HW216830   2.460   4.023  14.276  1.5250  1.7443  0.7752
 1791SOL     OW16831   2.820   4.292  11.721 -0.0515  0.0085 -0.4296
 1791SOL    HW116832   2.803   4.385  11.706 -1.4731 -0.2508 -0.4132
 1791SOL    HW216833   2.893   4.273  11.661  1.4047  1.5712  0.8348
 1792SOL     OW16834   2.635   2.577  14.731 -0.6656 -0.6650 -0.1878
 1792SOL    HW116835   2.655   2.484  14.737 -0.5888 -0.7654 -1.7598
 1792SOL    HW216836   2.694   2.619  14.793 -0.1140 -0.6719 -0.7067
 1793SOL     OW16837   0.427   3.384   0.495  0.0101 -0.1937  0.3509
 1793SOL    HW116838   0.368   3.325   0.449  1.9702  0.7309 -3.2780
 1793SOL    HW216839   0.397   3.382   0.586 -2.7123 -0.1929 -0.5362
 1794SOL     OW16840   3.322   2.396   1.292  0.1004 -0.3586 -0.3601
 1794SOL    HW116841   3.236   2.419   1.257 -0.7469 -0.6096  1.5394
 1794SOL    HW216842   3.321   2.440   1.377  3.8419 -1.2119  0.1416
 1795SOL     OW16843   2.844   3.781  17.192 -0.0097  0.0404  0.0156
 1795SOL    HW116844   2.912   3.838  17.157  2.1087 -2.7982 -0.4899
 1795SOL    HW216845   2.889   3.739  17.266  1.5475  1.9070  0.1219
 1796SOL     OW16846   1.782   2.503   1.402 -0.4164  0.1303  0.0033
 1796SOL    HW116847   1.814   2.568   1.340  1.0119 -1.4121 -0.8961
 1796SOL    HW216848   1.846   2.433   1.394 -0.9673 -0.0553 -2.7079
 1797SOL     OW16849   1.212   1.463  10.838  0.6400  0.3170 -0.0778
 1797SOL    HW116850   1.234   1.371  10.854  0.5678  0.3172  0.0229
 1797SOL    HW216851   1.127   1.463  10.794 -0.9209  1.4924  2.9799
 1798SOL     OW16852   0.718   4.443  16.220 -0.2544 -0.0216 -0.3659
 1798SOL    HW116853   0.736   4.386  16.295  1.9370 -1.0779 -1.7074
 1798SOL    HW216854   0.638   4.487  16.247  1.3426  2.6789 -0.0559
 1799SOL     OW16855   2.365   2.644   6.690  0.3455 -0.0354 -0.4118
 1799SOL    HW116856   2.356   2.550   6.675 -1.8818  0.2690 -0.9265
 1799SOL    HW216857   2.273   2.669   6.689  0.8152  1.6897 -0.8538
 1800SOL     OW16858   3.703   2.043  15.746  0.0833 -0.0655 -0.2062
 1800SOL    HW116859   3.692   2.054  15.840  0.4640  2.2567 -0.4139
 1800SOL    HW216860   3.736   1.954  15.739  1.9970  0.5982  0.2569
 1801SOL     OW16861   2.985   1.049   5.673  0.0659 -0.0435  0.0283
 1801SOL    HW116862   3.000   1.089   5.759  1.9540 -1.2863  0.2866
 1801SOL    HW216863   2.890   1.047   5.670  0.0720  0.1785 -0.3558
 1802SOL     OW16864   2.997   2.482   7.140  0.4730 -0.0646 -0.1236
 1802SOL    HW116865   2.920   2.523   7.101  2.3174 -0.1656 -3.8429
 1802SOL    HW216866   2.975   2.459   7.231 -1.8299 -0.0074 -0.6838
 1803SOL     OW16867   0.212   2.971   7.866 -0.7158  0.1272  0.3391
 1803SOL    HW116868   0.279   2.935   7.808 -0.1436  2.6544 -0.5789
 1803SOL    HW216869   0.151   3.009   7.804 -2.2532 -1.6826  0.7527
 1804SOL     OW16870   3.531   0.547   1.803  0.2345 -0.3830 -0.4705
 1804SOL    HW116871   3.618   0.585   1.815 -0.4698  0.9642  0.3779
 1804SOL    HW216872   3.516   0.566   1.711  0.1313  0.7065 -0.2349
 1805SOL     OW16873   1.811   1.908   3.550  0.2989  0.1591 -0.5249
 1805SOL    HW116874   1.728   1.861   3.548 -1.2638  2.9250 -1.3340
 1805SOL    HW216875   1.817   1.913   3.645  0.8479 -0.6825 -0.5156
 1806SOL     OW16876   2.800   2.415   9.080  0.0711  0.1128  0.0906
 1806SOL    HW116877   2.760   2.347   9.135  0.8966 -0.2371  0.2691
 1806SOL    HW216878   2.719   2.454   9.048 -0.2240 -1.2812 -0.8909
 1807SOL     OW16879   0.024   1.022   8.219 -0.2439 -0.2845 -0.8861
 1807SOL    HW116880   0.064   0.955   8.164 -0.5541 -0.3912 -0.9819
 1807SOL    HW216881   4.662   1.018   8.181 -1.1796 -0.3080  1.2735
 1808SOL     OW16882   0.038   4.537  10.191  1.1985  0.3992  0.2217
 1808SOL    HW116883   0.039   4.442  10.179 -0.4923  0.4044 -0.0203
 1808SOL    HW216884   0.101   4.558  10.122 -0.3792  1.1623 -0.9857
 1809SOL     OW16885   3.885   3.594   0.993  0.3021 -0.4079 -0.2554
 1809SOL    HW116886   3.857   3.631   0.909  2.8668  0.2357 -0.8361
 1809SOL    HW216887   3.830   3.651   1.048  0.3394  0.1155 -0.7572
 1810SOL     OW16888   0.640   2.250   2.122  0.4110  0.2636 -0.2775
 1810SOL    HW116889   0.610   2.329   2.077 -0.0052  0.5534  0.5206
 1810SOL    HW216890   0.707   2.280   2.183  0.7804 -1.1943  0.0425
 1811SOL     OW16891   1.696   4.441   5.908 -0.5021  0.5087  0.3349
 1811SOL    HW116892   1.655   4.423   5.993  1.6442  2.8218  1.8735
 1811SOL    HW216893   1.722   4.354   5.877  0.7246  1.2453 -0.6861
 1812SOL     OW16894   2.261   3.123   6.636  0.3416  0.2079 -0.4573
 1812SOL    HW116895   2.235   3.165   6.718 -1.1362  0.3668 -1.0007
 1812SOL    HW216896   2.320   3.053   6.663  0.5284 -0.7248 -3.3245
 1813SOL     OW16897   4.111   0.936   3.923 -0.0155 -0.1819  0.2141
 1813SOL    HW116898   4.090   0.889   4.003 -1.1960  0.8477  0.5219
 1813SOL    HW216899   4.206   0.942   3.932 -0.3295  1.4436  2.6367
 1814SOL     OW16900   0.685   1.917   3.245  0.2318  0.6750  0.8352
 1814SOL    HW116901   0.773   1.897   3.214  0.0303  1.0582  0.0401
 1814SOL    HW216902   0.631   1.842   3.221 -0.4561  1.5723 -0.3756
 1815SOL     OW16903   4.526   2.256  14.614  0.6437 -0.4097  0.2617
 1815SOL    HW116904   4.489   2.343  14.596 -1.6577 -1.0842  1.6760
 1815SOL    HW216905   4.512   2.226  14.524  2.7050  0.4102 -0.3176
 1816SOL     OW16906   2.376   2.303   3.648 -0.4663 -0.6586 -0.1582
 1816SOL    HW116907   2.377   2.379   3.706  1.3458 -1.2294  0.5873
 1816SOL    HW216908   2.470   2.299   3.632 -0.0529 -1.0180  2.2564
 1817SOL     OW16909   0.612   4.621   6.026  0.6434 -0.2948  0.0091
 1817SOL    HW116910   0.623   4.711   5.994 -0.5760 -0.1550 -0.0021
 1817SOL    HW216911   0.705   4.599   6.038  0.8788  1.1998  0.9396
 1818SOL     OW16912   1.859   1.619   3.134  0.2971  0.1634  0.0748
 1818SOL    HW116913   1.954   1.615   3.147 -0.0732 -1.3175  2.2481
 1818SOL    HW216914   1.835   1.537   3.176  1.3812 -0.7625 -1.0914
 1819SOL     OW16915   1.218   2.626  13.183 -0.2332  0.4515  0.0848
 1819SOL    HW116916   1.250   2.551  13.134 -0.7992  0.7610 -0.7629
 1819SOL    HW216917   1.294   2.683  13.196  0.3478 -0.4580  0.6701
 1820SOL     OW16918   3.218   4.006   3.336  0.2075  1.1565 -0.1431
 1820SOL    HW116919   3.241   3.914   3.323  2.6010  1.5307  1.4192
 1820SOL    HW216920   3.200   3.998   3.430  0.8532  0.8083 -0.0475
 1821SOL     OW16921   2.619   2.314   7.676  0.0039 -0.3660 -0.1443
 1821SOL    HW116922   2.587   2.402   7.693  2.0357  0.3551 -0.1168
 1821SOL    HW216923   2.550   2.288   7.615  1.6786  0.3350 -2.3392
 1822SOL     OW16924   1.796   0.895   3.140 -0.3371  0.2184  0.5492
 1822SOL    HW116925   1.768   0.986   3.147 -0.1520  0.4251 -1.3340
 1822SOL    HW216926   1.754   0.875   3.056  0.5996 -0.5443  0.2589
 1823SOL     OW16927   1.509   3.908   9.202 -0.3190  0.3149 -0.0393
 1823SOL    HW116928   1.571   3.843   9.166  0.2733  0.9685 -0.2058
 1823SOL    HW216929   1.423   3.875   9.175  0.7186 -2.6982  0.2860
 1824SOL     OW16930   0.008   0.988   4.214  0.8326 -0.0249 -0.2586
 1824SOL    HW116931   0.073   0.986   4.144  1.4732 -0.8354  0.3539
 1824SOL    HW216932   0.013   0.898   4.245  0.5760  0.2154  0.4809
 1825SOL     OW16933   1.055   4.670  14.496  0.3187 -0.2289 -0.0801
 1825SOL    HW116934   1.002   4.596  14.469 -2.2189  2.2350 -1.8771
 1825SOL    HW216935   1.002   0.023  14.478  2.0776  1.2035  0.9522
 1826SOL     OW16936   2.233   4.059   3.118 -0.3694 -0.4338 -0.2746
 1826SOL    HW116937   2.292   3.987   3.141  0.5806  1.0988  2.0483
 1826SOL    HW216938   2.165   4.036   3.181  1.0779 -0.8801  1.1373
 1827SOL     OW16939   3.522   4.087   4.596 -0.3509 -0.6058  0.2499
 1827SOL    HW116940   3.550   4.178   4.606  0.2403 -0.9950  2.1048
 1827SOL    HW216941   3.467   4.093   4.518  0.4798 -0.9529 -0.3661
 1828SOL     OW16942   2.779   1.470  16.744 -0.4056 -0.8410 -0.2095
 1828SOL    HW116943   2.685   1.476  16.762  0.1959 -1.7737  3.2667
 1828SOL    HW216944   2.803   1.416  16.820  1.0606 -1.5919 -1.2117
 1829SOL     OW16945   2.213   1.033   5.649  0.0623 -0.5513 -0.2892
 1829SOL    HW116946   2.160   1.112   5.662 -1.2800 -1.8375  2.1102
 1829SOL    HW216947   2.146   0.964   5.653 -1.3054  0.8987  1.8176
 1830SOL     OW16948   3.835   3.257   4.315  0.5432 -0.0852 -0.4723
 1830SOL    HW116949   3.762   3.205   4.349  0.4684  0.6019  0.4335
 1830SOL    HW216950   3.785   3.322   4.264 -2.4346 -1.0901  1.1956
 1831SOL     OW16951   0.844   1.591   1.534 -0.7780 -0.0380  0.4592
 1831SOL    HW116952   0.923   1.628   1.574 -1.7855 -0.1727  2.5916
 1831SOL    HW216953   0.798   1.674   1.544  0.8896  0.9564 -0.0896
 1832SOL     OW16954   3.347   0.892   6.992  0.3805  0.1408 -0.8688
 1832SOL    HW116955   3.377   0.971   6.947  1.0610  1.4444  1.8686
 1832SOL    HW216956   3.268   0.868   6.944 -0.2516 -1.2634  0.8805
 1833SOL     OW16957   2.205   0.364   0.134  0.1450  0.4220  0.3722
 1833SOL    HW116958   2.289   0.394   0.170  0.1222 -0.5088  1.2042
 1833SOL    HW216959   2.178   0.451   0.105 -1.4697 -0.1400  0.2096
 1834SOL     OW16960   3.058   4.335   7.523 -0.1173  0.1897 -0.0144
 1834SOL    HW116961   2.992   4.404   7.516 -1.2264 -0.9231 -0.4964
 1834SOL    HW216962   3.046   4.302   7.434  1.7626 -0.3360 -0.0920
 1835SOL     OW16963   4.270   3.502   7.688 -0.1423  0.0045  0.1563
 1835SOL    HW116964   4.262   3.407   7.675 -0.7253  0.3050 -1.6703
 1835SOL    HW216965   4.274   3.539   7.600 -1.6883 -1.5655 -0.5578
 1836SOL     OW16966   3.974   0.186   8.093  0.7821  0.1373 -0.0061
 1836SOL    HW116967   3.905   0.147   8.147  1.3821  2.4128  2.4242
 1836SOL    HW216968   3.948   0.276   8.074  0.2287 -0.1769 -0.7064
 1837SOL     OW16969   0.969   0.553  14.986 -0.4227  0.2095 -0.1442
 1837SOL    HW116970   1.054   0.597  14.980  1.4720 -3.1553  1.9958
 1837SOL    HW216971   0.996   0.462  14.970 -3.3443 -0.2905 -2.4080
 1838SOL     OW16972   4.218   4.289   5.278 -0.0092  0.3655  0.1159
 1838SOL    HW116973   4.130   4.254   5.259 -0.3504  0.6861  1.1008
 1838SOL    HW216974   4.245   4.286   5.186  0.3725 -2.6985  0.3163
 1839SOL     OW16975   0.626   2.772  11.958 -0.1365  0.5783  0.3561
 1839SOL    HW116976   0.634   2.761  11.863  0.9110 -1.1081  0.6410
 1839SOL    HW216977   0.566   2.845  11.974  1.2475  2.0357 -1.1205
 1840SOL     OW16978   3.926   0.151   2.152 -0.7298 -0.1664 -0.2449
 1840SOL    HW116979   3.919   0.220   2.087 -0.5534 -0.2607 -0.3656
 1840SOL    HW216980   3.894   0.081   2.096  1.9061 -1.3709 -0.2746
 1841SOL     OW16981   3.119   4.703   7.733 -0.1348  0.2965  0.2679
 1841SOL    HW116982   3.206   4.680   7.699 -0.8708 -0.7131 -0.9530
 1841SOL    HW216983   3.100   4.623   7.782  0.8139 -1.3733 -2.0578
 1842SOL     OW16984   4.113   2.903  11.452  0.3070  0.1128 -0.1107
 1842SOL    HW116985   4.139   2.871  11.538  0.0534  0.3917  0.0664
 1842SOL    HW216986   4.180   2.966  11.423 -1.4418  1.7059 -0.6569
 1843SOL     OW16987   0.468   0.766   0.623  0.1846  0.0815  0.3461
 1843SOL    HW116988   0.475   0.674   0.650 -0.8497  0.1246  0.7920
 1843SOL    HW216989   0.392   0.790   0.677 -0.5964  0.9616 -1.1480
 1844SOL     OW16990   3.555   1.596   2.627  0.0460 -0.5891 -0.4404
 1844SOL    HW116991   3.520   1.593   2.538 -0.8788 -1.6107 -0.0390
 1844SOL    HW216992   3.500   1.535   2.677 -0.4819  0.5801  0.4216
 1845SOL     OW16993   1.706   1.772   1.424  0.1006 -0.1517 -0.4008
 1845SOL    HW116994   1.791   1.816   1.422  0.6028 -1.1255 -0.6743
 1845SOL    HW216995   1.692   1.768   1.518 -1.9608  0.6892 -0.6884
 1846SOL     OW16996   0.216   2.464   7.197  0.3088  0.3187 -0.2312
 1846SOL    HW116997   0.192   2.411   7.121  1.4784  0.3440 -0.6125
 1846SOL    HW216998   0.304   2.427   7.209 -0.7749 -2.5300 -1.0482
 1847SOL     OW16999   0.773   3.530  14.562  0.0038 -0.1797  0.1002
 1847SOL    HW117000   0.748   3.543  14.471  4.2385 -1.0499 -1.1792
 1847SOL    HW217001   0.795   3.436  14.563  1.6909  0.2024 -1.5666
 1848SOL     OW17002   0.428   2.184  12.694  0.2003  0.3433 -0.0647
 1848SOL    HW117003   0.368   2.200  12.621  1.3421 -0.6539 -1.2267
 1848SOL    HW217004   0.496   2.247  12.673  2.3978 -0.4889  4.7064
 1849SOL     OW17005   0.235   1.968   5.330  0.0946  0.1464 -0.5029
 1849SOL    HW117006   0.322   1.972   5.370  0.1639 -3.2702 -0.3261
 1849SOL    HW217007   0.236   1.872   5.326  1.5488  0.2159 -1.8029
 1850SOL     OW17008   2.398   1.314   5.395 -0.0461  0.2241  0.1103
 1850SOL    HW117009   2.339   1.378   5.356 -2.1464 -0.7031  1.8245
 1850SOL    HW217010   2.468   1.322   5.329  0.2130 -2.2899  0.0698
 1851SOL     OW17011   3.757   2.398   9.068  0.5179  0.1163  0.0061
 1851SOL    HW117012   3.749   2.488   9.036  3.0861 -0.1809 -1.4443
 1851SOL    HW217013   3.689   2.395   9.135  0.8863  1.0380  0.4132
 1852SOL     OW17014   2.483   2.807   3.725 -0.5649  0.5713  0.4245
 1852SOL    HW117015   2.459   2.897   3.747  2.2013  1.1556  1.0563
 1852SOL    HW217016   2.444   2.797   3.638 -0.6508  1.3716  0.3720
 1853SOL     OW17017   3.178   1.660   6.721  0.3855 -0.4771  0.1321
 1853SOL    HW117018   3.094   1.617   6.738  0.2776 -0.5002 -0.4647
 1853SOL    HW217019   3.191   1.617   6.636  3.8368  0.5429  0.1393
 1854SOL     OW17020   1.730   2.659  15.595  0.0646 -0.2948  0.6207
 1854SOL    HW117021   1.744   2.748  15.627  0.7691  0.3215 -1.3911
 1854SOL    HW217022   1.636   2.656  15.578 -0.3889  0.5013  2.9214
 1855SOL     OW17023   4.542   0.247   6.113  0.1017 -0.3277  0.1170
 1855SOL    HW117024   4.635   0.248   6.134  0.1312 -1.2366  0.0245
 1855SOL    HW217025   4.507   0.288   6.192 -0.0654 -0.2277 -0.0094
 1856SOL     OW17026   2.960   3.001   2.731 -0.5296  0.6641  0.0006
 1856SOL    HW117027   3.044   3.046   2.744 -0.6927  1.6732 -2.4177
 1856SOL    HW217028   2.921   3.031   2.813 -0.6356  1.8966 -0.5152
 1857SOL     OW17029   0.246   0.435   9.664 -0.3510 -0.1020 -0.5089
 1857SOL    HW117030   0.337   0.462   9.676  0.0953 -0.2055 -3.7915
 1857SOL    HW217031   0.240   0.344   9.693  3.2222  0.9993  3.6328
 1858SOL     OW17032   1.028   3.282   3.843  0.1447 -0.2722 -0.3763
 1858SOL    HW117033   1.073   3.329   3.914  0.1910 -0.1703 -0.4723
 1858SOL    HW217034   1.074   3.328   3.773 -0.4658 -0.4907 -0.9216
 1859SOL     OW17035   2.757   1.616   1.409  0.9266  0.2984 -0.2868
 1859SOL    HW117036   2.744   1.542   1.349  0.9323 -0.8712  1.1486
 1859SOL    HW217037   2.780   1.692   1.356 -0.4472  0.1432 -1.0971
 1860SOL     OW17038   3.207   3.414  15.663  0.0074  0.2954 -0.3939
 1860SOL    HW117039   3.169   3.361  15.733 -0.1367 -0.5625 -1.1217
 1860SOL    HW217040   3.275   3.446  15.723 -1.0208 -0.2639  1.0593
 1861SOL     OW17041   0.076   0.096  16.807  0.1908 -0.5497  0.1993
 1861SOL    HW117042   4.717   0.139  16.823  1.9878  2.1310  2.5115
 1861SOL    HW217043   0.128   0.167  16.845  0.2697 -0.1161 -0.7083
 1862SOL     OW17044   2.483   2.632   2.588 -0.3692  0.5915 -0.2520
 1862SOL    HW117045   2.471   2.586   2.505 -1.3546  1.2200 -0.4544
 1862SOL    HW217046   2.572   2.668   2.582  0.0600 -0.4595 -0.3553
 1863SOL     OW17047   0.597   0.097  13.177  0.5101 -0.3461  0.1744
 1863SOL    HW117048   0.555   0.014  13.201  2.6523 -0.2564  4.0661
 1863SOL    HW217049   0.540   0.152  13.230  0.0778 -0.2121 -0.4303
 1864SOL     OW17050   2.423   3.668   6.440  0.1956  0.4256 -0.5159
 1864SOL    HW117051   2.421   3.756   6.477  0.0008  0.3283 -0.2852
 1864SOL    HW217052   2.328   3.656   6.451  0.4047 -2.6477 -1.9919
 1865SOL     OW17053   1.069   1.945   5.110 -0.0264 -0.3400 -0.3359
 1865SOL    HW117054   0.997   1.917   5.166 -0.2828 -0.5434 -0.7678
 1865SOL    HW217055   1.024   2.003   5.049  1.7500  0.4370 -0.9025
 1866SOL     OW17056   2.062   2.519  15.091 -0.4116  0.1161  0.3254
 1866SOL    HW117057   2.127   2.489  15.154  0.6729  0.8074 -0.4649
 1866SOL    HW217058   1.986   2.542  15.144  0.0974  0.7444  0.7724
 1867SOL     OW17059   1.846   1.897   8.626 -0.7666  0.1757 -0.0756
 1867SOL    HW117060   1.883   1.820   8.669  0.0430  1.0838  0.8524
 1867SOL    HW217061   1.891   1.975   8.656  1.2013 -1.1075  0.3196
 1868SOL     OW17062   2.750   2.686  13.413  0.7129 -0.3154  0.5850
 1868SOL    HW117063   2.766   2.599  13.448  3.4648  0.0758  0.3278
 1868SOL    HW217064   2.711   2.727  13.491 -1.1582 -0.3817 -0.3223
 1869SOL     OW17065   1.102   3.622  13.692 -0.4626  0.0572 -0.6541
 1869SOL    HW117066   1.083   3.685  13.762  2.5009  1.9259 -1.5015
 1869SOL    HW217067   1.148   3.679  13.630  2.7603 -0.9349  0.8618
 1870SOL     OW17068   3.360   0.834   1.350  0.8478  0.5240 -0.0421
 1870SOL    HW117069   3.403   0.816   1.266 -2.1240  0.8118 -1.6403
 1870SOL    HW217070   3.424   0.890   1.394  0.7395  0.5203  0.1214
 1871SOL     OW17071   3.782   1.181  10.919  0.3101  0.2645 -0.4132
 1871SOL    HW117072   3.781   1.272  10.948 -3.8886  0.9369 -2.5957
 1871SOL    HW217073   3.704   1.168  10.865  0.2037 -0.8723  0.0168
 1872SOL     OW17074   1.194   0.278  10.703 -0.1876  0.1164 -0.3918
 1872SOL    HW117075   1.212   0.244  10.615 -0.2027 -1.0106  0.0446
 1872SOL    HW217076   1.196   0.198  10.756 -1.2166  0.2299 -0.1911
 1873SOL     OW17077   3.517   1.830  16.006  0.3521 -0.0584  0.9575
 1873SOL    HW117078   3.430   1.865  15.988  0.1456  0.0179  2.0969
 1873SOL    HW217079   3.505   1.798  16.096 -0.7566  0.6129  1.0457
 1874SOL     OW17080   3.910   2.795   1.164 -0.4423 -0.1061 -0.8040
 1874SOL    HW117081   3.829   2.757   1.196  0.7424 -1.1788  0.8944
 1874SOL    HW217082   3.967   2.719   1.174 -0.3539  0.0531 -0.0980
 1875SOL     OW17083   3.902   3.439   1.323 -0.3279 -0.0878 -0.7644
 1875SOL    HW117084   3.952   3.423   1.243 -0.0534 -1.7183 -0.2655
 1875SOL    HW217085   3.812   3.450   1.293 -0.6286  2.8395  1.1860
 1876SOL     OW17086   4.307   0.539   6.084 -0.6133 -0.1531 -0.1515
 1876SOL    HW117087   4.357   0.555   6.164  0.2760  0.1263 -0.7666
 1876SOL    HW217088   4.278   0.623   6.048  1.0280  1.1315  1.5290
 1877SOL     OW17089   1.848   1.679   1.059  0.1690  0.7020 -0.3361
 1877SOL    HW117090   1.782   1.658   1.124  1.3072  0.3542  0.7074
 1877SOL    HW217091   1.926   1.658   1.110 -0.9280  0.8560  1.3846
 1878SOL     OW17092   3.063   2.946   9.864 -0.2947  0.0787 -0.5825
 1878SOL    HW117093   2.999   2.993   9.917  2.0312  1.2298  1.2183
 1878SOL    HW217094   3.073   3.018   9.801 -0.6950  1.6477  1.1449
 1879SOL     OW17095   1.365   0.887  10.979 -0.5717  0.2029 -0.0658
 1879SOL    HW117096   1.423   0.937  11.037 -1.2397 -0.7851  1.4503
 1879SOL    HW217097   1.381   0.932  10.896  0.8390 -0.2053 -0.0127
 1880SOL     OW17098   3.240   3.370   5.373  0.2968  0.1389  0.5337
 1880SOL    HW117099   3.184   3.378   5.296  0.3413 -1.0098  0.3844
 1880SOL    HW217100   3.188   3.381   5.453  0.5951  1.3149  0.5659
 1881SOL     OW17101   0.967   3.913   7.299  0.1475  0.3008 -0.1248
 1881SOL    HW117102   0.952   3.819   7.300  4.4115 -0.3990 -0.9766
 1881SOL    HW217103   0.949   3.933   7.207 -0.3456  0.8683  0.0925
 1882SOL     OW17104   1.711   2.635  14.544 -0.0818  0.4128  0.3406
 1882SOL    HW117105   1.623   2.618  14.579 -0.6832  0.0644 -1.3570
 1882SOL    HW217106   1.750   2.547  14.540 -0.4506  0.2361  0.6129
 1883SOL     OW17107   0.529   2.135   2.342 -0.5908 -0.6287 -0.0485
 1883SOL    HW117108   0.539   2.176   2.428 -4.0141  0.3407 -0.1253
 1883SOL    HW217109   0.555   2.203   2.280  1.6339  1.4519  3.1454
 1884SOL     OW17110   3.061   0.839   7.373 -0.2907  0.0413  0.3315
 1884SOL    HW117111   3.036   0.912   7.316 -0.7269  0.4759  1.0803
 1884SOL    HW217112   3.072   0.782   7.297 -1.7923  0.0739  0.0770
 1885SOL     OW17113   3.371   4.692   7.618  0.7896 -0.3686 -0.2402
 1885SOL    HW117114   3.341   0.026   7.550 -0.0708  0.4998  0.9136
 1885SOL    HW217115   3.434   4.646   7.561  0.2743  0.6146 -1.5844
 1886SOL     OW17116   0.806   3.859  17.594 -0.3530  0.0996  0.3323
 1886SOL    HW117117   0.803   3.931  17.530  0.3741 -0.6755 -0.5640
 1886SOL    HW217118   0.766   3.797  17.533 -1.1069 -0.0848  1.0203
 1887SOL     OW17119   4.721   2.803   2.762 -0.3194  0.0210 -0.3027
 1887SOL    HW117120   0.003   2.846   2.847 -0.6007 -1.1576  0.3140
 1887SOL    HW217121   0.076   2.751   2.759 -0.6916 -0.6784  2.0690
 1888SOL     OW17122   4.206   0.438   3.415 -0.5372  0.1686 -0.0962
 1888SOL    HW117123   4.130   0.380   3.421  0.2972 -0.9367 -0.2649
 1888SOL    HW217124   4.233   0.427   3.324  1.5887  1.5399  0.3674
 1889SOL     OW17125   3.327   0.836   3.904 -0.3909 -0.0379  0.4124
 1889SOL    HW117126   3.315   0.753   3.858  0.6089  0.0685 -0.0161
 1889SOL    HW217127   3.312   0.906   3.841 -0.7479  0.5612  1.1645
 1890SOL     OW17128   1.816   2.524   9.916 -0.0908 -0.2897  0.1950
 1890SOL    HW117129   1.765   2.552   9.992  2.5121  2.2741  0.9850
 1890SOL    HW217130   1.747   2.473   9.873  1.9654 -0.4643 -2.8571
 1891SOL     OW17131   0.191   4.469   2.648 -0.5847  0.3454 -0.0709
 1891SOL    HW117132   0.182   4.467   2.552 -0.8259 -0.0458 -0.0410
 1891SOL    HW217133   0.131   4.398   2.669  0.4725 -0.4910  0.1453
 1892SOL     OW17134   3.404   2.499  17.128 -0.6376 -0.5964  0.1675
 1892SOL    HW117135   3.412   2.420  17.181  1.4730 -2.2435 -2.6349
 1892SOL    HW217136   3.319   2.521  17.167 -0.4192  0.9956 -0.2678
 1893SOL     OW17137   3.849   1.436   8.393 -0.2453 -0.7952  0.1376
 1893SOL    HW117138   3.829   1.410   8.303  0.6885  2.2014 -0.9023
 1893SOL    HW217139   3.853   1.531   8.386  1.4068 -1.0231 -1.9929
 1894SOL     OW17140   1.603   0.756  16.431  0.4603 -0.3973  0.2536
 1894SOL    HW117141   1.641   0.837  16.466  0.7441  0.1026 -1.2295
 1894SOL    HW217142   1.520   0.759  16.479  0.3549 -2.2908  0.1886
 1895SOL     OW17143   2.972   4.441   5.934  0.6256  0.3696 -1.0092
 1895SOL    HW117144   3.045   4.440   5.996  1.4317  0.4878 -1.9550
 1895SOL    HW217145   2.922   4.368   5.973  3.7259 -2.6991 -2.7652
 1896SOL     OW17146   0.308   0.280   7.198 -0.3553  0.0577  0.1487
 1896SOL    HW117147   0.227   0.289   7.248 -1.2995 -1.3932 -1.0942
 1896SOL    HW217148   0.331   0.372   7.189  2.6084 -0.5414  1.6366
 1897SOL     OW17149   1.066   3.896   4.854  0.0220  0.6910  0.2782
 1897SOL    HW117150   1.051   3.853   4.938  1.5565 -0.0404  0.1687
 1897SOL    HW217151   1.010   3.834   4.808  1.6546 -0.2214 -0.4741
 1898SOL     OW17152   2.048   3.534  17.645  0.0604  0.4763  0.0821
 1898SOL    HW117153   2.038   3.482  17.565  1.4247  0.8061 -0.3014
 1898SOL    HW217154   2.128   3.583  17.626  0.3891 -0.2246 -0.3438
 1899SOL     OW17155   4.556   3.990  15.600  0.2890  0.3317  0.0970
 1899SOL    HW117156   4.524   3.907  15.636 -0.9944  2.5282  3.9442
 1899SOL    HW217157   4.562   4.038  15.683  0.1155  0.4145  0.0608
 1900SOL     OW17158   1.899   3.770   7.874  0.3073 -0.1467 -0.3151
 1900SOL    HW117159   1.822   3.727   7.839 -0.1036 -0.7653  1.3528
 1900SOL    HW217160   1.954   3.782   7.796  0.2972 -0.8996 -0.4325
 1901SOL     OW17161   1.119   4.019  14.376 -0.1357  0.3395 -0.6623
 1901SOL    HW117162   1.167   4.051  14.453 -0.3907  1.0460 -0.7954
 1901SOL    HW217163   1.127   3.924  14.387 -1.3957  0.2526 -0.5528
 1902SOL     OW17164   2.277   1.047   6.167 -0.2138  0.1334  0.2674
 1902SOL    HW117165   2.236   1.085   6.245  1.1718  0.3648  0.8757
 1902SOL    HW217166   2.247   1.112   6.103 -2.8651 -1.8668 -0.5459
 1903SOL     OW17167   3.874   1.762   3.066 -0.3917  0.1316  0.4974
 1903SOL    HW117168   3.909   1.678   3.037 -1.4315 -0.6570  1.5069
 1903SOL    HW217169   3.784   1.735   3.084 -0.6076  0.0014 -0.8202
 1904SOL     OW17170   3.401   2.602   7.510 -0.2811  0.2119 -0.4657
 1904SOL    HW117171   3.425   2.690   7.481  1.7169 -0.6428 -1.4336
 1904SOL    HW217172   3.477   2.551   7.483  0.3136 -0.5357  2.6297
 1905SOL     OW17173   2.536   1.862   6.899  0.1160 -0.1244  0.1253
 1905SOL    HW117174   2.516   1.787   6.843  2.2397  0.1419 -0.9897
 1905SOL    HW217175   2.465   1.865   6.963 -2.0088 -0.6418 -2.1981
 1906SOL     OW17176   3.416   2.175   6.003  0.0923  0.3962  0.3340
 1906SOL    HW117177   3.355   2.108   5.972 -0.5449 -0.1477  2.7622
 1906SOL    HW217178   3.355   2.232   6.050 -0.1905  1.5666 -1.4642
 1907SOL     OW17179   2.378   0.079   7.346 -0.0321  0.3727  0.2505
 1907SOL    HW117180   2.328   0.038   7.276 -1.5684  0.8919  1.0188
 1907SOL    HW217181   2.449   0.017   7.361 -0.4231 -0.2477 -0.4467
 1908SOL     OW17182   1.687   0.517   8.798 -0.3275  0.7036  0.3368
 1908SOL    HW117183   1.720   0.579   8.864  0.4700  1.9298 -1.2063
 1908SOL    HW217184   1.704   0.557   8.713 -0.2088  1.1937  0.5859
 1909SOL     OW17185   3.219   4.390  17.193  0.2770  0.0617 -0.1052
 1909SOL    HW117186   3.301   4.353  17.227 -0.0690 -2.4191 -1.9599
 1909SOL    HW217187   3.182   4.433  17.270 -0.1030 -0.3503 -0.0536
 1910SOL     OW17188   4.590   3.431   3.087  0.0993 -0.2614 -0.1338
 1910SOL    HW117189   4.540   3.404   3.164 -1.3088  1.8232 -0.3152
 1910SOL    HW217190   4.673   3.383   3.094 -0.4231 -1.4203 -1.7445
 1911SOL     OW17191   3.084   0.471   2.369  0.4289  0.4761 -0.5485
 1911SOL    HW117192   3.055   0.506   2.284 -1.1409  1.1166  0.2630
 1911SOL    HW217193   3.162   0.523   2.390 -0.1235  1.2733 -0.4931
 1912SOL     OW17194   2.350   0.617   3.001 -0.2091  0.5546 -0.3944
 1912SOL    HW117195   2.429   0.571   3.028 -0.4858  0.7489  0.7650
 1912SOL    HW217196   2.284   0.603   3.070  0.4825  0.4582  0.2436
 1913SOL     OW17197   0.283   3.718  11.721 -0.3167  0.1395  0.0452
 1913SOL    HW117198   0.278   3.638  11.669  0.4921  1.0614 -1.4093
 1913SOL    HW217199   0.325   3.680  11.799 -2.8717 -0.1140  1.3199
 1914SOL     OW17200   3.554   2.891   9.189 -0.0329 -0.2301 -0.2593
 1914SOL    HW117201   3.468   2.917   9.222 -0.2619 -1.6780  0.2449
 1914SOL    HW217202   3.588   2.845   9.265 -0.0439  0.4682  0.1657
 1915SOL     OW17203   2.904   0.141   0.673  0.2132  0.6481  0.4802
 1915SOL    HW117204   2.957   0.064   0.652  0.2474  0.1616  2.2981
 1915SOL    HW217205   2.941   0.166   0.758 -0.8829  0.2826  1.0642
 1916SOL     OW17206   2.733   0.487   7.377 -0.1983  0.4785 -0.7039
 1916SOL    HW117207   2.664   0.422   7.388 -0.3998  0.5614 -1.4991
 1916SOL    HW217208   2.697   0.548   7.313  0.8468  1.4561 -0.3782
 1917SOL     OW17209   2.050   1.909   7.421  0.7621  0.2439  0.8572
 1917SOL    HW117210   1.972   1.865   7.389  0.3144 -0.0702  2.4097
 1917SOL    HW217211   2.126   1.855   7.400  0.9832  0.2061  1.7491
 1918SOL     OW17212   2.394   1.933   7.541 -0.3206 -0.3971 -0.4948
 1918SOL    HW117213   2.387   2.029   7.550 -2.3089 -0.6126  0.3203
 1918SOL    HW217214   2.487   1.926   7.563 -0.3526  2.3530  0.6482
 1919SOL     OW17215   3.740   2.095   8.575  0.5751 -0.4525  0.1004
 1919SOL    HW117216   3.817   2.091   8.632  1.3893  0.8140 -0.9180
 1919SOL    HW217217   3.693   2.175   8.594  0.7388 -0.1124 -0.9249
 1920SOL     OW17218   3.943   4.658   2.974  0.2793  0.8035 -0.0049
 1920SOL    HW117219   3.931   0.026   2.990 -2.7479  0.4486 -0.2298
 1920SOL    HW217220   3.853   4.627   2.972 -0.1693  2.1795 -0.7317
 1921SOL     OW17221   0.016   1.148  14.119  0.2498  0.5339  0.0784
 1921SOL    HW117222   0.005   1.052  14.120  1.2257  0.4310  0.4684
 1921SOL    HW217223   4.653   1.176  14.095  0.0835 -0.0244  0.0208
 1922SOL     OW17224   1.620   2.667  13.023 -0.1913  0.1268  0.1617
 1922SOL    HW117225   1.536   2.627  12.997  1.1167 -1.7479 -1.1742
 1922SOL    HW217226   1.611   2.720  13.102 -0.9814 -1.9137  1.4586
 1923SOL     OW17227   3.047   0.840   3.666 -0.3185  0.1029 -0.3788
 1923SOL    HW117228   3.119   0.781   3.689 -2.4265 -1.3678  2.5524
 1923SOL    HW217229   2.983   0.782   3.625  1.4254 -1.0561 -1.4584
 1924SOL     OW17230   0.985   0.159   8.551 -0.6396  0.0693  0.0613
 1924SOL    HW117231   1.001   0.071   8.585  1.6549  0.6005  0.4043
 1924SOL    HW217232   1.065   0.174   8.501 -0.4948 -0.9260  0.0118
 1925SOL     OW17233   4.471   4.261   8.431 -0.0448 -0.4105  0.4481
 1925SOL    HW117234   4.396   4.318   8.450  0.9988  1.5901 -1.4966
 1925SOL    HW217235   4.472   4.268   8.336  1.0429  2.6870  0.6880
 1926SOL     OW17236   0.309   1.791   3.293  0.0214  0.3353 -0.0497
 1926SOL    HW117237   0.242   1.761   3.354 -0.6084  0.8925 -0.4694
 1926SOL    HW217238   0.294   1.886   3.295  0.1894  0.3816 -0.9331
 1927SOL     OW17239   3.349   2.577   6.598 -0.3699 -0.4438  0.1606
 1927SOL    HW117240   3.352   2.611   6.688 -2.2505  1.4223 -0.4746
 1927SOL    HW217241   3.258   2.547   6.594 -0.5473 -0.3370  3.3263
 1928SOL     OW17242   0.708   0.904   5.395 -0.4055  0.3305  0.3233
 1928SOL    HW117243   0.662   0.902   5.312 -1.2685  1.4049  0.7799
 1928SOL    HW217244   0.793   0.943   5.373  1.2323 -2.7737  1.1458
 1929SOL     OW17245   3.453   1.456   3.693  0.2218  0.0376  0.1793
 1929SOL    HW117246   3.378   1.481   3.640  0.5244  1.1638  0.2939
 1929SOL    HW217247   3.506   1.401   3.634  1.1123  1.8205 -0.6701
 1930SOL     OW17248   2.068   0.667   5.312 -0.3264 -0.3605  0.0173
 1930SOL    HW117249   2.125   0.644   5.385 -0.0581  2.2527  0.6206
 1930SOL    HW217250   2.005   0.595   5.312 -2.0988  1.2061  0.2747
 1931SOL     OW17251   3.610   3.312  10.106  0.4570 -0.2102 -0.1663
 1931SOL    HW117252   3.593   3.290  10.198  1.2884 -1.8276 -0.3937
 1931SOL    HW217253   3.564   3.244  10.056 -0.0812  0.9892 -1.2731
 1932SOL     OW17254   2.884   2.821   8.537 -0.5238 -0.4261 -0.1831
 1932SOL    HW117255   2.950   2.830   8.605 -1.2667  1.7369  0.2448
 1932SOL    HW217256   2.809   2.799   8.592 -0.0955  4.0391  2.2440
 1933SOL     OW17257   0.068   1.809   4.655  0.1364 -0.5913  0.2302
 1933SOL    HW117258   0.008   1.755   4.707 -0.6074 -1.4727 -1.5327
 1933SOL    HW217259   0.016   1.816   4.575 -0.4911  0.4282  0.7270
 1934SOL     OW17260   1.324   1.425  12.079 -0.5282 -0.0340 -0.1547
 1934SOL    HW117261   1.390   1.401  12.144 -0.1461  1.9791  0.1978
 1934SOL    HW217262   1.329   1.520  12.072 -1.9567  0.1786  1.6673
 1935SOL     OW17263   2.788   1.358   0.791 -0.1985 -0.1513  0.3878
 1935SOL    HW117264   2.831   1.401   0.865 -1.1940 -1.7523  1.8854
 1935SOL    HW217265   2.852   1.372   0.721 -1.1609  0.0260 -0.4586
 1936SOL     OW17266   1.209   3.030   1.298 -0.0594 -0.4336 -0.4083
 1936SOL    HW117267   1.242   2.946   1.328 -0.1473 -0.7049 -1.0649
 1936SOL    HW217268   1.177   2.996   1.214 -0.9095 -1.0824  0.1810
 1937SOL     OW17269   2.287   0.300  13.257  0.0667  0.5922  0.2701
 1937SOL    HW117270   2.375   0.319  13.225 -0.6787  0.3523 -1.9249
 1937SOL    HW217271   2.273   0.374  13.315  1.3547  0.5577  0.6231
 1938SOL     OW17272   3.762   4.314   4.204 -0.0412  0.1107  0.2432
 1938SOL    HW117273   3.708   4.269   4.269  1.5820 -1.2027  0.6586
 1938SOL    HW217274   3.830   4.353   4.258  0.2467 -0.1072  0.0379
 1939SOL     OW17275   2.047   3.718   7.384  0.2069  0.8235  0.3155
 1939SOL    HW117276   2.060   3.750   7.474 -2.3287 -2.3504  1.7718
 1939SOL    HW217277   1.952   3.708   7.379  0.1934 -1.0193  3.8600
 1940SOL     OW17278   4.287   2.688  11.954  0.1510  0.1841  0.1233
 1940SOL    HW117279   4.365   2.702  12.007 -0.2250 -0.8990  0.9514
 1940SOL    HW217280   4.225   2.735  12.009 -0.4281 -2.4099  1.6761
 1941SOL     OW17281   2.347   1.479  16.337  0.0639  0.0066 -0.1068
 1941SOL    HW117282   2.425   1.452  16.385  0.7743  2.7921  0.3112
 1941SOL    HW217283   2.280   1.414  16.357  1.5273 -1.6998 -0.7295
 1942SOL     OW17284   2.597   0.264  17.150  0.3890  0.0103 -0.2441
 1942SOL    HW117285   2.540   0.256  17.227  1.8315  0.9008  0.9155
 1942SOL    HW217286   2.579   0.174  17.123  2.5197  0.0837 -1.9057
 1943SOL     OW17287   1.771   3.939  10.942 -0.1490 -0.0871  0.2128
 1943SOL    HW117288   1.856   3.897  10.931 -0.1378 -0.8628  3.3995
 1943SOL    HW217289   1.708   3.869  10.958  1.6614 -1.8166 -0.2629
 1944SOL     OW17290   4.615   2.092   0.484  0.7904 -0.6478  0.0121
 1944SOL    HW117291   4.664   2.104   0.566  2.1235  2.0417 -1.1854
 1944SOL    HW217292   4.530   2.113   0.522  1.7768  0.3873  1.6859
 1945SOL     OW17293   3.776   1.763   5.390 -0.0760 -0.0425  0.3535
 1945SOL    HW117294   3.791   1.818   5.313  0.5176 -1.2583 -0.3970
 1945SOL    HW217295   3.686   1.740   5.366  0.4871  1.7610 -3.4798
 1946SOL     OW17296   2.999   2.769   3.102  0.0607  0.5930 -0.1315
 1946SOL    HW117297   2.914   2.730   3.123  1.7917 -2.3269  1.4564
 1946SOL    HW217298   3.048   2.693   3.134 -0.2587  0.4573  0.0368
 1947SOL     OW17299   3.950   0.951   7.346  0.1547 -0.1999 -0.2192
 1947SOL    HW117300   4.026   0.989   7.391 -1.0053  0.3101  1.3127
 1947SOL    HW217301   3.924   1.025   7.291  1.0590  0.1657 -0.1696
 1948SOL     OW17302   3.970   0.302  15.778  0.3847  0.2952 -0.1794
 1948SOL    HW117303   3.979   0.355  15.857 -0.7651  2.2498 -1.3693
 1948SOL    HW217304   4.005   0.216  15.800 -0.5889 -0.0418  0.0541
 1949SOL     OW17305   0.019   2.161   5.382 -0.1954  0.5170  0.9207
 1949SOL    HW117306   0.112   2.167   5.406  0.3831  0.5616 -1.3904
 1949SOL    HW217307   0.030   2.110   5.302  0.2000  1.5844  0.2861
 1950SOL     OW17308   4.658   3.438  16.413  0.5914  0.1529  0.1461
 1950SOL    HW117309   4.640   3.446  16.507 -1.0659  1.3153 -0.2782
 1950SOL    HW217310   4.676   3.529  16.392 -0.2852  0.8695  2.5008
 1951SOL     OW17311   2.182   0.913   4.250  0.1771 -0.2656  0.0138
 1951SOL    HW117312   2.274   0.897   4.270  0.2800  1.8747  1.2423
 1951SOL    HW217313   2.146   0.961   4.325  0.0774 -0.1164 -0.1292
 1952SOL     OW17314   0.216   4.211   4.974  0.0129  0.0004 -0.1690
 1952SOL    HW117315   0.204   4.289   5.026 -0.8793 -0.7469  0.7386
 1952SOL    HW217316   0.298   4.239   4.932  0.3096  1.0672  1.1348
 1953SOL     OW17317   0.041   3.996   2.690 -0.0656  0.5082  0.6443
 1953SOL    HW117318   4.718   3.914   2.698 -0.0022  0.1774 -2.3830
 1953SOL    HW217319   0.083   3.967   2.608 -0.5228  0.5088  0.4119
 1954SOL     OW17320   0.659   3.451   6.461 -0.1238  0.0501 -0.2219
 1954SOL    HW117321   0.702   3.534   6.480 -2.4338  0.9598  1.0145
 1954SOL    HW217322   0.569   3.480   6.448  0.4636  1.5826 -0.8963
 1955SOL     OW17323   3.740   1.697  15.031  0.4276 -0.1184 -0.2148
 1955SOL    HW117324   3.811   1.722  15.090 -0.4623  0.6781  0.5046
 1955SOL    HW217325   3.733   1.776  14.978  1.9169 -0.3382 -0.7535
 1956SOL     OW17326   2.844   0.539   5.223 -0.0232  0.6410 -0.4520
 1956SOL    HW117327   2.883   0.620   5.190 -0.0933 -0.2265 -2.7219
 1956SOL    HW217328   2.915   0.486   5.185 -0.6438 -0.8305  0.4572
 1957SOL     OW17329   2.955   2.281   2.803  0.2987  0.0816  0.1309
 1957SOL    HW117330   2.891   2.281   2.732 -0.1712 -1.2927  0.5436
 1957SOL    HW217331   2.981   2.189   2.816 -2.1799 -0.9406 -2.1052
 1958SOL     OW17332   0.520   4.427   7.460  0.7563  0.0242  0.3555
 1958SOL    HW117333   0.457   4.413   7.530  0.8869  1.1706  0.6961
 1958SOL    HW217334   0.576   4.351   7.472 -0.8490 -1.6753 -2.7309
 1959SOL     OW17335   3.093   4.557   3.429  0.0167 -0.1109 -0.5078
 1959SOL    HW117336   3.098   4.499   3.354 -1.3872  0.1750 -0.8300
 1959SOL    HW217337   3.140   4.513   3.500 -0.1486 -0.9253 -0.9081
 1960SOL     OW17338   2.605   1.714  15.134 -0.0799 -0.3688 -0.0042
 1960SOL    HW117339   2.621   1.620  15.140 -1.1295 -0.3783  2.4200
 1960SOL    HW217340   2.690   1.746  15.102 -0.4875  1.1103  0.3918
 1961SOL     OW17341   2.645   4.244   4.516 -0.0083 -0.3171  0.2323
 1961SOL    HW117342   2.647   4.309   4.586  0.9264  0.2898 -0.3436
 1961SOL    HW217343   2.725   4.196   4.538  0.6076  0.1684 -0.9125
 1962SOL     OW17344   0.695   3.001   6.190 -0.4360 -0.1945  0.4588
 1962SOL    HW117345   0.624   3.043   6.238  0.5455  2.1608 -0.1064
 1962SOL    HW217346   0.757   3.074   6.179  0.1026 -0.8907 -1.3187
 1963SOL     OW17347   1.845   2.581   5.705  0.0618  0.0200  0.3035
 1963SOL    HW117348   1.793   2.528   5.645  0.4126  0.5815 -0.5050
 1963SOL    HW217349   1.916   2.583   5.640 -0.1714  0.2372  0.0549
 1964SOL     OW17350   0.030   0.554  15.702  0.1509 -0.0805  0.3101
 1964SOL    HW117351   0.031   0.642  15.739 -1.7236 -1.3186  3.3380
 1964SOL    HW217352   0.069   0.570  15.616  0.4657 -2.3847  0.0091
 1965SOL     OW17353   0.390   3.329   1.245 -0.1463  0.0968  0.3176
 1965SOL    HW117354   0.440   3.364   1.319  0.3540  1.6439 -0.7488
 1965SOL    HW217355   0.313   3.295   1.291 -2.0438  0.8708 -2.3023
 1966SOL     OW17356   3.919   2.320   3.399  0.3833 -0.1930 -0.3299
 1966SOL    HW117357   4.000   2.371   3.403  0.4554 -0.1114 -2.7319
 1966SOL    HW217358   3.892   2.335   3.308  2.6215 -0.9897 -1.1229
 1967SOL     OW17359   1.184   0.978   6.808 -0.1874  0.1528 -0.4784
 1967SOL    HW117360   1.099   0.947   6.840  0.1101 -1.1462 -0.9252
 1967SOL    HW217361   1.184   1.058   6.861  1.0564  1.6243 -2.7299
 1968SOL     OW17362   1.075   3.945  17.220  0.2910 -0.9104  0.0311
 1968SOL    HW117363   1.150   3.963  17.276  0.9760 -0.1776 -1.1034
 1968SOL    HW217364   1.055   3.860  17.258  1.1785 -0.3929  1.6212
 1969SOL     OW17365   2.624   0.868  12.447 -0.5842 -0.1470  0.3341
 1969SOL    HW117366   2.688   0.927  12.487  1.1250 -1.5912 -0.2542
 1969SOL    HW217367   2.540   0.906  12.474 -0.7140  0.6900 -1.2151
 1970SOL     OW17368   2.993   2.936   2.218 -0.4865  0.4096 -0.3504
 1970SOL    HW117369   3.055   2.886   2.166 -2.2214 -2.9399  0.8245
 1970SOL    HW217370   2.973   3.004   2.154 -0.5004 -0.6323 -1.4495
 1971SOL     OW17371   4.512   3.663  16.175 -0.1595  0.0923 -0.2982
 1971SOL    HW117372   4.478   3.668  16.085  0.9109 -2.2576 -0.8471
 1971SOL    HW217373   4.605   3.656  16.154 -0.6247 -0.4192 -2.2285
 1972SOL     OW17374   0.112   2.490   2.416  0.4136  0.1694 -0.8026
 1972SOL    HW117375   0.133   2.403   2.383 -0.8812 -0.4242 -0.0411
 1972SOL    HW217376   0.050   2.465   2.484  0.7258 -2.1020 -1.3590
 1973SOL     OW17377   1.788   0.102   5.031  0.0710 -0.3439 -0.7268
 1973SOL    HW117378   1.725   0.100   5.104  0.5719 -1.1219 -0.3231
 1973SOL    HW217379   1.871   0.087   5.075 -0.7632  0.7306  1.2126
 1974SOL     OW17380   2.132   2.732  14.917  0.3750  0.2264 -0.0473
 1974SOL    HW117381   2.129   2.698  14.828 -1.2428  0.4634 -0.0891
 1974SOL    HW217382   2.093   2.660  14.966  0.0472 -0.0428 -0.7062
 1975SOL     OW17383   0.809   4.544   0.270 -0.2577 -0.5175 -0.3042
 1975SOL    HW117384   0.808   4.527   0.176 -0.7342  0.3813 -0.4580
 1975SOL    HW217385   0.903   4.563   0.273 -0.4581  0.5066 -0.6142
 1976SOL     OW17386   3.482   1.527  10.878 -0.1180  0.3269  0.1075
 1976SOL    HW117387   3.495   1.593  10.946 -1.0537  0.0308  0.5642
 1976SOL    HW217388   3.574   1.514  10.854 -0.7049 -1.6067 -1.0631
 1977SOL     OW17389   0.973   3.807   0.082  0.0061 -0.5038 -0.6345
 1977SOL    HW117390   0.912   3.818   0.155 -1.3865 -3.2197 -1.3703
 1977SOL    HW217391   0.922   3.831   0.004  0.0659  1.2771 -0.1293
 1978SOL     OW17392   1.302   4.622   0.028  0.2148 -0.0513  0.3581
 1978SOL    HW117393   1.280   4.534  17.700  0.3430 -0.1068  0.4248
 1978SOL    HW217394   1.359   4.661  17.665 -1.7211  0.9850 -0.7005
 1979SOL     OW17395   1.091   0.448   6.232  0.1936 -0.3063  0.0204
 1979SOL    HW117396   1.152   0.467   6.161 -1.5384  1.8828 -0.8925
 1979SOL    HW217397   1.103   0.527   6.285  0.4494 -2.0716  2.5998
 1980SOL     OW17398   0.696   0.942   1.389 -0.3099  0.0203 -0.3239
 1980SOL    HW117399   0.661   1.024   1.423 -2.7297 -0.8947 -0.6379
 1980SOL    HW217400   0.721   0.971   1.302 -0.4495  0.5266 -0.1928
 1981SOL     OW17401   4.341   1.863   3.612  0.0378 -0.5424  0.7359
 1981SOL    HW117402   4.350   1.833   3.522 -0.1953 -1.8772  1.1575
 1981SOL    HW217403   4.390   1.794   3.656 -1.3310 -1.0678  1.4415
 1982SOL     OW17404   0.691   2.253   6.134 -0.6155  0.4153 -0.0477
 1982SOL    HW117405   0.755   2.227   6.201  0.0580  1.5984 -0.2311
 1982SOL    HW217406   0.627   2.183   6.144  0.1443  0.0528  2.4643
 1983SOL     OW17407   2.971   1.850  13.325 -0.0279  0.1689  0.0041
 1983SOL    HW117408   2.914   1.811  13.391  0.7911 -2.3177 -0.7584
 1983SOL    HW217409   2.936   1.939  13.320  0.2369  0.2080 -1.1424
 1984SOL     OW17410   0.696   0.380   6.546  0.0254 -0.2755  0.3579
 1984SOL    HW117411   0.759   0.378   6.474  1.5262  0.0512  1.6542
 1984SOL    HW217412   0.713   0.289   6.574 -0.5793 -0.1786  1.0621
 1985SOL     OW17413   0.913   2.353  14.016 -0.1307  0.1130 -0.1404
 1985SOL    HW117414   0.976   2.337  13.946  0.3950  2.8864 -0.2941
 1985SOL    HW217415   0.932   2.279  14.073 -0.2328  1.0616  1.1186
 1986SOL     OW17416   1.677   1.178  10.921  0.1595 -0.2743 -0.0505
 1986SOL    HW117417   1.605   1.174  10.984 -0.0683 -0.4591 -0.3206
 1986SOL    HW217418   1.633   1.236  10.858 -0.2841 -0.5517  0.0057
 1987SOL     OW17419   2.179   3.878  14.113 -0.2093  0.4615 -0.3920
 1987SOL    HW117420   2.220   3.792  14.113 -1.3004 -0.0608 -0.6228
 1987SOL    HW217421   2.260   3.926  14.127 -0.7656  0.5734  2.3068
 1988SOL     OW17422   4.265   1.061   9.612 -0.3905  0.4788  0.2833
 1988SOL    HW117423   4.221   1.146   9.622 -0.9984  0.1885  0.1179
 1988SOL    HW217424   4.355   1.083   9.587 -0.3549 -0.5398 -0.4684
 1989SOL     OW17425   3.458   0.686   7.129  0.2441 -0.2345  0.1700
 1989SOL    HW117426   3.498   0.654   7.048  0.2093 -0.8096  0.3775
 1989SOL    HW217427   3.402   0.755   7.094  0.7959  0.5452  0.8195
 1990SOL     OW17428   0.194   3.405  10.847  0.3573  0.0224  0.5282
 1990SOL    HW117429   0.143   3.405  10.928  0.1715  0.4700  0.4121
 1990SOL    HW217430   0.285   3.425  10.871  0.3671  2.4633 -1.4607
 1991SOL     OW17431   1.819   0.614   3.894  0.0774 -0.4177 -0.1817
 1991SOL    HW117432   1.779   0.650   3.814 -0.5950  0.5449  0.5893
 1991SOL    HW217433   1.835   0.692   3.946 -1.0725  0.3799 -1.0106
 1992SOL     OW17434   1.542   3.673   5.033  0.2097 -0.4981 -0.0314
 1992SOL    HW117435   1.450   3.691   5.012 -0.2456 -0.6327  1.8563
 1992SOL    HW217436   1.549   3.681   5.128 -0.0007  2.1173 -0.2367
 1993SOL     OW17437   0.146   4.547   8.894 -0.0866 -0.1836  0.4731
 1993SOL    HW117438   0.129   4.501   8.976  2.0393  1.6481  1.9508
 1993SOL    HW217439   0.165   4.474   8.834  1.2993 -0.1888  0.9204
 1994SOL     OW17440   4.673   2.218  10.002 -0.1174 -0.1485 -0.1804
 1994SOL    HW117441   4.710   2.140  10.044  2.2394  0.4833 -1.0686
 1994SOL    HW217442   4.585   2.225  10.040 -0.2901  1.9112 -0.9421
 1995SOL     OW17443   3.118   0.271   6.443  0.3502 -0.1822  0.4989
 1995SOL    HW117444   3.112   0.284   6.538  0.1590 -0.4525  0.5229
 1995SOL    HW217445   3.206   0.237   6.458  2.0676  3.3265 -1.6327
 1996SOL     OW17446   1.195   3.629   9.911 -0.5720 -0.0808 -0.7373
 1996SOL    HW117447   1.123   3.577   9.947 -2.7431  1.6427 -2.6119
 1996SOL    HW217448   1.186   3.708   9.963  0.5111 -0.0911 -0.5317
 1997SOL     OW17449   4.553   0.284   7.294  0.5334  0.0917  0.6646
 1997SOL    HW117450   4.460   0.299   7.310  0.9173  1.9733  1.1251
 1997SOL    HW217451   4.558   0.286   7.199 -0.7173 -1.4446  0.5624
 1998SOL     OW17452   3.113   4.044   2.864 -0.4443 -0.2521  0.0333
 1998SOL    HW117453   3.067   3.972   2.907  1.9825 -2.2796 -0.7647
 1998SOL    HW217454   3.073   4.036   2.777  1.7706  1.2363 -1.1203
 1999SOL     OW17455   0.913   3.610   7.329  0.1249 -0.2986  0.0485
 1999SOL    HW117456   0.960   3.535   7.292 -0.7897 -0.9028  0.1158
 1999SOL    HW217457   0.959   3.611   7.412 -1.2825  1.8220  0.8101
 2000SOL     OW17458   4.628   4.505   6.953  0.3424 -0.8327  0.0239
 2000SOL    HW117459   4.711   4.519   6.907 -0.6258  0.0218 -1.4584
 2000SOL    HW217460   4.558   4.508   6.888 -1.2536 -2.2461  1.6886
 2001SOL     OW17461   2.621   0.262  13.560  0.2756 -0.2765 -0.6071
 2001SOL    HW117462   2.625   0.299  13.648 -0.7781 -3.3949  0.7136
 2001SOL    HW217463   2.570   0.186  13.585  0.3329 -0.3195 -0.6207
 2002SOL     OW17464   4.105   2.548   2.516  0.0995 -0.3610  0.4472
 2002SOL    HW117465   4.171   2.518   2.453  0.7973  3.8639 -0.7896
 2002SOL    HW217466   4.022   2.553   2.468  0.3833 -0.1852 -0.0236
 2003SOL     OW17467   4.506   2.641   4.006 -0.0765 -0.1088  0.2157
 2003SOL    HW117468   4.564   2.628   4.081  1.9983  0.4887 -1.2524
 2003SOL    HW217469   4.440   2.572   4.013  0.4050 -0.6424 -0.4718
 2004SOL     OW17470   2.041   0.801   1.189 -0.0776  0.0657  0.2032
 2004SOL    HW117471   2.082   0.718   1.166 -0.4616 -0.8078  2.6181
 2004SOL    HW217472   2.006   0.773   1.273 -1.2778 -0.0024 -0.3265
 2005SOL     OW17473   0.138   1.238   8.104 -0.3109 -1.0760 -0.1332
 2005SOL    HW117474   0.181   1.180   8.039 -1.3490  0.0431 -1.8154
 2005SOL    HW217475   0.102   1.178   8.169  0.0749 -3.3678 -2.0120
 2006SOL     OW17476   0.163   3.975   2.968 -0.2825  0.3833 -0.5774
 2006SOL    HW117477   0.236   4.035   2.963  0.0692 -0.1187 -1.4466
 2006SOL    HW217478   0.130   3.975   2.878  0.4829  0.6743 -0.8530
 2007SOL     OW17479   3.839   0.501   6.656  0.4249 -0.1052 -0.0177
 2007SOL    HW117480   3.887   0.510   6.738  1.9917 -2.3735 -0.6652
 2007SOL    HW217481   3.919   0.496   6.604  1.5785  1.3290  1.6164
 2008SOL     OW17482   0.221   2.645   9.014  0.3739 -0.7077 -0.0787
 2008SOL    HW117483   0.176   2.561   9.020  0.3922 -0.6439  0.9481
 2008SOL    HW217484   0.256   2.659   9.102 -0.1727 -2.2406  0.3739
 2009SOL     OW17485   1.567   3.649   3.102  0.3847 -0.3005  0.0055
 2009SOL    HW117486   1.622   3.614   3.172 -0.5797  0.9495  1.3763
 2009SOL    HW217487   1.589   3.742   3.101  0.5244 -0.3295  0.7144
 2010SOL     OW17488   0.348   1.185   4.913 -0.1439 -0.3300  0.1080
 2010SOL    HW117489   0.280   1.122   4.887 -1.2357 -0.5381  3.5407
 2010SOL    HW217490   0.336   1.189   5.007 -1.1704  3.4982 -0.1858
 2011SOL     OW17491   2.213   2.796   6.340 -0.6673  0.2416 -0.5386
 2011SOL    HW117492   2.212   2.703   6.317 -0.4639  0.2150 -0.4395
 2011SOL    HW217493   2.233   2.841   6.258  0.3953 -0.6089 -0.7351
 2012SOL     OW17494   3.821   4.212   2.146 -0.2880 -0.2654 -0.0779
 2012SOL    HW117495   3.827   4.307   2.144 -1.8273 -0.1500  0.6196
 2012SOL    HW217496   3.738   4.193   2.103  0.3964 -0.9097 -1.1246
 2013SOL     OW17497   0.027   0.302   5.224  0.1608 -0.1321  0.0593
 2013SOL    HW117498   4.714   0.223   5.260  0.3281 -0.3395 -0.2186
 2013SOL    HW217499   0.029   0.355   5.304 -3.6668 -1.2577  0.8814
 2014SOL     OW17500   0.182   0.970   4.825  0.0190 -0.0750 -0.2421
 2014SOL    HW117501   0.158   0.980   4.733  0.1458 -3.2809 -0.5943
 2014SOL    HW217502   0.226   0.885   4.824  1.2368  0.6054 -2.9307
 2015SOL     OW17503   3.508   2.018   6.246 -0.3755  0.2084  0.0255
 2015SOL    HW117504   3.442   1.951   6.265  1.2399 -1.5950 -0.7496
 2015SOL    HW217505   3.469   2.042   6.162  1.2343  1.1049 -0.4470
 2016SOL     OW17506   0.519   1.969   1.817 -0.2452 -0.3583  0.2277
 2016SOL    HW117507   0.533   2.062   1.834  1.7907 -0.6262  0.0003
 2016SOL    HW217508   0.545   1.936   1.903  0.1340  0.9584  0.6121
 2017SOL     OW17509   0.096   2.851  15.865 -0.4366 -0.2068 -0.3733
 2017SOL    HW117510   0.142   2.852  15.949  0.1124 -1.7446 -0.6627
 2017SOL    HW217511   0.005   2.866  15.891 -0.3818 -2.1370  0.9444
 2018SOL     OW17512   3.009   2.026   1.003  0.0194  0.2989 -0.5659
 2018SOL    HW117513   3.077   2.087   1.031 -1.6515  0.5259  2.9852
 2018SOL    HW217514   2.974   2.072   0.927 -0.0344 -0.2814 -0.8954
 2019SOL     OW17515   4.405   3.330   1.714  0.5229 -0.3557  0.1103
 2019SOL    HW117516   4.368   3.416   1.697 -1.6994 -1.4424 -0.5325
 2019SOL    HW217517   4.383   3.281   1.635 -0.7080  0.4648 -0.0567
 2020SOL     OW17518   0.454   2.903   3.840  0.1367  0.0170  0.2747
 2020SOL    HW117519   0.479   2.951   3.761  0.2528  0.8203  0.7973
 2020SOL    HW217520   0.496   2.818   3.834  1.8063  0.9539 -1.4487
 2021SOL     OW17521   4.562   3.512   4.339  0.4065  0.4340 -0.2983
 2021SOL    HW117522   4.509   3.510   4.418 -0.1857 -1.2614 -0.7251
 2021SOL    HW217523   4.523   3.448   4.279  0.2029 -1.0060  1.3447
 2022SOL     OW17524   1.239   1.884   8.502 -0.1916  0.2801 -0.1705
 2022SOL    HW117525   1.145   1.867   8.494 -0.6315  2.5492  0.0516
 2022SOL    HW217526   1.237   1.980   8.508 -0.1859  0.2449  0.3502
 2023SOL     OW17527   2.775   4.238   2.280 -0.5074 -0.8281  0.1895
 2023SOL    HW117528   2.771   4.143   2.292 -0.5291 -0.7420  0.8182
 2023SOL    HW217529   2.760   4.251   2.186 -0.6717  2.2185  0.6498
 2024SOL     OW17530   2.538   3.260   6.316 -0.9774 -0.0241 -0.2705
 2024SOL    HW117531   2.591   3.198   6.265  0.5256  0.6014  0.5176
 2024SOL    HW217532   2.574   3.255   6.405 -1.4290 -0.1561 -0.0953
 2025SOL     OW17533   3.946   3.220   8.004 -0.3166 -0.4443  0.7283
 2025SOL    HW117534   4.029   3.267   8.008  0.7907 -2.2734 -0.5956
 2025SOL    HW217535   3.919   3.214   8.096 -1.1026 -3.5222  0.2951
 2026SOL     OW17536   4.450   2.997  14.459  0.3955 -0.5763 -0.2907
 2026SOL    HW117537   4.484   3.011  14.547 -1.2261 -0.6378  0.3298
 2026SOL    HW217538   4.432   3.084  14.424 -0.5011  0.4429  2.7222
 2027SOL     OW17539   3.725   0.710  17.689  0.0098  0.0854  0.8146
 2027SOL    HW117540   3.775   0.709   0.068  2.1439 -2.3703 -0.5230
 2027SOL    HW217541   3.790   0.666  17.635  0.0518  0.1112  0.8439
 2028SOL     OW17542   2.040   4.158  11.837 -0.7163  0.3331  0.1098
 2028SOL    HW117543   2.078   4.073  11.863 -3.6053 -1.4373 -1.4889
 2028SOL    HW217544   2.002   4.138  11.752 -1.5895  0.2284  0.5224
 2029SOL     OW17545   1.622   1.671   1.675 -0.4954 -0.7480  0.5897
 2029SOL    HW117546   1.655   1.687   1.764  0.4700  0.3729  0.0232
 2029SOL    HW217547   1.607   1.578   1.687 -2.5282 -0.4721  0.1084
 2030SOL     OW17548   1.687   0.908  10.518  0.1821 -0.2873 -0.0365
 2030SOL    HW117549   1.632   0.861  10.580 -0.5928  3.0016  1.7676
 2030SOL    HW217550   1.698   0.999  10.544 -0.3209  0.4397 -2.3567
 2031SOL     OW17551   0.108   4.406   7.616 -0.4435  0.7346 -0.6016
 2031SOL    HW117552   0.041   4.385   7.550 -1.5675  4.2642 -0.5719
 2031SOL    HW217553   0.116   4.501   7.616 -1.0421  0.7869 -0.6064
 2032SOL     OW17554   1.190   1.031   8.254  0.0265 -0.4192 -0.9085
 2032SOL    HW117555   1.273   0.997   8.288  0.8508 -1.6256 -4.1630
 2032SOL    HW217556   1.175   1.107   8.311 -0.5367 -0.0673 -1.5299
 2033SOL     OW17557   1.758   0.784   6.468 -0.5615  0.4732 -0.3598
 2033SOL    HW117558   1.828   0.720   6.455 -1.9073 -1.3824  1.4387
 2033SOL    HW217559   1.744   0.819   6.380  0.1217 -0.6912 -0.9273
 2034SOL     OW17560   2.389   2.362   6.558  0.5246  0.0778  0.3198
 2034SOL    HW117561   2.294   2.350   6.557  0.6596 -0.9944 -0.2957
 2034SOL    HW217562   2.420   2.307   6.485 -0.0717 -1.5961  1.3183
 2035SOL     OW17563   4.644   0.063   4.945  1.3421  0.4871  0.2994
 2035SOL    HW117564   0.015   0.067   4.945  1.4062 -1.0213  0.8009
 2035SOL    HW217565   4.635   4.712   5.002  0.0304 -0.7337 -1.5815
 2036SOL     OW17566   0.888   1.573   5.770 -0.6063  0.0457  0.1019
 2036SOL    HW117567   0.934   1.536   5.695 -1.5512 -0.8705 -0.0196
 2036SOL    HW217568   0.961   1.614   5.818 -0.4431  1.6109 -1.4848
 2037SOL     OW17569   0.676   1.434   9.178 -0.1395  0.4225 -0.5120
 2037SOL    HW117570   0.649   1.345   9.199 -1.4773  0.2620 -2.9727
 2037SOL    HW217571   0.660   1.430   9.084  2.4739 -1.7829 -0.8508
 2038SOL     OW17572   3.870   3.659  14.845  0.5989 -0.1474 -0.1953
 2038SOL    HW117573   3.859   3.614  14.929 -1.0678  1.5405  0.4902
 2038SOL    HW217574   3.781   3.666  14.810  0.6159  0.9067 -0.0192
 2039SOL     OW17575   1.014   2.308   3.142  0.0001 -0.3146  0.1067
 2039SOL    HW117576   0.989   2.293   3.051  1.1761  1.0223 -0.4414
 2039SOL    HW217577   1.094   2.361   3.137 -0.4590  0.3334 -0.3592
 2040SOL     OW17578   1.117   3.376   7.178  0.1992 -0.0810  0.0469
 2040SOL    HW117579   1.185   3.341   7.236  0.8881  0.2622 -0.5440
 2040SOL    HW217580   1.086   3.299   7.132 -1.8432  1.5845 -1.3416
 2041SOL     OW17581   3.579   2.378   6.088 -0.0360  0.2745  0.3792
 2041SOL    HW117582   3.526   2.307   6.052 -2.8670  1.6204  1.8930
 2041SOL    HW217583   3.592   2.353   6.180  2.4063  0.0490 -0.0112
 2042SOL     OW17584   2.792   4.427   8.590  0.1610  0.1783 -0.2440
 2042SOL    HW117585   2.746   4.384   8.662 -3.0313  1.4701 -1.5261
 2042SOL    HW217586   2.725   4.430   8.521  0.1267 -0.9610 -0.2668
 2043SOL     OW17587   0.162   2.963   2.112  0.6238  0.2011 -0.1520
 2043SOL    HW117588   0.237   2.934   2.062 -0.1573 -0.8523 -0.7184
 2043SOL    HW217589   0.196   3.038   2.161 -0.0219 -2.1702  3.9917
 2044SOL     OW17590   1.950   2.132   8.706 -0.1282 -0.3188 -0.4428
 2044SOL    HW117591   1.958   2.085   8.789 -2.0764 -2.0350 -1.2385
 2044SOL    HW217592   2.039   2.136   8.670  0.6553 -0.2730  1.5265
 2045SOL     OW17593   0.293   3.984   6.735 -0.1961 -0.0676 -0.2964
 2045SOL    HW117594   0.376   4.029   6.717  0.5250 -1.4380 -0.3463
 2045SOL    HW217595   0.229   4.054   6.723  2.0903  1.7832 -1.8446
 2046SOL     OW17596   1.012   0.254   3.889  0.3142  0.5376  0.0643
 2046SOL    HW117597   1.105   0.255   3.912  0.1345 -0.7194  0.8425
 2046SOL    HW217598   1.023   0.187   3.822 -1.0849  0.3444  0.0237
 2047SOL     OW17599   3.183   3.496   2.553  0.1321  0.0431 -0.2434
 2047SOL    HW117600   3.113   3.516   2.491 -0.8671 -0.6911  0.6354
 2047SOL    HW217601   3.230   3.418   2.523 -0.3506  0.2187 -1.4165
 2048SOL     OW17602   4.589   1.386   4.209  0.2033  0.2180 -0.0418
 2048SOL    HW117603   4.678   1.417   4.190  0.2262  3.0432  4.8944
 2048SOL    HW217604   4.528   1.434   4.154 -0.8867 -3.2745 -1.8694
 2049SOL     OW17605   0.351   2.279   8.590  0.1338  0.0810 -0.5435
 2049SOL    HW117606   0.305   2.363   8.595  2.1647  1.2202 -0.9230
 2049SOL    HW217607   0.305   2.240   8.516 -1.4448 -0.3876  0.6761
 2050SOL     OW17608   0.152   3.514   3.250  0.3893 -0.0441 -0.0364
 2050SOL    HW117609   0.125   3.422   3.240 -1.7789  0.7340 -1.3313
 2050SOL    HW217610   0.076   3.547   3.297 -1.7969  0.9403 -4.2343
 2051SOL     OW17611   3.213   1.225   7.895  0.6290  0.2627  0.0485
 2051SOL    HW117612   3.247   1.158   7.955  1.5731  0.6866 -0.0197
 2051SOL    HW217613   3.284   1.228   7.830  1.2353  0.2594  0.7097
 2052SOL     OW17614   1.391   3.806   7.405 -0.4486  0.2211  0.0903
 2052SOL    HW117615   1.336   3.862   7.459 -1.1060  0.9986 -1.3789
 2052SOL    HW217616   1.327   3.780   7.338  1.2447  0.3705 -1.5866
 2053SOL     OW17617   1.254   1.275  17.219 -0.7281  0.3596  0.2685
 2053SOL    HW117618   1.305   1.198  17.194 -0.6298 -0.1556  2.0547
 2053SOL    HW217619   1.297   1.306  17.299 -1.5173  1.4333  0.2723
 2054SOL     OW17620   1.489   2.064   4.537 -0.2367 -0.1580  0.0388
 2054SOL    HW117621   1.512   2.157   4.532 -1.7388  0.2524  0.6795
 2054SOL    HW217622   1.420   2.058   4.471 -0.3905 -1.8737  0.3721
 2055SOL     OW17623   1.026   1.386  13.693 -0.0752  0.0934 -0.0288
 2055SOL    HW117624   0.963   1.314  13.702 -0.9904  0.9220  0.1343
 2055SOL    HW217625   1.006   1.426  13.609 -1.2065 -3.4267 -1.4594
 2056SOL     OW17626   3.629   4.451   9.815 -0.3707  0.1274 -0.3826
 2056SOL    HW117627   3.550   4.502   9.832  1.5536  2.8845  0.5206
 2056SOL    HW217628   3.694   4.475   9.882 -2.9168 -0.2551  2.1932
 2057SOL     OW17629   1.747   2.348  13.063  0.3338  0.1218  0.7638
 2057SOL    HW117630   1.709   2.360  13.150 -0.5587 -1.6096  0.6192
 2057SOL    HW217631   1.833   2.389  13.061  1.7464 -2.8730  0.5431
 2058SOL     OW17632   4.561   2.309   4.578 -0.6970  0.0108 -0.0941
 2058SOL    HW117633   4.639   2.335   4.529 -0.2029 -1.3223 -0.0244
 2058SOL    HW217634   4.506   2.385   4.563  0.4202  0.6935 -0.6985
 2059SOL     OW17635   3.733   0.707   2.520  0.1574  0.4809 -0.5679
 2059SOL    HW117636   3.821   0.737   2.495  1.8602 -2.0426  2.3982
 2059SOL    HW217637   3.692   0.726   2.436 -0.6306  1.1326 -0.0328
 2060SOL     OW17638   0.240   3.953   7.054  0.1345 -0.1514  0.1276
 2060SOL    HW117639   0.203   3.962   6.966 -1.1429 -1.5049  0.5305
 2060SOL    HW217640   0.327   3.914   7.039 -0.4942 -1.9041  1.0006
 2061SOL     OW17641   3.167   3.366  13.245  0.2150  0.7450 -0.1791
 2061SOL    HW117642   3.156   3.401  13.333  0.6159 -0.0840  0.1917
 2061SOL    HW217643   3.233   3.300  13.264 -0.6648 -0.1677 -0.2854
 2062SOL     OW17644   4.240   0.873  16.542 -0.0378 -0.1517 -0.0247
 2062SOL    HW117645   4.231   0.955  16.494  1.5279 -1.4329 -2.4699
 2062SOL    HW217646   4.330   0.875  16.576 -0.5726  1.4109  1.3043
 2063SOL     OW17647   1.057   1.889   4.433  0.0431  0.6243 -0.2146
 2063SOL    HW117648   1.048   1.900   4.339  0.8240 -0.8820 -0.4633
 2063SOL    HW217649   1.036   1.796   4.439 -0.2517  0.7233  0.3333
 2064SOL     OW17650   1.613   2.940   7.238  0.3782  0.0968 -0.6012
 2064SOL    HW117651   1.544   2.960   7.175 -0.4397 -1.4653 -0.1884
 2064SOL    HW217652   1.652   2.860   7.203  1.7592 -0.4057  2.0575
 2065SOL     OW17653   1.933   0.842   3.379 -0.1003 -0.6134 -0.7306
 2065SOL    HW117654   1.961   0.759   3.340  0.2828 -0.8122 -0.0440
 2065SOL    HW217655   1.867   0.868   3.315 -0.6071  1.0200  0.4690
 2066SOL     OW17656   1.262   2.770  14.586 -0.1531 -0.1698 -0.1009
 2066SOL    HW117657   1.219   2.796  14.505 -1.2099 -1.3236  0.0882
 2066SOL    HW217658   1.212   2.826  14.646  1.8524 -3.5665  4.7912
 2067SOL     OW17659   0.778   0.785   6.399 -0.6870  0.3359 -0.3983
 2067SOL    HW117660   0.790   0.742   6.314 -0.0654  0.4594 -0.3699
 2067SOL    HW217661   0.824   0.867   6.377 -1.1718  0.4447 -1.0119
 2068SOL     OW17662   4.403   2.398  13.386 -0.1186  0.1090 -0.0184
 2068SOL    HW117663   4.476   2.351  13.428 -1.9802 -0.1309  2.9596
 2068SOL    HW217664   4.326   2.346  13.408  0.4251  1.5897  5.4144
 2069SOL     OW17665   0.816   1.392   1.828 -0.2918  0.5361  0.7641
 2069SOL    HW117666   0.771   1.311   1.803  2.0248 -0.6873  0.5356
 2069SOL    HW217667   0.879   1.381   1.756  0.0783  0.4964  1.0935
 2070SOL     OW17668   0.548   2.681   2.804  0.4646 -1.0410 -0.3005
 2070SOL    HW117669   0.609   2.703   2.733  2.0421  1.3696  1.7595
 2070SOL    HW217670   0.551   2.586   2.812  0.3213 -1.0960 -0.8882
 2071SOL     OW17671   3.915   0.449   8.156  0.1307  0.0353  0.3870
 2071SOL    HW117672   3.829   0.477   8.126  0.6264  1.2198  0.0753
 2071SOL    HW217673   3.926   0.507   8.231 -1.2706  1.1224 -0.2585
 2072SOL     OW17674   0.935   2.421   9.103 -0.1369 -0.0665 -0.7342
 2072SOL    HW117675   0.990   2.426   9.181 -1.4532 -0.0571  0.1998
 2072SOL    HW217676   0.849   2.449   9.135  0.3354 -0.4235  0.8682
 2073SOL     OW17677   1.746   3.855   6.831 -0.3708 -0.4220  0.3452
 2073SOL    HW117678   1.707   3.770   6.850  1.0706 -1.1931 -0.0922
 2073SOL    HW217679   1.683   3.878   6.763  1.5653 -0.1400 -1.3515
 2074SOL     OW17680   1.729   3.952   2.059  0.1074  0.0565 -0.1800
 2074SOL    HW117681   1.818   3.953   2.092  0.7644  2.7530 -2.0277
 2074SOL    HW217682   1.743   3.942   1.965  1.5936  3.5100 -0.3421
 2075SOL     OW17683   2.771   2.007   7.901 -0.5227 -0.2335 -0.0962
 2075SOL    HW117684   2.748   1.927   7.948  1.1158 -0.4312  0.3677
 2075SOL    HW217685   2.798   1.975   7.814  1.0067  1.2318 -0.1657
 2076SOL     OW17686   0.508   4.297   4.407  0.1574  0.2625 -0.0466
 2076SOL    HW117687   0.525   4.218   4.457 -0.4185  0.8214  1.0613
 2076SOL    HW217688   0.420   4.319   4.440 -0.5243 -1.0068 -1.0471
 2077SOL     OW17689   3.441   3.032  12.680  0.4186  0.8460 -0.2231
 2077SOL    HW117690   3.525   3.071  12.704  1.0672 -1.6472  1.6065
 2077SOL    HW217691   3.467   2.979  12.605 -0.9759  0.5061 -0.4798
 2078SOL     OW17692   4.215   3.335   2.167 -0.4817  0.4687 -0.3969
 2078SOL    HW117693   4.232   3.272   2.097 -2.7150 -0.0519 -0.4722
 2078SOL    HW217694   4.222   3.272   2.238 -0.0145 -0.4269 -1.2244
 2079SOL     OW17695   4.282   2.825   2.129 -0.4337 -0.1150 -0.3961
 2079SOL    HW117696   4.205   2.768   2.139 -0.2660 -0.2231  0.3275
 2079SOL    HW217697   4.333   2.801   2.207 -0.6607  1.4204  0.2261
 2080SOL     OW17698   0.421   3.548   6.168 -0.3879 -0.0263  0.7838
 2080SOL    HW117699   0.444   3.640   6.182 -1.0842  0.1776  0.5577
 2080SOL    HW217700   0.343   3.546   6.114 -0.0918  4.6944  0.2545
 2081SOL     OW17701   1.546   2.810   7.786  0.0933  0.0416  0.0816
 2081SOL    HW117702   1.477   2.788   7.848 -0.2466 -0.4000 -0.4565
 2081SOL    HW217703   1.504   2.829   7.702 -0.1943 -1.1099 -0.0282
 2082SOL     OW17704   1.390   3.049   9.438  0.2202 -0.7934  0.3164
 2082SOL    HW117705   1.395   2.966   9.390 -0.1833 -1.2298  1.0226
 2082SOL    HW217706   1.385   3.017   9.528  0.4284  1.9481  1.2908
 2083SOL     OW17707   2.332   1.094   6.649 -0.4053 -0.6136  0.0919
 2083SOL    HW117708   2.398   1.050   6.596 -0.7980 -0.3100 -0.6478
 2083SOL    HW217709   2.358   1.068   6.737 -0.7560  0.4992  0.5231
 2084SOL     OW17710   0.770   0.246  11.773 -0.2465 -0.6376  0.3276
 2084SOL    HW117711   0.702   0.314  11.773 -0.3967 -0.7783  1.2311
 2084SOL    HW217712   0.722   0.184  11.828 -1.3684  0.6167  0.7447
 2085SOL     OW17713   4.194   0.759   4.166 -0.2141 -0.2061 -0.0097
 2085SOL    HW117714   4.257   0.687   4.166  0.2045  0.1595  0.0102
 2085SOL    HW217715   4.256   0.832   4.166 -0.6255  0.1542 -1.0354
 2086SOL     OW17716   1.362   1.105   7.126  0.0522 -0.2538 -0.6196
 2086SOL    HW117717   1.359   1.104   7.222 -1.4277 -2.1296 -0.6950
 2086SOL    HW217718   1.381   1.013   7.108 -1.1033 -0.7051  0.4370
 2087SOL     OW17719   0.894   4.382   5.577 -0.1140  0.4835  0.5844
 2087SOL    HW117720   0.889   4.367   5.482  3.0081  0.2213  0.4559
 2087SOL    HW217721   0.925   4.301   5.617  0.9146  1.8132  2.4455
 2088SOL     OW17722   0.974   1.822   8.365  0.1270  0.4109 -0.1079
 2088SOL    HW117723   0.968   1.741   8.415  0.4920  0.1082 -0.5609
 2088SOL    HW217724   0.957   1.888   8.433 -3.9698  0.6156 -1.2807
 2089SOL     OW17725   2.258   1.252  14.752 -0.4576 -0.3112  0.3481
 2089SOL    HW117726   2.339   1.303  14.760 -0.2407 -0.3544 -1.6620
 2089SOL    HW217727   2.276   1.178  14.695 -0.9371 -0.5987  0.5755
 2090SOL     OW17728   4.467   2.484   9.147 -0.0287 -0.4293  0.3874
 2090SOL    HW117729   4.406   2.545   9.105 -0.4110 -2.8664 -2.5568
 2090SOL    HW217730   4.492   2.539   9.221 -0.6308  0.7446 -0.2784
 2091SOL     OW17731   2.911   3.038   7.878  0.0657 -0.3312 -0.3654
 2091SOL    HW117732   2.828   3.060   7.921  2.2177 -0.6254  3.8537
 2091SOL    HW217733   2.908   3.096   7.801 -0.7518  2.1120  1.5007
 2092SOL     OW17734   3.223   0.847   8.398  0.5871 -0.3223  0.1044
 2092SOL    HW117735   3.137   0.877   8.369  1.0876  0.1793 -0.8605
 2092SOL    HW217736   3.218   0.836   8.493  1.4123 -0.6024  0.1164
 2093SOL     OW17737   0.388   0.533   7.237  0.3088  0.2882  0.2487
 2093SOL    HW117738   0.417   0.616   7.275  1.0981 -0.5113  1.3851
 2093SOL    HW217739   0.387   0.550   7.142  0.3960  0.6134  0.3062
 2094SOL     OW17740   2.512   1.669  10.459  0.2529 -0.3477 -0.3465
 2094SOL    HW117741   2.596   1.713  10.472  1.0123 -1.9583  0.2522
 2094SOL    HW217742   2.537   1.599  10.399  0.9835 -1.0784  0.8058
 2095SOL     OW17743   1.814   4.140  17.624  0.0536  0.7918 -0.4206
 2095SOL    HW117744   1.869   4.077  17.670 -0.1698  1.0385  0.1949
 2095SOL    HW217745   1.842   4.222  17.663  1.2824  0.8377 -1.4209
 2096SOL     OW17746   0.623   4.110  14.466  0.0225  0.5553  0.1931
 2096SOL    HW117747   0.705   4.151  14.440 -1.0793  2.0419 -0.9800
 2096SOL    HW217748   0.655   4.020  14.469  0.4411  0.6851 -0.3404
 2097SOL     OW17749   1.431   2.522   4.391 -0.8050  0.3395  0.3396
 2097SOL    HW117750   1.422   2.587   4.322 -0.1394 -0.6625 -0.6955
 2097SOL    HW217751   1.367   2.456   4.366 -1.0694  0.5698  0.4128
 2098SOL     OW17752   2.381   1.370   3.287 -0.6043  0.5848 -0.2396
 2098SOL    HW117753   2.397   1.327   3.204 -0.7960  0.2324 -0.0940
 2098SOL    HW217754   2.388   1.463   3.264  4.3819  0.5353  1.1865
 2099SOL     OW17755   3.041   0.133   5.750 -0.2626 -0.3853  0.3206
 2099SOL    HW117756   2.987   0.061   5.715 -0.2352 -1.7769  3.1732
 2099SOL    HW217757   3.125   0.088   5.760 -0.1231  0.2065  1.7993
 2100SOL     OW17758   3.910   3.707   1.365  0.1290 -0.1445  0.7750
 2100SOL    HW117759   3.905   3.613   1.347  2.4615 -0.2908  0.9416
 2100SOL    HW217760   3.847   3.738   1.300  0.9708 -0.1409 -0.0453
 2101SOL     OW17761   4.597   0.716   0.640 -0.7241  0.3666 -0.1786
 2101SOL    HW117762   4.532   0.786   0.649 -0.3556  0.8514 -1.3734
 2101SOL    HW217763   4.573   0.676   0.557 -0.5286 -1.9827  0.8975
 2102SOL     OW17764   3.929   2.891   6.440 -0.3042 -0.0101  0.1174
 2102SOL    HW117765   3.964   2.975   6.469  1.1184 -0.9249  1.1007
 2102SOL    HW217766   3.884   2.847   6.512  1.5902 -0.6119  0.9479
 2103SOL     OW17767   1.504   1.624   5.818 -0.2352  0.0611 -0.1513
 2103SOL    HW117768   1.415   1.627   5.781 -0.4683 -0.2893  0.3771
 2103SOL    HW217769   1.493   1.697   5.879  3.7872  1.8061 -1.5286
 2104SOL     OW17770   1.204   1.140   4.370  0.4045  0.1300  0.3832
 2104SOL    HW117771   1.203   1.139   4.274  0.4173  2.0569  0.3594
 2104SOL    HW217772   1.291   1.102   4.380  0.8759  0.3406 -2.8453
 2105SOL     OW17773   2.740   4.276   6.499  0.2792 -0.2219  0.5750
 2105SOL    HW117774   2.658   4.320   6.523 -1.8866 -2.9985 -1.8350
 2105SOL    HW217775   2.784   4.341   6.444  0.3736 -1.3994 -0.7379
 2106SOL     OW17776   4.304   2.519   3.678  0.0949 -0.1043 -0.0260
 2106SOL    HW117777   4.323   2.513   3.772 -0.7569 -1.0720  0.0776
 2106SOL    HW217778   4.299   2.615   3.669 -0.0239 -0.2399 -1.4032
 2107SOL     OW17779   1.605   2.566   2.680  0.0367 -0.0038 -0.0172
 2107SOL    HW117780   1.593   2.528   2.593  0.2147 -0.6552  0.2411
 2107SOL    HW217781   1.524   2.525   2.711 -0.3408  0.8148  0.0556
 2108SOL     OW17782   4.638   1.172   4.385  0.3433  0.2731  0.1009
 2108SOL    HW117783   4.619   1.257   4.345 -4.3060 -0.8610 -0.1457
 2108SOL    HW217784   4.657   1.116   4.310 -2.0257 -1.7586  1.0363
 2109SOL     OW17785   0.868   3.786  15.463 -0.4115  0.4281 -0.5314
 2109SOL    HW117786   0.823   3.832  15.393 -2.1317 -0.8416 -0.2445
 2109SOL    HW217787   0.911   3.717  15.413  1.1939 -0.5613  2.1594
 2110SOL     OW17788   2.865   3.374  15.712 -0.6376  0.2202  0.5386
 2110SOL    HW117789   2.818   3.450  15.746 -0.9197  0.0686  0.4826
 2110SOL    HW217790   2.828   3.366  15.624  2.2471 -0.1930 -0.6419
 2111SOL     OW17791   3.486   2.047   2.599  0.2074 -0.2184 -0.3698
 2111SOL    HW117792   3.418   2.097   2.643 -1.4570 -2.4160 -0.4554
 2111SOL    HW217793   3.434   2.015   2.525 -1.8505  0.5497  0.7434
 2112SOL     OW17794   4.191   0.295   4.904 -0.1830  0.0547  0.7513
 2112SOL    HW117795   4.240   0.268   4.982 -2.0633 -0.6148  1.6997
 2112SOL    HW217796   4.115   0.238   4.894  0.2995 -0.3266 -0.6337
 2113SOL     OW17797   4.537   2.577  15.714  0.7217 -0.2795  0.3163
 2113SOL    HW117798   4.514   2.518  15.643 -3.5620 -1.0514  2.3062
 2113SOL    HW217799   4.487   2.657  15.697  1.3755 -0.1538 -0.9771
 2114SOL     OW17800   0.862   3.656   6.241  0.0682 -0.0014  0.2412
 2114SOL    HW117801   0.787   3.647   6.300  1.6028 -1.1741  2.0359
 2114SOL    HW217802   0.888   3.746   6.258  0.9466 -0.0040 -1.1450
 2115SOL     OW17803   2.519   0.626   6.941  0.0388 -0.2060 -0.2993
 2115SOL    HW117804   2.588   0.654   7.000  0.1549  0.4305 -0.7363
 2115SOL    HW217805   2.451   0.693   6.928 -0.2771 -0.3248  0.7418
 2116SOL     OW17806   1.760   1.491   2.467 -0.4937 -0.2486  0.2400
 2116SOL    HW117807   1.716   1.467   2.385  0.1055 -0.5229  0.0004
 2116SOL    HW217808   1.686   1.521   2.520 -0.3939  1.1663 -0.4123
 2117SOL     OW17809   1.751   3.307   8.669 -0.2563 -0.3367  0.0694
 2117SOL    HW117810   1.758   3.212   8.684 -0.0136 -0.3879 -0.3613
 2117SOL    HW217811   1.837   3.320   8.630  0.0255  1.1357  1.2086
 2118SOL     OW17812   1.081   0.996   9.903  0.0884  0.0459 -0.3487
 2118SOL    HW117813   1.130   1.076   9.884 -1.2586  0.7586 -0.8497
 2118SOL    HW217814   1.051   1.009   9.993 -0.8907 -3.1577 -0.2012
 2119SOL     OW17815   0.709   2.342  10.821  0.1202 -0.0200  0.3204
 2119SOL    HW117816   0.694   2.392  10.901  0.4569  1.4023 -0.5143
 2119SOL    HW217817   0.638   2.278  10.827  0.4358 -0.2797  1.3215
 2120SOL     OW17818   4.400   1.169   1.284  0.4890 -1.3694 -0.4798
 2120SOL    HW117819   4.379   1.216   1.203 -1.1842 -1.5297 -0.1367
 2120SOL    HW217820   4.486   1.210   1.292  0.4603 -0.7729 -3.1685
 2121SOL     OW17821   0.153   3.479  16.638  0.4369  0.0182 -0.4560
 2121SOL    HW117822   0.214   3.533  16.688  1.4444 -1.7493  0.2536
 2121SOL    HW217823   0.202   3.399  16.619  2.2327  1.0139 -0.0661
 2122SOL     OW17824   1.543   1.116  12.869 -1.0699  0.8472  0.2075
 2122SOL    HW117825   1.532   1.209  12.885 -1.3740  1.0757 -1.3356
 2122SOL    HW217826   1.459   1.078  12.896 -0.4699 -0.8892 -0.3452
 2123SOL     OW17827   2.148   4.559  10.545  0.6917  0.5214 -0.4507
 2123SOL    HW117828   2.123   4.588  10.457  0.4873  0.9834 -0.2374
 2123SOL    HW217829   2.071   4.514  10.579  0.3205  0.7295 -1.0069
 2124SOL     OW17830   1.215   3.319   2.247  0.3776 -0.7852 -0.0658
 2124SOL    HW117831   1.299   3.326   2.202 -0.4193  2.3044 -1.0368
 2124SOL    HW217832   1.197   3.225   2.256  0.5028 -0.9077 -1.1840
 2125SOL     OW17833   3.143   3.142  15.028  0.4061 -0.8466  0.0857
 2125SOL    HW117834   3.237   3.127  15.040  0.8943  0.6523 -1.9823
 2125SOL    HW217835   3.127   3.157  15.122  0.8906  0.6195 -0.0627
 2126SOL     OW17836   1.947   2.841   6.141 -0.2359  0.0499 -0.0643
 2126SOL    HW117837   2.002   2.764   6.130 -0.9492 -0.6916  1.5807
 2126SOL    HW217838   2.013   2.907   6.122  1.0529 -1.7789 -1.9655
 2127SOL     OW17839   2.776   0.153  17.584  0.0608  0.4646 -1.3278
 2127SOL    HW117840   2.764   0.192  17.671  0.1664  0.0188 -1.1137
 2127SOL    HW217841   2.831   0.081  17.614  0.7815  2.8031  3.0175
 2128SOL     OW17842   1.545   3.395   4.904  0.4963  0.3327  0.0960
 2128SOL    HW117843   1.562   3.340   4.980  1.6714 -2.2479 -2.0284
 2128SOL    HW217844   1.547   3.488   4.927  3.6899  0.3405 -0.1963
 2129SOL     OW17845   2.654   4.464   3.648  0.1517 -0.4634 -0.1526
 2129SOL    HW117846   2.664   4.533   3.714 -0.7772  0.2908 -0.7860
 2129SOL    HW217847   2.695   4.392   3.694 -0.0755 -1.5403 -1.6331
 2130SOL     OW17848   0.623   2.761   2.131  0.1201  0.6049 -0.4794
 2130SOL    HW117849   0.607   2.850   2.101 -0.2748  0.4856 -0.6208
 2130SOL    HW217850   0.709   2.740   2.096  0.3276 -1.3436  1.1686
 2131SOL     OW17851   2.072   4.468   6.417  0.1021 -0.2063 -0.1033
 2131SOL    HW117852   2.066   4.379   6.453  0.1827  1.1596  3.2734
 2131SOL    HW217853   2.166   4.487   6.412  0.5272 -2.2609 -0.1996
 2132SOL     OW17854   2.510   2.916   8.278 -0.1690  0.2367  0.3911
 2132SOL    HW117855   2.589   2.861   8.277  0.1504  0.6735  2.1535
 2132SOL    HW217856   2.456   2.862   8.335 -0.3260 -0.3980 -0.3599
 2133SOL     OW17857   1.366   1.127   7.745 -0.2003 -0.2724  0.0258
 2133SOL    HW117858   1.273   1.122   7.726  0.1961  1.6698 -2.5231
 2133SOL    HW217859   1.362   1.102   7.837 -0.1452 -1.4553 -0.2919
 2134SOL     OW17860   1.077   4.256  13.455 -0.4785  0.0156  0.0412
 2134SOL    HW117861   1.167   4.233  13.431 -0.3667  0.3635  0.1269
 2134SOL    HW217862   1.019   4.245  13.380 -0.8136 -1.1453  0.4690
 2135SOL     OW17863   1.464   1.372   4.275  0.1481 -0.1562  0.2277
 2135SOL    HW117864   1.506   1.457   4.286 -1.1944  0.7201 -1.4465
 2135SOL    HW217865   1.526   1.305   4.303 -0.0628 -1.2772 -2.0118
 2136SOL     OW17866   1.131   4.626   0.571  0.3893  0.5850  0.0562
 2136SOL    HW117867   1.151   4.714   0.539 -1.7409  0.2241 -2.2697
 2136SOL    HW217868   1.054   4.641   0.627 -1.3815 -1.2449 -1.8830
 2137SOL     OW17869   0.242   3.922  15.649  0.1175 -0.2739  0.6885
 2137SOL    HW117870   0.184   3.940  15.575 -0.0371 -3.0091  0.1451
 2137SOL    HW217871   0.315   3.983  15.639 -0.5995  0.3928 -0.5589
 2138SOL     OW17872   0.717   2.699  10.397  0.1518  0.5368 -0.3752
 2138SOL    HW117873   0.711   2.792  10.418 -3.5495  0.1796  0.0457
 2138SOL    HW217874   0.644   2.700  10.336 -0.3649 -0.8648  0.2096
 2139SOL     OW17875   3.581   2.314   3.850  0.0063 -0.1672 -0.0900
 2139SOL    HW117876   3.522   2.314   3.925 -0.8514 -0.5446 -0.7716
 2139SOL    HW217877   3.626   2.230   3.861  1.0878  0.5700  1.2575
 2140SOL     OW17878   2.391   1.694   9.318 -0.0985 -0.0217 -0.2120
 2140SOL    HW117879   2.433   1.725   9.398 -0.1251 -0.6770  0.0582
 2140SOL    HW217880   2.456   1.628   9.294  0.4448  0.3919  0.1239
 2141SOL     OW17881   4.044   0.244   3.359  0.0732 -0.0857  0.2457
 2141SOL    HW117882   3.978   0.190   3.403 -1.4243 -0.3852 -2.3638
 2141SOL    HW217883   3.993   0.253   3.278  0.8039  0.2053 -0.1804
 2142SOL     OW17884   2.053   0.982   4.487  0.5448 -0.1347  0.4019
 2142SOL    HW117885   1.980   0.937   4.446  0.6612  0.0595 -0.0259
 2142SOL    HW217886   2.017   1.065   4.519 -1.0969 -0.2261 -1.1974
 2143SOL     OW17887   1.358   0.610   4.707 -0.0178 -0.1042 -0.7874
 2143SOL    HW117888   1.273   0.652   4.695 -1.6562 -3.4843 -1.0964
 2143SOL    HW217889   1.376   0.571   4.622  3.3543 -0.2295 -0.0090
 2144SOL     OW17890   4.038   4.084   6.967 -0.3581  0.3331  0.1542
 2144SOL    HW117891   3.998   4.099   7.052 -0.4018  0.3355  0.1334
 2144SOL    HW217892   3.984   4.015   6.929  0.8320 -0.7362  0.4304
 2145SOL     OW17893   4.027   4.248  15.851 -0.0962  0.1720 -0.6649
 2145SOL    HW117894   3.968   4.174  15.853  1.0638 -0.7045  1.6906
 2145SOL    HW217895   4.100   4.218  15.796  0.5724 -0.4956  0.5722
 2146SOL     OW17896   1.585   3.283  15.171 -0.0068  0.2873 -0.5499
 2146SOL    HW117897   1.514   3.292  15.235 -0.2489 -0.9999 -0.6481
 2146SOL    HW217898   1.593   3.188  15.178  0.9622  0.2989 -1.5089
 2147SOL     OW17899   2.223   4.266  10.336  0.1823 -0.0382  0.0962
 2147SOL    HW117900   2.225   4.362  10.333  1.3825  0.0392  2.9882
 2147SOL    HW217901   2.180   4.248  10.420  1.2526  1.3437  0.9595
 2148SOL     OW17902   2.694   4.454   1.437  0.0688  0.5783 -0.2121
 2148SOL    HW117903   2.704   4.527   1.376  0.8565  0.0305 -0.7350
 2148SOL    HW217904   2.663   4.390   1.374 -0.0850 -0.5199  0.9899
 2149SOL     OW17905   3.149   4.395   4.303  0.2460  0.0514 -0.3274
 2149SOL    HW117906   3.160   4.356   4.390  0.6956 -3.0662 -1.7808
 2149SOL    HW217907   3.214   4.344   4.254  1.0401  1.5188 -0.7758
 2150SOL     OW17908   2.506   2.831  14.578 -0.2989  0.5664 -0.9264
 2150SOL    HW117909   2.549   2.869  14.655  0.0700  1.2612 -1.4763
 2150SOL    HW217910   2.472   2.915  14.548 -2.0135  0.4076  0.5947
 2151SOL     OW17911   3.265   1.343  13.560 -0.4842 -0.0778 -0.3451
 2151SOL    HW117912   3.187   1.397  13.552  0.4793  1.5062  0.9445
 2151SOL    HW217913   3.320   1.362  13.484 -0.7604  0.4975 -0.3953
 2152SOL     OW17914   3.935   0.787   1.433 -0.2189  0.2847 -0.4176
 2152SOL    HW117915   3.841   0.790   1.452  0.0293 -0.0125  0.8701
 2152SOL    HW217916   3.947   0.770   1.340  2.2089 -1.6931  0.2866
 2153SOL     OW17917   0.680   4.319   5.929 -0.0235  0.0956  0.1582
 2153SOL    HW117918   0.691   4.398   5.877  2.4251  0.1781  0.7910
 2153SOL    HW217919   0.671   4.367   6.011  1.0592 -1.7066  1.3528
 2154SOL     OW17920   0.204   0.637  14.215 -0.2340 -0.0576  0.2573
 2154SOL    HW117921   0.155   0.589  14.281 -0.5064  0.6044  0.5400
 2154SOL    HW217922   0.125   0.672  14.172  0.9065  0.8453 -1.1067
 2155SOL     OW17923   3.538   2.031   3.994 -0.2278  0.0476 -0.3244
 2155SOL    HW117924   3.484   1.965   3.951 -0.3837  0.4625 -0.7651
 2155SOL    HW217925   3.477   2.046   4.067 -0.6071  0.7333 -0.7767
 2156SOL     OW17926   0.978   0.497  11.608  0.3220  0.0375  0.5022
 2156SOL    HW117927   1.047   0.454  11.556  2.7843  0.9097  3.0681
 2156SOL    HW217928   0.902   0.466  11.559 -0.2483 -1.5668  2.3691
 2157SOL     OW17929   0.728   3.555   4.091  0.0556 -0.0657  0.5872
 2157SOL    HW117930   0.637   3.585   4.096  0.6342  1.9637 -0.7576
 2157SOL    HW217931   0.757   3.633   4.043 -0.0418 -0.2994  0.1504
 2158SOL     OW17932   3.923   1.520   4.051  0.1107 -0.1497  0.0612
 2158SOL    HW117933   3.982   1.457   4.011  0.4899  1.7636 -2.4050
 2158SOL    HW217934   3.885   1.556   3.972 -0.3711  0.1007  0.4046
 2159SOL     OW17935   3.565   3.855   4.920 -0.1355  0.4800 -0.3297
 2159SOL    HW117936   3.508   3.803   4.976 -0.4519  1.4995  0.2774
 2159SOL    HW217937   3.623   3.786   4.888 -2.5808 -1.3272 -0.8987
 2160SOL     OW17938   3.063   0.085   3.834 -0.3829  0.1861 -0.1138
 2160SOL    HW117939   3.008   0.163   3.847 -1.6945 -0.9689  1.2585
 2160SOL    HW217940   3.088   0.093   3.742 -2.5718  1.4930 -0.6052
 2161SOL     OW17941   3.043   3.270   4.551 -0.2252 -0.0924 -0.3053
 2161SOL    HW117942   3.067   3.179   4.566  2.0071  0.3678 -1.1286
 2161SOL    HW217943   3.060   3.301   4.641 -1.7472  0.9336 -0.3795
 2162SOL     OW17944   3.351   2.878   4.367  0.5201 -0.0591  0.0547
 2162SOL    HW117945   3.379   2.895   4.277 -0.8706  0.4478 -0.2743
 2162SOL    HW217946   3.379   2.788   4.387 -1.0425 -0.6795 -0.5375
 2163SOL     OW17947   4.173   3.019   8.513 -0.5653  0.4298 -0.2652
 2163SOL    HW117948   4.166   3.112   8.535 -0.5927 -0.0056  1.5953
 2163SOL    HW217949   4.242   2.994   8.575  0.7840  1.9186 -1.1777
 2164SOL     OW17950   2.219   4.623   8.268 -0.4622  0.1013  0.4763
 2164SOL    HW117951   2.167   4.704   8.265  0.4206  0.5638 -2.2507
 2164SOL    HW217952   2.180   4.572   8.197  1.4704 -1.2346  0.3711
 2165SOL     OW17953   0.677   4.403   0.450 -0.1562  0.1127  0.3712
 2165SOL    HW117954   0.730   4.457   0.391 -0.6876  0.1362 -0.0812
 2165SOL    HW217955   0.738   4.344   0.495  0.8959  0.3778 -0.6939
 2166SOL     OW17956   3.561   0.645   6.339 -0.1330 -0.4960 -0.3950
 2166SOL    HW117957   3.609   0.641   6.421 -1.7170 -0.6552  0.5377
 2166SOL    HW217958   3.555   0.553   6.314 -0.8515 -0.6044  0.1948
 2167SOL     OW17959   4.519   0.877  10.706  0.1777  0.3095  0.2214
 2167SOL    HW117960   4.460   0.861  10.779  0.5869 -3.4807 -0.2949
 2167SOL    HW217961   4.568   0.796  10.719 -0.0799 -0.0299 -0.9011
 2168SOL     OW17962   2.326   0.666  16.242 -0.6736  0.0863 -0.0475
 2168SOL    HW117963   2.302   0.706  16.325  0.4754 -0.6572  0.6488
 2168SOL    HW217964   2.241   0.675  16.200  0.1405  1.6686 -1.3388
 2169SOL     OW17965   3.415   0.884   5.998  0.3999 -0.0042  0.3251
 2169SOL    HW117966   3.334   0.845   6.032  0.2874 -0.1444 -0.0916
 2169SOL    HW217967   3.442   0.820   5.932  0.0325  0.4798 -0.3069
 2170SOL     OW17968   0.869   2.874   8.856 -0.4012 -0.1875 -0.2877
 2170SOL    HW117969   0.817   2.951   8.833 -0.3105 -0.0669 -0.0822
 2170SOL    HW217970   0.860   2.818   8.778  0.5308 -1.2028  0.3306
 2171SOL     OW17971   0.434   4.520   0.515  0.2045 -0.2719 -0.0477
 2171SOL    HW117972   0.529   4.514   0.518  0.1432 -0.8923  0.7331
 2171SOL    HW217973   0.411   4.457   0.447  1.0841  0.5260 -1.0715
 2172SOL     OW17974   4.374   1.890  12.169  0.3263  0.2666  0.4854
 2172SOL    HW117975   4.292   1.930  12.199  0.0314 -0.5005  0.7234
 2172SOL    HW217976   4.345   1.801  12.148  0.7261  0.7904 -2.2270
 2173SOL     OW17977   1.088   1.082   7.680 -0.0626  0.6049  0.1795
 2173SOL    HW117978   0.996   1.077   7.706  0.2181  3.2101  1.6456
 2173SOL    HW217979   1.103   0.988   7.678 -0.4617  0.5289  0.9359
 2174SOL     OW17980   3.732   2.985   8.269  0.2970 -0.2981 -0.0477
 2174SOL    HW117981   3.814   3.024   8.301 -0.2668 -0.1618  1.1975
 2174SOL    HW217982   3.756   2.958   8.180 -3.1111  1.2184 -1.4010
 2175SOL     OW17983   3.772   0.959   3.057 -0.0060  0.0526  0.3807
 2175SOL    HW117984   3.779   1.030   3.120 -0.1600  0.0308  0.4221
 2175SOL    HW217985   3.715   0.894   3.099  1.2932 -0.5383  1.2618
 2176SOL     OW17986   0.775   1.652   7.863  0.0645 -0.0341  0.0746
 2176SOL    HW117987   0.867   1.640   7.885 -0.4447 -0.7643  1.8087
 2176SOL    HW217988   0.759   1.576   7.806  0.0420  0.1612 -0.1822
 2177SOL     OW17989   0.740   2.770   7.442  0.5718 -0.1082  0.4387
 2177SOL    HW117990   0.661   2.768   7.387  0.3837 -3.1116  0.8084
 2177SOL    HW217991   0.800   2.825   7.391 -1.5774  1.3650 -0.5247
 2178SOL     OW17992   0.452   2.484   5.824  0.6972  0.3821  0.4706
 2178SOL    HW117993   0.470   2.438   5.906 -1.7530 -2.7189 -0.7087
 2178SOL    HW217994   0.486   2.418   5.763  2.4988  0.8430  0.9916
 2179SOL     OW17995   3.801   1.613   6.526 -0.2440 -0.1442 -0.7086
 2179SOL    HW117996   3.768   1.560   6.598  1.2101  0.7697  0.6347
 2179SOL    HW217997   3.893   1.623   6.551 -0.7394  0.7043  0.7506
 2180SOL     OW17998   3.139   0.595   6.672 -0.0339  0.2881 -0.0146
 2180SOL    HW117999   3.088   0.606   6.592  0.6913 -2.8206 -0.9356
 2180SOL    HW218000   3.188   0.677   6.664 -0.5358  0.8279  2.5649
 2181SOL     OW18001   4.324   1.188   8.714 -0.1819  0.1234  0.4812
 2181SOL    HW118002   4.284   1.108   8.681 -1.5971  1.0261  0.0244
 2181SOL    HW218003   4.334   1.229   8.628  1.9403 -0.2397  0.5335
 2182SOL     OW18004   3.883   3.277   9.081 -0.3088  0.1356  0.1927
 2182SOL    HW118005   3.934   3.358   9.083 -0.9267  0.5237  0.0866
 2182SOL    HW218006   3.958   3.219   9.073 -0.4847  0.0988 -1.2289
 2183SOL     OW18007   4.342   0.223   4.530  0.2656 -0.5789  0.1335
 2183SOL    HW118008   4.398   0.188   4.599 -0.6787 -0.4708  0.9757
 2183SOL    HW218009   4.280   0.151   4.518  1.2315 -1.5257  0.9352
 2184SOL     OW18010   2.405   0.379   7.652  0.5378  0.0903 -0.3921
 2184SOL    HW118011   2.493   0.357   7.685 -0.3137  0.2750  1.9901
 2184SOL    HW218012   2.420   0.368   7.558  0.0932  1.5753 -0.6239
 2185SOL     OW18013   2.319   1.127   5.173 -0.3096  0.0759 -0.3813
 2185SOL    HW118014   2.267   1.202   5.202  1.7592  1.6993 -0.9015
 2185SOL    HW218015   2.271   1.063   5.225 -0.3010  0.4384  0.0739
 2186SOL     OW18016   0.418   0.886   8.224  0.2827 -0.1506 -0.0923
 2186SOL    HW118017   0.461   0.830   8.289 -0.2978  0.6064  0.9414
 2186SOL    HW218018   0.460   0.969   8.246 -0.1772  0.0767 -0.0785
 2187SOL     OW18019   0.551   3.184   7.445 -0.6513 -0.7845  0.0907
 2187SOL    HW118020   0.621   3.143   7.394 -0.1912 -3.8213  3.1803
 2187SOL    HW218021   0.563   3.275   7.420  0.1677 -0.5132  1.4735
 2188SOL     OW18022   0.197   3.179   9.642  0.1084 -0.0702 -0.4419
 2188SOL    HW118023   0.166   3.105   9.694  0.1618  0.0748 -0.2027
 2188SOL    HW218024   0.127   3.244   9.651  0.5631  0.3054  0.5198
 2189SOL     OW18025   2.453   3.089   3.738 -0.8464  0.2993 -0.5201
 2189SOL    HW118026   2.526   3.144   3.766  1.2268 -1.6972 -2.0493
 2189SOL    HW218027   2.432   3.128   3.653 -3.1222  0.7790  0.2641
 2190SOL     OW18028   2.511   1.184   7.813 -0.5066 -0.6594 -0.0762
 2190SOL    HW118029   2.562   1.160   7.735  0.2963  0.4872  0.1003
 2190SOL    HW218030   2.461   1.256   7.774  1.0865 -0.4814 -1.7886
 2191SOL     OW18031   2.500   1.166   3.403 -0.0188 -0.0508 -0.6594
 2191SOL    HW118032   2.430   1.223   3.373  0.4438 -0.1939 -1.9916
 2191SOL    HW218033   2.495   1.094   3.340 -0.4569  2.9611 -4.0544
 2192SOL     OW18034   3.271   2.080   9.239 -0.1020  0.2475  0.0820
 2192SOL    HW118035   3.347   2.138   9.248  0.7365 -0.2620 -3.7032
 2192SOL    HW218036   3.302   2.002   9.285  0.0798  0.8762  1.0231
 2193SOL     OW18037   0.863   3.733   4.333  0.6894  0.5217 -0.2035
 2193SOL    HW118038   0.840   3.671   4.403 -2.3621  0.4900 -1.2253
 2193SOL    HW218039   0.778   3.776   4.337 -1.1805 -3.0745 -0.8831
 2194SOL     OW18040   4.570   4.612   2.120 -0.2094 -0.2311 -0.4401
 2194SOL    HW118041   4.506   4.630   2.051 -0.1522  0.4761 -0.3074
 2194SOL    HW218042   4.526   4.538   2.161 -0.0114 -0.5173 -0.7474
 2195SOL     OW18043   4.249   0.188   1.960  0.0339 -0.0072  0.1082
 2195SOL    HW118044   4.289   0.274   1.948 -1.8956  0.7642 -0.7662
 2195SOL    HW218045   4.245   0.175   2.054 -0.1540  0.0866  0.1137
 2196SOL     OW18046   0.972   2.932   7.652 -0.8888 -0.1385 -0.4845
 2196SOL    HW118047   1.008   2.974   7.730  4.1289 -3.0380 -1.2384
 2196SOL    HW218048   0.916   2.865   7.690 -0.6593 -0.5314 -0.8422
 2197SOL     OW18049   3.612   3.353  14.036 -0.3306  0.4188  0.1569
 2197SOL    HW118050   3.688   3.407  14.015  1.7524 -2.8418 -0.5442
 2197SOL    HW218051   3.625   3.353  14.131  0.0866 -0.5326  0.0911
 2198SOL     OW18052   0.913   4.251   1.170 -1.1294 -0.2074  0.1625
 2198SOL    HW118053   0.981   4.202   1.124 -1.1686 -0.5794  0.4985
 2198SOL    HW218054   0.928   4.222   1.260  0.6319  2.8838  0.8672
 2199SOL     OW18055   4.208   1.872   2.035 -0.3563 -1.0237 -0.4038
 2199SOL    HW118056   4.230   1.960   2.005 -1.8594 -0.2830  0.7157
 2199SOL    HW218057   4.297   1.839   2.052  0.2424  0.9439  0.2322
 2200SOL     OW18058   3.230   3.443  15.264  0.8803 -0.1118  0.1465
 2200SOL    HW118059   3.217   3.537  15.269 -0.8625 -0.3213 -0.3165
 2200SOL    HW218060   3.139   3.413  15.258  0.5204  1.2915 -1.2863
 2201SOL     OW18061   1.606   4.599   5.705  0.1244  0.2552 -0.0842
 2201SOL    HW118062   1.658   4.576   5.782  0.3515  0.4912 -0.1691
 2201SOL    HW218063   1.588   4.509   5.678  1.9313 -0.3379  0.6784
 2202SOL     OW18064   3.200   4.132   9.070  0.1642  0.5421  0.2033
 2202SOL    HW118065   3.264   4.065   9.091  0.5787  1.1420  0.8601
 2202SOL    HW218066   3.151   4.087   9.001  0.5509  0.4821 -0.0287
 2203SOL     OW18067   2.009   0.935   6.371  0.0082 -0.0281  0.5573
 2203SOL    HW118068   2.019   0.972   6.459  0.3218  1.3506 -0.0643
 2203SOL    HW218069   1.916   0.946   6.354  0.3868  1.7955 -0.3268
 2204SOL     OW18070   2.215   1.330   2.629  0.2260 -0.5398 -0.0977
 2204SOL    HW118071   2.151   1.348   2.560  0.0150 -2.1486 -0.3191
 2204SOL    HW218072   2.162   1.300   2.703 -0.0945  0.3925  0.0392
 2205SOL     OW18073   1.627   4.304   4.207  0.1300 -0.5737  0.4481
 2205SOL    HW118074   1.620   4.329   4.299 -1.2114 -0.1538  0.2407
 2205SOL    HW218075   1.646   4.210   4.215 -1.8386 -1.0368 -0.1900
 2206SOL     OW18076   0.442   0.341   3.449  0.6984 -0.1466 -0.1304
 2206SOL    HW118077   0.350   0.348   3.475  1.3120 -0.7283  2.2273
 2206SOL    HW218078   0.488   0.314   3.528 -0.4750 -0.4870  0.4322
 2207SOL     OW18079   4.151   0.821  14.953 -0.6189  0.0928  0.0904
 2207SOL    HW118080   4.083   0.885  14.971 -1.1954 -1.0582  1.9797
 2207SOL    HW218081   4.090   0.750  14.929  1.8333 -2.2110  0.6555
 2208SOL     OW18082   4.009   0.751   5.873 -0.2246  0.0282  0.0773
 2208SOL    HW118083   4.089   0.752   5.927 -0.6941 -0.5857  0.7929
 2208SOL    HW218084   4.010   0.663   5.836  0.3932  0.3588 -0.6762
 2209SOL     OW18085   2.711   2.307   2.634  0.2726  0.0535 -0.2379
 2209SOL    HW118086   2.670   2.261   2.708  2.2028 -2.6047 -0.8026
 2209SOL    HW218087   2.631   2.339   2.594 -0.0482 -1.9555 -1.2169
 2210SOL     OW18088   1.882   3.617   5.180  0.3949  0.1048 -0.0995
 2210SOL    HW118089   1.950   3.556   5.210  1.6612  0.5327 -2.1275
 2210SOL    HW218090   1.804   3.561   5.173 -0.6424  1.6417 -0.8449
 2211SOL     OW18091   2.857   3.303   4.265 -0.2041  0.1956 -0.4175
 2211SOL    HW118092   2.908   3.302   4.183  2.4697 -2.6885  1.2752
 2211SOL    HW218093   2.919   3.346   4.323 -0.9591  1.8302 -0.8086
 2212SOL     OW18094   0.890   2.535  16.909 -0.1272  0.6654 -0.4939
 2212SOL    HW118095   0.924   2.450  16.881 -0.2563  0.0173  1.3559
 2212SOL    HW218096   0.806   2.507  16.944  0.3984  1.9733  1.8173
 2213SOL     OW18097   2.596   3.526  14.099  0.0007 -0.6840  0.4461
 2213SOL    HW118098   2.512   3.565  14.123 -0.1817 -0.2897 -0.8292
 2213SOL    HW218099   2.628   3.496  14.184  1.8459  1.7750  0.6215
 2214SOL     OW18100   3.953   3.878   4.559  0.4241 -0.1788 -0.0102
 2214SOL    HW118101   3.868   3.896   4.518 -0.5331  2.1580  3.0232
 2214SOL    HW218102   3.937   3.859   4.651  0.1745 -1.1799 -0.2549
 2215SOL     OW18103   2.244   0.442   7.220  0.0161 -0.4191 -0.4333
 2215SOL    HW118104   2.225   0.535   7.222 -0.8782 -0.5528 -2.8255
 2215SOL    HW218105   2.168   0.411   7.269 -1.0425  1.7984 -0.6813
 2216SOL     OW18106   4.696   3.463   7.617  0.1318  0.0350 -0.2217
 2216SOL    HW118107   0.032   3.417   7.559 -1.2086 -3.1339  0.8483
 2216SOL    HW218108   4.624   3.482   7.556  0.5988  1.8303 -0.2012
 2217SOL     OW18109   0.656   0.925   3.892 -0.0698 -0.3752  0.0553
 2217SOL    HW118110   0.625   1.015   3.901  1.7055  0.3030 -0.5597
 2217SOL    HW218111   0.726   0.920   3.957 -0.9872 -0.1230  1.0563
 2218SOL     OW18112   4.663   1.916   4.429 -0.1866 -0.5494 -0.7221
 2218SOL    HW118113   4.666   1.845   4.365 -0.9931  0.7900 -2.2526
 2218SOL    HW218114   4.617   1.981   4.376  2.1572  1.9356  0.2811
 2219SOL     OW18115   0.134   2.047   6.299  0.3304  0.5060  0.3610
 2219SOL    HW118116   0.152   2.096   6.219  0.3730  1.2759  0.8464
 2219SOL    HW218117   0.043   2.068   6.318 -0.1978 -1.3812 -0.0429
 2220SOL     OW18118   4.655   1.526   4.478  0.4473 -0.6846 -0.6416
 2220SOL    HW118119   4.574   1.483   4.451 -0.8608  0.4208  1.5240
 2220SOL    HW218120   4.637   1.599   4.419  0.4028 -0.8789 -0.8677
 2221SOL     OW18121   1.904   0.814   0.495  0.3289  0.3994  0.2547
 2221SOL    HW118122   1.879   0.724   0.471  0.5218  0.3869  0.0957
 2221SOL    HW218123   1.936   0.787   0.581  1.2126  4.0151  1.0196
 2222SOL     OW18124   3.478   0.381   6.297 -0.3662 -0.0111 -0.6858
 2222SOL    HW118125   3.477   0.357   6.205 -0.7950 -0.4271 -0.5766
 2222SOL    HW218126   3.414   0.320   6.335  1.2168 -0.5290  1.1444
 2223SOL     OW18127   0.267   0.925   5.124  0.0065  0.1065 -0.0746
 2223SOL    HW118128   0.256   0.934   5.029 -1.2430 -0.9977 -0.0346
 2223SOL    HW218129   0.217   1.003   5.149  0.3676  0.3051  0.0315
 2224SOL     OW18130   1.796   1.923   4.064  0.1802 -0.2938  0.2851
 2224SOL    HW118131   1.890   1.911   4.079  0.1107 -1.5025 -0.2487
 2224SOL    HW218132   1.757   1.961   4.143 -0.1820  0.5903 -0.3066
 2225SOL     OW18133   3.331   1.029   7.272  0.2932  0.3759  0.0137
 2225SOL    HW118134   3.330   0.977   7.353 -1.4186 -0.9121 -0.8245
 2225SOL    HW218135   3.251   0.999   7.228 -0.7455  2.4683  0.4845
 2226SOL     OW18136   1.145   0.256   6.629  0.0158 -0.1984  0.2797
 2226SOL    HW118137   1.219   0.304   6.666  1.9134 -1.7312 -1.5656
 2226SOL    HW218138   1.186   0.215   6.553  0.0777  1.6268 -0.6486
 2227SOL     OW18139   1.346   4.456   1.559  0.8403  0.4958 -0.3413
 2227SOL    HW118140   1.387   4.505   1.487 -0.4645  2.7125  0.4046
 2227SOL    HW218141   1.318   4.375   1.516  0.6233  0.5382 -0.2779
 2228SOL     OW18142   2.629   0.066   4.159  0.3854 -0.2393 -0.7227
 2228SOL    HW118143   2.641   4.697   4.147  2.0686  0.1355 -2.1179
 2228SOL    HW218144   2.547   0.087   4.204  1.7098  1.7725  0.7639
 2229SOL     OW18145   1.839   3.060   8.668  0.6818  0.1570  0.1945
 2229SOL    HW118146   1.834   3.023   8.579 -2.1265  1.9503 -0.3901
 2229SOL    HW218147   1.781   3.005   8.721 -0.2207  0.6370 -0.2779
 2230SOL     OW18148   2.035   2.990   6.516 -0.1573 -0.8123 -0.1409
 2230SOL    HW118149   2.124   3.019   6.532  0.1213 -1.2538 -0.9006
 2230SOL    HW218150   2.061   2.904   6.483 -2.2267 -1.9641  1.2319
 2231SOL     OW18151   3.152   2.242   1.080  0.4270 -0.1685 -0.3991
 2231SOL    HW118152   3.146   2.332   1.112  1.7933  0.5342 -2.1975
 2231SOL    HW218153   3.211   2.205   1.146 -1.2086 -2.6467 -0.2890
 2232SOL     OW18154   3.649   1.500   2.330 -0.6761  0.2920  0.4787
 2232SOL    HW118155   3.562   1.532   2.355 -0.2923  1.8925 -0.2022
 2232SOL    HW218156   3.689   1.582   2.300  4.0969 -1.4825  2.0056
 2233SOL     OW18157   1.321   0.371   7.224 -0.0893 -0.1406  0.0133
 2233SOL    HW118158   1.280   0.284   7.223 -1.1000  0.3226  0.6916
 2233SOL    HW218159   1.347   0.382   7.315  0.3314 -2.0850  0.1238
 2234SOL     OW18160   2.459   1.999   8.090  0.6363  0.5303 -0.2568
 2234SOL    HW118161   2.498   2.058   8.155 -1.6451 -0.5098  2.0849
 2234SOL    HW218162   2.519   1.925   8.086 -2.0090 -1.7185  1.1279
 2235SOL     OW18163   0.977   0.406   4.733  0.4598 -0.0549  0.0598
 2235SOL    HW118164   0.967   0.429   4.825 -1.1494 -1.0741  0.1493
 2235SOL    HW218165   0.952   0.484   4.683  1.1207 -0.0026 -0.1912
 2236SOL     OW18166   3.614   0.585   0.874 -0.7138 -0.0404 -0.0187
 2236SOL    HW118167   3.613   0.651   0.804  0.8449 -1.2468 -1.1747
 2236SOL    HW218168   3.657   0.645   0.935 -2.6992 -0.1741  1.5020
 2237SOL     OW18169   0.435   2.302   5.100  0.1707  0.0822 -0.0156
 2237SOL    HW118170   0.379   2.224   5.092  1.3182 -0.7782  0.3024
 2237SOL    HW218171   0.514   2.267   5.058  0.4222  0.9749 -0.2887
 2238SOL     OW18172   1.782   1.426   3.940 -0.0714 -0.4180 -0.3657
 2238SOL    HW118173   1.870   1.408   3.906  0.6668  1.5909  0.4071
 2238SOL    HW218174   1.749   1.474   3.864 -1.9522 -0.8554  0.1942
 2239SOL     OW18175   3.582   4.582   8.470  0.1659  0.4666  0.3655
 2239SOL    HW118176   3.536   4.565   8.552  2.2560  0.7321  1.6069
 2239SOL    HW218177   3.507   4.591   8.411 -0.8204  0.1036  1.5771
 2240SOL     OW18178   2.343   1.842  12.618 -0.3988 -0.2783 -0.0658
 2240SOL    HW118179   2.330   1.936  12.615  1.0870 -0.0753 -0.4171
 2240SOL    HW218180   2.437   1.844  12.638 -0.3939  1.6513 -0.3077
 2241SOL     OW18181   1.155   2.501   2.382 -0.1849  0.0176  0.1070
 2241SOL    HW118182   1.109   2.462   2.457 -0.3281 -1.0847 -0.5632
 2241SOL    HW218183   1.167   2.432   2.317  1.0583  0.5978 -0.2782
 2242SOL     OW18184   1.745   0.399   0.791 -0.5687 -0.0904  0.3805
 2242SOL    HW118185   1.824   0.361   0.752  0.2047  2.9573 -1.0563
 2242SOL    HW218186   1.759   0.493   0.796 -0.5281 -0.0052 -1.1898
 2243SOL     OW18187   0.012   0.744   7.874  0.2751 -0.4218 -0.4259
 2243SOL    HW118188   4.701   0.677   7.932  0.5468 -1.4716 -1.4683
 2243SOL    HW218189   0.084   0.780   7.924  0.1495 -0.5191 -0.1763
 2244SOL     OW18190   3.203   1.553   5.610  0.1401 -0.4171  0.1391
 2244SOL    HW118191   3.125   1.556   5.666  0.5528 -1.9490  0.7935
 2244SOL    HW218192   3.248   1.637   5.618 -1.9519  0.9071 -2.0220
 2245SOL     OW18193   3.514   0.191  16.336  0.1473 -0.4087 -0.4587
 2245SOL    HW118194   3.571   0.265  16.357  1.0181 -0.7714 -1.5542
 2245SOL    HW218195   3.432   0.236  16.356  0.2021  0.2541 -1.7276
 2246SOL     OW18196   4.649   3.031  12.494 -0.0869  0.1302  0.9512
 2246SOL    HW118197   4.558   3.042  12.522 -0.5797 -2.7055  0.4697
 2246SOL    HW218198   4.650   3.077  12.411  1.4754  0.7043  1.2898
 2247SOL     OW18199   3.765   0.513   9.019  0.0191 -0.2687 -0.0426
 2247SOL    HW118200   3.685   0.562   9.000 -0.6652 -1.1570  0.5444
 2247SOL    HW218201   3.745   0.473   9.103 -0.8312  2.1630  0.9009
 2248SOL     OW18202   3.791   0.179  10.006 -0.0053  0.6072 -0.0116
 2248SOL    HW118203   3.818   0.219   9.923  0.7706  1.5430  0.6893
 2248SOL    HW218204   3.876   0.187  10.049  0.3014 -0.1231 -0.4756
 2249SOL     OW18205   4.512   0.659   3.983  0.4522 -0.1307 -0.2536
 2249SOL    HW118206   4.556   0.595   3.928  1.2491 -0.4788  0.7969
 2249SOL    HW218207   4.524   0.733   3.923 -1.1236  0.1444 -0.2425
 2250SOL     OW18208   0.898   4.349   4.737  0.1100 -0.2464  0.4719
 2250SOL    HW118209   0.888   4.428   4.789  1.7993 -0.0423  0.5033
 2250SOL    HW218210   0.838   4.366   4.664  1.7780 -0.0815 -0.8595
 2251SOL     OW18211   4.061   0.555   5.681 -0.0664  0.8836 -1.2241
 2251SOL    HW118212   4.060   0.608   5.602  1.1409  0.4870 -1.4969
 2251SOL    HW218213   3.986   0.498   5.662  0.3086  0.0829 -0.3616
 2252SOL     OW18214   3.019   3.810   7.849 -0.0281 -0.8053  0.7782
 2252SOL    HW118215   3.110   3.841   7.848 -0.7255  1.2778  0.9389
 2252SOL    HW218216   3.013   3.805   7.944 -1.6012  0.0034  0.7197
 2253SOL     OW18217   2.312   3.666   3.036  0.1884  0.2977 -0.0567
 2253SOL    HW118218   2.315   3.702   2.948  0.2810  2.7467  0.9297
 2253SOL    HW218219   2.357   3.737   3.083  1.4920  0.1733 -1.1314
 2254SOL     OW18220   2.978   0.478   0.712  0.4514  0.0937  0.4442
 2254SOL    HW118221   2.887   0.474   0.743  1.6463  3.5091  4.4835
 2254SOL    HW218222   3.007   0.400   0.759 -1.2214  0.6861  2.4685
 2255SOL     OW18223   3.992   3.816   4.841 -0.2671 -0.1957  0.3101
 2255SOL    HW118224   4.029   3.731   4.867 -1.3605 -0.4332  1.1079
 2255SOL    HW218225   4.030   3.874   4.907 -1.4092 -0.1558  0.9288
 2256SOL     OW18226   1.632   4.185   9.830  0.4593  0.3936 -0.2282
 2256SOL    HW118227   1.539   4.165   9.837  0.1791  1.9372  0.6140
 2256SOL    HW218228   1.665   4.148   9.911 -0.9787  0.2828  0.3091
 2257SOL     OW18229   2.986   0.994   5.265 -0.4594 -0.3543 -0.1555
 2257SOL    HW118230   3.008   1.084   5.290 -0.1960 -1.1342  2.4102
 2257SOL    HW218231   2.922   0.966   5.330 -0.6549  0.8907  0.1738
 2258SOL     OW18232   3.112   0.846   4.439 -0.2071  0.4372  0.4402
 2258SOL    HW118233   3.207   0.833   4.446 -0.5437 -0.6617  2.9856
 2258SOL    HW218234   3.088   0.784   4.507 -0.5623  0.5710  0.4350
 2259SOL     OW18235   3.037   4.251   6.521  0.2404 -0.8197 -0.4376
 2259SOL    HW118236   2.946   4.278   6.531  0.9733  3.3819 -4.9622
 2259SOL    HW218237   3.039   4.222   6.429 -2.6445  1.0641 -1.0711
 2260SOL     OW18238   2.411   4.460   5.595 -0.0867  0.3200 -0.0409
 2260SOL    HW118239   2.390   4.373   5.561  1.1108  0.6633 -1.6498
 2260SOL    HW218240   2.382   4.457   5.686  1.2207  0.2975  0.3844
 2261SOL     OW18241   0.894   3.350   6.560 -0.2459  0.0502 -0.0337
 2261SOL    HW118242   0.808   3.375   6.526  0.0543  0.5156 -0.4500
 2261SOL    HW218243   0.943   3.345   6.478 -1.3633  1.1334 -0.7829
 2262SOL     OW18244   4.710   1.998   1.734 -0.2398 -0.5845  0.5698
 2262SOL    HW118245   4.654   1.952   1.673 -0.3377 -0.8806  0.8848
 2262SOL    HW218246   4.655   2.071   1.763 -1.1006 -1.5020  1.2196
 2263SOL     OW18247   0.869   3.789   4.691 -0.4574  0.7993 -0.1197
 2263SOL    HW118248   0.872   3.879   4.658 -1.9535  0.8930 -0.0168
 2263SOL    HW218249   0.774   3.779   4.695 -0.4229  0.2664 -0.7112
 2264SOL     OW18250   2.489   3.169  16.206  0.3601  0.6216 -0.0865
 2264SOL    HW118251   2.440   3.176  16.288  2.1514  1.8838  0.8899
 2264SOL    HW218252   2.478   3.076  16.189  1.7230  0.6671 -1.2002
 2265SOL     OW18253   1.516   4.695   7.458 -0.0595 -0.0816  0.6950
 2265SOL    HW118254   1.575   4.632   7.416 -3.1742 -2.3681 -0.2836
 2265SOL    HW218255   1.543   4.678   7.548  0.1639 -0.2665  0.5924
 2266SOL     OW18256   1.838   0.220  10.688  0.4509  0.0301 -0.1733
 2266SOL    HW118257   1.833   0.276  10.610  0.1404  0.4278  0.1334
 2266SOL    HW218258   1.930   0.194  10.684  1.1171  2.4338 -0.5910
 2267SOL     OW18259   2.765   1.640   8.923  0.2054  0.7830  0.5827
 2267SOL    HW118260   2.833   1.681   8.869 -2.4439  2.2907 -1.6069
 2267SOL    HW218261   2.796   1.650   9.013  0.6725 -0.4868  0.5666
 2268SOL     OW18262   1.685   2.803   6.103 -0.0983 -0.0835 -0.2389
 2268SOL    HW118263   1.779   2.819   6.106 -0.5047  1.8401  2.7228
 2268SOL    HW218264   1.675   2.757   6.020  0.5079 -0.0571 -0.3297
 2269SOL     OW18265   2.230   1.718  13.459  0.0318 -0.1702 -0.3556
 2269SOL    HW118266   2.304   1.657  13.456 -0.0056 -0.1917 -0.8685
 2269SOL    HW218267   2.238   1.763  13.543 -0.5919 -0.4153 -0.1680
 2270SOL     OW18268   1.589   4.548   3.983  0.1953  0.5075  0.0230
 2270SOL    HW118269   1.668   4.497   4.002 -1.4870 -0.2760  4.9024
 2270SOL    HW218270   1.543   4.554   4.067 -2.3078  1.9275 -1.4480
 2271SOL     OW18271   3.084   4.533  10.019 -0.3894 -0.3249  0.5102
 2271SOL    HW118272   3.118   4.613  10.057 -1.5217  0.9862 -1.2439
 2271SOL    HW218273   3.013   4.574   9.971 -0.1662 -0.9008 -0.3204
 2272SOL     OW18274   1.583   4.562   3.694 -0.4324  0.6033  0.0933
 2272SOL    HW118275   1.560   4.552   3.786 -0.5756  0.5658  0.0540
 2272SOL    HW218276   1.628   4.483   3.665  0.0342  0.9391 -0.0986
 2273SOL     OW18277   4.693   0.396   7.679 -1.2419  0.4203 -0.1511
 2273SOL    HW118278   0.017   0.321   7.714 -2.2931 -0.2725 -0.1393
 2273SOL    HW218279   4.649   0.436   7.753  0.1940 -1.4635  1.7289
 2274SOL     OW18280   3.613   1.876   8.225 -0.1557  0.5661  0.0810
 2274SOL    HW118281   3.574   1.943   8.169  0.4452  0.9111  0.0786
 2274SOL    HW218282   3.677   1.928   8.274  0.1606  1.4227 -1.2181
 2275SOL     OW18283   4.338   4.579   8.743  0.0945  0.3115 -0.3835
 2275SOL    HW118284   4.429   4.601   8.766 -0.2676  1.9396 -0.4987
 2275SOL    HW218285   4.310   4.670   8.732 -0.1138  0.0321 -2.1862
 2276SOL     OW18286   1.981   2.935   4.289 -0.2199 -0.4158 -0.3973
 2276SOL    HW118287   1.932   2.996   4.343 -0.0945 -1.6272  1.0724
 2276SOL    HW218288   1.934   2.947   4.206  2.1624 -0.5385 -1.7451
 2277SOL     OW18289   0.342   0.663   6.129 -0.1327 -0.6949 -0.2122
 2277SOL    HW118290   0.367   0.593   6.069 -0.8100 -0.3244 -0.9261
 2277SOL    HW218291   0.403   0.644   6.200  0.2277  0.6532 -0.1537
 2278SOL     OW18292   3.857   2.580   3.699  0.1597  0.4620 -0.1218
 2278SOL    HW118293   3.864   2.626   3.616 -1.7511 -2.0908 -1.6906
 2278SOL    HW218294   3.762   2.568   3.705  0.2579  0.4295  1.5901
 2279SOL     OW18295   3.599   1.332  17.430  0.0368  0.4454 -0.8248
 2279SOL    HW118296   3.535   1.403  17.442  2.1532  2.0903  0.9199
 2279SOL    HW218297   3.666   1.390  17.467  0.5047 -0.5699 -0.0871
 2280SOL     OW18298   4.232   4.262  11.118  0.3914 -0.1850 -0.6458
 2280SOL    HW118299   4.203   4.289  11.031 -1.8861 -1.0284 -0.1266
 2280SOL    HW218300   4.236   4.169  11.095 -1.8605 -0.0305 -1.6579
 2281SOL     OW18301   2.831   2.679   4.537  0.1803  0.3312 -0.6128
 2281SOL    HW118302   2.769   2.613   4.568  0.4038 -0.9140 -2.8123
 2281SOL    HW218303   2.872   2.708   4.618  0.9427  0.6110 -1.1034
 2282SOL     OW18304   2.767   3.348  15.468 -0.5995  0.3096 -0.3502
 2282SOL    HW118305   2.690   3.396  15.437  0.5408  1.4315 -1.3846
 2282SOL    HW218306   2.832   3.373  15.403  0.3821  0.8314  0.8160
 2283SOL     OW18307   4.609   4.144   3.651 -0.1021  0.3383  0.5276
 2283SOL    HW118308   4.623   4.157   3.558  0.6904  1.1610  0.7608
 2283SOL    HW218309   4.594   4.234   3.680 -0.6350  0.0287  1.2231
 2284SOL     OW18310   0.340   2.796   1.474  0.5129  0.4409  0.0503
 2284SOL    HW118311   0.345   2.705   1.505 -0.8383  1.0141  1.9462
 2284SOL    HW218312   0.258   2.795   1.424  1.1556 -0.0800 -0.9777
 2285SOL     OW18313   0.111   0.705   2.217  0.5337 -0.2251  0.6948
 2285SOL    HW118314   0.187   0.653   2.191 -0.4241 -1.0133 -0.5557
 2285SOL    HW218315   0.048   0.676   2.151  0.4293 -0.6996  0.9938
 2286SOL     OW18316   2.552   2.980  12.258  0.2332  0.9958 -0.2538
 2286SOL    HW118317   2.478   2.965  12.318  0.0409 -0.5166 -0.8846
 2286SOL    HW218318   2.612   2.906  12.266  0.6890  1.5444  1.5695
 2287SOL     OW18319   1.917   0.694   8.037  0.1558  0.3041 -0.0663
 2287SOL    HW118320   1.901   0.629   8.106 -2.0644  0.4191 -0.4675
 2287SOL    HW218321   1.844   0.691   7.976 -0.6771 -2.5744  1.0631
 2288SOL     OW18322   4.505   3.254   3.315  0.0754 -0.7218 -0.2673
 2288SOL    HW118323   4.574   3.201   3.355 -1.6259 -1.3336  1.8215
 2288SOL    HW218324   4.426   3.206   3.339 -0.9744  0.8479 -0.6229
 2289SOL     OW18325   3.439   0.084   6.033  0.2306  0.5092 -0.0021
 2289SOL    HW118326   3.431   0.179   6.044  3.0200  0.8880 -1.4389
 2289SOL    HW218327   3.474   0.086   5.944 -2.7126 -1.3213 -1.2172
 2290SOL     OW18328   1.369   2.796  11.185 -0.4442 -0.0527  0.0178
 2290SOL    HW118329   1.304   2.748  11.133  0.3081 -1.3728  0.2946
 2290SOL    HW218330   1.384   2.732  11.254 -0.0804  0.4606  0.4131
 2291SOL     OW18331   1.222   0.274   3.151  0.5325  0.8840 -0.0538
 2291SOL    HW118332   1.177   0.351   3.116  1.4632  1.1587 -0.6400
 2291SOL    HW218333   1.174   0.200   3.114 -2.9407  2.4432  1.2690
 2292SOL     OW18334   0.448   4.544   8.337  0.1286  0.2657  0.7876
 2292SOL    HW118335   0.441   4.626   8.288 -1.3340 -0.1491  0.3027
 2292SOL    HW218336   0.356   4.518   8.335  0.7179 -1.7548  0.3469
 2293SOL     OW18337   2.941   1.221  13.460 -0.5486  0.0302 -0.4836
 2293SOL    HW118338   2.952   1.128  13.477  2.1723  0.5436  0.6318
 2293SOL    HW218339   3.006   1.234  13.391 -2.1562 -0.3205 -2.0902
 2294SOL     OW18340   4.406   4.267   8.081  0.7774 -0.1332  0.0928
 2294SOL    HW118341   4.368   4.186   8.050 -0.8787 -0.9271  4.2021
 2294SOL    HW218342   4.329   4.313   8.115  0.6988  0.5037 -0.9249
 2295SOL     OW18343   0.174   0.968   2.275  0.4582  0.7334  0.5670
 2295SOL    HW118344   0.151   0.877   2.256  1.1921  0.9941 -1.5668
 2295SOL    HW218345   0.124   0.983   2.356 -2.0640  0.6550 -0.9912
 2296SOL     OW18346   0.226   2.129   7.329 -0.6254  0.2262 -0.0881
 2296SOL    HW118347   0.306   2.147   7.279 -0.3678  0.6596  0.4880
 2296SOL    HW218348   0.256   2.068   7.396 -0.1251  1.4580  0.8109
 2297SOL     OW18349   0.858   0.146   6.203  0.2662 -0.5259  0.3985
 2297SOL    HW118350   0.838   0.052   6.209 -1.0652 -0.3772 -1.6353
 2297SOL    HW218351   0.951   0.150   6.179  0.2816 -1.8194  0.2106
 2298SOL     OW18352   2.802   3.102   2.001 -0.1234 -0.3672  0.1302
 2298SOL    HW118353   2.728   3.041   2.002  0.3123 -0.9223 -1.1266
 2298SOL    HW218354   2.747   3.178   1.983 -0.5456 -0.2642  1.8884
 2299SOL     OW18355   3.326   1.776   2.110 -0.0985  0.1877 -0.3172
 2299SOL    HW118356   3.360   1.694   2.075 -0.9274 -1.3967  2.5602
 2299SOL    HW218357   3.241   1.750   2.146 -0.7894  0.5165 -1.7202
 2300SOL     OW18358   3.677   3.223   3.718  0.0588 -0.3109  0.1966
 2300SOL    HW118359   3.626   3.229   3.637  0.6794  1.0101 -0.0949
 2300SOL    HW218360   3.757   3.183   3.685  1.0220  2.4926 -0.9133
 2301SOL     OW18361   1.088   1.669   7.677  0.8286  0.1391  0.2655
 2301SOL    HW118362   1.116   1.589   7.633 -1.0200  0.7438 -2.0384
 2301SOL    HW218363   1.065   1.638   7.765 -0.6227 -0.1197 -0.2106
 2302SOL     OW18364   2.777   1.691   3.678 -0.4519 -0.0056 -0.0857
 2302SOL    HW118365   2.682   1.685   3.665 -0.4735  2.9279 -1.1671
 2302SOL    HW218366   2.792   1.734   3.762 -3.4754 -1.9314  1.4699
 2303SOL     OW18367   1.215   0.072   7.641  0.1101  0.2012 -0.3409
 2303SOL    HW118368   1.154   0.115   7.580  0.0170  1.5188  0.6935
 2303SOL    HW218369   1.164   4.717   7.651 -0.8716  0.7119 -1.1625
 2304SOL     OW18370   4.018   3.218   8.714  0.0082 -0.0886  0.7902
 2304SOL    HW118371   3.952   3.279   8.748 -0.8232 -0.3199 -0.3855
 2304SOL    HW218372   4.094   3.274   8.701 -0.4223  0.1940 -0.5999
 2305SOL     OW18373   2.104   4.121   6.756 -0.4395  0.0248  0.0386
 2305SOL    HW118374   2.071   4.077   6.834  1.9602 -0.0331  1.0094
 2305SOL    HW218375   2.102   4.212   6.784 -0.4612  0.4903 -1.4933
 2306SOL     OW18376   1.562   3.316   3.783 -0.0463 -0.0272  0.7825
 2306SOL    HW118377   1.519   3.389   3.827 -1.4209 -0.7061  0.5491
 2306SOL    HW218378   1.650   3.335   3.817 -0.5443  2.0638  0.9533
 2307SOL     OW18379   3.559   0.949   6.610 -0.3430 -0.1376 -0.2549
 2307SOL    HW118380   3.597   0.861   6.601  1.0411 -0.0377  4.4442
 2307SOL    HW218381   3.637   1.003   6.625 -0.8646  0.5415  0.0291
 2308SOL     OW18382   3.828   0.994   6.681  0.4422 -0.3514 -0.1546
 2308SOL    HW118383   3.835   0.900   6.691  0.7999 -0.2162  0.9055
 2308SOL    HW218384   3.911   1.022   6.719  1.0576 -2.2663 -0.1384
 2309SOL     OW18385   0.558   0.765  17.178  0.2845 -0.2284  0.1727
 2309SOL    HW118386   0.552   0.849  17.132  0.6132  0.1726  0.8624
 2309SOL    HW218387   0.548   0.790  17.270  0.4189 -0.0951  0.1516
 2310SOL     OW18388   0.619   0.450  12.341 -0.2010 -0.2120 -0.1489
 2310SOL    HW118389   0.581   0.531  12.309 -1.4301 -0.1152  1.5179
 2310SOL    HW218390   0.710   0.465  12.315 -0.0223 -1.9397 -0.5484
 2311SOL     OW18391   3.553   3.592   4.125  0.2066 -0.2276 -0.1365
 2311SOL    HW118392   3.472   3.542   4.119 -1.2130  2.1503 -0.6782
 2311SOL    HW218393   3.523   3.673   4.165 -0.3892 -0.0664 -0.9158
 2312SOL     OW18394   3.559   1.824   5.021  0.1608  0.3677  0.4662
 2312SOL    HW118395   3.545   1.733   4.994 -0.6846  0.8422 -0.6995
 2312SOL    HW218396   3.652   1.843   5.008  0.3049  0.4256  1.6000
 2313SOL     OW18397   1.902   2.328  17.436  0.2549 -0.1065 -0.0367
 2313SOL    HW118398   1.989   2.300  17.409  0.6481 -1.1310  2.2766
 2313SOL    HW218399   1.844   2.268  17.387 -0.1488 -0.1055  0.4376
 2314SOL     OW18400   2.129   3.126   5.139  0.1703  0.1387  0.4925
 2314SOL    HW118401   2.212   3.128   5.185  1.0399 -1.0372 -1.0166
 2314SOL    HW218402   2.073   3.194   5.177  2.5488  1.7883  1.0670
 2315SOL     OW18403   3.967   3.863   8.409 -0.2127 -0.6876  0.7011
 2315SOL    HW118404   4.003   3.820   8.486 -1.4150 -2.3370  0.3337
 2315SOL    HW218405   4.043   3.908   8.372 -0.7170  0.8718  1.5474
 2316SOL     OW18406   4.003   3.661  16.351  0.8799 -0.4385 -0.2982
 2316SOL    HW118407   3.974   3.733  16.294 -0.0174 -0.8355 -0.3402
 2316SOL    HW218408   4.095   3.681  16.365  1.1324  0.2990 -2.9867
 2317SOL     OW18409   2.289   2.962   3.286  0.2020 -0.3482  0.0709
 2317SOL    HW118410   2.232   2.909   3.231 -1.2321  2.0057 -0.7340
 2317SOL    HW218411   2.274   3.044   3.239  1.4886  0.5862  1.2948
 2318SOL     OW18412   0.070   3.274   3.147 -0.2464 -0.4900 -0.2234
 2318SOL    HW118413   0.031   3.191   3.175 -0.9281 -0.1125 -0.0758
 2318SOL    HW218414   0.137   3.234   3.091 -0.9056 -1.0726 -0.5975
 2319SOL     OW18415   3.639   2.456   2.265 -0.2812  0.1432  0.5530
 2319SOL    HW118416   3.642   2.361   2.269  0.8586 -0.0120 -3.5927
 2319SOL    HW218417   3.579   2.471   2.338 -2.3597 -0.1724 -1.0711
 2320SOL     OW18418   4.623   3.787   7.718  0.3387  0.1916 -0.5450
 2320SOL    HW118419   4.688   3.718   7.706  0.8995  0.6578 -0.1881
 2320SOL    HW218420   4.668   3.861   7.759  0.7585 -0.2418 -0.2300
 2321SOL     OW18421   0.860   0.251  12.573 -0.4434  0.2873  0.1861
 2321SOL    HW118422   0.847   0.259  12.479  1.9392 -3.3731 -0.4363
 2321SOL    HW218423   0.778   0.289  12.606 -1.2527 -0.9261 -0.4504
 2322SOL     OW18424   4.434   1.723  13.400  0.0814  0.7724  0.0629
 2322SOL    HW118425   4.461   1.724  13.308 -2.2956  0.9585 -0.6421
 2322SOL    HW218426   4.460   1.642  13.444 -0.1750  0.9648  0.5681
 2323SOL     OW18427   4.017   4.361  14.450 -0.4689  0.2682 -0.0728
 2323SOL    HW118428   4.012   4.276  14.493  1.5905 -0.4063 -1.1444
 2323SOL    HW218429   4.031   4.419  14.525 -3.7327 -1.8534  2.1842
 2324SOL     OW18430   2.556   0.759  16.745 -0.1220  0.5432 -0.0834
 2324SOL    HW118431   2.488   0.711  16.791  0.3412 -0.3762 -0.3544
 2324SOL    HW218432   2.634   0.713  16.775  0.4125  2.8385  1.9835
 2325SOL     OW18433   3.573   2.405   7.444 -0.2805  0.1730 -0.4912
 2325SOL    HW118434   3.541   2.317   7.422 -0.3875 -0.0099  0.4086
 2325SOL    HW218435   3.614   2.395   7.530  1.2516 -0.3737 -1.2704
 2326SOL     OW18436   3.394   0.256   7.923  0.1028  0.4153  0.3036
 2326SOL    HW118437   3.314   0.268   7.872  0.3947 -1.8590 -0.7114
 2326SOL    HW218438   3.426   0.171   7.892 -1.8347  0.2862 -1.3740
 2327SOL     OW18439   2.553   2.752  10.969  0.2839  0.8878  0.2535
 2327SOL    HW118440   2.552   2.730  10.876  0.3587 -2.0140  0.9386
 2327SOL    HW218441   2.478   2.709  11.011  2.1260 -2.5792  0.0544
 2328SOL     OW18442   0.059   4.434   9.918 -0.8358 -0.5447 -0.3661
 2328SOL    HW118443   0.036   4.512   9.867 -0.7940 -0.3047 -0.0119
 2328SOL    HW218444   0.105   4.384   9.851  1.0992 -0.6308  1.0410
 2329SOL     OW18445   3.770   1.689   8.729 -0.4392  0.0911  0.1075
 2329SOL    HW118446   3.794   1.600   8.700  0.9284  0.3315  0.4835
 2329SOL    HW218447   3.805   1.746   8.661 -0.7017  1.0316  0.7667
 2330SOL     OW18448   1.039   1.948   5.930 -0.1669 -0.5793  0.0841
 2330SOL    HW118449   1.020   1.974   5.840  1.8075  0.7845  0.0593
 2330SOL    HW218450   1.055   2.034   5.969  3.2839 -1.1589 -0.0643
 2331SOL     OW18451   1.415   0.677   2.557 -0.6618  0.0478  0.0436
 2331SOL    HW118452   1.399   0.766   2.589 -1.0814 -0.0536  0.1237
 2331SOL    HW218453   1.339   0.668   2.500 -1.5650 -0.1574  1.2843
 2332SOL     OW18454   1.544   1.412   6.567 -0.1413  0.1453 -0.7309
 2332SOL    HW118455   1.484   1.364   6.624  1.1069  0.5868  0.9495
 2332SOL    HW218456   1.619   1.405   6.626 -1.8053  0.6369  1.4560
 2333SOL     OW18457   2.151   2.785   2.010  0.0213  0.6603 -0.6348
 2333SOL    HW118458   2.074   2.734   1.985  0.1477 -0.3312  0.9806
 2333SOL    HW218459   2.220   2.719   2.004 -0.3598  0.2902 -1.0319
 2334SOL     OW18460   1.054   1.740   1.871 -0.2454 -0.2079  0.4979
 2334SOL    HW118461   0.959   1.728   1.875 -0.4519  0.1947 -3.1861
 2334SOL    HW218462   1.065   1.741   1.776 -0.2443  0.5576  0.5049
 2335SOL     OW18463   3.176   0.163  14.132 -0.1290 -0.2350  0.1475
 2335SOL    HW118464   3.267   0.192  14.129 -0.6260  1.1871 -1.5883
 2335SOL    HW218465   3.171   0.114  14.050  0.7320 -0.5011  0.2646
 2336SOL     OW18466   0.777   3.537  13.379 -0.6828 -0.2652  0.2927
 2336SOL    HW118467   0.829   3.583  13.313 -0.7312 -1.0259 -0.2812
 2336SOL    HW218468   0.741   3.467  13.325 -2.8675  0.5077  0.7369
 2337SOL     OW18469   1.366   3.953   3.642 -0.3428  0.6223  0.7868
 2337SOL    HW118470   1.405   3.919   3.562 -1.7320  0.8751  0.0107
 2337SOL    HW218471   1.318   3.880   3.682  1.1297 -0.1060  1.2406
 2338SOL     OW18472   2.537   0.274   5.128 -0.6106  0.1344  0.4786
 2338SOL    HW118473   2.481   0.326   5.185 -2.3182 -0.5248 -0.5925
 2338SOL    HW218474   2.545   0.332   5.052  1.6062 -1.3010 -0.3853
 2339SOL     OW18475   0.937   2.761  12.941  0.1305 -0.7148  0.1969
 2339SOL    HW118476   0.929   2.844  12.988  0.1115 -0.9147  0.5475
 2339SOL    HW218477   0.952   2.787  12.850  1.8824 -0.2711  0.6109
 2340SOL     OW18478   1.371   3.374   6.732  0.5037  0.0193  0.0404
 2340SOL    HW118479   1.385   3.418   6.815 -0.7374 -0.8388  0.7027
 2340SOL    HW218480   1.447   3.316   6.734  2.1505  2.1856 -0.2849
 2341SOL     OW18481   3.277   1.321   9.761 -0.2307 -0.2614  0.1748
 2341SOL    HW118482   3.285   1.409   9.798  0.5642 -0.8910  1.5067
 2341SOL    HW218483   3.365   1.292   9.738 -0.9509 -1.2572 -1.3516
 2342SOL     OW18484   4.617   3.430   7.881  0.3962  0.3220  0.0932
 2342SOL    HW118485   4.597   3.337   7.891  3.0280 -0.3104 -0.4977
 2342SOL    HW218486   4.660   3.427   7.795  0.5536  0.0399  0.1836
 2343SOL     OW18487   2.099   3.472   5.270  0.3143  0.3733  0.4599
 2343SOL    HW118488   2.061   3.392   5.305  0.0606  1.8315  3.5125
 2343SOL    HW218489   2.152   3.503   5.343 -1.1010 -1.0384  2.0680
 2344SOL     OW18490   1.701   4.448  15.999 -0.4782  0.1476  0.0500
 2344SOL    HW118491   1.686   4.413  15.912  1.5404 -1.3353  0.2796
 2344SOL    HW218492   1.611   4.456  16.031 -0.9569 -1.4157 -0.9607
 2345SOL     OW18493   1.524   1.503   0.626  0.4742 -0.5407 -0.3027
 2345SOL    HW118494   1.612   1.541   0.621  0.6921 -0.8653  1.1431
 2345SOL    HW218495   1.533   1.408   0.622 -0.1453 -0.6459  0.9583
 2346SOL     OW18496   2.715   1.719   2.941  0.6981 -0.1194 -0.2507
 2346SOL    HW118497   2.759   1.779   3.002 -2.0922  1.8853 -0.1804
 2346SOL    HW218498   2.706   1.642   2.997  0.4727 -0.4390 -0.7357
 2347SOL     OW18499   3.530   1.708  11.111 -0.1022 -0.0866 -0.1059
 2347SOL    HW118500   3.477   1.720  11.191  0.1384 -2.1970  0.3660
 2347SOL    HW218501   3.591   1.640  11.137  1.0254  1.7132  2.0017
 2348SOL     OW18502   3.173   4.623   8.080  0.2227  0.1372 -0.0400
 2348SOL    HW118503   3.105   4.610   8.013  1.2215  0.6298 -1.1466
 2348SOL    HW218504   3.166   4.718   8.094  0.9004  0.1490  0.2254
 2349SOL     OW18505   2.127   0.700  15.561 -0.0817 -0.3784 -0.3457
 2349SOL    HW118506   2.051   0.671  15.612 -0.0063 -0.4114 -0.2510
 2349SOL    HW218507   2.094   0.697  15.471  0.4658 -1.0458 -0.5239
 2350SOL     OW18508   0.684   1.145   1.772 -0.2477 -0.2545 -0.1116
 2350SOL    HW118509   0.695   1.095   1.692 -3.0846  1.6524 -1.7102
 2350SOL    HW218510   0.588   1.141   1.783 -0.2230  0.8352  0.5423
 2351SOL     OW18511   0.901   0.810   1.724  0.2504 -0.2193 -0.3638
 2351SOL    HW118512   0.914   0.727   1.771 -0.9076 -1.1648 -1.6953
 2351SOL    HW218513   0.805   0.811   1.723  0.2287 -0.2989  0.7374
 2352SOL     OW18514   2.397   3.856   7.905  0.4882 -0.2687 -0.2153
 2352SOL    HW118515   2.380   3.950   7.910  0.7615 -0.3941  2.7836
 2352SOL    HW218516   2.360   3.819   7.824 -2.4962  1.3923  0.3782
 2353SOL     OW18517   1.103   0.673   6.392 -0.2112  0.2413  0.1178
 2353SOL    HW118518   1.021   0.712   6.361  0.0145 -0.4986 -1.4092
 2353SOL    HW218519   1.082   0.653   6.484 -1.3026  2.1300  0.2859
 2354SOL     OW18520   4.135   3.462  15.213  0.4602  0.0070  0.3133
 2354SOL    HW118521   4.136   3.557  15.216 -0.8027  0.0542 -0.7140
 2354SOL    HW218522   4.076   3.452  15.288  1.3969  0.9230  1.1676
 2355SOL     OW18523   3.521   2.630   6.407  0.4536 -0.1284 -0.4330
 2355SOL    HW118524   3.473   2.579   6.342  0.1207  1.3959 -1.3690
 2355SOL    HW218525   3.469   2.612   6.485  0.4727 -0.2991 -0.4586
 2356SOL     OW18526   2.422   2.921   6.700  0.1439  1.1644  0.2751
 2356SOL    HW118527   2.384   2.835   6.687  0.0202  1.0832  1.1662
 2356SOL    HW218528   2.447   2.914   6.793  1.7138 -0.1269 -0.2406
 2357SOL     OW18529   0.197   4.075   4.065  0.1237  0.0960  1.0231
 2357SOL    HW118530   0.163   4.102   4.151  0.3617  1.0369  0.8220
 2357SOL    HW218531   0.256   4.147   4.043 -1.0545  0.3346 -1.3955
 2358SOL     OW18532   1.914   3.310   0.035 -0.1616 -0.2290 -0.0362
 2358SOL    HW118533   1.988   3.369   0.021  0.9284 -1.2533  1.4200
 2358SOL    HW218534   1.886   3.294  17.648 -0.2644 -0.3759  0.0216
 2359SOL     OW18535   1.538   3.262   5.143  0.3359 -0.4275 -0.2898
 2359SOL    HW118536   1.603   3.192   5.139 -0.6390 -1.2512 -1.6672
 2359SOL    HW218537   1.540   3.279   5.237  0.2214 -0.9729 -0.1888
 2360SOL     OW18538   3.224   4.272   7.975  0.4435 -0.4316 -0.1778
 2360SOL    HW118539   3.277   4.247   8.051  0.3723 -3.3734 -1.0554
 2360SOL    HW218540   3.137   4.264   8.014  0.0389  2.0993 -0.5870
 2361SOL     OW18541   1.878   2.632   9.586 -0.3131  0.1241 -0.3734
 2361SOL    HW118542   1.811   2.598   9.527 -0.9546  0.7372  0.0117
 2361SOL    HW218543   1.951   2.569   9.587  0.9878  1.6475  0.0204
 2362SOL     OW18544   4.486   0.155   9.568 -0.7387  0.1474 -0.2474
 2362SOL    HW118545   4.497   0.066   9.601 -1.4430 -0.0165 -0.4537
 2362SOL    HW218546   4.452   0.126   9.483  0.5099 -0.3428 -0.5683
 2363SOL     OW18547   0.738   0.950  10.823  0.0294 -0.3420  0.1581
 2363SOL    HW118548   0.810   0.981  10.879 -1.4376  0.5018  1.5948
 2363SOL    HW218549   0.779   0.868  10.797  0.0968 -0.8069  1.6881
 2364SOL     OW18550   0.444   4.114   7.280  0.4858 -0.0520  0.3418
 2364SOL    HW118551   0.403   4.029   7.294 -1.6668  0.4505 -2.8394
 2364SOL    HW218552   0.372   4.175   7.263 -0.0196 -0.8081 -0.2437
 2365SOL     OW18553   2.822   0.951   8.873  0.2293  0.3693  0.4910
 2365SOL    HW118554   2.778   0.876   8.914  2.1139 -0.3384  1.2217
 2365SOL    HW218555   2.782   1.016   8.930  0.6239  1.0336  0.0000
 2366SOL     OW18556   4.164   2.176   2.246 -0.1187 -0.3026  0.6758
 2366SOL    HW118557   4.079   2.220   2.236  0.0558  0.1237  1.0721
 2366SOL    HW218558   4.196   2.166   2.156 -2.3391  2.3520 -0.4573
 2367SOL     OW18559   1.711   3.267   4.256  0.2560 -0.5075  0.5324
 2367SOL    HW118560   1.674   3.180   4.272 -0.1223 -0.9197 -2.5211
 2367SOL    HW218561   1.633   3.318   4.282  0.8074  0.2413  0.7216
 2368SOL     OW18562   1.397   0.063   4.376 -0.3943 -0.2753  0.1641
 2368SOL    HW118563   1.468   0.102   4.325 -1.5776  1.1972 -0.3432
 2368SOL    HW218564   1.439   0.054   4.462 -2.1629  1.1201  1.1819
 2369SOL     OW18565   1.215   1.864   5.632  0.8513  0.0572 -0.2114
 2369SOL    HW118566   1.227   1.944   5.684 -1.3744 -1.1145  2.0953
 2369SOL    HW218567   1.202   1.901   5.545  1.2876  2.6494  0.8068
 2370SOL     OW18568   1.508   3.026   0.878  0.4665 -0.0418 -0.1868
 2370SOL    HW118569   1.536   2.939   0.906 -1.8478  0.0590  2.4103
 2370SOL    HW218570   1.533   3.077   0.955 -1.9573 -0.1373  0.6368
 2371SOL     OW18571   0.588   2.554   7.817  0.2901  0.0879  0.0367
 2371SOL    HW118572   0.667   2.547   7.763 -1.6675  3.1060 -3.2624
 2371SOL    HW218573   0.527   2.485   7.791 -0.4961  1.3285 -1.3709
 2372SOL     OW18574   1.824   3.490   3.563  0.1427 -0.4787  0.7581
 2372SOL    HW118575   1.885   3.467   3.633  1.6780  0.6570 -0.2015
 2372SOL    HW218576   1.745   3.438   3.576 -0.3577  0.2928  0.8119
 2373SOL     OW18577   3.291   2.373  13.916  0.2064  0.1627  0.6736
 2373SOL    HW118578   3.281   2.463  13.885  0.0918 -0.4578 -1.0946
 2373SOL    HW218579   3.334   2.333  13.839 -0.4202 -3.2058  2.0741
 2374SOL     OW18580   0.582   3.696   1.496 -0.3832 -0.7455  0.0321
 2374SOL    HW118581   0.546   3.781   1.523  0.6647 -1.0718  2.4053
 2374SOL    HW218582   0.642   3.716   1.424  0.6184 -0.9785  0.8063
 2375SOL     OW18583   2.775   2.405   8.798  0.5705  0.4276 -0.0533
 2375SOL    HW118584   2.781   2.400   8.893 -0.7746  1.6872  0.0864
 2375SOL    HW218585   2.751   2.314   8.778  3.2622 -0.3713  0.2298
 2376SOL     OW18586   2.982   4.153   9.239 -0.0615 -0.2015  0.0488
 2376SOL    HW118587   2.918   4.083   9.226 -0.4418  0.0835  0.3847
 2376SOL    HW218588   3.055   4.124   9.183 -0.7787 -1.1827 -0.3787
 2377SOL     OW18589   0.774   3.058  17.520  0.0874  0.3366 -0.5351
 2377SOL    HW118590   0.752   3.034  17.610  0.4219 -2.0657 -1.0756
 2377SOL    HW218591   0.812   3.144  17.537  0.2627 -0.1005  1.2390
 2378SOL     OW18592   3.587   1.935  13.653  0.6737  0.0410 -0.3494
 2378SOL    HW118593   3.608   1.939  13.747  2.6164  0.1545 -0.7802
 2378SOL    HW218594   3.664   1.980  13.618 -0.7363  1.6672 -1.3324
 2379SOL     OW18595   3.907   3.770   5.690 -0.2475 -0.2540  0.3977
 2379SOL    HW118596   3.841   3.828   5.728 -0.8889 -1.1891  0.7100
 2379SOL    HW218597   3.922   3.812   5.606  1.4647 -1.8587 -0.1127
 2380SOL     OW18598   0.279   3.934   5.202 -0.4353  0.2711  0.0775
 2380SOL    HW118599   0.321   4.019   5.188 -0.4607  0.2637 -0.0351
 2380SOL    HW218600   0.353   3.874   5.205 -2.7662 -2.7749 -4.0335
 2381SOL     OW18601   4.119   0.022   5.884  0.1514 -0.2484 -0.2960
 2381SOL    HW118602   4.168   0.066   5.953 -1.2818  1.8360 -0.6244
 2381SOL    HW218603   4.172   4.669   5.869 -1.5439 -1.5680  0.5170
 2382SOL     OW18604   1.624   0.864   7.335 -0.0763 -0.0307 -0.6388
 2382SOL    HW118605   1.585   0.945   7.370  0.6063 -1.0726  2.4871
 2382SOL    HW218606   1.588   0.809   7.405 -0.4960  1.0051 -0.0273
 2383SOL     OW18607   1.052   1.412  12.124 -0.2228 -0.2691 -0.0618
 2383SOL    HW118608   1.026   1.504  12.117  0.1321 -0.0273  1.8996
 2383SOL    HW218609   1.137   1.420  12.080 -0.0236  0.0666  0.3748
 2384SOL     OW18610   0.190   1.975   2.515  0.3545 -0.0140  0.7196
 2384SOL    HW118611   0.107   1.972   2.467  0.1229 -0.5198  1.1568
 2384SOL    HW218612   0.248   2.032   2.465  2.6067 -2.3893  0.6380
 2385SOL     OW18613   0.740   2.369   2.344 -0.0382  0.1041 -0.1682
 2385SOL    HW118614   0.778   2.284   2.364 -1.5296 -0.0230  2.1240
 2385SOL    HW218615   0.767   2.421   2.420  1.0023  1.3129 -1.3755
 2386SOL     OW18616   1.126   2.040   3.604 -0.2563  0.3074  0.1650
 2386SOL    HW118617   1.066   1.972   3.576 -1.3449  1.0226  0.7989
 2386SOL    HW218618   1.100   2.108   3.542  0.9107  2.3178  1.8682
 2387SOL     OW18619   1.524   2.252   9.969 -0.4082 -0.6921 -0.4962
 2387SOL    HW118620   1.522   2.308  10.047 -0.3499  1.6820 -2.2055
 2387SOL    HW218621   1.533   2.162  10.000  0.2114 -0.5706 -0.3041
 2388SOL     OW18622   0.690   1.169   5.058 -0.8089  0.2934  0.0929
 2388SOL    HW118623   0.779   1.157   5.093 -1.3406 -0.0694  1.3109
 2388SOL    HW218624   0.643   1.105   5.112  2.1473  0.0231  2.3715
 2389SOL     OW18625   0.236   2.695   4.906  0.2229  0.0372  0.6390
 2389SOL    HW118626   0.259   2.639   4.980  0.4238  1.1033  1.3846
 2389SOL    HW218627   0.201   2.623   4.853  0.1728  0.3638  0.2233
 2390SOL     OW18628   0.769   0.596   4.330 -0.0727  0.5319  0.0397
 2390SOL    HW118629   0.677   0.621   4.321  0.2620  1.3655 -1.1367
 2390SOL    HW218630   0.793   0.596   4.237  1.1714 -1.1866  0.3523
 2391SOL     OW18631   1.495   2.979   9.099  0.0461  0.3726 -0.0365
 2391SOL    HW118632   1.569   2.995   9.040  0.6417  4.1938  1.7693
 2391SOL    HW218633   1.483   3.069   9.130  0.8882 -0.0284  1.4495
 2392SOL     OW18634   4.150   0.376   8.323 -0.3908  0.4262 -0.4221
 2392SOL    HW118635   4.092   0.422   8.261 -2.4929 -0.4815  0.8574
 2392SOL    HW218636   4.104   0.393   8.405 -0.4744 -0.7692 -0.2294
 2393SOL     OW18637   1.550   0.836  11.418 -0.2779  0.1062 -1.0395
 2393SOL    HW118638   1.466   0.792  11.401 -0.2359 -0.8587  1.2188
 2393SOL    HW218639   1.597   0.828  11.335 -1.2079 -1.3419 -1.4355
 2394SOL     OW18640   2.848   0.894  16.523 -0.4325  0.1159  0.1484
 2394SOL    HW118641   2.757   0.894  16.492 -0.0562 -0.1693 -0.9217
 2394SOL    HW218642   2.831   0.862  16.612  1.1530 -0.7791  0.1288
 2395SOL     OW18643   2.811   0.960   1.257  0.2779 -0.2663 -0.4014
 2395SOL    HW118644   2.720   0.963   1.227  1.0754  0.8216 -2.6825
 2395SOL    HW218645   2.825   0.877   1.301 -1.3111 -0.3570 -0.0723
 2396SOL     OW18646   3.262   0.541   4.120 -0.3771 -0.3527 -0.4412
 2396SOL    HW118647   3.334   0.517   4.062  0.1130  1.6968 -0.6766
 2396SOL    HW218648   3.204   0.465   4.114 -1.8394  0.7944 -0.7509
 2397SOL     OW18649   4.716   0.837  15.814  0.2349 -0.3559  0.2546
 2397SOL    HW118650   0.006   0.850  15.721 -2.7327  0.5847 -0.0842
 2397SOL    HW218651   4.653   0.906  15.836  0.6311 -0.2594  1.1097
 2398SOL     OW18652   2.197   2.482   7.333  0.4192  0.0483  0.0384
 2398SOL    HW118653   2.278   2.531   7.326 -0.2338  1.1659  0.3201
 2398SOL    HW218654   2.227   2.413   7.273  0.6469 -1.0644  1.4222
 2399SOL     OW18655   2.124   4.376  14.945 -0.0164 -0.2082 -0.8590
 2399SOL    HW118656   2.188   4.441  14.916 -1.0434  1.4842  0.7103
 2399SOL    HW218657   2.104   4.420  15.027  1.1658 -0.6443 -0.3307
 2400SOL     OW18658   1.598   4.063   2.633  0.2216 -0.0238  0.0715
 2400SOL    HW118659   1.535   4.125   2.594  1.6011  0.2206 -1.7696
 2400SOL    HW218660   1.680   4.091   2.593  0.7104 -1.1103  0.3326
 2401SOL     OW18661   0.593   4.098   6.658  0.0847 -0.3690  0.3172
 2401SOL    HW118662   0.573   4.025   6.600 -1.6998  0.2587  0.1435
 2401SOL    HW218663   0.610   4.168   6.594 -1.1282 -1.8490 -1.5939
 2402SOL     OW18664   1.039   1.006   3.027  0.0451 -0.2528  0.3785
 2402SOL    HW118665   1.094   0.933   3.056 -0.4833 -1.2360 -1.0825
 2402SOL    HW218666   1.008   0.967   2.945 -0.5274 -0.5875  0.7604
 2403SOL     OW18667   0.863   2.772   4.994  0.5744 -0.1406 -0.1701
 2403SOL    HW118668   0.899   2.833   4.930 -1.7047  3.8735  2.4002
 2403SOL    HW218669   0.821   2.830   5.057  0.7661 -0.7487  0.5181
 2404SOL     OW18670   2.240   4.344  14.538  0.1160 -0.4603  0.0264
 2404SOL    HW118671   2.225   4.308  14.450 -0.7625  0.1918 -0.0883
 2404SOL    HW218672   2.311   4.286  14.567  0.9834  0.3386 -0.5119
 2405SOL     OW18673   3.810   3.678   8.705  0.0865 -0.2471 -0.3097
 2405SOL    HW118674   3.898   3.703   8.678 -0.3705  0.0281 -1.5841
 2405SOL    HW218675   3.833   3.607   8.764 -0.2832 -0.1830 -0.0848
 2406SOL     OW18676   3.854   3.536   9.323  0.2301 -0.1603  0.5588
 2406SOL    HW118677   3.780   3.483   9.292  1.5847 -0.2369 -2.5726
 2406SOL    HW218678   3.859   3.599   9.251  0.4405 -0.9543 -0.1241
 2407SOL     OW18679   1.613   1.354  11.290  0.2578 -0.4477  0.3128
 2407SOL    HW118680   1.538   1.375  11.234  0.2533 -2.7612 -0.5336
 2407SOL    HW218681   1.559   1.326  11.364  0.9444 -2.3915  0.0772
 2408SOL     OW18682   2.890   4.707   6.572  0.3506 -0.0031 -0.0400
 2408SOL    HW118683   2.849   4.686   6.489  0.3644  1.3958 -0.4038
 2408SOL    HW218684   2.902   4.625   6.620  0.7949 -0.4357 -0.9038
 2409SOL     OW18685   0.953   3.678  15.684  0.1684  0.0762  0.2885
 2409SOL    HW118686   0.940   3.711  15.595 -0.3924  0.8407  0.6503
 2409SOL    HW218687   0.861   3.665  15.707  0.0965 -0.0171 -0.0483
 2410SOL     OW18688   3.362   2.459   4.604  0.2544  0.7983  0.0149
 2410SOL    HW118689   3.346   2.550   4.631  0.1679  0.7300  0.1934
 2410SOL    HW218690   3.288   2.413   4.644 -0.7917  2.3682 -0.1068
 2411SOL     OW18691   3.342   3.213   3.895  0.0973  0.7196  0.4051
 2411SOL    HW118692   3.272   3.181   3.839 -0.6321  1.1683  1.0667
 2411SOL    HW218693   3.426   3.184   3.859 -0.3681 -0.0686 -0.0219
 2412SOL     OW18694   3.298   1.936   7.495  0.3431  0.1128 -0.4515
 2412SOL    HW118695   3.290   1.936   7.399  2.2977  1.0505 -0.6192
 2412SOL    HW218696   3.221   1.886   7.519  2.0089 -1.2902  1.9581
 2413SOL     OW18697   0.041   3.446   6.422 -0.1605  0.6743  0.3187
 2413SOL    HW118698   4.694   3.498   6.388  0.2225  0.2428 -1.1320
 2413SOL    HW218699   0.121   3.496   6.405 -0.9834  0.8897 -2.7795
 2414SOL     OW18700   2.693   0.490   5.954  0.1220 -0.4178 -0.1602
 2414SOL    HW118701   2.700   0.579   5.921 -0.2507  0.3694  1.8955
 2414SOL    HW218702   2.686   0.445   5.869 -1.6134  2.1191 -1.3515
 2415SOL     OW18703   1.481   4.262   7.674  0.2333  0.1710  0.5029
 2415SOL    HW118704   1.432   4.262   7.592  1.7546 -0.0809 -0.3889
 2415SOL    HW218705   1.482   4.357   7.677  0.4290  0.1343  1.6549
 2416SOL     OW18706   0.023   3.883   8.416 -0.1923  0.1518 -0.5578
 2416SOL    HW118707   4.670   3.933   8.439 -0.8381 -0.5770 -1.1622
 2416SOL    HW218708   4.705   3.806   8.378  0.1050  1.8643 -4.3745
 2417SOL     OW18709   1.137   4.518  13.520 -0.2609  0.1158  0.9102
 2417SOL    HW118710   1.060   4.537  13.573 -0.3359 -1.2535  1.3072
 2417SOL    HW218711   1.113   4.431  13.487 -0.4774  1.3041 -2.0055
 2418SOL     OW18712   2.420   2.214   6.025 -0.0571 -0.5053  0.3398
 2418SOL    HW118713   2.503   2.261   6.014  0.3167 -0.6419  2.5372
 2418SOL    HW218714   2.390   2.219   5.934 -1.7493  1.4851  1.0007
 2419SOL     OW18715   3.121   0.423   8.125  0.0653 -0.2445  0.2262
 2419SOL    HW118716   3.183   0.446   8.055  2.8845 -2.7760  1.8933
 2419SOL    HW218717   3.064   0.500   8.123  2.5417  1.5827 -0.0266
 2420SOL     OW18718   2.281   4.327   8.283  0.5880  0.0880  0.0355
 2420SOL    HW118719   2.224   4.345   8.358  1.5245  3.1623 -0.0003
 2420SOL    HW218720   2.329   4.408   8.266  2.0030 -0.2332  2.4405
 2421SOL     OW18721   4.449   0.198   8.562  0.5983 -0.1239  0.0994
 2421SOL    HW118722   4.488   0.254   8.629 -1.6115  3.4819 -1.6160
 2421SOL    HW218723   4.381   0.152   8.611  1.3149 -0.1609  1.0486
 2422SOL     OW18724   3.516   1.385   9.970 -0.3841  0.3372  0.5227
 2422SOL    HW118725   3.538   1.361   9.880 -0.2990  1.9358  0.1178
 2422SOL    HW218726   3.474   1.304   9.998  0.9874  0.2213  2.2274
 2423SOL     OW18727   2.887   0.670   6.835  0.0931 -0.0070  0.0631
 2423SOL    HW118728   2.872   0.712   6.750  0.2102 -1.2831 -0.6030
 2423SOL    HW218729   2.860   0.578   6.823 -1.6882  0.2854  1.8318
 2424SOL     OW18730   2.460   1.462  17.635  0.2062  0.5195 -0.0133
 2424SOL    HW118731   2.515   1.407  17.690 -1.0536 -0.0049  0.7129
 2424SOL    HW218732   2.388   1.485  17.694 -1.6098 -2.6562 -1.0011
 2425SOL     OW18733   3.422   4.685   2.266 -0.6875  0.3622  0.3289
 2425SOL    HW118734   3.370   0.006   2.200 -0.9594 -2.5112 -1.4750
 2425SOL    HW218735   3.488   0.019   2.301 -0.6574  0.4587  0.1088
 2426SOL     OW18736   0.862   2.605   5.668  0.5403 -0.1961 -0.7259
 2426SOL    HW118737   0.829   2.536   5.610 -2.5600  1.5211 -1.0137
 2426SOL    HW218738   0.845   2.572   5.757  1.7963  0.1907 -0.3463
 2427SOL     OW18739   0.292   3.893  10.182 -0.0403  0.2080 -0.3624
 2427SOL    HW118740   0.244   3.955  10.237 -1.1508  0.1972 -1.3229
 2427SOL    HW218741   0.291   3.813  10.234 -0.8741 -0.1396 -0.9123
 2428SOL     OW18742   3.222   0.144  17.624  0.4141 -0.2253  0.5768
 2428SOL    HW118743   3.171   0.199  17.683 -2.7041  0.6200 -2.8648
 2428SOL    HW218744   3.173   0.062  17.628 -0.7217  0.3772 -0.6773
 2429SOL     OW18745   2.749   3.917   8.027  0.3045 -0.2848 -0.1292
 2429SOL    HW118746   2.778   3.969   7.952 -2.2761 -0.1706 -1.0515
 2429SOL    HW218747   2.752   3.988   8.091 -0.8871  0.8967 -1.3823
 2430SOL     OW18748   2.462   3.468  11.894  0.0210 -0.0472 -0.7660
 2430SOL    HW118749   2.384   3.416  11.913 -0.2893  0.9992  0.8347
 2430SOL    HW218750   2.463   3.449  11.800 -0.7129  3.6251 -1.5431
 2431SOL     OW18751   2.368   2.015   5.720 -0.0839  0.2724  0.1034
 2431SOL    HW118752   2.279   2.021   5.755 -0.1230 -0.1718  0.0787
 2431SOL    HW218753   2.380   2.107   5.697  0.7764 -0.0037 -0.5361
 2432SOL     OW18754   0.016   0.156   6.515 -0.3006 -0.6059 -0.4859
 2432SOL    HW118755   0.067   0.177   6.437 -2.4450  1.1360 -1.3913
 2432SOL    HW218756   4.718   0.245   6.539 -1.4357 -0.4665 -2.1215
 2433SOL     OW18757   1.957   2.130   0.826  0.1224 -0.3279 -0.6693
 2433SOL    HW118758   2.050   2.114   0.805  0.2240 -0.1710 -0.3356
 2433SOL    HW218759   1.923   2.042   0.840 -0.1534 -0.0705  0.2418
 2434SOL     OW18760   1.179   3.436  12.087 -0.5246 -0.1540 -0.1538
 2434SOL    HW118761   1.273   3.445  12.073 -0.3170 -1.6561  0.3476
 2434SOL    HW218762   1.163   3.344  12.068 -1.1237  0.4240 -2.4987
 2435SOL     OW18763   3.164   1.014   6.206  0.3032 -0.7194  0.1443
 2435SOL    HW118764   3.220   0.969   6.269 -1.7386 -1.0114  1.7458
 2435SOL    HW218765   3.223   1.056   6.144 -1.4580  1.5929  0.0224
 2436SOL     OW18766   0.898   0.360   6.366 -0.2978 -0.4513  0.7374
 2436SOL    HW118767   0.885   0.280   6.316  0.4989  0.2522 -0.5916
 2436SOL    HW218768   0.962   0.402   6.309 -0.3327  2.4207  2.7933
 2437SOL     OW18769   3.151   1.324  12.326 -0.2073 -0.2049 -0.1163
 2437SOL    HW118770   3.243   1.352  12.324  0.4075 -2.2329 -0.3441
 2437SOL    HW218771   3.134   1.308  12.233 -0.5485 -0.4377 -0.0141
 2438SOL     OW18772   1.949   0.432   9.020  0.6261  0.0170  0.1253
 2438SOL    HW118773   1.899   0.351   9.029 -0.1817  0.5826  0.7201
 2438SOL    HW218774   1.878   0.496   9.032  1.8147  1.9675 -3.2126
 2439SOL     OW18775   1.939   2.090   7.595  0.2949 -0.0429 -0.1860
 2439SOL    HW118776   1.945   2.160   7.531  1.9103  0.0131  0.0242
 2439SOL    HW218777   1.982   2.022   7.542 -0.4178 -1.0378  0.5136
 2440SOL     OW18778   3.883   3.062   6.819 -0.0953  0.3171 -0.1296
 2440SOL    HW118779   3.805   3.116   6.823 -0.0499  0.5488 -2.3735
 2440SOL    HW218780   3.952   3.128   6.817 -0.2309  0.4886  0.7212
 2441SOL     OW18781   3.089   1.446   8.200  0.3121 -0.4492 -0.2955
 2441SOL    HW118782   3.029   1.464   8.128 -0.7671  1.0957  0.9658
 2441SOL    HW218783   3.053   1.361   8.225  2.2711 -1.3793 -0.7001
 2442SOL     OW18784   1.237   1.745   4.165 -0.2665 -0.2221  0.2135
 2442SOL    HW118785   1.235   1.706   4.252  0.3075 -1.5746 -0.3757
 2442SOL    HW218786   1.191   1.827   4.178  1.8421  0.5845  2.6956
 2443SOL     OW18787   0.454   3.538   5.354  0.5161 -0.7501 -0.7603
 2443SOL    HW118788   0.531   3.595   5.345 -0.4733  0.5856 -0.8150
 2443SOL    HW218789   0.471   3.482   5.430 -1.4094 -1.4841 -0.8866
 2444SOL     OW18790   3.579   3.262   7.102  0.5851 -0.4319 -0.4005
 2444SOL    HW118791   3.660   3.214   7.117  0.8029 -0.0555 -0.3682
 2444SOL    HW218792   3.528   3.255   7.183  1.5832  2.5059  0.5060
 2445SOL     OW18793   4.166   0.853  10.157 -0.1121 -0.5748  0.4266
 2445SOL    HW118794   4.113   0.885  10.229 -1.4576 -2.7888  0.4007
 2445SOL    HW218795   4.124   0.775  10.121 -0.8732  1.0580 -2.2003
 2446SOL     OW18796   1.188   1.978   0.300  0.2185  0.0151  0.7841
 2446SOL    HW118797   1.180   1.904   0.360 -0.1224 -1.1122 -0.6761
 2446SOL    HW218798   1.125   2.033   0.346 -0.4340  0.2163 -0.3526
 2447SOL     OW18799   1.634   3.678   5.920 -0.4743  0.2342 -0.5631
 2447SOL    HW118800   1.602   3.604   5.972 -1.7476  0.8814 -0.4237
 2447SOL    HW218801   1.603   3.750   5.974  1.1175 -0.0588  0.7687
 2448SOL     OW18802   0.273   0.049   2.107 -0.3390  0.1228  0.4073
 2448SOL    HW118803   0.366   0.056   2.130  0.0980  1.0020 -1.7010
 2448SOL    HW218804   0.270   4.715   2.032  2.3425 -1.3144  1.4305
 2449SOL     OW18805   0.522   2.917   1.247 -0.0337 -0.0273 -0.4368
 2449SOL    HW118806   0.486   2.866   1.320  0.4715  0.3079  0.0448
 2449SOL    HW218807   0.578   2.970   1.304 -3.0086  2.4798  0.1805
 2450SOL     OW18808   3.063   0.986   7.153 -0.3417  1.0997 -0.1720
 2450SOL    HW118809   2.969   0.982   7.137 -0.2586 -1.9976  0.2434
 2450SOL    HW218810   3.096   0.953   7.070 -1.9945  1.5991 -1.0407
 2451SOL     OW18811   0.351   1.773   4.684  0.0242  0.1794 -0.9529
 2451SOL    HW118812   0.395   1.837   4.741  0.7771  0.1108 -1.4671
 2451SOL    HW218813   0.260   1.801   4.697 -0.7749 -2.9047  0.0100
 2452SOL     OW18814   2.637   1.782   4.904  0.6762 -0.3926  0.3666
 2452SOL    HW118815   2.586   1.749   4.830  1.0064  0.6927 -0.3514
 2452SOL    HW218816   2.725   1.748   4.888  2.2253  2.0712  3.5896
 2453SOL     OW18817   3.970   2.956   9.364 -0.1566 -0.4917  0.0035
 2453SOL    HW118818   4.039   2.909   9.412 -1.3435 -1.5784  0.6514
 2453SOL    HW218819   3.985   3.046   9.391 -0.1559  0.0123 -1.6697
 2454SOL     OW18820   1.505   1.257   7.387  0.0397  0.0748 -0.6235
 2454SOL    HW118821   1.535   1.312   7.459 -1.1870 -1.3896  0.9940
 2454SOL    HW218822   1.521   1.170   7.425 -2.0417 -0.7789 -1.7035
 2455SOL     OW18823   3.861   0.756  16.775 -0.6820  0.1752 -0.5101
 2455SOL    HW118824   3.918   0.822  16.736 -0.2294  0.6690  0.9537
 2455SOL    HW218825   3.866   0.782  16.867 -3.2775  0.3778 -0.4165
 2456SOL     OW18826   3.757   3.907   2.152 -0.7410  0.7898  0.6654
 2456SOL    HW118827   3.720   3.893   2.064  0.0708  0.3012  0.4014
 2456SOL    HW218828   3.803   3.987   2.128 -0.1891  0.3445  0.2291
 2457SOL     OW18829   2.836   4.008   7.790  0.7555 -0.5601 -0.0803
 2457SOL    HW118830   2.906   4.064   7.758 -1.4007  1.4206 -1.3386
 2457SOL    HW218831   2.887   3.927   7.787  2.5686  0.5435  0.9476
 2458SOL     OW18832   4.532   2.709   5.857 -0.4089 -0.4878 -0.6916
 2458SOL    HW118833   4.509   2.759   5.778  0.5615  0.6671 -0.2367
 2458SOL    HW218834   4.627   2.698   5.849 -0.4940 -0.9571 -1.0722
 2459SOL     OW18835   0.868   2.219   6.330 -0.4929 -0.5512 -0.7029
 2459SOL    HW118836   0.905   2.305   6.347  1.7573 -1.7487  0.4520
 2459SOL    HW218837   0.802   2.201   6.397 -1.0235 -0.1244 -1.1147
 2460SOL     OW18838   1.636   3.028   3.355 -0.2696 -0.2453  0.1254
 2460SOL    HW118839   1.551   3.052   3.319 -0.2714  2.4232  1.9210
 2460SOL    HW218840   1.681   3.111   3.372  0.0624 -0.4017  0.0116
 2461SOL     OW18841   0.318   0.681   4.821  0.7374  0.0412  1.0959
 2461SOL    HW118842   0.288   0.605   4.870  0.9590  0.4220  1.8279
 2461SOL    HW218843   0.332   0.630   4.742  1.2799  0.1662  1.1092
 2462SOL     OW18844   0.099   0.518   6.150 -0.0242 -0.1433 -0.0131
 2462SOL    HW118845   0.044   0.556   6.081  2.0642  1.3268 -0.8477
 2462SOL    HW218846   0.181   0.566   6.144  0.0492 -0.4946 -2.0469
 2463SOL     OW18847   0.655   1.013   5.655 -0.6126 -0.0202 -0.6456
 2463SOL    HW118848   0.679   1.104   5.636 -0.3852 -0.5841 -3.1155
 2463SOL    HW218849   0.670   0.978   5.567 -0.2452  0.6503 -0.8520
 2464SOL     OW18850   3.475   3.193   2.856 -0.7448 -0.4028  0.3218
 2464SOL    HW118851   3.391   3.175   2.812 -0.3901  1.0620 -0.9187
 2464SOL    HW218852   3.462   3.169   2.948  0.5937 -0.4350  0.5056
 2465SOL     OW18853   0.743   4.624   4.478  0.2269 -0.0140 -0.0549
 2465SOL    HW118854   0.707   4.687   4.541  0.1564  0.9767 -1.0886
 2465SOL    HW218855   0.725   4.669   4.396 -0.6441 -0.5239 -0.1398
 2466SOL     OW18856   2.006   4.197   2.893  0.2140 -0.4133  0.1134
 2466SOL    HW118857   1.945   4.238   2.954 -0.2182  1.6168 -1.6877
 2466SOL    HW218858   2.079   4.258   2.881  0.9220 -0.9348  1.7956
 2467SOL     OW18859   0.880   4.153  14.403 -0.3163 -0.0025 -0.0729
 2467SOL    HW118860   0.903   4.205  14.479 -1.3045 -0.8817  0.8336
 2467SOL    HW218861   0.956   4.095  14.398  0.2733  0.7684  0.1828
 2468SOL     OW18862   0.241   3.273  15.786  0.2672  0.0585  0.0641
 2468SOL    HW118863   0.203   3.212  15.850 -0.9070  0.9069  0.1852
 2468SOL    HW218864   0.214   3.358  15.823 -0.6757  0.0136 -0.5177
 2469SOL     OW18865   2.070   3.384   6.574  0.1713 -0.3932 -0.1230
 2469SOL    HW118866   2.136   3.315   6.559 -0.9981 -1.8813  1.5106
 2469SOL    HW218867   2.120   3.463   6.556 -1.4718  0.4717 -0.7864
 2470SOL     OW18868   0.441   3.362   3.142  0.4991 -0.4277 -0.2096
 2470SOL    HW118869   0.395   3.296   3.090  0.0117 -1.7509  1.8789
 2470SOL    HW218870   0.373   3.425   3.167 -0.0819 -0.3237 -2.0171
 2471SOL     OW18871   1.916   4.429   3.438  0.1268  0.6029 -0.0349
 2471SOL    HW118872   1.826   4.434   3.406 -0.8766 -0.4781  2.6651
 2471SOL    HW218873   1.890   4.451   3.527  1.0654  1.0268  0.1370
 2472SOL     OW18874   0.559   0.924  12.523 -0.0552 -0.0629  0.3163
 2472SOL    HW118875   0.468   0.954  12.531  0.8823  3.0527 -0.5644
 2472SOL    HW218876   0.591   0.967  12.603 -2.4951  2.5285 -0.0686
 2473SOL     OW18877   4.462   3.797   4.964 -0.3024 -0.3128  0.7094
 2473SOL    HW118878   4.415   3.796   4.881  1.4802 -1.0788 -0.3138
 2473SOL    HW218879   4.475   3.892   4.969 -0.6284 -0.1219 -2.3212
 2474SOL     OW18880   4.042   2.427   8.393 -0.6169  0.2199  0.1256
 2474SOL    HW118881   4.062   2.337   8.366  1.6323  0.5339  0.7628
 2474SOL    HW218882   3.962   2.429   8.341 -1.0121  0.7610  0.7586
 2475SOL     OW18883   4.412   1.344   7.237  0.4328 -0.3919 -0.1961
 2475SOL    HW118884   4.461   1.268   7.268  0.6848 -0.4358 -0.7009
 2475SOL    HW218885   4.465   1.409   7.282  2.2348  0.3816 -3.4226
 2476SOL     OW18886   3.352   2.296   4.004  0.2347  0.2526 -0.1748
 2476SOL    HW118887   3.315   2.293   3.916 -0.3780 -2.9021  0.1869
 2476SOL    HW218888   3.320   2.220   4.053  0.1169  1.5314  1.7435
 2477SOL     OW18889   3.582   1.849   2.779  0.3083  0.7527 -0.4208
 2477SOL    HW118890   3.561   1.764   2.740 -1.3134  0.3375  1.3437
 2477SOL    HW218891   3.549   1.909   2.712 -1.8032 -1.7407 -1.6184
 2478SOL     OW18892   2.228   0.546  13.946 -0.4532  0.4597  0.0400
 2478SOL    HW118893   2.148   0.522  13.992 -0.1646  0.6657  0.6379
 2478SOL    HW218894   2.199   0.637  13.933  0.4501  0.3662 -2.7967
 2479SOL     OW18895   1.132   4.220   6.124 -0.2936  0.3043 -0.4309
 2479SOL    HW118896   1.225   4.232   6.101  0.0124  0.3311  0.8125
 2479SOL    HW218897   1.123   4.130   6.092  0.1630 -0.1808  0.7875
 2480SOL     OW18898   3.008   2.179   8.867  0.1828  0.6905 -0.8251
 2480SOL    HW118899   3.014   2.243   8.939 -0.5951 -1.2988  1.0092
 2480SOL    HW218900   3.094   2.196   8.829  0.6053 -0.0734 -0.2097
 2481SOL     OW18901   2.908   3.356   0.276 -0.0989  0.0274  0.5604
 2481SOL    HW118902   2.826   3.371   0.228 -0.0009  0.1404  0.4279
 2481SOL    HW218903   2.928   3.264   0.261  2.0289  0.5182  0.3622
 2482SOL     OW18904   3.022   2.570   8.782 -0.1925  0.2039  0.3120
 2482SOL    HW118905   3.053   2.623   8.709 -0.4337 -1.6856 -1.1525
 2482SOL    HW218906   2.989   2.490   8.742  0.0324 -0.5552  1.6773
 2483SOL     OW18907   2.957   0.238   6.248  0.2784 -0.2228  0.1997
 2483SOL    HW118908   3.012   0.275   6.318 -2.4144  2.5940  0.8036
 2483SOL    HW218909   3.017   0.167   6.224 -1.1145 -0.9218 -1.2415
 2484SOL     OW18910   3.265   0.596   9.752 -0.8340 -0.5825 -0.2556
 2484SOL    HW118911   3.304   0.578   9.667  0.7911  2.6329 -0.2034
 2484SOL    HW218912   3.182   0.551   9.735 -0.2525 -2.1165  1.0167
 2485SOL     OW18913   3.183   0.837   8.000 -0.4321  0.2010  0.1096
 2485SOL    HW118914   3.200   0.932   8.004  0.1617  0.1099 -0.2519
 2485SOL    HW218915   3.237   0.804   8.072 -0.9280  0.2471  0.5054
 2486SOL     OW18916   1.760   2.226  12.306 -0.6435 -0.1071 -0.5486
 2486SOL    HW118917   1.730   2.215  12.396 -0.1061  1.5995 -0.1521
 2486SOL    HW218918   1.806   2.144  12.291  1.2104  0.9080 -0.4465
 2487SOL     OW18919   3.784   0.225   1.277 -0.0914  0.5576 -0.2108
 2487SOL    HW118920   3.744   0.265   1.200  0.7970  2.6893  0.4294
 2487SOL    HW218921   3.720   0.164   1.315 -1.4515  2.3116  0.2987
 2488SOL     OW18922   0.405   1.178   6.070  0.2480  0.2520 -0.2874
 2488SOL    HW118923   0.319   1.145   6.043 -0.0349 -0.2877  1.2686
 2488SOL    HW218924   0.458   1.100   6.085 -1.5610 -0.8632  0.2643
 2489SOL     OW18925   3.844   2.927   0.942 -0.2686 -0.2282 -0.5034
 2489SOL    HW118926   3.868   3.011   0.981  0.0052 -0.1126 -0.9185
 2489SOL    HW218927   3.875   2.866   1.010 -0.5011 -1.3545 -1.4065
 2490SOL     OW18928   0.047   1.382   9.575 -0.5567  0.3684 -0.6259
 2490SOL    HW118929   0.098   1.453   9.614  1.6956 -2.5760  1.7403
 2490SOL    HW218930   0.021   1.327   9.648  0.8440 -1.0835 -1.2309
 2491SOL     OW18931   2.866   3.399  17.104  0.0070  0.2223 -0.5506
 2491SOL    HW118932   2.952   3.431  17.079 -0.0932  0.3585 -0.7193
 2491SOL    HW218933   2.880   3.401  17.199 -1.1672 -0.6538 -0.3573
 2492SOL     OW18934   4.164   4.443   3.342  0.5794 -0.1851 -0.5312
 2492SOL    HW118935   4.093   4.424   3.404  0.1060  1.3161 -0.6023
 2492SOL    HW218936   4.122   4.508   3.285 -2.0299 -0.3418  1.1768
 2493SOL     OW18937   0.632   1.067   6.445  0.1040  0.4198  0.4479
 2493SOL    HW118938   0.727   1.068   6.445  0.1065 -0.3059  2.4164
 2493SOL    HW218939   0.624   1.137   6.380  1.4021 -0.7757 -0.9887
 2494SOL     OW18940   1.377   4.447   0.829  0.0257  0.0452  0.5795
 2494SOL    HW118941   1.417   4.532   0.809  0.1737 -0.2490 -0.3714
 2494SOL    HW218942   1.303   4.449   0.769  2.2518 -1.9859 -2.2156
 2495SOL     OW18943   3.921   4.028   3.227 -0.1752 -0.5431  0.1618
 2495SOL    HW118944   4.008   4.013   3.190  0.1406 -0.6296  0.9296
 2495SOL    HW218945   3.859   3.987   3.167  0.7128  1.0780 -1.8475
 2496SOL     OW18946   2.330   1.493   5.619  0.9264 -0.0866  0.2693
 2496SOL    HW118947   2.385   1.531   5.688  1.4621 -1.0444  0.3631
 2496SOL    HW218948   2.397   1.441   5.575  0.6085 -1.5235  1.4750
 2497SOL     OW18949   1.429   2.059   3.591 -0.3780 -0.6693 -0.1493
 2497SOL    HW118950   1.336   2.073   3.578 -0.4528 -1.6011 -0.6520
 2497SOL    HW218951   1.431   1.970   3.627 -2.0610 -0.1303  1.2291
 2498SOL     OW18952   1.401   3.462   7.205  0.0259 -0.8221 -0.0644
 2498SOL    HW118953   1.420   3.446   7.297  1.0854 -1.1190 -0.3216
 2498SOL    HW218954   1.478   3.426   7.160  1.7696  0.1391  2.1459
 2499SOL     OW18955   2.574   0.598   7.716 -0.0538  0.2726  0.0927
 2499SOL    HW118956   2.499   0.587   7.658  0.5517  0.8355 -0.7951
 2499SOL    HW218957   2.532   0.665   7.770  0.1192  1.0328 -0.7335
 2500SOL     OW18958   0.480   2.998   7.004  0.0279 -0.4005  0.5646
 2500SOL    HW118959   0.405   3.006   7.062 -0.0700  1.1400  0.2259
 2500SOL    HW218960   0.491   2.906   6.977  0.0539 -0.8015  1.9503
 2501SOL     OW18961   4.142   1.122   0.336 -0.2930  0.3166 -0.0435
 2501SOL    HW118962   4.082   1.051   0.358  1.0403 -1.1406 -1.1221
 2501SOL    HW218963   4.173   1.143   0.424 -1.2989 -3.7784  1.3037
 2502SOL     OW18964   3.164   3.130  13.046  0.3423 -0.2604 -0.7871
 2502SOL    HW118965   3.164   3.052  13.102  1.7703 -0.6140 -1.2994
 2502SOL    HW218966   3.225   3.187  13.092 -0.8504  0.3457  0.0393
 2503SOL     OW18967   2.654   2.926   0.262  0.2800 -0.0076  0.0373
 2503SOL    HW118968   2.591   2.878   0.316 -0.9251  0.1836 -1.1962
 2503SOL    HW218969   2.732   2.872   0.258  1.1781  1.1285  2.4363
 2504SOL     OW18970   0.134   4.061  10.336  0.7516 -0.1665 -0.2111
 2504SOL    HW118971   0.063   3.999  10.320  0.4615 -0.0442  0.6063
 2504SOL    HW218972   0.131   4.054  10.431 -0.1028  1.0348 -0.1491
 2505SOL     OW18973   0.925   0.997   6.342  0.0916 -0.3082 -0.5956
 2505SOL    HW118974   0.967   1.009   6.257 -0.0664  1.5994 -0.4097
 2505SOL    HW218975   0.989   1.039   6.400  0.4188 -1.7400  0.0842
 2506SOL     OW18976   3.679   1.275   2.776 -0.1326  0.2902 -0.3974
 2506SOL    HW118977   3.652   1.192   2.815 -0.0128  0.2335 -0.4356
 2506SOL    HW218978   3.606   1.334   2.796  0.2303 -0.0584  2.0555
 2507SOL     OW18979   4.063   1.045   0.733 -0.0530 -0.1394 -0.3094
 2507SOL    HW118980   4.121   0.981   0.693  1.0136  0.3072  0.5358
 2507SOL    HW218981   4.021   1.097   0.665  2.3065  1.2544 -0.6772
 2508SOL     OW18982   2.758   4.422  13.949  0.3050  0.6444  0.0944
 2508SOL    HW118983   2.813   4.447  14.023  0.4109  2.2251 -0.5212
 2508SOL    HW218984   2.778   4.486  13.881  2.9989  0.4353  0.6687
 2509SOL     OW18985   1.169   0.747   8.489  0.2885  0.1210 -0.1391
 2509SOL    HW118986   1.207   0.793   8.414 -0.9827  0.1097 -0.7901
 2509SOL    HW218987   1.249   0.734   8.540 -0.6427  1.4982  1.6514
 2510SOL     OW18988   2.988   1.676   2.452  0.2380  0.0738  0.3536
 2510SOL    HW118989   2.930   1.720   2.514 -0.7090 -0.9038  0.1659
 2510SOL    HW218990   3.019   1.600   2.500 -0.2557 -0.5848 -0.3782
 2511SOL     OW18991   1.041   4.198   0.114 -0.2042 -0.2242 -0.5253
 2511SOL    HW118992   1.134   4.205   0.135 -0.1975  0.1516 -0.6743
 2511SOL    HW218993   1.041   4.236   0.026  2.3014  0.2689 -0.3052
 2512SOL     OW18994   2.046   0.958   3.608 -0.0331  0.2744 -0.2480
 2512SOL    HW118995   1.988   1.031   3.629  0.8154  0.2263  2.2472
 2512SOL    HW218996   2.003   0.926   3.528  0.0425  0.1819 -0.2524
 2513SOL     OW18997   0.709   0.327   3.600 -0.0732 -0.3422 -0.3440
 2513SOL    HW118998   0.679   0.384   3.671 -0.3863  1.2303 -1.7163
 2513SOL    HW218999   0.772   0.385   3.556  1.0078 -0.5977  0.8515
 2514SOL     OW19000   2.320   1.965  16.280 -0.3034 -0.3742 -0.7453
 2514SOL    HW119001   2.251   1.979  16.214 -1.8721 -0.0062  0.9723
 2514SOL    HW219002   2.362   1.894  16.232 -1.7651  1.3794 -4.6645
 2515SOL     OW19003   4.044   4.551  10.923  0.3244  0.3025  0.3382
 2515SOL    HW119004   4.092   4.508  10.994 -0.3788  0.0961  0.6933
 2515SOL    HW219005   3.963   4.500  10.928 -0.1639  0.7787 -2.5218
 2516SOL     OW19006   3.088   1.769   9.778 -0.3768  0.3049  0.0069
 2516SOL    HW119007   3.096   1.777   9.683 -0.6229 -0.2813 -0.0675
 2516SOL    HW219008   3.104   1.860   9.800 -0.2893  0.0256  1.1008
 2517SOL     OW19009   1.713   0.270  15.771 -0.1263 -0.0457 -0.5055
 2517SOL    HW119010   1.651   0.343  15.764 -0.6971 -0.3980  0.9972
 2517SOL    HW219011   1.648   0.201  15.759  1.6333 -2.0698  1.6999
 2518SOL     OW19012   3.320   2.647  16.158  0.3322  0.9325 -0.2417
 2518SOL    HW119013   3.250   2.678  16.100 -0.9362 -0.2599  0.6648
 2518SOL    HW219014   3.364   2.591  16.095 -0.7387  1.4587 -1.4500
 2519SOL     OW19015   3.714   3.973   5.903 -0.6284  0.1165  0.2578
 2519SOL    HW119016   3.794   3.965   5.954  0.0279  2.4852 -0.3854
 2519SOL    HW219017   3.670   3.893   5.931  1.0820 -1.1590 -0.7256
 2520SOL     OW19018   0.387   2.682   7.449  0.3366 -0.6012  0.6839
 2520SOL    HW119019   0.451   2.719   7.388  0.0423 -1.2166  0.0108
 2520SOL    HW219020   0.392   2.587   7.438 -1.0196 -0.6218  0.3238
 2521SOL     OW19021   0.488   1.171   2.934 -0.0739  0.6661 -0.0516
 2521SOL    HW119022   0.475   1.168   2.839  0.3599 -1.0907 -0.0590
 2521SOL    HW219023   0.575   1.132   2.946 -1.1457 -1.5957  0.3641
 2522SOL     OW19024   1.344   0.556   8.597 -0.0541  0.1703  0.4028
 2522SOL    HW119025   1.435   0.548   8.626 -0.2926  2.3297  1.7479
 2522SOL    HW219026   1.346   0.494   8.524 -0.6741  0.2419  0.3302
 2523SOL     OW19027   4.136   2.376  13.679  0.3700 -0.5968  0.4214
 2523SOL    HW119028   4.152   2.327  13.598  0.9686  1.6076 -0.7884
 2523SOL    HW219029   4.049   2.411  13.661  2.0311  2.7537 -1.0962
 2524SOL     OW19030   1.411   1.776   6.205  0.0282 -0.4994 -0.6371
 2524SOL    HW119031   1.367   1.786   6.120  1.3537  2.7182 -0.9603
 2524SOL    HW219032   1.380   1.697   6.249 -0.1505  0.6643  1.3142
 2525SOL     OW19033   4.170   3.195  15.597  0.0039 -0.0839 -0.1219
 2525SOL    HW119034   4.101   3.214  15.533 -1.9004 -1.5631  1.5373
 2525SOL    HW219035   4.248   3.238  15.561  0.3634 -0.2629  0.4547
 2526SOL     OW19036   3.315   3.644   7.734  0.4192 -0.4476 -0.5056
 2526SOL    HW119037   3.272   3.677   7.655 -3.3651 -3.1079  0.4235
 2526SOL    HW219038   3.243   3.595   7.773 -1.8168  1.0641 -2.6722
 2527SOL     OW19039   2.495   2.789   0.463 -0.7290 -0.4997  0.1553
 2527SOL    HW119040   2.571   2.732   0.475 -2.2755 -2.8172 -0.9953
 2527SOL    HW219041   2.441   2.793   0.542  3.3180 -0.4246  2.9254
 2528SOL     OW19042   0.860   4.267  12.388  0.0356 -0.4398 -0.1084
 2528SOL    HW119043   0.883   4.358  12.368 -0.3094 -0.6032 -1.2382
 2528SOL    HW219044   0.916   4.247  12.463  2.0296  2.2873 -0.8715
 2529SOL     OW19045   2.599   3.237   8.978  0.0789 -0.1028  0.3885
 2529SOL    HW119046   2.558   3.151   8.988  0.3879 -0.4475 -1.3222
 2529SOL    HW219047   2.640   3.230   8.892 -0.9264 -0.5791 -0.0480
 2530SOL     OW19048   3.824   4.551  11.458 -0.2413  0.0042 -0.2015
 2530SOL    HW119049   3.830   4.573  11.365  0.0302  1.5838  0.1943
 2530SOL    HW219050   3.849   4.459  11.448 -1.8450 -0.8619  3.7527
 2531SOL     OW19051   0.506   3.077   4.493 -0.4052  0.4652  0.1572
 2531SOL    HW119052   0.482   3.166   4.519  0.6412  1.1183 -1.0900
 2531SOL    HW219053   0.464   3.023   4.560  1.4630  0.6201  1.4615
 2532SOL     OW19054   2.190   3.113   9.030 -0.0517  0.6490 -0.6341
 2532SOL    HW119055   2.142   3.140   8.952 -0.7013 -2.3077 -1.2804
 2532SOL    HW219056   2.252   3.047   8.997 -0.7129 -0.5921  0.5788
 2533SOL     OW19057   0.489   1.293   7.231  0.4076 -0.7913 -0.6049
 2533SOL    HW119058   0.477   1.272   7.139 -0.9739 -0.8196 -0.4195
 2533SOL    HW219059   0.464   1.212   7.274  1.1834  0.4743  2.2210
 2534SOL     OW19060   3.365   1.253   7.686 -0.3485 -0.6103 -0.3615
 2534SOL    HW119061   3.286   1.276   7.636 -1.2277 -0.0798  1.2703
 2534SOL    HW219062   3.438   1.298   7.643  1.3567 -0.9345  2.2206
 2535SOL     OW19063   1.686   2.128   7.325  0.8802 -0.4292 -0.2750
 2535SOL    HW119064   1.604   2.117   7.277 -0.1142 -0.7537  1.5331
 2535SOL    HW219065   1.660   2.082   7.404  1.5591 -3.5360 -1.8553
 2536SOL     OW19066   2.294   0.243   8.693  0.0018 -0.7017  0.4443
 2536SOL    HW119067   2.313   0.251   8.599  2.1667 -0.9789  0.8542
 2536SOL    HW219068   2.201   0.261   8.708 -0.8045 -3.5842 -0.9760
 2537SOL     OW19069   1.153   0.198   9.618  0.6852 -0.7067 -0.5347
 2537SOL    HW119070   1.058   0.197   9.603  0.6388 -0.2025 -0.2646
 2537SOL    HW219071   1.176   0.271   9.561 -0.0666  0.6882  0.9538
 2538SOL     OW19072   1.825   2.374  12.049 -0.4911 -0.1514  0.3837
 2538SOL    HW119073   1.812   2.368  12.144 -0.9938  1.1254  0.3988
 2538SOL    HW219074   1.859   2.464  12.051 -4.3103  1.3645 -2.0904
 2539SOL     OW19075   4.626   1.082   1.765 -0.0543 -0.0302  0.3145
 2539SOL    HW119076   4.559   1.034   1.716  1.5217 -2.6929  0.7998
 2539SOL    HW219077   4.699   1.021   1.769  0.5199  0.5822 -0.8252
 2540SOL     OW19078   3.750   1.032   9.056  0.0558 -0.0796  0.4976
 2540SOL    HW119079   3.829   0.992   9.021 -0.5683  1.6386 -2.8080
 2540SOL    HW219080   3.761   1.122   9.026 -2.1656  0.3050  0.7808
 2541SOL     OW19081   3.070   4.283  10.109 -0.5128 -0.4370  0.3698
 2541SOL    HW119082   3.080   4.378  10.107 -0.6835 -0.4576 -1.5988
 2541SOL    HW219083   3.067   4.270  10.014 -2.3100 -0.3302  0.4139
 2542SOL     OW19084   2.126   4.472  15.735 -0.0250  0.5523  0.1537
 2542SOL    HW119085   2.160   4.544  15.789 -1.5509  0.2389  1.5426
 2542SOL    HW219086   2.035   4.459  15.762  0.2843 -0.8320  0.5516
 2543SOL     OW19087   3.547   1.701  16.252 -0.1001 -0.2126  0.3652
 2543SOL    HW119088   3.538   1.609  16.277 -0.1838 -0.2434  0.2214
 2543SOL    HW219089   3.620   1.719  16.311 -1.1993  2.3540  0.9415
 2544SOL     OW19090   2.702   1.024   6.322 -0.6859  0.2693 -0.2103
 2544SOL    HW119091   2.783   0.975   6.333  0.6982  3.1587  2.3276
 2544SOL    HW219092   2.657   0.989   6.245 -0.5191  2.7278 -1.4244
 2545SOL     OW19093   1.404   2.216  12.403  1.0599  1.0734  0.2660
 2545SOL    HW119094   1.485   2.260  12.377  2.2661  0.9674  3.8260
 2545SOL    HW219095   1.345   2.265  12.346  0.3044  2.5383  2.3189
 2546SOL     OW19096   4.575   2.643  14.148  0.4040  0.0252 -0.3207
 2546SOL    HW119097   4.498   2.615  14.098 -0.7971 -1.2685  2.2545
 2546SOL    HW219098   4.616   2.560  14.172  0.1360  0.6309  2.2226
 2547SOL     OW19099   2.422   1.826   2.072  0.2769  0.4089 -0.4326
 2547SOL    HW119100   2.351   1.829   2.007 -0.0923  1.3960  0.0239
 2547SOL    HW219101   2.492   1.880   2.035  0.4748  1.3470  1.3554
 2548SOL     OW19102   0.220   3.533  14.135  0.6828  0.5770 -0.2551
 2548SOL    HW119103   0.265   3.611  14.169  1.0903  0.2396 -0.0249
 2548SOL    HW219104   0.150   3.579  14.089  0.3080 -1.4475 -1.6946
 2549SOL     OW19105   0.820   1.296   4.621  0.1849  0.1836 -0.0178
 2549SOL    HW119106   0.854   1.267   4.536 -1.0286 -0.9829 -0.1042
 2549SOL    HW219107   0.897   1.325   4.669 -0.8050 -0.1527  1.7719
 2550SOL     OW19108   0.196   3.303  14.032 -0.5500  0.2388 -0.7338
 2550SOL    HW119109   0.215   3.392  14.064  0.5922  0.0986 -1.0316
 2550SOL    HW219110   0.194   3.253  14.113 -0.0470  0.9254 -0.2945
 2551SOL     OW19111   4.443   4.465   2.818  0.1072 -0.2477 -0.2252
 2551SOL    HW119112   4.366   4.514   2.845  0.5122  1.0857 -1.5351
 2551SOL    HW219113   4.467   4.501   2.733 -0.1457 -0.1293 -0.2449
 2552SOL     OW19114   1.758   2.032   1.990 -0.2562 -0.1512 -0.0823
 2552SOL    HW119115   1.667   2.054   2.005 -0.3540 -0.0575 -0.8007
 2552SOL    HW219116   1.792   2.060   2.075  2.0286 -0.8146 -0.7604
 2553SOL     OW19117   0.823   4.227   8.758  0.1831  0.3234 -0.3871
 2553SOL    HW119118   0.813   4.209   8.664 -0.0743  0.3468 -0.3651
 2553SOL    HW219119   0.801   4.139   8.789  0.6494  0.2785 -0.1918
 2554SOL     OW19120   4.269   2.012   7.186  0.0787 -0.2890 -0.1618
 2554SOL    HW119121   4.197   1.948   7.179 -0.7762  0.6579 -0.0553
 2554SOL    HW219122   4.245   2.090   7.136 -0.6321 -2.3111 -2.9420
 2555SOL     OW19123   1.194   0.997   7.364 -0.9501 -0.0177 -0.7528
 2555SOL    HW119124   1.233   0.911   7.354  0.2360  0.2933  1.2128
 2555SOL    HW219125   1.103   0.974   7.348 -0.8586 -0.2136 -0.9813
 2556SOL     OW19126   3.664   4.167   1.018  0.0623  0.0575 -0.5000
 2556SOL    HW119127   3.630   4.219   0.945 -0.9161  2.1377  1.4536
 2556SOL    HW219128   3.603   4.192   1.087  1.1668  0.8637  0.1760
 2557SOL     OW19129   0.417   0.213  13.329 -0.0740 -0.2835 -0.7063
 2557SOL    HW119130   0.322   0.215  13.314 -0.1521  1.7166  0.0918
 2557SOL    HW219131   0.426   0.171  13.415  0.5553 -1.1219 -1.1811
 2558SOL     OW19132   0.031   1.599   5.466 -0.2657  0.4165 -0.0781
 2558SOL    HW119133   0.085   1.641   5.399 -2.4564  2.1110 -0.8013
 2558SOL    HW219134   0.080   1.519   5.485  1.2703  2.0534  2.7664
 2559SOL     OW19135   2.018   0.320   2.618  0.0374  0.1766 -0.0762
 2559SOL    HW119136   2.016   0.382   2.546 -2.0922 -0.3332 -0.4431
 2559SOL    HW219137   2.003   0.381   2.690 -1.6361  1.7067 -1.7443
 2560SOL     OW19138   0.408   4.004   2.795  0.4873  0.2510 -0.4972
 2560SOL    HW119139   0.398   4.023   2.702  0.1309 -1.0348 -0.7248
 2560SOL    HW219140   0.386   3.912   2.806  1.0520 -0.0457 -1.9694
 2561SOL     OW19141   2.917   1.603   6.818  0.2387  0.5392 -0.4961
 2561SOL    HW119142   2.849   1.540   6.843  1.1023 -0.6164 -1.0729
 2561SOL    HW219143   2.884   1.659   6.748 -0.9959  0.0112 -0.3437
 2562SOL     OW19144   3.461   3.290   8.191  0.1899  0.3090 -0.4551
 2562SOL    HW119145   3.401   3.341   8.136  0.1400 -2.7428 -3.1876
 2562SOL    HW219146   3.532   3.353   8.205  1.5175 -1.6939  1.7605
 2563SOL     OW19147   1.100   1.877   6.887 -0.1559 -0.7107  0.2143
 2563SOL    HW119148   1.163   1.941   6.855 -1.3707  0.2117 -0.3318
 2563SOL    HW219149   1.082   1.921   6.970 -1.9273 -0.2475 -0.4116
 2564SOL     OW19150   4.550   1.035  14.866 -0.1052  0.1204  0.1841
 2564SOL    HW119151   4.610   1.055  14.794  0.2173 -0.2578  0.3477
 2564SOL    HW219152   4.597   1.055  14.946 -1.0538  0.4830  0.6529
 2565SOL     OW19153   1.646   3.202  10.219 -0.1203  0.0489 -0.3001
 2565SOL    HW119154   1.710   3.153  10.271  0.5455  2.4113  1.1202
 2565SOL    HW219155   1.689   3.240  10.143 -1.3044 -1.1691 -1.5689
 2566SOL     OW19156   0.925   0.297   1.238  0.2353 -0.1524 -0.1479
 2566SOL    HW119157   0.912   0.298   1.143 -2.0950  1.2275  0.1671
 2566SOL    HW219158   0.845   0.252   1.264 -1.1795  2.0491 -0.6358
 2567SOL     OW19159   0.347   1.149   5.749  0.2743 -0.3878  0.3624
 2567SOL    HW119160   0.390   1.092   5.812  2.8928  1.1249 -0.0653
 2567SOL    HW219161   0.277   1.194   5.797  0.9033  1.6835 -0.6465
 2568SOL     OW19162   3.452   1.304   4.589  0.0776 -0.3285 -0.0031
 2568SOL    HW119163   3.365   1.272   4.565  0.3303  0.4886 -1.9906
 2568SOL    HW219164   3.436   1.347   4.673 -0.2106 -0.7232  0.1422
 2569SOL     OW19165   2.263   1.577   7.920  0.7952 -0.3929  0.1088
 2569SOL    HW119166   2.266   1.664   7.960 -1.0750 -0.4914  0.4438
 2569SOL    HW219167   2.277   1.517   7.993  0.6857  0.9055  1.1905
 2570SOL     OW19168   2.047   2.063   2.875  0.0352 -0.2347 -0.7194
 2570SOL    HW119169   2.062   2.138   2.933  3.5464 -1.1887 -0.3879
 2570SOL    HW219170   2.032   1.995   2.940 -2.4287  0.0644 -0.9832
 2571SOL     OW19171   3.519   2.671  15.742 -0.4358 -0.2333  0.0155
 2571SOL    HW119172   3.452   2.678  15.674 -0.3471 -0.5872 -0.1065
 2571SOL    HW219173   3.492   2.745  15.796 -0.5962  0.3477 -0.8770
 2572SOL     OW19174   3.834   0.202   3.127 -0.3409  0.2621  0.2449
 2572SOL    HW119175   3.744   0.217   3.155 -0.1647  0.1871  0.8400
 2572SOL    HW219176   3.850   0.286   3.084 -0.6051  1.2710  2.1436
 2573SOL     OW19177   1.475   1.242   6.086 -0.0689  0.4128  0.3450
 2573SOL    HW119178   1.542   1.293   6.132  0.6528  0.4257 -0.7156
 2573SOL    HW219179   1.508   1.254   5.997 -1.8634  1.0087 -0.2434
 2574SOL     OW19180   0.150   4.283   5.510 -0.0714  0.2790  0.1440
 2574SOL    HW119181   0.177   4.372   5.535  2.1090 -0.2131 -0.5024
 2574SOL    HW219182   0.070   4.298   5.460  0.5955 -1.5049 -1.4086
 2575SOL     OW19183   3.632   2.557  13.685 -0.2104  0.1175  0.2651
 2575SOL    HW119184   3.631   2.621  13.613  0.8491 -2.3855 -1.9761
 2575SOL    HW219185   3.645   2.606  13.766  0.0983  0.2135  0.1556
 2576SOL     OW19186   4.102   2.586   9.250 -0.1043 -0.1339  0.0632
 2576SOL    HW119187   4.184   2.586   9.200  0.2473  1.4370  0.6631
 2576SOL    HW219188   4.055   2.659   9.211 -0.4056  1.2891  3.1550
 2577SOL     OW19189   3.338   0.685   8.217 -0.3816 -0.4005  0.7246
 2577SOL    HW119190   3.309   0.629   8.289 -0.3087 -1.3676 -0.0112
 2577SOL    HW219191   3.307   0.766   8.259  1.1576 -0.1465  1.3555
 2578SOL     OW19192   4.471   1.132   7.394 -0.3619 -0.1607 -0.2270
 2578SOL    HW119193   4.431   1.158   7.477 -1.2779 -1.7888 -0.1624
 2578SOL    HW219194   4.516   1.053   7.424 -0.9868 -1.5606 -2.9873
 2579SOL     OW19195   0.902   0.610   3.024 -0.0437 -0.2123 -0.4180
 2579SOL    HW119196   0.924   0.624   2.932 -1.3263 -3.3175 -1.2127
 2579SOL    HW219197   0.938   0.523   3.041 -1.8794 -0.8468  0.1652
 2580SOL     OW19198   4.024   1.434  15.551 -0.1637 -0.3116  0.2468
 2580SOL    HW119199   3.943   1.466  15.512 -0.8562 -0.5406  1.5157
 2580SOL    HW219200   4.086   1.502  15.523 -1.3445  0.4206 -0.6086
 2581SOL     OW19201   2.567   3.618   2.023  0.2345  0.6615 -0.1920
 2581SOL    HW119202   2.598   3.668   1.947 -1.7569 -0.1738 -1.5596
 2581SOL    HW219203   2.635   3.637   2.087 -1.4213  3.4081  0.6934
 2582SOL     OW19204   0.107   3.558  12.005 -0.3590 -0.1711 -0.2342
 2582SOL    HW119205   0.124   3.650  11.982  0.6932 -0.8138 -2.0103
 2582SOL    HW219206   0.201   3.538  12.008 -0.5604 -1.4798 -2.7435
 2583SOL     OW19207   0.462   2.560   1.713 -0.3762  0.1831 -0.1064
 2583SOL    HW119208   0.468   2.595   1.624 -0.4896  1.1882  0.2717
 2583SOL    HW219209   0.498   2.631   1.766 -0.2686  0.2354 -0.2529
 2584SOL     OW19210   2.163   1.324   5.256 -0.2653 -0.2587 -0.3466
 2584SOL    HW119211   2.104   1.357   5.188 -0.7593 -1.7315 -0.6458
 2584SOL    HW219212   2.116   1.357   5.333  1.9159 -0.5513  1.0938
 2585SOL     OW19213   2.358   3.210   4.609 -0.0317 -0.4321  0.4011
 2585SOL    HW119214   2.288   3.184   4.549 -0.3688  1.5360 -0.0703
 2585SOL    HW219215   2.396   3.123   4.620  0.9094 -0.0543  0.2203
 2586SOL     OW19216   3.396   0.618  12.577 -0.2660  0.5483 -0.1585
 2586SOL    HW119217   3.365   0.705  12.600 -2.1915 -0.3749  0.8390
 2586SOL    HW219218   3.485   0.618  12.611  0.6129 -1.4008 -2.5059
 2587SOL     OW19219   2.614   0.839   1.737  0.4969 -0.5971 -0.4821
 2587SOL    HW119220   2.675   0.911   1.725  0.6424 -0.2683  2.2854
 2587SOL    HW219221   2.642   0.793   1.658  1.1371  1.4361 -1.4115
 2588SOL     OW19222   4.654   1.246  13.405 -0.1149 -0.1635 -0.3061
 2588SOL    HW119223   0.001   1.196  13.365  1.7563  2.5226 -0.2626
 2588SOL    HW219224   4.688   1.293  13.481  3.3260 -1.5915 -0.9295
 2589SOL     OW19225   0.887   3.591   3.033  0.2364 -0.4604  0.3207
 2589SOL    HW119226   0.838   3.519   3.072 -0.2507 -0.5238 -0.3986
 2589SOL    HW219227   0.972   3.547   3.038 -0.3316 -1.7734 -1.6726
 2590SOL     OW19228   1.551   3.380   2.245  0.1663  0.2313 -0.1668
 2590SOL    HW119229   1.598   3.337   2.173  0.4015 -1.3653  0.9370
 2590SOL    HW219230   1.552   3.470   2.214  0.2097 -0.3107 -1.7546
 2591SOL     OW19231   1.227   3.286   4.930  0.0388 -0.6980  0.6322
 2591SOL    HW119232   1.306   3.322   4.891 -0.0915 -1.4510 -0.3315
 2591SOL    HW219233   1.200   3.214   4.873  0.6624 -0.5386  0.1474
 2592SOL     OW19234   4.340   2.406  13.037  0.0090  0.1222 -0.0518
 2592SOL    HW119235   4.296   2.475  13.086  2.5234  1.2515  0.5882
 2592SOL    HW219236   4.427   2.412  13.076  0.0708  0.6163 -0.2718
 2593SOL     OW19237   0.124   3.891  11.254  0.3725 -0.5376  0.1217
 2593SOL    HW119238   0.150   3.944  11.330  1.1315  1.8493 -1.8024
 2593SOL    HW219239   0.097   3.808  11.293  3.7704 -1.0821  1.3793
 2594SOL     OW19240   1.213   3.010   2.552  0.1466  0.0199 -0.3309
 2594SOL    HW119241   1.300   2.998   2.590  0.0627 -0.1868 -0.2050
 2594SOL    HW219242   1.181   3.079   2.610  0.4017 -0.8448  0.8293
 2595SOL     OW19243   4.373   1.863   9.095 -0.2964 -0.2888  0.2182
 2595SOL    HW119244   4.457   1.900   9.067 -0.8310  0.6200 -0.1853
 2595SOL    HW219245   4.388   1.772   9.121 -0.6054 -0.8699 -1.6844
 2596SOL     OW19246   3.282   1.931   6.595  0.2848 -0.0555  0.1215
 2596SOL    HW119247   3.236   2.013   6.577 -2.2585 -1.5503 -0.1953
 2596SOL    HW219248   3.216   1.885   6.649  0.1008 -0.6132 -0.5773
 2597SOL     OW19249   4.066   0.010   6.411 -0.3994 -0.1158  0.1584
 2597SOL    HW119250   4.041   0.100   6.433  1.5660  0.8717 -1.6654
 2597SOL    HW219251   4.140   4.722   6.469 -0.2738  1.8907  0.4690
 2598SOL     OW19252   0.663   2.498  11.081  0.2699 -0.6606 -0.1295
 2598SOL    HW119253   0.714   2.577  11.062  1.4111 -2.1750 -3.4349
 2598SOL    HW219254   0.699   2.480  11.167  0.2229  0.4697  0.1339
 2599SOL     OW19255   1.452   0.471   8.947 -0.5835 -0.7178  0.2618
 2599SOL    HW119256   1.525   0.481   8.886 -0.4760  1.1710  0.6962
 2599SOL    HW219257   1.396   0.415   8.893  0.7446 -0.6984 -1.1448
 2600SOL     OW19258   4.267   0.717   1.920 -0.2279 -0.8038 -0.1964
 2600SOL    HW119259   4.255   0.710   1.825 -0.2797  0.3056 -0.2709
 2600SOL    HW219260   4.229   0.804   1.930  1.3930 -0.0044 -1.0001
 2601SOL     OW19261   0.259   1.695   2.132  0.1366 -0.7506 -0.7136
 2601SOL    HW119262   0.206   1.723   2.207 -3.4805 -0.1952 -3.4650
 2601SOL    HW219263   0.258   1.771   2.074 -0.7312  0.0167  0.3019
 2602SOL     OW19264   1.174   3.483   5.687  0.9088 -0.1915 -0.3666
 2602SOL    HW119265   1.168   3.388   5.697  1.0149 -0.0751  0.7322
 2602SOL    HW219266   1.140   3.522   5.767 -0.1161  0.1482 -0.9687
 2603SOL     OW19267   0.362   4.610  16.043 -0.0174  0.6283 -0.2632
 2603SOL    HW119268   0.428   4.622  16.111  0.9121  1.3919 -1.3181
 2603SOL    HW219269   0.387   4.671  15.974  0.9098 -1.9433 -2.1846
 2604SOL     OW19270   0.021   0.341   9.411  0.3222 -0.1798 -0.2233
 2604SOL    HW119271   0.002   0.353   9.504 -1.8670 -1.6703 -0.4873
 2604SOL    HW219272   0.091   0.276   9.405 -0.7131 -1.1362 -1.7282
 2605SOL     OW19273   0.642   1.727   9.198 -0.9926  0.1763 -0.3103
 2605SOL    HW119274   0.683   1.756   9.116  0.5128  0.5803  0.5854
 2605SOL    HW219275   0.696   1.654   9.228 -0.8326 -0.2353 -1.5792
 2606SOL     OW19276   4.565   2.266  14.321  0.9571  0.1758  0.0265
 2606SOL    HW119277   4.613   2.343  14.352  1.4153 -0.2271  0.3159
 2606SOL    HW219278   4.541   2.296  14.234  0.1848  1.6363  0.7359
 2607SOL     OW19279   3.366   0.001   0.722 -0.1383  0.3247  0.3757
 2607SOL    HW119280   3.374   0.087   0.680  0.8572 -0.5951 -1.3442
 2607SOL    HW219281   3.416   0.022   0.801 -1.4413 -0.1402  1.3078
 2608SOL     OW19282   4.382   0.897   9.794 -0.2259  0.3938 -0.2426
 2608SOL    HW119283   4.459   0.949   9.769 -0.4671  1.7134  1.6766
 2608SOL    HW219284   4.319   0.931   9.732 -0.1172  0.5578 -0.2637
 2609SOL     OW19285   2.004   2.649   7.215 -0.0005  0.3998  0.1646
 2609SOL    HW119286   2.063   2.595   7.267 -0.9231  0.4338  1.2521
 2609SOL    HW219287   2.042   2.736   7.225 -0.1293  0.2737  1.7821
 2610SOL     OW19288   0.365   2.858   6.371  0.5131  0.1492 -0.1591
 2610SOL    HW119289   0.399   2.840   6.284 -0.1838  0.6028 -0.5267
 2610SOL    HW219290   0.335   2.773   6.403  0.4142  0.4989  0.6948
 2611SOL     OW19291   4.308   0.939   8.621 -0.2639 -0.0881  0.3615
 2611SOL    HW119292   4.370   0.903   8.684 -0.4857 -1.9453 -0.4839
 2611SOL    HW219293   4.251   0.863   8.612 -0.1030 -0.3741  1.7021
 2612SOL     OW19294   4.395   3.365   5.680  0.1175 -0.0526  0.4060
 2612SOL    HW119295   4.466   3.313   5.643  0.8803  1.5165 -0.3396
 2612SOL    HW219296   4.437   3.420   5.746  0.0723 -0.3171  0.6566
 2613SOL     OW19297   1.907   0.378  10.491  0.0864 -0.0798 -0.4475
 2613SOL    HW119298   1.832   0.360  10.433 -1.4645 -1.2745  1.9099
 2613SOL    HW219299   1.972   0.414  10.431 -0.9352  2.5050  0.0240
 2614SOL     OW19300   0.737   2.802  14.279  0.8587  0.3715  0.1483
 2614SOL    HW119301   0.808   2.748  14.244  0.9134  0.9322 -0.5940
 2614SOL    HW219302   0.663   2.811  14.220  1.6588  1.2120 -0.7363
 2615SOL     OW19303   4.159   1.601   1.969  0.1861 -0.8674  0.1498
 2615SOL    HW119304   4.179   1.692   1.948  1.3291 -1.2330 -0.3520
 2615SOL    HW219305   4.066   1.599   1.946  0.0417  0.7263  0.6070
 2616SOL     OW19306   0.131   0.341   1.069 -0.4749 -0.9932 -0.0016
 2616SOL    HW119307   0.154   0.280   1.000 -2.5801  1.9748 -3.3364
 2616SOL    HW219308   0.055   0.298   1.108 -1.7461  1.0213 -0.2661
 2617SOL     OW19309   1.384   4.294   2.909  0.2931  0.3255  0.8066
 2617SOL    HW119310   1.367   4.353   2.835  1.0047 -1.4866 -0.7988
 2617SOL    HW219311   1.358   4.211   2.870 -2.6630  2.2824 -1.3508
 2618SOL     OW19312   1.066   0.089  12.587  0.2346 -0.0951  0.2364
 2618SOL    HW119313   0.991   0.147  12.576  0.4715  0.0591 -0.6157
 2618SOL    HW219314   1.129   0.145  12.632 -1.1616  2.3064 -0.8154
 2619SOL     OW19315   3.847   1.144   5.557  0.1842  0.1435 -0.5312
 2619SOL    HW119316   3.931   1.186   5.574 -0.4261  0.1261  2.4805
 2619SOL    HW219317   3.798   1.226   5.546 -0.4129 -0.1543 -0.0841
 2620SOL     OW19318   2.144   1.529   9.306 -0.0481  0.6309  0.0307
 2620SOL    HW119319   2.225   1.565   9.342  0.5738  0.7110 -1.4626
 2620SOL    HW219320   2.100   1.608   9.273 -1.3962 -0.2826 -0.3684
 2621SOL     OW19321   4.478   0.046   3.178  0.0482 -0.0948 -0.0382
 2621SOL    HW119322   4.561   0.092   3.165  0.0124 -0.1730 -0.5437
 2621SOL    HW219323   4.419   0.074   3.108 -0.4979 -0.5018  0.2625
 2622SOL     OW19324   0.907   4.253   3.435 -0.2473 -0.2220 -0.4857
 2622SOL    HW119325   0.990   4.235   3.391 -0.9065 -2.0283 -1.0165
 2622SOL    HW219326   0.851   4.197   3.380 -0.9971 -1.1766  1.2636
 2623SOL     OW19327   0.949   4.154   9.958 -0.3256 -0.6453 -0.0940
 2623SOL    HW119328   1.026   4.208   9.974 -0.4887 -0.4380 -0.0131
 2623SOL    HW219329   0.951   4.110  10.043 -0.6310  0.2772  0.3911
 2624SOL     OW19330   1.658   0.698  11.909  0.0026 -0.0261 -0.1396
 2624SOL    HW119331   1.575   0.660  11.940  1.5164 -2.4558  0.9233
 2624SOL    HW219332   1.628   0.752  11.836  0.3047  1.0233  0.5070
 2625SOL     OW19333   0.323   2.393   8.179 -0.1780 -0.0449 -0.3201
 2625SOL    HW119334   0.340   2.463   8.243 -2.3995  1.0149 -0.8873
 2625SOL    HW219335   0.384   2.407   8.107 -0.1003  2.4038  0.2174
 2626SOL     OW19336   4.442   0.683   9.040 -0.2084  0.3536  0.2955
 2626SOL    HW119337   4.380   0.611   9.030 -1.4268  1.2067  1.5624
 2626SOL    HW219338   4.476   0.667   9.128  0.1214 -1.4184 -0.1743
 2627SOL     OW19339   0.592   3.981   2.972 -0.0661 -0.0860 -0.6942
 2627SOL    HW119340   0.511   4.004   2.926 -0.1607  1.9247  0.4682
 2627SOL    HW219341   0.567   3.894   3.003 -0.5755  0.4187  0.3308
 2628SOL     OW19342   3.999   1.929   2.179 -0.7267 -0.4084 -0.2103
 2628SOL    HW119343   4.034   2.017   2.188 -0.6210 -0.6391  1.5110
 2628SOL    HW219344   4.060   1.892   2.115 -0.7991 -1.5727  0.3829
 2629SOL     OW19345   4.560   0.693  16.482 -0.3918 -0.2214  0.3101
 2629SOL    HW119346   4.560   0.782  16.515  0.8127  0.4768 -1.5675
 2629SOL    HW219347   4.502   0.704  16.407  1.2566 -1.6933 -1.1952
 2630SOL     OW19348   0.656   3.196   4.773 -0.3805  0.7745  0.0689
 2630SOL    HW119349   0.692   3.229   4.691 -1.0760 -0.9807 -0.9492
 2630SOL    HW219350   0.638   3.274   4.825  0.2781  1.2220 -0.3733
 2631SOL     OW19351   1.622   0.141  10.460 -0.1968 -0.4282 -0.6508
 2631SOL    HW119352   1.694   0.133  10.522  1.3598  2.2510 -2.1081
 2631SOL    HW219353   1.562   0.078  10.500  2.5418 -3.3297 -1.1619
 2632SOL     OW19354   1.195   2.624   3.633  0.0814  0.3408 -0.1012
 2632SOL    HW119355   1.193   2.712   3.669 -2.0062  0.4285 -0.3825
 2632SOL    HW219356   1.102   2.601   3.635 -0.4009  2.3947  0.7400
 2633SOL     OW19357   4.253   3.217   8.271 -0.2360  0.2871  0.0472
 2633SOL    HW119358   4.262   3.260   8.357  2.2992 -1.0667  0.4627
 2633SOL    HW219359   4.314   3.143   8.271 -1.6281 -0.8520 -0.5423
 2634SOL     OW19360   2.912   2.473   2.426 -0.3944  0.0535 -0.5849
 2634SOL    HW119361   2.917   2.496   2.333  0.5070  1.5909 -0.1627
 2634SOL    HW219362   2.883   2.382   2.427 -2.1245  0.6190  0.0870
 2635SOL     OW19363   1.979   3.600   2.955  0.7009 -0.6012 -0.3158
 2635SOL    HW119364   1.898   3.620   2.908  0.4113  0.0338  0.4515
 2635SOL    HW219365   2.019   3.686   2.945 -2.1748  0.7583 -0.1270
 2636SOL     OW19366   3.846   1.130   3.833  0.6735 -0.0123 -0.2681
 2636SOL    HW119367   3.891   1.046   3.843  0.6525  0.1917  1.6369
 2636SOL    HW219368   3.760   1.103   3.801  0.7321 -1.4202  0.7438
 2637SOL     OW19369   3.850   2.137   4.778 -0.4657  0.2369 -0.2342
 2637SOL    HW119370   3.838   2.229   4.755 -1.2034  0.0348 -0.6770
 2637SOL    HW219371   3.818   2.107   4.693 -1.3169  2.6031 -0.7547
 2638SOL     OW19372   2.811   1.508  17.497 -0.1166 -0.7323 -0.0363
 2638SOL    HW119373   2.811   1.413  17.509 -1.9282 -0.8655 -1.2265
 2638SOL    HW219374   2.867   1.521  17.420  0.4125 -0.8610  0.3261
 2639SOL     OW19375   1.677   1.013   4.992  0.0008 -1.1629  0.4911
 2639SOL    HW119376   1.657   1.074   5.063  2.3708  0.1307  0.0692
 2639SOL    HW219377   1.720   1.067   4.926 -0.9545 -0.2793  0.6015
 2640SOL     OW19378   4.214   3.877   4.492  0.4838  0.3676 -0.0389
 2640SOL    HW119379   4.121   3.869   4.512  1.1018 -1.1782  2.2301
 2640SOL    HW219380   4.210   3.913   4.404  1.0783  2.9991  1.0238
 2641SOL     OW19381   2.459   3.797   7.319 -0.1135  0.0939 -0.3029
 2641SOL    HW119382   2.507   3.877   7.338 -1.2557  0.2394  2.0116
 2641SOL    HW219383   2.414   3.820   7.238  1.1346  1.9792 -0.4476
 2642SOL     OW19384   4.478   2.065   4.276  0.0592  0.1039 -0.0901
 2642SOL    HW119385   4.429   2.110   4.346 -2.5740  1.5784 -2.8987
 2642SOL    HW219386   4.439   2.098   4.196  0.5735  1.7113  0.3110
 2643SOL     OW19387   1.355   4.426   6.398  0.5898 -0.2042 -0.7556
 2643SOL    HW119388   1.446   4.434   6.426 -0.3434  0.3386  2.1277
 2643SOL    HW219389   1.359   4.334   6.370  0.6480 -0.1718 -0.8515
 2644SOL     OW19390   0.655   1.821   4.837  0.3498 -0.1365 -0.3721
 2644SOL    HW119391   0.714   1.855   4.770 -1.2944  3.1335 -0.1533
 2644SOL    HW219392   0.595   1.895   4.848  0.6700  0.1527 -0.5707
 2645SOL     OW19393   4.099   4.552   4.717 -0.2719 -0.0671  0.3104
 2645SOL    HW119394   4.145   4.494   4.655 -0.1734  0.6622 -0.2928
 2645SOL    HW219395   4.008   4.523   4.710 -0.4121  0.4090  0.1841
 2646SOL     OW19396   4.409   1.532   0.166  0.3893  0.3481  0.4332
 2646SOL    HW119397   4.467   1.609   0.164  0.5914  0.1477 -1.2824
 2646SOL    HW219398   4.347   1.547   0.237  0.4114 -0.2555  0.5843
 2647SOL     OW19399   4.324   0.016   4.929  0.3124 -0.1457 -0.0038
 2647SOL    HW119400   4.348   0.099   4.889 -0.5867 -0.5285 -1.3591
 2647SOL    HW219401   4.314   0.035   5.022 -2.5436 -0.7957 -0.1606
 2648SOL     OW19402   3.138   3.550   7.326  0.6158 -0.0733  0.4456
 2648SOL    HW119403   3.172   3.462   7.309 -0.4549 -0.7390  1.7945
 2648SOL    HW219404   3.053   3.533   7.367  0.2537  0.5964 -0.0264
 2649SOL     OW19405   4.445   1.608   8.014 -0.9622 -0.0187 -0.2064
 2649SOL    HW119406   4.477   1.672   8.077 -2.1533 -0.1815  0.5656
 2649SOL    HW219407   4.496   1.626   7.935 -1.6272  0.9100 -0.4221
 2650SOL     OW19408   2.003   0.265   8.770  0.9101 -0.1975  0.4229
 2650SOL    HW119409   2.017   0.356   8.744  1.0796 -0.2581  0.2990
 2650SOL    HW219410   1.958   0.279   8.853 -1.0525 -1.6862 -0.3954
 2651SOL     OW19411   1.725   4.716   1.530 -0.1404  0.2246  0.0073
 2651SOL    HW119412   1.749   0.069   1.580  0.6111  0.6447 -1.0243
 2651SOL    HW219413   1.631   4.718   1.518 -0.4341 -3.9894  1.5567
 2652SOL     OW19414   1.606   1.093   2.547  0.9356 -0.0202 -0.0988
 2652SOL    HW119415   1.523   1.077   2.592  1.7182 -1.4159  0.8438
 2652SOL    HW219416   1.568   1.120   2.463  1.1502 -1.2479 -0.5873
 2653SOL     OW19417   4.200   4.323   6.317  0.1611 -0.2960  0.8255
 2653SOL    HW119418   4.212   4.344   6.224  0.0076 -2.5151  0.3028
 2653SOL    HW219419   4.213   4.228   6.316  0.4324 -0.2520 -0.0004
 2654SOL     OW19420   0.502   0.056   5.220 -0.0881 -0.3022 -0.1304
 2654SOL    HW119421   0.593   0.061   5.248 -0.5071 -0.9257  1.2992
 2654SOL    HW219422   0.454   0.004   5.284 -1.1003 -0.4733 -1.0227
 2655SOL     OW19423   2.960   3.706   4.596 -0.4226 -0.2920 -0.7264
 2655SOL    HW119424   2.868   3.721   4.616  0.0229  0.6737  0.5385
 2655SOL    HW219425   3.009   3.737   4.672 -0.8805 -0.0270 -0.5425
 2656SOL     OW19426   0.444   3.340   5.525  0.0115  0.2756 -0.3583
 2656SOL    HW119427   0.530   3.308   5.497  0.6284  0.0087  1.7904
 2656SOL    HW219428   0.388   3.266   5.505  2.1564 -0.9923 -1.6883
 2657SOL     OW19429   3.550   0.279   5.653 -0.1130 -1.2255 -0.2164
 2657SOL    HW119430   3.496   0.341   5.702 -0.6888 -0.5868 -1.6639
 2657SOL    HW219431   3.564   0.326   5.571 -0.2696 -0.9902 -0.1092
 2658SOL     OW19432   1.152   2.266   7.474  0.0550  0.5185 -0.1033
 2658SOL    HW119433   1.120   2.351   7.503 -1.3344 -0.1830  0.3943
 2658SOL    HW219434   1.187   2.289   7.388  0.5436 -1.1400 -0.3601
 2659SOL     OW19435   3.903   2.678   3.450  0.0953  0.4680 -0.0580
 2659SOL    HW119436   3.990   2.717   3.439 -0.4648  1.5917 -0.4286
 2659SOL    HW219437   3.876   2.673   3.359  0.7404 -0.1426 -0.2201
 2660SOL     OW19438   4.500   3.006   1.387  0.3542  0.2595  0.1019
 2660SOL    HW119439   4.423   2.954   1.364 -0.4587  1.1630  0.7475
 2660SOL    HW219440   4.524   3.033   1.298  1.6953  0.4855  0.5331
 2661SOL     OW19441   3.543   0.962   4.544  0.6526 -1.0653 -0.7646
 2661SOL    HW119442   3.500   0.881   4.570 -0.4989 -0.8374 -2.0145
 2661SOL    HW219443   3.483   1.010   4.488  0.5196  1.3242  1.4029
 2662SOL     OW19444   3.067   4.649   5.483 -0.8219  0.1937 -0.0961
 2662SOL    HW119445   3.021   4.604   5.554  0.8477 -0.2071  0.7197
 2662SOL    HW219446   3.006   4.656   5.409  1.2115  0.1707 -1.7794
 2663SOL     OW19447   4.420   1.825   5.146 -0.0752 -0.6704 -0.3243
 2663SOL    HW119448   4.503   1.853   5.185  0.1233  0.6832 -1.7231
 2663SOL    HW219449   4.433   1.730   5.146  3.1212 -0.2426 -0.2957
 2664SOL     OW19450   1.890   4.209  12.083 -0.5596  0.5789 -0.3595
 2664SOL    HW119451   1.840   4.149  12.028  2.3393 -3.7708  1.7235
 2664SOL    HW219452   1.936   4.269  12.025 -0.0080 -1.7291 -2.2851
 2665SOL     OW19453   3.224   0.828   8.707 -0.6252  0.3322 -0.5855
 2665SOL    HW119454   3.141   0.867   8.733 -1.1439 -1.9882  1.1933
 2665SOL    HW219455   3.215   0.737   8.733 -1.9345  1.0311  1.3612
 2666SOL     OW19456   1.081   0.382   4.181 -0.3389  0.3536  0.2151
 2666SOL    HW119457   1.141   0.410   4.112 -2.4397 -2.3462 -2.6810
 2666SOL    HW219458   1.114   0.293   4.192  2.4083  1.1302 -1.7399
 2667SOL     OW19459   4.017   1.595  17.658  0.3472  0.3260  0.3146
 2667SOL    HW119460   4.099   1.642  17.643  0.3368  0.2275 -0.0608
 2667SOL    HW219461   4.003   1.615   0.048 -1.2742  0.3049  0.0759
 2668SOL     OW19462   3.159   2.290  15.826  0.4642 -0.3468  0.6468
 2668SOL    HW119463   3.158   2.336  15.910 -2.6258  2.4654 -0.9147
 2668SOL    HW219464   3.131   2.356  15.763  0.6231 -0.8071  0.1000
 2669SOL     OW19465   3.210   0.759  16.458  0.3986  0.6289 -0.3947
 2669SOL    HW119466   3.157   0.680  16.463  2.6096 -0.9862 -1.9412
 2669SOL    HW219467   3.282   0.723  16.405 -0.3064 -1.1870 -0.1172
 2670SOL     OW19468   4.291   0.805  15.199  0.3699  0.0916  0.1492
 2670SOL    HW119469   4.292   0.797  15.104 -1.3305 -0.0756  0.1394
 2670SOL    HW219470   4.352   0.735  15.222 -0.1680 -0.6755 -0.7710
 2671SOL     OW19471   3.581   2.756   6.156 -0.4290 -0.4479 -0.4256
 2671SOL    HW119472   3.575   2.728   6.248  0.1261  0.7544 -0.0205
 2671SOL    HW219473   3.604   2.849   6.163 -1.9181 -0.2126  1.5195
 2672SOL     OW19474   2.539   0.742   7.243 -0.4519 -0.7569 -0.2299
 2672SOL    HW119475   2.523   0.824   7.196  1.8572  0.6999  1.5431
 2672SOL    HW219476   2.625   0.718   7.209  0.1182 -0.4631  1.0203
 2673SOL     OW19477   4.442   2.720   6.756  0.2691 -0.0790 -0.3997
 2673SOL    HW119478   4.496   2.798   6.770  0.2417  0.2076 -1.9254
 2673SOL    HW219479   4.485   2.670   6.686  0.8096 -0.0541 -0.0888
 2674SOL     OW19480   0.406   0.951   7.653 -0.1349 -0.1618  0.3129
 2674SOL    HW119481   0.396   1.002   7.733 -1.0147 -1.3517  0.9557
 2674SOL    HW219482   0.454   0.873   7.681 -0.3245 -0.2304  0.4474
 2675SOL     OW19483   0.014   2.619  13.302  0.7153  0.4882  0.5576
 2675SOL    HW119484   4.702   2.703  13.277  0.6147  0.2050 -0.2422
 2675SOL    HW219485   0.070   2.655  13.371 -1.7850  0.2797  2.7059
 2676SOL     OW19486   0.757   3.004   1.902 -0.1032  0.3446  0.1169
 2676SOL    HW119487   0.838   3.028   1.947 -0.9018  0.7756  1.3153
 2676SOL    HW219488   0.780   2.932   1.842  0.4526  1.4588 -0.9981
 2677SOL     OW19489   2.339   3.149   5.333 -0.1068 -0.3927  0.2732
 2677SOL    HW119490   2.258   3.142   5.383 -0.0547  0.3361  0.4574
 2677SOL    HW219491   2.336   3.242   5.311 -0.8122 -0.2882  0.8169
 2678SOL     OW19492   4.143   0.678   9.183 -0.0329  0.0848 -0.3565
 2678SOL    HW119493   4.212   0.742   9.169  0.1359  0.4416  2.2000
 2678SOL    HW219494   4.064   0.731   9.196 -0.6605 -0.7861 -0.6241
 2679SOL     OW19495   1.324   0.423   8.317 -0.3235 -0.0825  0.6039
 2679SOL    HW119496   1.338   0.513   8.286  0.2892 -0.3298  0.1516
 2679SOL    HW219497   1.405   0.386   8.282 -0.8143  0.6753 -1.4025
 2680SOL     OW19498   0.365   2.748   8.621  0.1171 -0.1309  0.4290
 2680SOL    HW119499   0.341   2.839   8.600  0.1808 -0.4492 -1.0676
 2680SOL    HW219500   0.459   2.760   8.633  0.0970  0.5701 -0.0697
 2681SOL     OW19501   4.581   0.490   3.095 -0.3616  0.0301 -0.1774
 2681SOL    HW119502   4.648   0.522   3.155 -0.3269  0.0809 -0.2434
 2681SOL    HW219503   4.528   0.567   3.074  1.1083  1.0796  0.0360
 2682SOL     OW19504   3.059   3.962  12.195 -0.1419  0.1786  0.3246
 2682SOL    HW119505   3.094   3.951  12.107  1.6227 -0.9320  1.1714
 2682SOL    HW219506   2.975   4.003  12.172  0.5592  0.5232 -1.5765
 2683SOL     OW19507   3.857   2.063  10.267  0.3793  0.1045  0.1034
 2683SOL    HW119508   3.787   2.129  10.262 -0.1689 -0.5920 -1.5255
 2683SOL    HW219509   3.807   1.983  10.281  0.9282 -0.2796 -0.1277
 2684SOL     OW19510   0.945   2.086  13.117 -0.2316  0.1168 -0.5433
 2684SOL    HW119511   0.939   2.004  13.067  1.1569 -0.8587  0.9068
 2684SOL    HW219512   0.863   2.083  13.166 -0.1107  0.8926 -0.2850
 2685SOL     OW19513   4.498   3.992   8.433 -0.1885 -0.2252 -0.5841
 2685SOL    HW119514   4.518   4.085   8.424  0.4221 -0.6444 -3.7679
 2685SOL    HW219515   4.451   3.996   8.516  2.4520  1.0104  0.8372
 2686SOL     OW19516   1.641   2.981  12.810 -0.8217  0.0262  0.3966
 2686SOL    HW119517   1.608   3.031  12.884 -0.5365  1.1456 -0.2228
 2686SOL    HW219518   1.735   3.001  12.818 -0.8836  0.0469  1.0693
 2687SOL     OW19519   3.463   3.304  10.970  0.3971  0.2615  0.0180
 2687SOL    HW119520   3.483   3.267  11.056 -0.5340 -2.1302 -0.7739
 2687SOL    HW219521   3.370   3.325  10.977  1.4898  5.7552 -2.1850
 2688SOL     OW19522   4.146   4.592   2.580  0.4515 -0.3204  0.0953
 2688SOL    HW119523   4.143   4.559   2.670  0.5068  1.0026  0.5825
 2688SOL    HW219524   4.084   4.544   2.526  1.3322 -2.4212  0.9464
 2689SOL     OW19525   0.545   0.693   8.045 -0.2768 -0.1297 -0.3801
 2689SOL    HW119526   0.464   0.738   8.070  0.3929  0.5827  0.5065
 2689SOL    HW219527   0.599   0.766   8.076  0.6337 -0.3408 -1.4838
 2690SOL     OW19528   0.841   0.348   2.658  0.5948 -0.0630  0.1655
 2690SOL    HW119529   0.774   0.292   2.698  0.3486 -0.7020 -1.1628
 2690SOL    HW219530   0.799   0.357   2.572 -0.4159  0.8193  0.7377
 2691SOL     OW19531   4.472   3.044   5.120 -0.2018  0.4142 -0.5391
 2691SOL    HW119532   4.429   3.128   5.103  3.0499  2.3113  0.7015
 2691SOL    HW219533   4.429   3.020   5.203  2.0432 -1.2324  0.1372
 2692SOL     OW19534   2.212   4.655   3.084  0.2026  0.0362 -0.2893
 2692SOL    HW119535   2.206   4.587   3.150 -1.0590  0.7559  0.3418
 2692SOL    HW219536   2.208   4.604   3.004  2.6553 -0.7864  0.1391
 2693SOL     OW19537   1.361   2.264  15.933 -0.0950  0.5955  0.3757
 2693SOL    HW119538   1.268   2.240  15.939  0.8275 -2.9669  0.5572
 2693SOL    HW219539   1.389   2.249  16.023  3.0881 -2.2458 -1.0929
 2694SOL     OW19540   2.078   1.708   3.576 -0.3076 -0.1428 -0.4527
 2694SOL    HW119541   1.984   1.696   3.565 -0.3778  2.7291 -2.8764
 2694SOL    HW219542   2.088   1.779   3.640  1.3574 -1.8286  1.1764
 2695SOL     OW19543   1.640   2.058  16.749 -0.3296  0.5676 -0.6092
 2695SOL    HW119544   1.633   2.139  16.699  1.3048  0.3227 -1.2375
 2695SOL    HW219545   1.734   2.052  16.767 -0.8987  1.3930  2.6873
 2696SOL     OW19546   0.000   0.441   4.984  0.0970 -0.0735 -0.5215
 2696SOL    HW119547   4.720   0.408   5.074  1.2947 -0.0662 -0.4450
 2696SOL    HW219548   0.085   0.410   4.954  0.4138  0.2705  0.0163
 2697SOL     OW19549   2.631   0.693   0.111 -0.2505  0.3438  0.7330
 2697SOL    HW119550   2.644   0.788   0.115 -3.2023  0.8603 -1.6619
 2697SOL    HW219551   2.642   0.677   0.017  1.4359 -0.2710  1.0263
 2698SOL     OW19552   3.443   0.623  10.888 -0.0318  0.5162  0.7923
 2698SOL    HW119553   3.499   0.696  10.862 -0.4556  0.6651  0.2871
 2698SOL    HW219554   3.503   0.562  10.931 -0.2327 -1.4785 -1.8249
 2699SOL     OW19555   1.978   1.667   8.684 -0.0054 -0.5110  0.0563
 2699SOL    HW119556   2.002   1.593   8.740 -1.5646 -0.3283  0.9813
 2699SOL    HW219557   1.906   1.626   8.636 -1.2506 -0.0492  1.5275
 2700SOL     OW19558   0.279   2.212   2.343  0.6280 -0.2017  0.3556
 2700SOL    HW119559   0.227   2.227   2.265  0.3879 -1.1922  0.3206
 2700SOL    HW219560   0.360   2.181   2.303 -0.3900 -0.8727 -1.2050
 2701SOL     OW19561   3.065   1.665  12.841 -0.1138  0.8489  0.1188
 2701SOL    HW119562   3.004   1.593  12.856  0.6744  0.1209 -0.1497
 2701SOL    HW219563   3.086   1.689  12.932 -1.0717 -0.6995  0.7394
 2702SOL     OW19564   0.771   2.633   6.994  0.0753  0.2486  0.0448
 2702SOL    HW119565   0.699   2.696   6.989 -0.3799 -0.4064 -1.6059
 2702SOL    HW219566   0.777   2.589   6.909  0.9927  1.7142 -0.6641
 2703SOL     OW19567   4.328   4.576  13.099  0.2091  0.0406 -0.0375
 2703SOL    HW119568   4.233   4.565  13.091 -0.4026  3.6302  2.3913
 2703SOL    HW219569   4.349   4.507  13.161  1.6153  0.0383 -0.5212
 2704SOL     OW19570   1.358   1.427   5.075 -0.0296  0.1362  0.3505
 2704SOL    HW119571   1.432   1.471   5.117 -0.2473 -1.2836  2.2504
 2704SOL    HW219572   1.375   1.446   4.983 -1.2942 -1.1959 -0.1542
 2705SOL     OW19573   1.853   0.182   4.192  0.0406 -0.5746 -0.1409
 2705SOL    HW119574   1.907   0.239   4.137  0.3495  0.8288  1.6125
 2705SOL    HW219575   1.887   0.100   4.157  0.2004 -1.0610  1.1712
 2706SOL     OW19576   4.614   2.975   2.086 -0.6010  0.0321 -0.0961
 2706SOL    HW119577   4.594   3.065   2.060  2.0590  0.8555  0.7267
 2706SOL    HW219578   4.710   2.975   2.085 -0.5947 -0.3421  0.8886
 2707SOL     OW19579   4.406   3.045   3.145  0.0612 -0.1019  0.0646
 2707SOL    HW119580   4.455   3.121   3.115  1.7828 -0.5221  1.8174
 2707SOL    HW219581   4.316   3.072   3.166 -0.3461 -0.4147 -1.3123
 2708SOL     OW19582   1.877   2.456  15.456  0.9344 -0.1782  0.4778
 2708SOL    HW119583   1.840   2.542  15.474  3.0991  1.1845 -1.5198
 2708SOL    HW219584   1.828   2.432  15.378 -0.5035 -0.2270  1.4087
 2709SOL     OW19585   4.308   3.138   1.543  0.3047 -0.0289  0.4063
 2709SOL    HW119586   4.379   3.101   1.489  0.3772 -0.2971  0.6877
 2709SOL    HW219587   4.255   3.165   1.467 -1.8134 -0.1633  1.8467
 2710SOL     OW19588   1.887   2.291   7.421  0.1718  0.1594 -0.0395
 2710SOL    HW119589   1.820   2.238   7.378  0.7925  0.2163 -1.0780
 2710SOL    HW219590   1.838   2.372   7.437  1.1379  0.3788  1.7516
 2711SOL     OW19591   2.139   3.945   6.181 -0.1583 -0.5886  0.0731
 2711SOL    HW119592   2.221   3.936   6.229  0.7492 -2.7540 -1.9055
 2711SOL    HW219593   2.163   3.909   6.095 -1.5265  0.7116 -0.8582
 2712SOL     OW19594   2.986   0.844   9.253  0.2612 -0.8839  0.1404
 2712SOL    HW119595   3.048   0.890   9.309  0.8901  0.8245 -1.9728
 2712SOL    HW219596   3.043   0.817   9.181  1.2277 -2.0660  1.3528
 2713SOL     OW19597   1.011   3.122   5.989 -0.1460  0.0765  0.3029
 2713SOL    HW119598   1.086   3.154   6.039 -0.5273  0.7531  0.4347
 2713SOL    HW219599   1.027   3.028   6.001 -0.0965  0.1116  0.5094
 2714SOL     OW19600   1.288   3.585   8.136 -0.2019  0.0084  0.1127
 2714SOL    HW119601   1.290   3.530   8.214 -1.2381  1.0864  0.9100
 2714SOL    HW219602   1.196   3.609   8.126  0.2135  0.7383 -2.0461
 2715SOL     OW19603   2.615   4.601  13.706 -0.1685  0.2640  0.2799
 2715SOL    HW119604   2.631   4.657  13.782  0.8272 -1.5292  1.3837
 2715SOL    HW219605   2.704   4.583  13.676 -0.8682 -0.3671 -1.4314
 2716SOL     OW19606   2.997   0.672   8.122 -0.1699 -0.1618  0.4822
 2716SOL    HW119607   2.941   0.748   8.139 -0.9865  0.0609 -3.2183
 2716SOL    HW219608   3.068   0.712   8.071  1.3961 -1.2095  1.8215
 2717SOL     OW19609   4.423   4.486   5.377  0.2876 -0.4442 -0.1327
 2717SOL    HW119610   4.489   4.425   5.344 -0.0097  0.2485 -2.0378
 2717SOL    HW219611   4.352   4.423   5.383 -0.9013  0.8758 -0.3308
 2718SOL     OW19612   3.750   4.049   4.907 -0.3820 -0.0254 -0.5573
 2718SOL    HW119613   3.677   3.987   4.910 -2.2425  2.1824 -0.2890
 2718SOL    HW219614   3.804   3.997   4.967  1.4277  0.1219 -2.0553
 2719SOL     OW19615   2.850   2.834   6.051  0.4832  0.2282  0.0682
 2719SOL    HW119616   2.841   2.839   5.956  3.2435 -1.2050 -0.2460
 2719SOL    HW219617   2.785   2.766   6.070  0.4807 -0.1323 -1.2357
 2720SOL     OW19618   1.899   3.911  12.429  0.5547 -0.4073  0.0037
 2720SOL    HW119619   1.980   3.961  12.442  0.6853 -0.4139 -0.7956
 2720SOL    HW219620   1.873   3.949  12.345 -0.3770  3.3390  1.9536
 2721SOL     OW19621   2.862   4.100   4.520  0.5195 -0.3807  0.1762
 2721SOL    HW119622   2.901   4.041   4.456  1.5410  0.5241 -0.0536
 2721SOL    HW219623   2.938   4.118   4.575  0.0398  1.4848  0.2611
 2722SOL     OW19624   4.642   1.545   2.485  0.0003 -0.3800  0.6896
 2722SOL    HW119625   4.569   1.492   2.517  0.4206 -0.1856  2.0021
 2722SOL    HW219626   4.689   1.484   2.429 -1.9429  0.1250 -1.4502
 2723SOL     OW19627   3.023   4.205   6.249 -0.0162 -0.0562  0.5362
 2723SOL    HW119628   2.985   4.117   6.256  0.2054 -0.2804 -1.0838
 2723SOL    HW219629   3.111   4.184   6.218 -0.4979 -0.3109 -0.6456
 2724SOL     OW19630   4.454   1.744  10.353 -0.1345  0.0561  0.3917
 2724SOL    HW119631   4.417   1.659  10.329  2.1824 -1.1769  1.1786
 2724SOL    HW219632   4.451   1.727  10.448  0.0424  0.5723  0.4883
 2725SOL     OW19633   4.261   4.613   9.134 -0.2983  0.1763 -0.1506
 2725SOL    HW119634   4.331   4.562   9.175  0.9562  0.5042 -1.8696
 2725SOL    HW219635   4.202   4.540   9.111  0.2801 -0.5623  0.7067
 2726SOL     OW19636   1.951   3.941  13.591  0.0830 -0.1439 -0.0181
 2726SOL    HW119637   1.928   4.034  13.583  1.0412  0.0778 -0.2044
 2726SOL    HW219638   1.885   3.924  13.658  1.5814 -1.1528  1.1858
 2727SOL     OW19639   1.155   2.958   3.595 -0.4537  0.2279 -0.3981
 2727SOL    HW119640   1.171   3.052   3.591 -1.6805  0.4771  0.6435
 2727SOL    HW219641   1.231   2.941   3.651 -1.5833  0.3249  1.1781
 2728SOL     OW19642   3.070   2.794   7.143  0.3221  0.1131  0.5660
 2728SOL    HW119643   3.057   2.703   7.167  0.1848  0.3477  1.3859
 2728SOL    HW219644   3.155   2.807   7.184  0.6683  0.8587 -0.4019
 2729SOL     OW19645   0.258   2.451  11.753  0.4955  0.5498  0.3325
 2729SOL    HW119646   0.189   2.502  11.710  2.1682  1.0540 -1.7277
 2729SOL    HW219647   0.321   2.445  11.681  1.7956  1.2254  1.4103
 2730SOL     OW19648   1.030   3.197  17.235  0.5744 -0.2316 -0.1430
 2730SOL    HW119649   1.021   3.266  17.168  0.7195 -1.3436 -1.3031
 2730SOL    HW219650   1.017   3.113  17.191 -0.8414  1.4761 -3.0437
 2731SOL     OW19651   4.693   3.225   6.963 -0.8757  0.1598  0.8832
 2731SOL    HW119652   4.712   3.317   6.981  0.5372 -0.0241  0.2989
 2731SOL    HW219653   4.668   3.205   7.054  1.9637  0.1344  1.6765
 2732SOL     OW19654   3.838   2.884   5.476  0.4064  0.0987  0.4697
 2732SOL    HW119655   3.777   2.944   5.518 -2.9887 -1.9447 -1.4881
 2732SOL    HW219656   3.906   2.872   5.543  1.0962  3.2546  0.3154
 2733SOL     OW19657   3.159   3.099   3.697 -0.3304 -0.0159  0.2596
 2733SOL    HW119658   3.119   3.012   3.688  1.8509 -1.0377  0.4166
 2733SOL    HW219659   3.085   3.156   3.716  0.1413  0.7639 -0.2425
 2734SOL     OW19660   1.146   2.349   5.662  0.1869 -0.2000 -0.2470
 2734SOL    HW119661   1.220   2.411   5.665 -0.6603  0.8579 -1.0022
 2734SOL    HW219662   1.105   2.381   5.582 -0.8989  0.8753  0.7223
 2735SOL     OW19663   0.061   4.540   0.352  0.7310  0.0192 -0.0624
 2735SOL    HW119664   0.052   4.528   0.258  0.9768  2.9460 -0.4439
 2735SOL    HW219665   0.143   4.492   0.367 -0.1073 -0.7417  2.1379
 2736SOL     OW19666   1.933   2.359   1.202  0.6115  0.3404  0.2059
 2736SOL    HW119667   1.889   2.299   1.262  1.7232 -1.0121 -0.3328
 2736SOL    HW219668   1.895   2.340   1.116 -0.9013  2.1820  0.4721
 2737SOL     OW19669   4.018   1.342   3.805 -0.1834  0.8292  0.1928
 2737SOL    HW119670   3.954   1.270   3.805 -0.2621  0.9126  1.9724
 2737SOL    HW219671   3.965   1.417   3.778 -1.1115 -1.0257 -3.1347
 2738SOL     OW19672   3.556   1.876   4.703 -0.4453 -0.2212 -0.0349
 2738SOL    HW119673   3.645   1.879   4.739 -0.8185 -0.2479  0.8780
 2738SOL    HW219674   3.537   1.782   4.696  2.0569 -0.6362 -1.3793
 2739SOL     OW19675   0.199   1.774   8.855  0.3135  0.0788 -0.4615
 2739SOL    HW119676   0.197   1.680   8.836  3.1091  0.5222 -3.0078
 2739SOL    HW219677   0.192   1.776   8.950 -0.1128  1.3694 -0.5175
 2740SOL     OW19678   4.161   4.604  12.506 -0.0012  0.1925 -0.0904
 2740SOL    HW119679   4.128   4.548  12.436 -0.3646 -0.4664  0.6060
 2740SOL    HW219680   4.210   4.543  12.561  0.4242 -0.9143 -1.7187
 2741SOL     OW19681   1.390   2.211   1.126 -0.3354  0.1804  0.0251
 2741SOL    HW119682   1.412   2.283   1.067  2.3816 -1.3145 -0.8043
 2741SOL    HW219683   1.296   2.230   1.125 -0.7362 -1.8199 -0.4329
 2742SOL     OW19684   0.511   0.514   8.734  0.4999 -0.2532 -0.5666
 2742SOL    HW119685   0.588   0.538   8.682  1.4414  0.0311  0.9765
 2742SOL    HW219686   0.547   0.495   8.820 -0.8012 -1.6939 -0.3315
 2743SOL     OW19687   4.631   2.077  17.554 -0.2878  0.2594 -0.1143
 2743SOL    HW119688   4.596   2.157  17.594 -2.9573 -0.0264 -1.8983
 2743SOL    HW219689   4.565   2.068  17.486  0.0831 -1.3448 -0.2602
 2744SOL     OW19690   3.977   4.357   2.492 -0.1234  0.0767  0.0234
 2744SOL    HW119691   3.894   4.311   2.486 -0.8003  1.1167  1.5349
 2744SOL    HW219692   4.028   4.315   2.422 -0.8285 -0.5103 -0.1348
 2745SOL     OW19693   1.289   0.125   8.194 -0.0830 -0.2586 -0.2188
 2745SOL    HW119694   1.225   0.057   8.219 -1.2218  0.7472 -0.3961
 2745SOL    HW219695   1.258   0.160   8.111 -0.2929 -1.1312 -0.5127
 2746SOL     OW19696   1.809   2.077   4.555  0.8190  0.5705 -0.0805
 2746SOL    HW119697   1.875   2.027   4.604 -2.2690 -0.1484  3.2700
 2746SOL    HW219698   1.853   2.133   4.491  3.1620 -2.5490 -1.2091
 2747SOL     OW19699   1.305   2.207  10.225  0.1964  0.0072 -0.2591
 2747SOL    HW119700   1.334   2.131  10.176  1.1413  0.3176 -0.1887
 2747SOL    HW219701   1.392   2.234  10.253 -0.5235 -1.6717  3.6584
 2748SOL     OW19702   1.945   0.934   8.552 -0.8774 -0.1329  0.3280
 2748SOL    HW119703   1.883   1.002   8.576 -0.1339 -0.0633  2.0203
 2748SOL    HW219704   1.999   0.972   8.482 -0.5076  1.3829  1.4386
 2749SOL     OW19705   0.561   1.123  14.767 -0.3648  0.3221 -0.0629
 2749SOL    HW119706   0.626   1.109  14.836 -0.1189 -2.6946 -0.9132
 2749SOL    HW219707   0.513   1.040  14.767 -1.2326  0.8468 -2.8301
 2750SOL     OW19708   1.935   3.198   9.593  0.3644 -0.3865  0.2739
 2750SOL    HW119709   1.984   3.136   9.648 -2.8109 -1.7767  1.5019
 2750SOL    HW219710   1.969   3.283   9.620  0.5393 -0.4738  0.3330
 2751SOL     OW19711   1.714   2.256   7.764 -0.1920 -0.8845 -0.5949
 2751SOL    HW119712   1.660   2.206   7.703 -1.4912 -2.9590  2.2652
 2751SOL    HW219713   1.803   2.238   7.732  0.0488  0.0337 -0.4378
 2752SOL     OW19714   0.183   4.534  13.832  0.5357  0.1284  0.0323
 2752SOL    HW119715   0.162   4.625  13.810 -2.3660 -0.8237 -1.1162
 2752SOL    HW219716   0.173   4.489  13.748 -1.5674  0.7647 -0.0658
 2753SOL     OW19717   3.448   1.890   9.415 -0.0220 -0.0208  0.0749
 2753SOL    HW119718   3.431   1.972   9.460  1.6229 -0.1249  0.8769
 2753SOL    HW219719   3.542   1.894   9.399 -0.5854  1.9599 -2.6248
 2754SOL     OW19720   3.866   2.509   8.799 -0.2951 -0.4079 -0.1929
 2754SOL    HW119721   3.840   2.601   8.799  0.4113 -0.2165  2.2855
 2754SOL    HW219722   3.847   2.473   8.885 -0.0757 -0.0313  0.0114
 2755SOL     OW19723   2.904   1.647   8.030 -0.5846  0.5273  0.0450
 2755SOL    HW119724   2.876   1.657   7.939 -0.9186  1.3393  0.2384
 2755SOL    HW219725   2.961   1.723   8.042  0.1780  0.2284 -1.7489
 2756SOL     OW19726   0.481   2.714   5.247 -0.3011  0.3690  0.1710
 2756SOL    HW119727   0.426   2.645   5.210  0.2963  0.0612 -0.1442
 2756SOL    HW219728   0.440   2.797   5.222 -2.1118 -0.2522  1.1345
 2757SOL     OW19729   2.459   1.061   5.562  0.1313 -0.4363  0.5886
 2757SOL    HW119730   2.446   1.140   5.509 -1.6876 -0.5027  0.9338
 2757SOL    HW219731   2.368   1.044   5.586  0.6168  0.0424  2.7951
 2758SOL     OW19732   1.025   0.833   8.699 -0.3303  0.2311  0.2172
 2758SOL    HW119733   1.068   0.818   8.614  0.6669 -1.1713  0.9752
 2758SOL    HW219734   1.056   0.758   8.748  0.4739  0.8777  0.7080
 2759SOL     OW19735   2.631   0.086   1.455  0.1651  0.2528  0.3060
 2759SOL    HW119736   2.544   0.046   1.457  0.2136  0.2720  2.2592
 2759SOL    HW219737   2.673   0.037   1.384  1.2402  0.7788  0.5813
 2760SOL     OW19738   4.251   0.912   8.999 -0.0698 -0.1051  0.2043
 2760SOL    HW119739   4.246   0.842   8.934 -0.6460  0.3421 -0.2354
 2760SOL    HW219740   4.336   0.894   9.039  0.1029 -1.0536 -0.5864
 2761SOL     OW19741   0.779   4.701   9.022 -0.0731  0.1722 -0.1492
 2761SOL    HW119742   0.791   0.052   8.965  0.5165  0.0966 -0.1245
 2761SOL    HW219743   0.706   4.655   8.981 -0.5095  2.4711 -1.9483
 2762SOL     OW19744   1.511   1.949   5.575  0.2762 -0.0826  0.6429
 2762SOL    HW119745   1.482   2.003   5.501  4.0561  1.1474  0.0547
 2762SOL    HW219746   1.570   2.000   5.629  1.3686  0.3368 -0.9345
 2763SOL     OW19747   0.298   4.269  14.507 -0.2447 -0.8235  0.1060
 2763SOL    HW119748   0.242   4.279  14.584 -0.6640  0.9274 -0.4262
 2763SOL    HW219749   0.241   4.277  14.431  1.0825  1.1323 -0.6968
 2764SOL     OW19750   0.920   1.245   6.466 -0.2381 -0.4775 -0.2396
 2764SOL    HW119751   1.001   1.206   6.498  0.3832  0.8404 -0.1979
 2764SOL    HW219752   0.920   1.323   6.522  2.6440  0.0419 -0.9446
 2765SOL     OW19753   4.060   3.264   6.845 -0.5303 -0.1987 -0.2645
 2765SOL    HW119754   4.128   3.297   6.904  0.3643  1.8316 -2.4385
 2765SOL    HW219755   4.079   3.307   6.762 -0.9885 -0.0072 -0.2702
 2766SOL     OW19756   3.400   0.958   4.897 -0.1131 -0.3060  0.2721
 2766SOL    HW119757   3.357   0.941   4.981 -1.9327 -2.0289 -1.0264
 2766SOL    HW219758   3.485   0.994   4.921  1.3587 -1.7106 -2.8412
 2767SOL     OW19759   3.835   4.507   6.055 -0.1510  0.8532  1.4637
 2767SOL    HW119760   3.847   4.414   6.038 -1.5107  0.8544  0.5001
 2767SOL    HW219761   3.896   4.513   6.129 -0.1632 -1.9893  1.6974
 2768SOL     OW19762   3.374   3.978  14.659  0.0914 -0.2632  0.3563
 2768SOL    HW119763   3.322   3.979  14.579  1.7344 -1.8052 -0.7262
 2768SOL    HW219764   3.296   4.007  14.707  1.5901  3.5031  0.5650
 2769SOL     OW19765   2.558   1.815   5.829 -0.2679  0.8657  0.3881
 2769SOL    HW119766   2.504   1.890   5.803  0.8668  1.1391 -1.1713
 2769SOL    HW219767   2.495   1.751   5.862  0.6529 -0.8750 -1.2863
 2770SOL     OW19768   0.145   3.487  10.576 -0.6683 -0.7005  0.4488
 2770SOL    HW119769   0.102   3.569  10.601  1.6716  0.9239 -0.8613
 2770SOL    HW219770   0.172   3.453  10.661 -0.7657 -1.7337  0.0652
 2771SOL     OW19771   0.722   0.793  14.792  0.1879 -0.0506  0.1607
 2771SOL    HW119772   0.790   0.847  14.751  0.4271 -1.3100 -1.1123
 2771SOL    HW219773   0.676   0.754  14.718 -0.5095  3.1002 -1.0555
 2772SOL     OW19774   4.086   1.172  16.854  0.1503 -0.2841 -0.7659
 2772SOL    HW119775   4.051   1.221  16.928 -0.0941  0.4930 -1.3956
 2772SOL    HW219776   4.149   1.236  16.818  0.4768  1.1767  2.4570
 2773SOL     OW19777   2.634   3.972   2.114 -0.4147  0.2351 -0.5600
 2773SOL    HW119778   2.643   3.895   2.170  4.1488  0.8572 -0.4309
 2773SOL    HW219779   2.723   3.985   2.082  0.7892 -1.4975  2.1282
 2774SOL     OW19780   1.759   3.161   2.115  0.3131 -0.7255  0.1286
 2774SOL    HW119781   1.721   3.214   2.045  2.0828 -0.2565 -0.4892
 2774SOL    HW219782   1.848   3.192   2.097  0.4260 -1.3743 -0.4339
 2775SOL     OW19783   2.801   3.528   3.628 -0.0914 -0.5230 -0.1199
 2775SOL    HW119784   2.787   3.609   3.676 -2.3458  0.2109 -2.0256
 2775SOL    HW219785   2.713   3.499   3.606 -0.2103 -1.4336  1.5113
 2776SOL     OW19786   4.076   4.661   3.194  0.3503 -0.5038 -0.4938
 2776SOL    HW119787   4.145   0.000   3.178 -0.7469  0.4117 -1.5544
 2776SOL    HW219788   4.029   4.672   3.110  1.5814  1.4305 -0.9168
 2777SOL     OW19789   1.860   0.583  10.724 -0.1986 -0.0667  0.7740
 2777SOL    HW119790   1.827   0.526  10.793 -0.2605 -1.9591 -0.8378
 2777SOL    HW219791   1.836   0.526  10.651 -2.9069  0.5978  1.1396
 2778SOL     OW19792   3.439   1.347  13.322  0.5655 -0.0179  0.1728
 2778SOL    HW119793   3.531   1.373  13.324  1.0189 -1.6099  0.0458
 2778SOL    HW219794   3.442   1.255  13.349  0.3088  0.3377  1.4324
 2779SOL     OW19795   1.463   1.560   3.822 -0.1062  0.4092  1.0436
 2779SOL    HW119796   1.441   1.515   3.903 -2.8260 -0.4748 -0.1636
 2779SOL    HW219797   1.471   1.488   3.759  1.6884  1.8997 -0.4214
 2780SOL     OW19798   2.248   1.071   7.205 -0.3189  0.6576  0.0606
 2780SOL    HW119799   2.227   0.984   7.240  1.4950 -0.9293 -2.8198
 2780SOL    HW219800   2.289   1.118   7.278 -1.1963  1.1749  0.2165
 2781SOL     OW19801   2.966   0.050   4.552  0.4313 -0.5178  0.6058
 2781SOL    HW119802   2.950   4.681   4.554  3.1748 -0.9436  2.2013
 2781SOL    HW219803   2.943   0.075   4.463  0.5929  0.1714  0.7549
 2782SOL     OW19804   1.713   0.263   4.668  0.7004 -0.0562 -0.0141
 2782SOL    HW119805   1.734   0.317   4.592 -0.8336  0.0948 -0.3401
 2782SOL    HW219806   1.776   0.194   4.647  1.2645  0.4246  0.0891
 2783SOL     OW19807   4.066   4.052  14.922  0.1594 -0.2966  0.1769
 2783SOL    HW119808   4.046   3.996  14.996 -1.6176 -1.1604 -0.9654
 2783SOL    HW219809   4.104   4.132  14.960 -0.1776  0.6893 -1.5453
 2784SOL     OW19810   1.512   3.071   6.295 -0.2623 -0.4249  0.2146
 2784SOL    HW119811   1.538   3.051   6.385  0.4682 -1.9565 -0.3423
 2784SOL    HW219812   1.458   2.992   6.292 -1.1141  0.2551 -2.2130
 2785SOL     OW19813   1.211   1.524   8.638  0.5947  0.3159 -0.7400
 2785SOL    HW119814   1.283   1.575   8.601  0.4587  1.1384  0.1214
 2785SOL    HW219815   1.129   1.566   8.613  0.5135 -0.0307 -1.0594
 2786SOL     OW19816   1.463   3.743   1.429 -0.3379 -0.3760  0.3133
 2786SOL    HW119817   1.415   3.663   1.451 -0.1996 -1.0600 -1.8759
 2786SOL    HW219818   1.526   3.712   1.364  0.0260 -1.1150  1.0277
 2787SOL     OW19819   1.216   2.944  15.389  0.1042 -0.0863 -0.2747
 2787SOL    HW119820   1.200   3.003  15.462 -1.5956  1.7682 -2.1538
 2787SOL    HW219821   1.128   2.911  15.368 -0.1047 -0.3420  0.9950
 2788SOL     OW19822   2.118   3.064   6.915  0.4935  0.2399  0.6897
 2788SOL    HW119823   2.111   2.969   6.906 -0.6292  0.3224  0.6604
 2788SOL    HW219824   2.174   3.062   6.992  0.0265  0.8921  1.0531
 2789SOL     OW19825   2.007   1.749   9.218  0.3060  1.0518  0.0365
 2789SOL    HW119826   2.009   1.842   9.238  1.0706  1.1182 -0.3742
 2789SOL    HW219827   1.913   1.741   9.235  0.7866 -1.7784  1.3578
 2790SOL     OW19828   1.902   2.453   3.335  0.1577 -0.0745 -0.0489
 2790SOL    HW119829   1.821   2.416   3.370  1.1762 -2.3518 -0.1316
 2790SOL    HW219830   1.870   2.542   3.351 -3.4518 -1.6751  1.6331
 2791SOL     OW19831   0.768   3.914   5.018 -0.0920 -0.1513 -0.1973
 2791SOL    HW119832   0.852   3.869   5.027  0.6719  1.3727  0.3112
 2791SOL    HW219833   0.804   4.002   5.004  0.9889 -0.3281  1.4324
 2792SOL     OW19834   1.351   1.603   7.407 -0.2561  0.3075  0.2051
 2792SOL    HW119835   1.352   1.543   7.333 -0.4479  0.3487  0.1687
 2792SOL    HW219836   1.302   1.556   7.475 -1.5057  2.2751  0.6564
 2793SOL     OW19837   4.676   4.217   4.123 -0.0850 -0.2891  0.0793
 2793SOL    HW119838   4.665   4.273   4.046  2.3477  0.0270 -0.0390
 2793SOL    HW219839   4.630   4.143   4.083  0.5966 -0.1503 -0.9544
 2794SOL     OW19840   2.716   2.370   5.816 -0.0864  0.2664  0.2739
 2794SOL    HW119841   2.665   2.416   5.749 -2.3783 -2.2067  0.3048
 2794SOL    HW219842   2.804   2.399   5.792 -0.0305  1.6847  2.1822
 2795SOL     OW19843   0.090   4.467   4.772 -0.0425 -0.3298  0.8021
 2795SOL    HW119844   0.139   4.389   4.747  2.1675  0.7501  1.7388
 2795SOL    HW219845   0.098   4.510   4.687  0.8482 -1.7873  0.1438
 2796SOL     OW19846   1.594   0.527   2.456 -0.1423 -0.0288 -0.3296
 2796SOL    HW119847   1.593   0.452   2.515  2.0533 -0.7302 -1.1643
 2796SOL    HW219848   1.537   0.593   2.496 -2.7811 -1.1122 -2.3269
 2797SOL     OW19849   0.576   3.022  13.685 -0.3817  0.1214 -0.2104
 2797SOL    HW119850   0.623   3.095  13.646 -2.3364  0.5562 -1.7595
 2797SOL    HW219851   0.565   3.038  13.779 -1.7540  1.7934 -0.6692
 2798SOL     OW19852   2.002   3.005   3.426 -0.0276 -0.3735  0.0458
 2798SOL    HW119853   1.934   3.072   3.414  1.8436  1.6060  0.4101
 2798SOL    HW219854   2.029   2.993   3.336 -0.4607  2.9996 -0.5495
 2799SOL     OW19855   0.995   3.203   3.229  0.1267 -0.1122 -0.1888
 2799SOL    HW119856   0.990   3.240   3.317  1.2256 -0.6753  0.1076
 2799SOL    HW219857   1.032   3.117   3.252  0.3298 -0.2244 -0.9370
 2800SOL     OW19858   3.064   0.524   2.098  0.7169 -0.3069  0.2552
 2800SOL    HW119859   3.146   0.540   2.051 -0.3101  1.0122 -1.0981
 2800SOL    HW219860   3.067   0.430   2.081  1.3333 -0.3708  0.7094
 2801SOL     OW19861   0.894   4.321  10.819  0.1485 -0.0953 -0.2751
 2801SOL    HW119862   0.865   4.353  10.734 -2.3556 -1.7749 -0.0562
 2801SOL    HW219863   0.960   4.388  10.838  2.3961 -2.1840 -0.6509
 2802SOL     OW19864   2.804   4.645  15.542 -0.4374 -0.5381  0.0895
 2802SOL    HW119865   2.809   4.686  15.629  1.1846  0.3379 -0.4060
 2802SOL    HW219866   2.817   4.551  15.557  1.9627 -0.1571  0.3822
 2803SOL     OW19867   3.954   1.465   6.146 -0.2766 -0.1573 -0.2125
 2803SOL    HW119868   3.983   1.428   6.230 -1.6264 -3.4316 -1.1685
 2803SOL    HW219869   4.030   1.502   6.101 -0.8238  2.5054  1.0626
 2804SOL     OW19870   0.266   0.708  13.807  0.1889 -0.4491 -0.1537
 2804SOL    HW119871   0.323   0.693  13.883 -1.2358  2.3990  1.4967
 2804SOL    HW219872   0.203   0.637  13.813  0.8437 -1.1484 -1.6233
 2805SOL     OW19873   2.150   1.759   2.894 -0.2560  0.3403  0.4321
 2805SOL    HW119874   2.124   1.784   2.983  0.6498  2.7257  0.0311
 2805SOL    HW219875   2.127   1.666   2.891 -0.0951  0.3298 -0.4303
 2806SOL     OW19876   2.210   3.764  13.802  0.5101 -0.3619 -0.3256
 2806SOL    HW119877   2.178   3.854  13.796  3.4589  0.9124  2.9662
 2806SOL    HW219878   2.296   3.785  13.839 -0.0703  1.3446  0.0515
 2807SOL     OW19879   0.398   3.797   4.938 -0.0761 -0.5260  0.4183
 2807SOL    HW119880   0.325   3.735   4.946  1.3983 -2.0691  1.9326
 2807SOL    HW219881   0.361   3.864   4.880 -1.6665 -0.6779  1.2470
 2808SOL     OW19882   3.984   2.888   2.969 -0.9359  0.6331  0.0422
 2808SOL    HW119883   4.037   2.870   2.892 -1.0555  0.0225  0.1016
 2808SOL    HW219884   3.896   2.867   2.938 -1.4941  0.5100  1.7205
 2809SOL     OW19885   2.501   0.119  10.001 -0.0328  0.0498 -0.1189
 2809SOL    HW119886   2.561   0.045  10.016 -1.4215 -0.5437  2.3973
 2809SOL    HW219887   2.536   0.150   9.917  1.4558 -0.6161  0.2405
 2810SOL     OW19888   3.789   0.980   9.566  0.1498  0.3080  0.9430
 2810SOL    HW119889   3.874   0.939   9.550 -0.7014 -1.2652  0.4785
 2810SOL    HW219890   3.792   1.061   9.516  1.2282  0.0886  0.6665
 2811SOL     OW19891   3.481   1.539   8.345 -0.6906 -0.2792 -0.6745
 2811SOL    HW119892   3.530   1.621   8.332 -2.3720  0.7761 -0.4001
 2811SOL    HW219893   3.400   1.562   8.298 -1.8612 -2.4317  0.3113
 2812SOL     OW19894   2.634   4.602   6.118 -0.1303 -0.1063  0.3814
 2812SOL    HW119895   2.653   4.676   6.176  1.2690  0.6228 -0.9845
 2812SOL    HW219896   2.687   4.633   6.044  0.4394 -1.2179  0.3246
 2813SOL     OW19897   2.857   3.698   6.612 -0.3093  0.1866  0.2070
 2813SOL    HW119898   2.788   3.634   6.592  0.0264  0.0326 -0.4249
 2813SOL    HW219899   2.893   3.679   6.699 -0.2595  2.0806  0.6007
 2814SOL     OW19900   0.415   1.350  16.119 -0.2226 -0.2603  0.1270
 2814SOL    HW119901   0.472   1.387  16.186 -1.3759  0.5828  0.6645
 2814SOL    HW219902   0.450   1.263  16.103 -0.8720 -0.5178  0.1157
 2815SOL     OW19903   3.488   3.402   5.199  0.1838  0.0524 -0.1291
 2815SOL    HW119904   3.454   3.454   5.126  0.0337 -0.8172 -0.6683
 2815SOL    HW219905   3.410   3.366   5.241  0.2123 -1.4447 -1.3686
 2816SOL     OW19906   1.522   1.374  15.736  0.3491 -0.2923  0.3846
 2816SOL    HW119907   1.572   1.403  15.812  1.8433 -1.0791 -0.2895
 2816SOL    HW219908   1.457   1.320  15.781 -0.9825 -1.2433 -2.6264
 2817SOL     OW19909   1.123   0.884   2.339 -0.0776  0.1711 -0.1392
 2817SOL    HW119910   1.108   0.945   2.266 -2.0631  1.5068  1.3798
 2817SOL    HW219911   1.152   0.812   2.282  0.8111  1.0935 -0.8584
 2818SOL     OW19912   1.898   1.759   4.352 -0.1883 -0.6925 -0.0430
 2818SOL    HW119913   1.857   1.679   4.319  0.4310  0.1833 -2.8834
 2818SOL    HW219914   1.823   1.805   4.390 -1.2494 -1.7308 -0.8998
 2819SOL     OW19915   4.351   0.791   4.435 -1.2315  0.3765 -1.0515
 2819SOL    HW119916   4.310   0.846   4.368 -2.2553 -0.8252 -1.4126
 2819SOL    HW219917   4.379   0.718   4.380 -0.2358 -0.2062  0.2558
 2820SOL     OW19918   0.675   3.095   4.260  0.0268 -0.2673  0.0980
 2820SOL    HW119919   0.610   3.090   4.331  0.6768  0.1521  0.7147
 2820SOL    HW219920   0.642   3.031   4.197 -0.7731  0.2314  0.0016
 2821SOL     OW19921   2.363   4.416  12.762  0.2893  0.4442 -0.1759
 2821SOL    HW119922   2.286   4.417  12.819 -1.4031 -2.9940 -2.4115
 2821SOL    HW219923   2.439   4.420  12.820 -0.9650 -1.4693  1.5968
 2822SOL     OW19924   3.765   3.609   4.825 -0.1124  0.2066  0.2452
 2822SOL    HW119925   3.847   3.561   4.826 -0.3328 -0.1854 -0.7701
 2822SOL    HW219926   3.788   3.684   4.880  1.7709 -2.8865  3.7013
 2823SOL     OW19927   1.424   1.559   1.956  0.3091 -0.5721 -0.3893
 2823SOL    HW119928   1.410   1.648   1.923  0.8660 -0.4197 -0.2159
 2823SOL    HW219929   1.335   1.525   1.956  0.2406 -0.3933 -0.4811
 2824SOL     OW19930   2.003   2.266   5.992 -0.5071  0.2059 -0.6184
 2824SOL    HW119931   1.908   2.272   5.986 -0.8314 -0.9804  3.3541
 2824SOL    HW219932   2.034   2.244   5.904 -0.3861  0.5889 -0.6750
 2825SOL     OW19933   1.435   0.257   4.981  0.5164  0.1894 -0.0790
 2825SOL    HW119934   1.439   0.234   4.888  0.5845  1.5227 -0.4071
 2825SOL    HW219935   1.342   0.281   4.984  0.1996 -0.9073 -1.3211
 2826SOL     OW19936   2.239   1.763   6.467  0.1685 -0.1207 -0.0483
 2826SOL    HW119937   2.158   1.784   6.419  1.1123  1.5146 -0.9279
 2826SOL    HW219938   2.209   1.692   6.523  1.6616  1.9943  3.4534
 2827SOL     OW19939   3.768   1.499  15.476  0.1567 -0.1538  0.1388
 2827SOL    HW119940   3.709   1.454  15.415  0.2665  0.4863 -0.4365
 2827SOL    HW219941   3.752   1.592  15.460  1.1480  0.2750  1.6125
 2828SOL     OW19942   4.461   0.763   7.226  0.3738  0.1336 -0.0736
 2828SOL    HW119943   4.437   0.706   7.153 -0.5559  1.1708 -0.5738
 2828SOL    HW219944   4.398   0.743   7.295  1.8608 -0.2390  1.1908
 2829SOL     OW19945   2.792   4.065   8.247 -0.5680  0.2258  0.5945
 2829SOL    HW119946   2.746   3.993   8.290  0.8680 -0.1795  1.4723
 2829SOL    HW219947   2.838   4.102   8.323 -0.5009 -0.4617  0.8871
 2830SOL     OW19948   2.330   3.054  14.533 -0.2640  0.4616  0.4167
 2830SOL    HW119949   2.340   3.091  14.620  0.6605  1.6269 -0.1866
 2830SOL    HW219950   2.245   3.011  14.542 -0.1136 -0.0047 -0.4133
 2831SOL     OW19951   0.165   4.502  11.873 -0.0677  0.1426 -0.1112
 2831SOL    HW119952   0.153   4.593  11.846  0.5246  0.1313 -0.4077
 2831SOL    HW219953   0.087   4.470  11.826 -2.5252  3.4871  1.6775
 2832SOL     OW19954   1.704   1.057   6.541  0.0112 -0.2365 -0.3802
 2832SOL    HW119955   1.763   0.986   6.566  0.9065  0.2767 -1.0683
 2832SOL    HW219956   1.627   1.022   6.587 -0.0400  2.6166  1.7083
 2833SOL     OW19957   3.175   2.469   4.837  0.1132  0.4697  0.3733
 2833SOL    HW119958   3.225   2.404   4.885 -0.2079 -0.2763 -0.3040
 2833SOL    HW219959   3.216   2.549   4.869 -0.6538  1.4153 -1.0131
 2834SOL     OW19960   2.542   0.988   9.737  0.0386  0.3777  0.3507
 2834SOL    HW119961   2.538   1.015   9.829  1.1791  0.2381  0.4477
 2834SOL    HW219962   2.634   0.963   9.728 -0.3049 -0.3469 -1.2861
 2835SOL     OW19963   0.174   3.203   1.370 -0.1602  0.2241 -0.4344
 2835SOL    HW119964   0.188   3.118   1.329 -1.0043 -0.5381  0.8422
 2835SOL    HW219965   0.136   3.181   1.455 -1.4474  1.5161 -0.6718
 2836SOL     OW19966   2.785   4.028   5.069  0.3097 -0.0746  0.2732
 2836SOL    HW119967   2.871   4.039   5.028  0.5310  0.7751  0.9456
 2836SOL    HW219968   2.796   4.065   5.157  1.5726 -0.1550  0.1501
 2837SOL     OW19969   3.758   0.359   7.729 -0.1754  0.9320 -0.3532
 2837SOL    HW119970   3.748   0.291   7.796 -0.7097 -0.8818 -2.2463
 2837SOL    HW219971   3.753   0.435   7.786  2.9645  1.5571 -0.9102
 2838SOL     OW19972   0.432   1.971   4.833  0.3554 -0.2734  0.2148
 2838SOL    HW119973   0.400   2.045   4.783 -1.9577 -1.9089 -0.7139
 2838SOL    HW219974   0.402   1.996   4.920  0.8860  1.7495 -0.1986
 2839SOL     OW19975   3.289   1.296   5.152 -0.1161  0.0825  0.4579
 2839SOL    HW119976   3.340   1.312   5.073  0.9700 -2.3231  0.6817
 2839SOL    HW219977   3.255   1.379   5.185 -0.3149  0.0221  0.4033
 2840SOL     OW19978   3.716   0.022   8.165 -0.2346  0.0219  0.0557
 2840SOL    HW119979   3.625   0.035   8.189 -0.2579  0.9732 -0.5421
 2840SOL    HW219980   3.718   0.054   8.075 -2.0727 -0.9183 -0.3141
 2841SOL     OW19981   0.752   3.241   2.796  0.0101 -0.5993  0.3794
 2841SOL    HW119982   0.725   3.161   2.839 -3.7907  0.0023 -0.8643
 2841SOL    HW219983   0.684   3.305   2.816 -0.3586 -0.0168 -2.7086
 2842SOL     OW19984   2.277   0.763   7.001 -0.2571  0.7911  0.4217
 2842SOL    HW119985   2.274   0.755   7.096  1.1669 -0.4216  0.3661
 2842SOL    HW219986   2.195   0.724   6.969 -0.1921  2.0430 -1.2580
 2843SOL     OW19987   1.076   3.837   8.672 -0.3112 -0.7487 -0.2834
 2843SOL    HW119988   1.033   3.910   8.716  2.2074 -0.7353  2.1808
 2843SOL    HW219989   1.075   3.769   8.739 -3.0060  1.2712  1.7288
 2844SOL     OW19990   0.065   3.857  11.662 -0.0199  0.7053  0.0195
 2844SOL    HW119991   0.135   3.803  11.698 -1.5663 -1.8000 -0.7000
 2844SOL    HW219992   4.722   3.840  11.727  0.5933  0.5110  0.6171
 2845SOL     OW19993   3.197   4.584   3.007 -0.1339 -0.3943  0.2977
 2845SOL    HW119994   3.194   4.514   2.942 -0.5501 -0.6518  0.5890
 2845SOL    HW219995   3.139   4.648   2.965  1.1430  1.9885  2.1266
 2846SOL     OW19996   3.573   2.003   5.257 -0.5666 -0.5552  0.0383
 2846SOL    HW119997   3.534   1.966   5.178  2.3404 -0.3695 -1.4623
 2846SOL    HW219998   3.662   2.000   5.222  0.0403  0.6123  1.4656
 2847SOL     OW19999   0.688   1.613   8.750  0.5803 -0.3440  0.1946
 2847SOL    HW120000   0.679   1.639   8.658 -1.2110  0.7285  0.6707
 2847SOL    HW220001   0.632   1.535   8.754  2.0216 -1.3321  1.1527
 2848SOL     OW20002   3.845   3.102   4.853 -0.2756  0.1143 -0.1384
 2848SOL    HW120003   3.889   3.101   4.768 -1.2451 -1.2369 -0.6180
 2848SOL    HW220004   3.757   3.068   4.836 -0.6478 -0.8773  3.5990
 2849SOL     OW20005   1.800   3.137   7.404 -0.0374  0.3433  0.2288
 2849SOL    HW120006   1.756   3.104   7.482  1.5124 -2.7548 -0.2180
 2849SOL    HW220007   1.758   3.081   7.339  0.7079  0.1561 -0.0881
 2850SOL     OW20008   2.323   1.584   8.594 -0.0276  0.1227 -0.0627
 2850SOL    HW120009   2.320   1.503   8.644  2.5662  0.9267  1.4023
 2850SOL    HW220010   2.415   1.583   8.565 -0.0917 -1.8690 -0.2100
 2851SOL     OW20011   2.989   1.073   4.104 -0.5269 -0.1127 -0.2338
 2851SOL    HW120012   3.083   1.067   4.087 -0.4467 -2.1873  0.9502
 2851SOL    HW220013   2.994   1.152   4.159  2.6402 -0.1147 -0.5233
 2852SOL     OW20014   0.774   3.219   3.758 -0.4058  0.1776  0.3518
 2852SOL    HW120015   0.769   3.128   3.789  1.2394 -0.6486 -1.8733
 2852SOL    HW220016   0.864   3.231   3.789  0.2665 -2.2637 -0.6918
 2853SOL     OW20017   3.761   0.824  12.760  0.1649  0.0359  0.0206
 2853SOL    HW120018   3.722   0.885  12.822 -2.6692 -0.7502 -0.9916
 2853SOL    HW220019   3.846   0.865  12.746 -0.6897  1.7096 -0.3247
 2854SOL     OW20020   0.347   0.899   3.019  0.0588  0.2038  0.0894
 2854SOL    HW120021   0.430   0.855   2.999  1.4215  2.7577  0.0863
 2854SOL    HW220022   0.343   0.956   2.941  0.0910  1.2539  0.8541
 2855SOL     OW20023   3.103   3.775   6.495 -0.1526 -0.2289 -0.0214
 2855SOL    HW120024   3.149   3.819   6.566 -0.9216  1.5702 -0.6289
 2855SOL    HW220025   3.017   3.764   6.536  0.1993 -0.1942  0.7177
 2856SOL     OW20026   3.253   0.043   3.376 -0.1802 -0.0535 -0.2673
 2856SOL    HW120027   3.328   0.015   3.323  0.2913  0.0123  0.3678
 2856SOL    HW220028   3.201   4.688   3.386  1.7620 -1.2672  0.1665
 2857SOL     OW20029   3.740   1.120  15.946  0.1032 -0.3038  0.2585
 2857SOL    HW120030   3.723   1.207  15.983  1.0458 -0.5938  1.3680
 2857SOL    HW220031   3.811   1.142  15.886  0.6817 -2.5885  0.1030
 2858SOL     OW20032   0.492   1.407   8.762 -0.1751  0.5508 -0.0435
 2858SOL    HW120033   0.444   1.474   8.810  0.2794  0.0088  1.1476
 2858SOL    HW220034   0.417   1.367   8.718  0.1923 -0.9553  0.6794
 2859SOL     OW20035   1.172   0.286   2.411 -0.5065 -0.0198  0.1599
 2859SOL    HW120036   1.120   0.335   2.346  0.5355 -0.9525 -1.3722
 2859SOL    HW220037   1.235   0.242   2.355  1.4575  1.2562  1.3966
 2860SOL     OW20038   4.473   1.691  13.140  0.0125 -0.3274  0.0299
 2860SOL    HW120039   4.513   1.755  13.081 -0.4397  0.3370  0.4395
 2860SOL    HW220040   4.525   1.611  13.133 -0.0290 -0.3527  0.0071
 2861SOL     OW20041   2.739   0.639   2.387 -0.4575 -0.1777 -0.1113
 2861SOL    HW120042   2.769   0.645   2.297  1.2140  2.5078  0.6389
 2861SOL    HW220043   2.729   0.734   2.394  1.2951 -0.2913  4.1567
 2862SOL     OW20044   4.192   3.988   8.301 -0.6114 -0.3073  0.1435
 2862SOL    HW120045   4.227   3.899   8.306  0.7429  0.1916 -0.3768
 2862SOL    HW220046   4.263   4.020   8.244  0.6025  0.7989  2.2581
 2863SOL     OW20047   0.805   2.949   3.807 -0.0105 -0.5740 -0.0744
 2863SOL    HW120048   0.891   2.958   3.849  0.0484 -1.0929 -0.0863
 2863SOL    HW220049   0.822   2.932   3.714 -0.7479  1.8468 -0.6337
 2864SOL     OW20050   1.548   0.764   4.339 -0.1956 -0.3003  0.9167
 2864SOL    HW120051   1.566   0.717   4.420  0.4576 -1.3920  0.1407
 2864SOL    HW220052   1.531   0.692   4.278  4.1889  2.6955 -3.9055
 2865SOL     OW20053   2.367   4.020   3.716  0.0387 -0.9188  0.3622
 2865SOL    HW120054   2.430   3.973   3.662  0.0866 -0.9199  0.4191
 2865SOL    HW220055   2.427   4.049   3.785  1.0575  0.4895 -1.1091
 2866SOL     OW20056   1.705   2.607   3.674  0.1322  0.1349  0.3666
 2866SOL    HW120057   1.688   2.666   3.600  1.3731  0.9596  0.7514
 2866SOL    HW220058   1.631   2.546   3.664 -0.9760  1.4162  0.7272
 2867SOL     OW20059   1.463   0.172  15.680 -0.3951 -0.0201  0.0295
 2867SOL    HW120060   1.436   0.114  15.609 -0.8466  0.3046 -0.0576
 2867SOL    HW220061   1.400   0.241  15.664  0.1369  0.7584  1.2461
 2868SOL     OW20062   1.340   2.075   6.844 -0.6943  0.5620  0.2616
 2868SOL    HW120063   1.434   2.081   6.827 -0.9716  2.4269 -0.6781
 2868SOL    HW220064   1.304   2.155   6.805  1.2287  0.5157 -1.6394
 2869SOL     OW20065   4.504   2.198   2.430  0.5737  0.6546  0.2075
 2869SOL    HW120066   4.573   2.237   2.483  1.9397 -1.6092  0.0652
 2869SOL    HW220067   4.535   2.109   2.417  1.2017  1.2069 -2.1882
 2870SOL     OW20068   3.940   4.140  12.298 -0.0868  0.4087 -0.2675
 2870SOL    HW120069   3.881   4.176  12.364  1.5573  1.0789  0.8266
 2870SOL    HW220070   3.872   4.098  12.245  2.3944 -1.4491 -2.0071
 2871SOL     OW20071   3.992   4.580  15.583 -0.2536 -0.4416 -0.0740
 2871SOL    HW120072   3.910   4.594  15.630 -0.7948 -0.3140 -1.0602
 2871SOL    HW220073   4.006   4.668  15.547  1.2992 -0.8812 -0.5527
 2872SOL     OW20074   3.988   0.580   1.628  0.3982  0.9935  0.1238
 2872SOL    HW120075   3.981   0.499   1.578  0.3119  1.3103 -0.3807
 2872SOL    HW220076   3.974   0.642   1.556  2.2570  0.8629 -0.3557
 2873SOL     OW20077   4.480   2.527   4.953  0.0364  0.3907  0.6918
 2873SOL    HW120078   4.505   2.556   5.041  0.2724  5.5122 -1.0597
 2873SOL    HW220079   4.569   2.531   4.917 -0.3773  1.8641 -0.1999
 2874SOL     OW20080   1.521   4.236   5.328 -0.5553  0.3953  0.5277
 2874SOL    HW120081   1.481   4.186   5.257  2.3457  1.3016 -1.7706
 2874SOL    HW220082   1.590   4.182   5.367 -0.8704 -0.2298  0.2352
 2875SOL     OW20083   0.205   4.539   6.935 -0.3768  0.4129 -0.0478
 2875SOL    HW120084   0.286   4.516   6.890  1.2916  1.0139  2.6719
 2875SOL    HW220085   0.232   4.617   6.982  1.2354  0.2661 -0.7154
 2876SOL     OW20086   1.627   1.528   8.389 -0.4258  0.1689  0.1231
 2876SOL    HW120087   1.532   1.531   8.395 -0.4084 -2.2853  1.5362
 2876SOL    HW220088   1.640   1.462   8.321  0.2053  0.2616  0.1463
 2877SOL     OW20089   3.248   2.032   3.376  0.1984 -0.3723  0.1877
 2877SOL    HW120090   3.303   1.985   3.313  0.4972  1.7068 -1.0806
 2877SOL    HW220091   3.305   2.102   3.407  0.9308 -1.3033  0.9673
 2878SOL     OW20092   4.500   1.261  12.150 -0.0590 -0.3893 -0.0855
 2878SOL    HW120093   4.440   1.325  12.113  1.6475 -0.0037 -2.2185
 2878SOL    HW220094   4.527   1.301  12.232 -0.3713  2.1530 -1.2317
 2879SOL     OW20095   1.600   1.892   8.480  0.0051 -0.3804  0.0147
 2879SOL    HW120096   1.536   1.916   8.547  0.8441  0.4256  0.5323
 2879SOL    HW220097   1.681   1.892   8.530 -0.4558 -0.9875  0.7657
 2880SOL     OW20098   3.617   2.277   6.344 -0.3809  0.1293  0.4482
 2880SOL    HW120099   3.638   2.256   6.435 -1.3363 -0.1303  0.6102
 2880SOL    HW220100   3.589   2.190   6.316 -0.3441  0.0489  0.6608
 2881SOL     OW20101   1.932   2.316   4.433  0.5211  0.0182 -0.3392
 2881SOL    HW120102   2.010   2.371   4.425 -0.5706  1.7819  0.9593
 2881SOL    HW220103   1.933   2.286   4.342  1.3779 -0.0971 -0.2886
 2882SOL     OW20104   1.217   2.780   9.669  0.3653  0.0189 -0.5454
 2882SOL    HW120105   1.283   2.818   9.728 -1.2782  2.3626 -0.2387
 2882SOL    HW220106   1.137   2.784   9.721  0.0985 -0.6277 -0.8978
 2883SOL     OW20107   4.165   4.624   3.754 -0.3796  0.1434 -0.2386
 2883SOL    HW120108   4.123   4.696   3.707 -1.1318 -0.0280  0.1926
 2883SOL    HW220109   4.225   4.584   3.691 -0.3612  0.0107 -0.1356
 2884SOL     OW20110   4.187   3.033   0.224  0.1076  0.0650 -0.1227
 2884SOL    HW120111   4.246   3.063   0.293 -0.1045 -0.5204  0.3230
 2884SOL    HW220112   4.149   3.109   0.180  1.4417  1.1767  0.6840
 2885SOL     OW20113   4.016   3.678   5.122 -0.4590 -0.2103 -0.3435
 2885SOL    HW120114   4.103   3.648   5.099 -0.4818  1.3907 -2.5153
 2885SOL    HW220115   3.979   3.600   5.163  1.8363 -1.9722 -1.6253
 2886SOL     OW20116   0.734   0.627   7.095 -0.2801 -0.2312  0.0712
 2886SOL    HW120117   0.648   0.651   7.059 -0.1913 -0.0018  0.0111
 2886SOL    HW220118   0.773   0.580   7.022  1.3009  0.6186  0.3691
 2887SOL     OW20119   1.450   1.195   4.673  0.6286  0.0917 -0.0466
 2887SOL    HW120120   1.410   1.182   4.759 -2.7597  1.4977 -1.3875
 2887SOL    HW220121   1.503   1.116   4.660  0.5106 -0.0646  0.4170
 2888SOL     OW20122   2.400   3.440   4.439 -0.0224 -0.0239 -0.3610
 2888SOL    HW120123   2.475   3.481   4.483 -2.2784  1.0988  2.3950
 2888SOL    HW220124   2.374   3.370   4.498 -0.6451 -2.7135 -3.8337
 2889SOL     OW20125   2.675   3.890   1.445 -0.5455 -0.1744 -0.2232
 2889SOL    HW120126   2.584   3.921   1.442 -0.2232  0.4395 -2.9348
 2889SOL    HW220127   2.663   3.806   1.489 -2.1967  0.9880  1.5903
 2890SOL     OW20128   0.501   0.383   4.597 -0.3162 -0.1814 -0.0333
 2890SOL    HW120129   0.582   0.335   4.613  0.1419  0.0523 -1.6009
 2890SOL    HW220130   0.477   0.355   4.508  1.7245  1.6796 -1.1818
 2891SOL     OW20131   3.321   2.413   9.049 -0.4782  0.0992 -0.1532
 2891SOL    HW120132   3.313   2.505   9.025  1.6234  0.1175 -0.8254
 2891SOL    HW220133   3.230   2.384   9.053 -0.3566 -0.1291  0.9082
 2892SOL     OW20134   0.441   2.043   9.789  0.0034  0.2768  0.3723
 2892SOL    HW120135   0.359   2.062   9.836 -1.5313 -1.9770 -1.4100
 2892SOL    HW220136   0.409   2.056   9.700 -1.3478 -0.1646  0.7847
 2893SOL     OW20137   4.574   0.282  14.320  0.1055 -0.4499  0.2342
 2893SOL    HW120138   4.541   0.266  14.231 -0.6908  2.6303 -0.0015
 2893SOL    HW220139   4.507   0.342  14.352  2.4315  2.1158  0.2278
 2894SOL     OW20140   2.164   1.761   8.466 -0.1024  0.4280  0.8122
 2894SOL    HW120141   2.243   1.716   8.496  1.0873  2.0362  0.1130
 2894SOL    HW220142   2.094   1.731   8.524 -1.2606  1.3834 -0.0850
 2895SOL     OW20143   1.598   0.518  10.452  0.0944 -0.0010 -0.5373
 2895SOL    HW120144   1.568   0.608  10.439 -1.5393 -0.4898 -0.2743
 2895SOL    HW220145   1.541   0.481  10.521  1.5593  0.9169  1.1450
 2896SOL     OW20146   3.097   1.239  13.959  0.1384 -0.1453 -0.4290
 2896SOL    HW120147   3.039   1.260  13.885 -1.6268 -0.0312  0.9898
 2896SOL    HW220148   3.166   1.191  13.913  1.2789  0.9803  0.1024
 2897SOL     OW20149   4.273   3.168   3.479 -0.2264 -0.1134 -0.0955
 2897SOL    HW120150   4.187   3.200   3.452 -0.2625 -0.2516 -0.1446
 2897SOL    HW220151   4.296   3.234   3.545  0.6242  0.1614 -0.6730
 2898SOL     OW20152   0.283   0.772  15.725  0.0135 -0.5062  0.2988
 2898SOL    HW120153   0.314   0.854  15.685 -0.1241 -0.5867  0.0285
 2898SOL    HW220154   0.334   0.743  15.801 -2.0753  2.6979  2.9000
 2899SOL     OW20155   2.548   1.989   1.400  0.2506  0.0778  0.2794
 2899SOL    HW120156   2.493   1.918   1.367  0.1363  0.2634  0.0770
 2899SOL    HW220157   2.478   2.045   1.431 -2.2852 -2.1172 -1.4391
 2900SOL     OW20158   4.412   3.174  12.560  0.1547  0.3503  0.3493
 2900SOL    HW120159   4.357   3.104  12.524 -0.8376  1.7701 -0.9153
 2900SOL    HW220160   4.346   3.233  12.595 -0.9017 -0.6366  0.0468
 2901SOL     OW20161   2.105   0.323   5.804  0.8390  0.0140  0.1795
 2901SOL    HW120162   2.141   0.409   5.828  0.1773  0.1078  0.8212
 2901SOL    HW220163   2.164   0.271   5.859 -1.0517 -1.9191  0.3683
 2902SOL     OW20164   1.587   0.800  12.648 -0.0170 -0.5751 -0.2635
 2902SOL    HW120165   1.682   0.807  12.643 -0.1624  1.6291  0.2370
 2902SOL    HW220166   1.562   0.800  12.556  1.9596  3.7939 -0.7662
 2903SOL     OW20167   2.998   3.132   9.328  0.0636 -0.6138  0.2512
 2903SOL    HW120168   3.034   3.066   9.386  2.1700  0.4423  0.1319
 2903SOL    HW220169   3.075   3.181   9.300 -0.8463 -0.4120 -1.9674
 2904SOL     OW20170   4.396   2.091   3.432 -0.1604 -0.0568  0.2201
 2904SOL    HW120171   4.348   2.168   3.464  0.4963  0.7794 -0.7802
 2904SOL    HW220172   4.353   2.023   3.484 -0.1456  1.0708  1.7108
 2905SOL     OW20173   1.098   3.623   8.849 -0.1047  0.4917 -0.0138
 2905SOL    HW120174   1.067   3.540   8.886  0.3893  0.8591  1.2070
 2905SOL    HW220175   1.186   3.602   8.820 -0.1135 -0.2365  0.4821
 2906SOL     OW20176   3.000   0.926  11.259 -0.0897 -0.0818 -0.1295
 2906SOL    HW120177   2.936   0.971  11.204  0.2770  0.0919 -0.4155
 2906SOL    HW220178   3.025   0.998  11.317 -0.6682  1.0982 -1.3371
 2907SOL     OW20179   3.489   3.634   8.860  0.2160  0.5618 -0.0165
 2907SOL    HW120180   3.504   3.697   8.789 -2.2011  1.3174  0.1562
 2907SOL    HW220181   3.450   3.687   8.930 -0.3092 -0.6030  0.5681
 2908SOL     OW20182   1.420   4.278  14.915 -0.0356  0.1762  0.0062
 2908SOL    HW120183   1.423   4.311  15.005  1.6622 -2.6244  0.9842
 2908SOL    HW220184   1.456   4.190  14.915 -0.2094  0.1064 -0.5478
 2909SOL     OW20185   0.118   2.577   3.609  0.3649  0.0466 -0.1856
 2909SOL    HW120186   0.088   2.643   3.546 -1.0991 -0.3167  0.1354
 2909SOL    HW220187   0.211   2.573   3.588  0.2859 -1.0637 -0.2937
 2910SOL     OW20188   4.163   2.971   4.779  0.4358  0.2977 -0.3306
 2910SOL    HW120189   4.253   2.995   4.759  0.6352 -0.5541 -0.4153
 2910SOL    HW220190   4.137   2.953   4.689 -4.1274  0.6943  0.9007
 2911SOL     OW20191   2.571   1.192   6.471  0.1457 -0.4022 -0.0369
 2911SOL    HW120192   2.549   1.280   6.440  0.6215 -1.1672 -2.5272
 2911SOL    HW220193   2.625   1.146   6.408 -1.6409 -0.9379 -1.1709
 2912SOL     OW20194   1.684   3.154   9.720 -0.7692 -0.6053 -0.2957
 2912SOL    HW120195   1.637   3.230   9.685 -1.8377 -0.6613  1.0113
 2912SOL    HW220196   1.771   3.169   9.685 -1.7059 -0.0285 -2.3607
 2913SOL     OW20197   0.095   0.633   3.575 -0.2256  0.5036 -0.4801
 2913SOL    HW120198   0.034   0.705   3.556  1.1700  1.2156 -2.2799
 2913SOL    HW220199   0.162   0.678   3.626  0.3346 -0.9831  0.0938
 2914SOL     OW20200   1.402   2.308   9.018  0.7229 -0.0825 -0.3628
 2914SOL    HW120201   1.358   2.325   8.934 -0.4843 -1.7798 -0.0697
 2914SOL    HW220202   1.491   2.307   8.982  1.9967  1.5704  2.7061
 2915SOL     OW20203   3.472   2.440   9.779 -0.1532  0.3121 -0.1184
 2915SOL    HW120204   3.500   2.389   9.855  0.8048  1.0941  0.0508
 2915SOL    HW220205   3.442   2.522   9.818 -0.6993  0.3787 -0.6831
 2916SOL     OW20206   2.914   1.919   4.546  0.6134  0.4731 -0.2623
 2916SOL    HW120207   2.837   1.885   4.501  2.1358 -3.0606 -0.1903
 2916SOL    HW220208   2.875   1.987   4.602 -0.7713  1.7131 -2.7140
 2917SOL     OW20209   2.936   3.011   6.446 -0.0025 -0.1974 -0.0797
 2917SOL    HW120210   2.889   3.091   6.422 -0.1565 -0.2211  0.1449
 2917SOL    HW220211   2.879   2.944   6.409  1.9709 -0.9580 -1.7862
 2918SOL     OW20212   2.992   0.266   0.894 -0.4151 -0.0146  0.0226
 2918SOL    HW120213   2.898   0.275   0.910 -0.3905  0.5667 -0.1630
 2918SOL    HW220214   3.029   0.291   0.979  1.6315 -0.7778 -0.6481
 2919SOL     OW20215   3.206   1.350   2.931  0.5455  0.1858  0.3844
 2919SOL    HW120216   3.123   1.363   2.884  1.2540 -1.8071 -1.4044
 2919SOL    HW220217   3.183   1.280   2.992  1.3985 -0.0423  0.4350
 2920SOL     OW20218   4.681   4.182   3.348 -0.0555  0.4794 -0.1269
 2920SOL    HW120219   0.005   4.237   3.288  0.1726 -1.4572 -1.6786
 2920SOL    HW220220   4.588   4.201   3.335  0.0903 -0.4032 -2.4729
 2921SOL     OW20221   3.041   1.781  13.621  0.2428  0.4586  0.1862
 2921SOL    HW120222   3.069   1.774  13.712 -0.5469  0.8381  0.4554
 2921SOL    HW220223   3.025   1.875  13.611  0.0200  0.5227  1.1402
 2922SOL     OW20224   0.311   3.706   1.788  0.8433  0.2948 -0.3641
 2922SOL    HW120225   0.221   3.731   1.809  1.1038  0.8777  0.0482
 2922SOL    HW220226   0.336   3.772   1.723 -2.1509  0.4160 -1.3878
 2923SOL     OW20227   3.666   0.485   9.282 -0.5412  0.2256 -0.2228
 2923SOL    HW120228   3.727   0.558   9.290  0.1167 -0.2803 -0.5923
 2923SOL    HW220229   3.614   0.502   9.361  0.9037  2.1726  0.3183
 2924SOL     OW20230   0.744   0.689   5.898  0.0343 -0.0936 -0.0152
 2924SOL    HW120231   0.819   0.740   5.869  0.1337  0.1106  0.5904
 2924SOL    HW220232   0.756   0.603   5.860  1.8830  0.1117  0.0957
 2925SOL     OW20233   2.050   1.148   6.605  0.3740  0.5921 -0.3942
 2925SOL    HW120234   2.022   1.075   6.659  1.8595  0.5609  0.3272
 2925SOL    HW220235   2.144   1.152   6.619  0.1969  1.1970  0.6158
 2926SOL     OW20236   3.296   3.903  14.972 -0.0044 -0.3604 -0.0607
 2926SOL    HW120237   3.206   3.904  14.939  0.2624  1.4994 -0.7102
 2926SOL    HW220238   3.280   3.923  15.065  0.4144 -2.6181  0.5104
 2927SOL     OW20239   2.545   1.942  14.021 -0.1422 -0.0058  0.0086
 2927SOL    HW120240   2.608   1.872  14.007  1.3997  1.5880 -1.0483
 2927SOL    HW220241   2.585   2.009  13.964 -1.0344  2.3182  2.1006
 2928SOL     OW20242   3.746   2.765   7.290 -0.1505 -0.7001  0.4707
 2928SOL    HW120243   3.665   2.788   7.245  0.4598  0.0507 -0.2451
 2928SOL    HW220244   3.742   2.810   7.374 -0.3611  0.4290 -0.1380
 2929SOL     OW20245   2.273   1.344   4.581 -0.1924  0.7528 -0.4028
 2929SOL    HW120246   2.206   1.287   4.541  0.6336  0.4116 -1.3033
 2929SOL    HW220247   2.297   1.404   4.511 -1.8520  1.0053 -0.7743
 2930SOL     OW20248   2.067   4.335   5.210 -0.0717 -0.0428  0.3993
 2930SOL    HW120249   2.007   4.281   5.262 -1.6754 -0.9133 -2.3271
 2930SOL    HW220250   2.009   4.374   5.144  1.7567  1.4771 -0.3051
 2931SOL     OW20251   2.821   3.988   5.773 -0.5154 -0.2622 -0.1901
 2931SOL    HW120252   2.866   4.072   5.762 -0.3143 -0.5237 -1.4157
 2931SOL    HW220253   2.850   3.950   5.856 -1.9239 -0.9803 -0.0406
 2932SOL     OW20254   3.498   4.214   0.771 -1.1917 -0.0760 -0.3913
 2932SOL    HW120255   3.552   4.162   0.712  0.0582  1.3452 -0.4923
 2932SOL    HW220256   3.443   4.144   0.805 -0.2373 -0.8710 -0.4983
 2933SOL     OW20257   2.531   1.231   4.234 -0.3292 -0.5830  0.0328
 2933SOL    HW120258   2.584   1.165   4.189 -0.4571  0.8956 -2.3043
 2933SOL    HW220259   2.473   1.256   4.162 -0.7962 -1.3331  0.1490
 2934SOL     OW20260   3.369   0.148   6.443  0.6575  0.0965  0.4554
 2934SOL    HW120261   3.378   0.077   6.379 -0.5497 -1.1403  1.6742
 2934SOL    HW220262   3.363   0.097   6.523 -1.0620 -0.0804  0.2175
 2935SOL     OW20263   2.358   2.819   2.725  0.6075  0.5540 -0.0229
 2935SOL    HW120264   2.428   2.883   2.739  1.2608  0.5414 -3.0928
 2935SOL    HW220265   2.406   2.761   2.665  0.2657 -0.3826  0.6150
 2936SOL     OW20266   3.263   1.592  12.505  0.6781 -0.3939  0.3514
 2936SOL    HW120267   3.229   1.506  12.531 -0.3544  0.3057  1.3015
 2936SOL    HW220268   3.197   1.615  12.439  1.4280 -1.2690 -0.7062
 2937SOL     OW20269   1.307   0.028   9.815  0.0920 -0.8341 -0.1073
 2937SOL    HW120270   1.256   0.033   9.895  1.5306  0.2616  0.7618
 2937SOL    HW220271   1.264   0.095   9.763  2.1012 -0.2432 -1.0405
 2938SOL     OW20272   0.319   2.668   5.626  0.3142  0.3690  0.1306
 2938SOL    HW120273   0.370   2.617   5.689  1.3257 -0.6483 -1.5193
 2938SOL    HW220274   0.369   2.750   5.626 -0.8104  1.0731  3.1669
 2939SOL     OW20275   3.888   3.234   6.215 -0.7296 -0.2010  0.5874
 2939SOL    HW120276   3.966   3.182   6.200 -1.1417 -0.2124 -1.5026
 2939SOL    HW220277   3.929   3.309   6.259 -0.1031 -0.8784  1.1647
 2940SOL     OW20278   4.566   3.603  11.951 -0.0075  0.3036  0.6800
 2940SOL    HW120279   4.660   3.591  11.967 -0.0250  1.6421  1.7608
 2940SOL    HW220280   4.556   3.683  12.002  0.4350  1.2154 -0.6505
 2941SOL     OW20281   0.619   4.339   6.503  0.1313  0.0793 -0.5339
 2941SOL    HW120282   0.524   4.347   6.513  0.0512 -0.3229 -0.9664
 2941SOL    HW220283   0.650   4.411   6.557 -2.2809  1.3247 -0.8215
 2942SOL     OW20284   0.749   0.761   8.628  0.2302 -0.2757 -0.0952
 2942SOL    HW120285   0.842   0.760   8.604  0.6271  0.1711  1.4578
 2942SOL    HW220286   0.749   0.708   8.707 -2.9116  0.7180  0.5598
 2943SOL     OW20287   0.792   3.586   2.378 -0.7131  0.0138  0.6160
 2943SOL    HW120288   0.885   3.581   2.401 -0.7529 -1.5488  0.4316
 2943SOL    HW220289   0.763   3.511   2.430 -0.3758 -1.0503 -0.7339
 2944SOL     OW20290   2.813   3.966  15.646  0.0516 -0.4352 -0.4406
 2944SOL    HW120291   2.782   3.966  15.736  1.2810 -0.0386 -0.0131
 2944SOL    HW220292   2.738   4.011  15.607 -0.2379 -1.5013 -1.1325
 2945SOL     OW20293   4.603   2.594   6.571 -0.2511 -0.0796 -0.1524
 2945SOL    HW120294   4.676   2.532   6.582 -0.1290 -0.1903 -1.5982
 2945SOL    HW220295   4.648   2.664   6.524  0.2339 -0.9079 -0.9175
 2946SOL     OW20296   0.247   0.436   2.190  0.1593  0.2172 -0.1371
 2946SOL    HW120297   0.343   0.437   2.187  0.1145 -0.2149 -1.8142
 2946SOL    HW220298   0.226   0.380   2.116 -0.8837 -0.4045  0.6341
 2947SOL     OW20299   2.328   0.047   2.528 -0.1050 -0.1506 -0.8909
 2947SOL    HW120300   2.244   0.010   2.555 -0.9659  2.1803 -0.4177
 2947SOL    HW220301   2.365   0.059   2.615  0.9031  0.4696 -1.3992
 2948SOL     OW20302   0.563   1.455   8.259  0.4611 -0.6993  0.0245
 2948SOL    HW120303   0.489   1.418   8.306 -1.5302 -0.6788 -3.0988
 2948SOL    HW220304   0.521   1.533   8.224  1.4662 -0.6316 -1.0369
 2949SOL     OW20305   4.253   2.125   6.230 -0.1508 -0.1610 -0.4188
 2949SOL    HW120306   4.286   2.086   6.311 -0.8385  0.4106  0.1420
 2949SOL    HW220307   4.193   2.190   6.268 -0.6571 -0.8015 -0.1141
 2950SOL     OW20308   3.736   1.258   4.814 -0.2920  0.2570 -0.2624
 2950SOL    HW120309   3.708   1.169   4.833  1.7723 -0.3362  0.0794
 2950SOL    HW220310   3.740   1.286   4.906  2.5413  1.0191 -0.6100
 2951SOL     OW20311   2.463   4.718  15.721 -0.4539 -0.1588  0.4737
 2951SOL    HW120312   2.489   0.067  15.667  2.6586 -1.0369  0.7679
 2951SOL    HW220313   2.383   4.692  15.675  0.3835 -0.5131 -0.7953
 2952SOL     OW20314   4.340   2.263   4.954 -0.1850 -0.0014  0.3128
 2952SOL    HW120315   4.370   2.349   4.924  0.0153 -0.3675 -0.5202
 2952SOL    HW220316   4.247   2.284   4.968 -0.1585  0.8400 -0.8015
 2953SOL     OW20317   2.606   2.039  11.823 -0.4107 -0.3660 -0.5608
 2953SOL    HW120318   2.576   2.071  11.738 -0.4248  0.0904 -0.3837
 2953SOL    HW220319   2.645   1.955  11.800  1.0130 -0.2759  1.5146
 2954SOL     OW20320   1.230   4.083   2.508 -0.1717  0.4087 -0.2330
 2954SOL    HW120321   1.157   4.135   2.475 -0.8928 -1.1920 -1.1381
 2954SOL    HW220322   1.294   4.154   2.500  0.0885  0.3037  0.8808
 2955SOL     OW20323   4.034   4.642  16.342  0.3212 -0.7789  0.5714
 2955SOL    HW120324   4.062   0.006  16.320  1.7699 -1.3748  0.0204
 2955SOL    HW220325   4.090   4.584  16.290  0.0683 -1.8981  1.5679
 2956SOL     OW20326   3.879   4.095   6.560 -0.2034  0.0451  0.0417
 2956SOL    HW120327   3.874   4.131   6.649 -0.0649 -1.4654  0.6538
 2956SOL    HW220328   3.931   4.159   6.511 -0.7781  0.6006  0.1518
 2957SOL     OW20329   1.273   2.544   6.405  0.1387 -0.9038 -0.2356
 2957SOL    HW120330   1.328   2.607   6.451 -0.4755  0.7183 -1.7201
 2957SOL    HW220331   1.209   2.607   6.372 -0.1210 -0.0800  1.8375
 2958SOL     OW20332   2.614   1.777   8.075  0.1165 -0.1853 -0.7830
 2958SOL    HW120333   2.707   1.772   8.095  0.0228 -0.0567 -0.3120
 2958SOL    HW220334   2.589   1.705   8.133 -0.3353  1.6298  1.2804
 2959SOL     OW20335   0.808   4.128  14.996 -0.2120 -0.3601 -0.3898
 2959SOL    HW120336   0.859   4.206  14.975 -1.3924  0.6219  0.4167
 2959SOL    HW220337   0.870   4.054  14.998 -0.8857 -0.9313 -0.5956
 2960SOL     OW20338   0.922   2.315   1.153 -0.1066 -0.0626 -0.0898
 2960SOL    HW120339   0.983   2.256   1.197  0.3296 -0.6943 -1.5163
 2960SOL    HW220340   0.967   2.396   1.177 -2.3083  0.9202  0.6756
 2961SOL     OW20341   2.855   0.247   1.893 -0.3682  0.0352 -0.1260
 2961SOL    HW120342   2.950   0.244   1.899 -0.4023 -1.6884 -0.4584
 2961SOL    HW220343   2.831   0.339   1.890  1.1863  0.4479  0.3330
 2962SOL     OW20344   2.037   1.637   3.881  0.0567  0.0375  0.3499
 2962SOL    HW120345   2.035   1.596   3.795  0.5320  1.1244 -0.1750
 2962SOL    HW220346   1.949   1.658   3.911  0.2712  1.2590  0.1275
 2963SOL     OW20347   2.896   3.831  13.039 -0.2916 -0.2087 -0.3842
 2963SOL    HW120348   2.984   3.868  13.029 -1.3074  1.9927 -1.2805
 2963SOL    HW220349   2.909   3.748  12.994 -1.9526 -0.7021  0.0710
 2964SOL     OW20350   3.745   1.120   8.366  0.4135  0.1622  0.9258
 2964SOL    HW120351   3.821   1.173   8.342 -0.7400  0.5295 -1.9695
 2964SOL    HW220352   3.685   1.195   8.357  0.9542  0.4554 -0.2096
 2965SOL     OW20353   0.243   2.239   6.141  0.2252  0.3200 -0.1008
 2965SOL    HW120354   0.209   2.328   6.143 -1.9458 -0.5016 -0.1246
 2965SOL    HW220355   0.280   2.239   6.053 -0.8990  1.3233 -0.5669
 2966SOL     OW20356   2.041   4.672   5.191 -0.0239 -0.1233  0.5794
 2966SOL    HW120357   2.084   0.027   5.164  0.3694 -1.1458 -1.8618
 2966SOL    HW220358   2.080   4.659   5.278  0.6290 -0.0831  0.2899
 2967SOL     OW20359   1.450   0.720   3.861 -0.2256  0.0213 -0.0252
 2967SOL    HW120360   1.420   0.630   3.855 -0.8716  0.2297  0.1529
 2967SOL    HW220361   1.464   0.733   3.955 -1.4766  0.9741  0.0310
 2968SOL     OW20362   2.482   4.033   6.121 -0.1583  0.0777 -0.3540
 2968SOL    HW120363   2.531   4.021   6.040 -1.0459 -0.3479 -0.8349
 2968SOL    HW220364   2.477   4.126   6.144  1.5747 -0.1918  1.1314
 2969SOL     OW20365   0.434   2.498   2.513  0.3224 -0.0581  0.3893
 2969SOL    HW120366   0.491   2.555   2.462  1.1705 -1.0581  0.2284
 2969SOL    HW220367   0.348   2.514   2.472  0.2102  0.4056  0.7995
 2970SOL     OW20368   1.622   2.159   2.881 -0.3668 -0.0250 -0.8383
 2970SOL    HW120369   1.693   2.224   2.881  0.7229 -1.2183 -0.2539
 2970SOL    HW220370   1.632   2.132   2.972  1.7466  0.9826 -0.7621
 2971SOL     OW20371   4.613   2.529  11.789 -0.2264  0.5076 -0.4703
 2971SOL    HW120372   4.641   2.539  11.698  2.7438  1.7101  0.5671
 2971SOL    HW220373   4.634   2.614  11.829  2.0851  0.2690 -1.2059
 2972SOL     OW20374   4.166   1.755  15.211 -0.0526  0.6451  0.2384
 2972SOL    HW120375   4.245   1.809  15.205 -1.0560  2.2564  1.7451
 2972SOL    HW220376   4.180   1.701  15.288 -1.7777 -0.8609 -0.5109
 2973SOL     OW20377   1.763   2.571   4.736 -0.3585  0.6752 -0.4960
 2973SOL    HW120378   1.822   2.498   4.716  0.8937  1.3547  0.6840
 2973SOL    HW220379   1.785   2.628   4.662  1.0175  0.9580  0.1336
 2974SOL     OW20380   0.010   3.515   5.394  0.2810 -0.2750 -0.0567
 2974SOL    HW120381   0.096   3.551   5.418  0.6970 -0.6974 -0.9346
 2974SOL    HW220382   4.705   3.576   5.327  1.3102  1.2909  0.9023
 2975SOL     OW20383   3.279   0.852   6.612  0.5408 -0.0915  0.4039
 2975SOL    HW120384   3.371   0.877   6.620 -0.0283  1.9116  0.7030
 2975SOL    HW220385   3.278   0.841   6.517  2.6480  1.1829  0.2179
 2976SOL     OW20386   4.723   0.529   9.056  0.4377  0.1752  0.4220
 2976SOL    HW120387   4.654   0.565   9.001  0.4131 -1.2953 -0.5027
 2976SOL    HW220388   0.045   0.472   8.995  0.6198  0.6925  0.0770
 2977SOL     OW20389   1.272   4.389   8.925 -0.3626  0.5540  0.2072
 2977SOL    HW120390   1.196   4.395   8.983 -0.3683  0.3417  0.2191
 2977SOL    HW220391   1.342   4.398   8.990 -0.1221  2.5078 -0.3152
 2978SOL     OW20392   0.284   4.721   5.833 -0.0509 -0.2205 -0.2521
 2978SOL    HW120393   0.338   0.074   5.844  0.8452 -0.8447 -0.1610
 2978SOL    HW220394   0.285   4.685   5.922 -1.8747  1.0202  0.2619
 2979SOL     OW20395   1.798   1.706   2.199 -0.1589  0.4056 -0.3377
 2979SOL    HW120396   1.810   1.758   2.278 -0.0625 -1.4752  0.8887
 2979SOL    HW220397   1.868   1.735   2.141  0.1374 -1.0812 -0.7305
 2980SOL     OW20398   2.143   4.555  10.260 -0.6025  0.8205  0.1749
 2980SOL    HW120399   2.161   4.639  10.216  0.9443 -0.1832 -1.1125
 2980SOL    HW220400   2.127   4.488  10.193 -1.7209  0.7932  0.4708
 2981SOL     OW20401   4.183   0.390   9.940  0.2399  0.0607  0.0622
 2981SOL    HW120402   4.231   0.402   9.858 -0.5616 -0.8441 -0.5463
 2981SOL    HW220403   4.235   0.325   9.988  0.6699  0.6076  0.3276
 2982SOL     OW20404   1.018   0.353   5.468  0.0201  0.6268  0.1728
 2982SOL    HW120405   0.986   0.269   5.502  0.0836  0.8218  0.7205
 2982SOL    HW220406   1.110   0.353   5.494  0.4290 -1.3068 -1.2861
 2983SOL     OW20407   1.205   4.485   4.630 -0.1556 -0.3166  0.4283
 2983SOL    HW120408   1.262   4.526   4.694 -1.3182 -2.6329  2.9399
 2983SOL    HW220409   1.126   4.540   4.624 -0.7496 -1.3297 -1.1989
 2984SOL     OW20410   1.058   1.928   3.303  0.5595  0.1545 -0.0356
 2984SOL    HW120411   1.136   1.873   3.297  0.7613  0.4140  0.1999
 2984SOL    HW220412   1.019   1.893   3.383  0.0774  0.4867 -0.1247
 2985SOL     OW20413   0.796   4.038   3.308 -0.2933  0.0100  0.1871
 2985SOL    HW120414   0.812   3.956   3.261 -1.1140 -0.8561  1.4149
 2985SOL    HW220415   0.711   4.027   3.352  0.5670 -1.3229  1.5218
 2986SOL     OW20416   0.332   3.661   5.826 -0.1315 -0.5334  0.0621
 2986SOL    HW120417   0.269   3.718   5.870 -0.9753 -1.0797 -0.4104
 2986SOL    HW220418   0.315   3.686   5.735  0.6956  1.0994  0.3722
 2987SOL     OW20419   3.069   0.021  16.355  0.2199 -0.4194  0.1268
 2987SOL    HW120420   3.024   0.070  16.285  0.5353 -0.0473  0.1838
 2987SOL    HW220421   3.127   0.092  16.380 -1.1007  1.2437 -1.5008
 2988SOL     OW20422   2.286   2.835  13.536  0.6060  0.1632  0.0825
 2988SOL    HW120423   2.371   2.863  13.504  1.2855 -2.5601 -0.4864
 2988SOL    HW220424   2.232   2.905  13.500  1.4717 -0.2570 -2.0311
 2989SOL     OW20425   0.286   0.996  11.637 -0.8851  0.2282 -0.4596
 2989SOL    HW120426   0.246   1.078  11.666 -1.5414  0.4358 -1.9576
 2989SOL    HW220427   0.361   1.029  11.587 -0.0757  0.0193  0.6198
 2990SOL     OW20428   4.250   2.532   9.737 -0.3744  0.2233  0.4434
 2990SOL    HW120429   4.194   2.512   9.812 -0.2863 -0.8924  0.2073
 2990SOL    HW220430   4.187   2.524   9.666  1.2662  1.8398 -1.2074
 2991SOL     OW20431   3.849   3.624   2.940  0.6284 -0.2380  0.5921
 2991SOL    HW120432   3.807   3.700   2.897  2.1588  1.1695  1.6053
 2991SOL    HW220433   3.915   3.673   2.988  1.8451 -0.1292 -1.1767
 2992SOL     OW20434   2.340   0.337   3.077 -0.4172  0.3811 -0.1633
 2992SOL    HW120435   2.410   0.371   3.022  0.2484 -0.0924  0.3854
 2992SOL    HW220436   2.367   0.375   3.161 -0.7357  0.3637 -0.0530
 2993SOL     OW20437   0.639   0.453  12.003  0.0027  0.4028  0.4192
 2993SOL    HW120438   0.663   0.540  12.035  0.5904  0.3311  0.1696
 2993SOL    HW220439   0.558   0.475  11.957  1.8727  0.0041 -3.0707
 2994SOL     OW20440   4.520   4.450   4.599  0.0840  0.0868 -0.2242
 2994SOL    HW120441   4.552   4.505   4.529 -0.5209 -0.3717 -0.8654
 2994SOL    HW220442   4.575   4.374   4.579  2.0189  1.2846  0.5399
 2995SOL     OW20443   4.392   0.893  11.857 -0.6806 -0.2962 -0.0044
 2995SOL    HW120444   4.463   0.831  11.840  1.4511  1.4262  2.6391
 2995SOL    HW220445   4.428   0.942  11.931 -0.4318  0.1219 -0.4069
 2996SOL     OW20446   4.324   4.614   6.240 -0.3417 -0.0301 -0.3934
 2996SOL    HW120447   4.302   4.567   6.321 -1.5156  0.6233 -0.3327
 2996SOL    HW220448   4.288   4.552   6.177  1.2182 -0.4764 -0.8504
 2997SOL     OW20449   0.872   2.603  14.130  0.0171 -0.0588 -0.7119
 2997SOL    HW120450   0.882   2.514  14.095  0.0230 -0.8149  1.2551
 2997SOL    HW220451   0.956   2.642  14.104 -0.8632  0.8688 -2.1870
 2998SOL     OW20452   4.116   2.540   8.621  0.0891  0.3523 -0.0528
 2998SOL    HW120453   4.120   2.477   8.549  1.5025 -1.1080  1.2989
 2998SOL    HW220454   4.035   2.511   8.664  0.9187 -1.4686  0.2840
 2999SOL     OW20455   2.984   4.655  14.390  0.2452  0.3437  0.5720
 2999SOL    HW120456   3.021   4.692  14.470 -0.3853  2.8148 -0.2524
 2999SOL    HW220457   3.069   4.625  14.360  0.8173  2.5399 -0.0555
 3000SOL     OW20458   2.856   0.621   9.430 -0.3337  0.4505  0.1130
 3000SOL    HW120459   2.807   0.576   9.361 -1.3274  0.5127  0.7950
 3000SOL    HW220460   2.878   0.702   9.384 -1.3029 -0.3138 -1.7025
 3001SOL     OW20461   3.434   3.950  11.003  0.2981  0.3908 -0.2111
 3001SOL    HW120462   3.388   3.905  11.074  0.0272 -2.0043 -1.8902
 3001SOL    HW220463   3.415   3.892  10.929  0.6093 -1.4595  1.1516
 3002SOL     OW20464   2.490   3.313   2.267 -0.1798 -0.1911  0.8799
 3002SOL    HW120465   2.538   3.230   2.259 -1.4909 -0.8983  0.3363
 3002SOL    HW220466   2.396   3.295   2.278 -0.4735  1.6677  1.2975
 3003SOL     OW20467   0.140   3.812   3.181 -0.0297 -0.2817 -0.6839
 3003SOL    HW120468   0.155   3.872   3.108 -0.7077  3.4188  2.1970
 3003SOL    HW220469   0.223   3.818   3.229  0.1688  1.8516 -1.2847
 3004SOL     OW20470   1.880   3.938  17.059 -0.4677  0.0016  0.2786
 3004SOL    HW120471   1.819   3.915  16.989  0.3738 -0.3996 -0.3164
 3004SOL    HW220472   1.866   4.033  17.061  1.9625  0.3078  2.3451
 3005SOL     OW20473   0.510   4.604  10.664  0.1037 -0.2323  0.4173
 3005SOL    HW120474   0.438   4.650  10.620 -0.5554  0.6610  2.4066
 3005SOL    HW220475   0.575   4.656  10.618  0.0401 -1.4833 -1.0757
 3006SOL     OW20476   3.015   1.869   6.115 -0.1026 -0.0224 -0.6745
 3006SOL    HW120477   3.033   1.792   6.060  0.5568  1.1176 -2.0399
 3006SOL    HW220478   2.922   1.881   6.094 -0.1674  1.7002  0.6620
 3007SOL     OW20479   2.584   3.703   2.749  0.3221  0.1559 -0.0889
 3007SOL    HW120480   2.663   3.668   2.789 -0.0319 -1.9725 -1.2790
 3007SOL    HW220481   2.587   3.692   2.654  2.5358 -1.4112  0.1733
 3008SOL     OW20482   1.138   3.661   7.853 -0.5862 -1.0116  0.2768
 3008SOL    HW120483   1.066   3.638   7.912 -0.6507 -2.3339 -0.3016
 3008SOL    HW220484   1.213   3.629   7.903 -0.9561 -3.7582 -0.8682
 3009SOL     OW20485   3.643   1.757   8.467 -0.0727 -0.1339 -0.0001
 3009SOL    HW120486   3.622   1.785   8.377 -0.8433 -0.8105 -0.0294
 3009SOL    HW220487   3.732   1.789   8.455 -1.0510  2.4708 -0.3847
 3010SOL     OW20488   0.454   4.594  13.651  0.1350 -0.3492 -0.0408
 3010SOL    HW120489   0.536   4.553  13.625  0.9126  1.1409  0.0487
 3010SOL    HW220490   0.396   4.518  13.658  2.0607 -2.0949 -3.1137
 3011SOL     OW20491   1.556   0.463   7.346  0.3903 -0.1459  0.2817
 3011SOL    HW120492   1.638   0.512   7.346  0.1628  0.2203 -0.4531
 3011SOL    HW220493   1.490   0.528   7.369  1.3782  2.1165 -3.3708
 3012SOL     OW20494   4.006   0.958  12.763  0.5395 -0.1964  0.2923
 3012SOL    HW120495   4.005   0.938  12.857 -0.7905  1.7863  0.7086
 3012SOL    HW220496   4.001   1.054  12.770 -0.0010 -0.1264 -1.1325
 3013SOL     OW20497   0.241   4.482   5.703 -0.4776  0.0148  0.3576
 3013SOL    HW120498   0.274   4.555   5.755 -0.4806  0.6702 -0.5612
 3013SOL    HW220499   0.325   4.475   5.657 -0.7974  0.4320 -0.2913
 3014SOL     OW20500   0.377   2.992   4.711  0.4409 -0.0695 -0.1745
 3014SOL    HW120501   0.420   2.911   4.739  1.4108  0.4253 -0.2523
 3014SOL    HW220502   0.375   3.044   4.792  0.6532 -0.2810 -0.0323
 3015SOL     OW20503   4.527   2.207   1.749 -0.4382 -0.1786  0.2510
 3015SOL    HW120504   4.553   2.294   1.719 -0.1916 -0.2067  0.3816
 3015SOL    HW220505   4.507   2.240   1.837  0.3216 -0.1523  0.4093
 3016SOL     OW20506   3.674   4.507   1.726  0.4518 -0.4634  0.0409
 3016SOL    HW120507   3.653   4.485   1.817 -0.5011 -2.6857 -0.7208
 3016SOL    HW220508   3.596   4.464   1.693  1.2362 -0.3087 -2.0047
 3017SOL     OW20509   1.315   1.765   8.159  0.0522 -0.0488  0.1664
 3017SOL    HW120510   1.353   1.684   8.193  1.0118  0.0768 -0.6396
 3017SOL    HW220511   1.391   1.823   8.166  0.8472 -1.2647  1.5469
 3018SOL     OW20512   2.103   1.603  11.434  0.2292  0.2838  0.1682
 3018SOL    HW120513   2.077   1.694  11.417 -0.2418 -0.7291 -4.7861
 3018SOL    HW220514   2.054   1.549  11.372  3.2053  0.2060 -2.1201
 3019SOL     OW20515   1.035   2.225   7.171 -0.1583 -0.1704 -0.5527
 3019SOL    HW120516   1.057   2.279   7.095 -1.2496  2.3116  0.8932
 3019SOL    HW220517   1.003   2.295   7.228  2.0094 -0.5954  1.2077
 3020SOL     OW20518   2.465   1.503  13.459 -0.4093  0.4663  0.3978
 3020SOL    HW120519   2.533   1.439  13.480  0.1713  0.8275 -0.3438
 3020SOL    HW220520   2.500   1.574  13.513  1.2209 -0.9619  1.2142
 3021SOL     OW20521   1.048   4.687   1.719  0.6157  0.0897  0.4730
 3021SOL    HW120522   1.118   4.637   1.762  0.4916 -1.6185 -1.3200
 3021SOL    HW220523   1.093   0.023   1.661  1.4140 -0.4178  0.5577
 3022SOL     OW20524   4.574   4.698   6.187 -0.1353 -0.8189  0.1317
 3022SOL    HW120525   4.485   4.670   6.209  0.3319 -0.6317  2.2491
 3022SOL    HW220526   4.566   0.056   6.141 -0.8319 -0.2394  1.3296
 3023SOL     OW20527   0.617   4.590  15.461 -0.0465  0.3069  0.7624
 3023SOL    HW120528   0.712   4.597  15.473 -0.1758  0.0645  1.8847
 3023SOL    HW220529   0.608   4.495  15.449 -0.4627  0.1505  2.4184
 3024SOL     OW20530   2.107   1.267   2.863 -0.2541  0.3478  0.1155
 3024SOL    HW120531   2.135   1.179   2.891  0.7873  0.3080 -1.0579
 3024SOL    HW220532   2.018   1.247   2.834 -0.1068  0.7612 -0.6188
 3025SOL     OW20533   0.138   3.132   1.018 -0.1242 -0.3151  0.5689
 3025SOL    HW120534   0.085   3.110   0.941 -0.9323  1.5685  0.5892
 3025SOL    HW220535   0.074   3.163   1.082  1.5672  0.2788  1.9560
 3026SOL     OW20536   2.551   2.533   2.856 -0.5055 -0.7490 -0.4756
 3026SOL    HW120537   2.491   2.585   2.803 -0.4128 -0.2061 -0.0559
 3026SOL    HW220538   2.633   2.568   2.821 -1.8586 -1.7490 -4.6144
 3027SOL     OW20539   1.519   2.499   9.787  0.4590  0.0046 -0.0310
 3027SOL    HW120540   1.518   2.421   9.843 -1.2592  2.1901  2.9573
 3027SOL    HW220541   1.450   2.473   9.725 -0.4899  2.1639  0.1119
 3028SOL     OW20542   4.708   3.182   5.198  0.3963  0.0539  0.3816
 3028SOL    HW120543   4.626   3.231   5.195 -1.1913 -2.8230 -2.3358
 3028SOL    HW220544   4.688   3.107   5.142 -3.3645  0.2604  1.4433
 3029SOL     OW20545   0.800   2.642   8.699  0.7150  0.2537 -0.1565
 3029SOL    HW120546   0.766   2.562   8.739  0.6387  0.9735  1.2045
 3029SOL    HW220547   0.853   2.592   8.635  0.6924  0.2354 -0.1609
 3030SOL     OW20548   2.888   2.021   9.052 -0.5328  0.3411 -0.1590
 3030SOL    HW120549   2.939   2.071   8.988  0.7117  1.2435  1.5340
 3030SOL    HW220550   2.865   2.076   9.127 -3.6738 -1.4291  0.1665
 3031SOL     OW20551   4.720   0.003   4.501  0.0630  0.1761 -0.2429
 3031SOL    HW120552   4.644   4.686   4.460 -1.8656  1.0695  2.4201
 3031SOL    HW220553   0.026   0.059   4.431 -0.1592  0.3488 -0.2047
 3032SOL     OW20554   0.210   3.281  12.556 -0.2515  0.2967  0.0930
 3032SOL    HW120555   0.239   3.356  12.503 -0.5085  1.4004  1.5245
 3032SOL    HW220556   0.183   3.230  12.479  2.1981 -2.4734  1.0860
 3033SOL     OW20557   1.937   4.113   2.596 -0.0819 -0.2206  0.5859
 3033SOL    HW120558   1.949   4.193   2.545  1.5762 -0.5648  0.4381
 3033SOL    HW220559   1.964   4.142   2.683  0.3060  0.0531  0.3746
 3034SOL     OW20560   1.294   3.521   6.968  0.6298  0.0395 -0.5528
 3034SOL    HW120561   1.334   3.499   7.052  0.6692 -1.2219 -0.9071
 3034SOL    HW220562   1.215   3.468   6.958  0.5605 -0.1006  0.7965
 3035SOL     OW20563   1.991   1.836   1.740 -0.9665  0.2657 -0.0729
 3035SOL    HW120564   1.938   1.848   1.819 -1.1419  0.1297 -0.1705
 3035SOL    HW220565   2.079   1.842   1.776  0.1148 -0.6846 -2.5749
 3036SOL     OW20566   0.600   0.596   4.704  0.0029  0.3007 -0.3947
 3036SOL    HW120567   0.556   0.518   4.669  1.7636 -1.2405  0.8097
 3036SOL    HW220568   0.600   0.652   4.627  0.7266  1.1725  0.2517
 3037SOL     OW20569   1.381   4.193   4.804 -0.2024  0.1846 -0.2520
 3037SOL    HW120570   1.437   4.139   4.748 -0.5830 -1.6572  1.1423
 3037SOL    HW220571   1.299   4.183   4.755 -0.2647  1.2734 -0.3634
 3038SOL     OW20572   4.678   0.898   6.306  0.1705  0.8483  0.0633
 3038SOL    HW120573   4.716   0.883   6.392  0.0549 -0.2162 -0.0784
 3038SOL    HW220574   0.037   0.918   6.263  0.8820  0.2269  1.1845
 3039SOL     OW20575   0.058   4.005   7.806  0.0244  0.0164 -0.1320
 3039SOL    HW120576   0.099   3.936   7.858 -1.0016  1.5575  2.7121
 3039SOL    HW220577   0.122   4.034   7.741 -0.8341  0.6215 -0.7114
 3040SOL     OW20578   0.117   1.717   2.354 -0.3592  0.1133  0.2700
 3040SOL    HW120579   0.073   1.635   2.375 -2.8490  0.8825 -1.8767
 3040SOL    HW220580   0.183   1.710   2.423  1.1956 -0.9933 -1.3238
 3041SOL     OW20581   3.809   0.951   7.786  0.1203  0.5593 -0.4959
 3041SOL    HW120582   3.860   1.023   7.747 -1.7194  2.0222 -0.2103
 3041SOL    HW220583   3.721   0.976   7.757 -0.3316  1.4855  1.6607
 3042SOL     OW20584   2.041   1.356   0.122  0.1859 -0.2113 -0.0276
 3042SOL    HW120585   2.129   1.372   0.088  1.0058 -1.6479  1.3840
 3042SOL    HW220586   2.053   1.263   0.143 -1.0407 -0.3747 -0.0108
 3043SOL     OW20587   1.097   0.822  10.335 -0.4344 -0.1629 -0.3535
 3043SOL    HW120588   1.064   0.899  10.287  1.6530  0.6790 -0.4250
 3043SOL    HW220589   1.094   0.843  10.428 -1.6804  0.9453 -0.6463
 3044SOL     OW20590   2.830   4.536   7.369  0.6947 -0.3926  0.0419
 3044SOL    HW120591   2.787   4.577   7.444  1.6437  0.2261  0.2506
 3044SOL    HW220592   2.763   4.553   7.303 -0.8726 -1.2296  1.4308
 3045SOL     OW20593   2.417   2.292   2.358  0.1352  0.2477  0.4949
 3045SOL    HW120594   2.373   2.276   2.441 -1.1731 -0.9650 -0.4305
 3045SOL    HW220595   2.482   2.222   2.365  0.5227  0.3759 -1.6506
 3046SOL     OW20596   1.821   0.627   6.776 -0.8240  0.2446  0.1154
 3046SOL    HW120597   1.729   0.602   6.783 -1.4361  2.6676  0.7779
 3046SOL    HW220598   1.849   0.555   6.720  3.4507  1.2652  0.9456
 3047SOL     OW20599   0.812   3.522   0.017 -0.0677 -0.5697 -0.1301
 3047SOL    HW120600   0.875   3.578  17.675  1.1551 -0.6638  1.4618
 3047SOL    HW220601   0.825   3.543   0.109 -0.9583 -1.0924  0.1112
 3048SOL     OW20602   3.667   0.791   5.491 -0.8953 -0.1924  0.5187
 3048SOL    HW120603   3.596   0.806   5.429  0.3930 -2.3674 -1.4885
 3048SOL    HW220604   3.652   0.853   5.563 -0.8793 -0.7026  0.9647
 3049SOL     OW20605   0.290   2.378  15.651  0.5991 -0.1239  0.1135
 3049SOL    HW120606   0.281   2.409  15.561  1.3497 -1.5778 -0.4795
 3049SOL    HW220607   0.264   2.454  15.702  1.6763 -0.0376  0.5388
 3050SOL     OW20608   0.666   1.238   7.885 -0.0900  1.1078  0.3233
 3050SOL    HW120609   0.706   1.296   7.820  0.6487 -0.0091 -0.1980
 3050SOL    HW220610   0.601   1.299   7.921 -1.4630 -1.0440  1.4942
 3051SOL     OW20611   0.417   0.798   3.979 -0.1254 -0.9372 -0.2406
 3051SOL    HW120612   0.399   0.851   4.056  0.1915 -0.1851 -0.6858
 3051SOL    HW220613   0.493   0.837   3.935 -0.6496 -1.4268 -1.5986
 3052SOL     OW20614   0.757   0.115   2.798  0.0155  0.3460  0.0318
 3052SOL    HW120615   0.713   0.109   2.883  0.7476 -0.0383  0.3841
 3052SOL    HW220616   0.752   0.022   2.773  1.7684  0.9022 -2.3449
 3053SOL     OW20617   1.172   1.452   6.751 -0.4779 -0.3056 -0.1873
 3053SOL    HW120618   1.233   1.455   6.678  0.5954  1.6458  0.7732
 3053SOL    HW220619   1.219   1.498   6.821 -2.5907  2.5789 -0.6776
 3054SOL     OW20620   1.934   2.363   8.966  0.1826 -0.1660 -0.2200
 3054SOL    HW120621   1.920   2.314   9.047  1.1536  0.9824  0.6385
 3054SOL    HW220622   1.981   2.310   8.902 -1.3560 -0.9750 -0.6920
 3055SOL     OW20623   1.760   1.163   4.787 -0.0287  0.3798  0.6053
 3055SOL    HW120624   1.845   1.185   4.748 -0.0671  0.6558  0.6759
 3055SOL    HW220625   1.734   1.252   4.809  0.0259  0.5908 -0.1899
 3056SOL     OW20626   3.201   2.211   5.410  0.1855  0.3658  0.2134
 3056SOL    HW120627   3.228   2.200   5.501 -0.6477 -5.2720 -0.2612
 3056SOL    HW220628   3.153   2.294   5.410 -2.4827 -1.1682 -0.1986
 3057SOL     OW20629   0.715   2.889   5.191 -0.7782 -0.0580 -0.1956
 3057SOL    HW120630   0.649   2.826   5.220  0.3098 -2.0039 -1.8982
 3057SOL    HW220631   0.661   2.955   5.149 -0.5268  1.3746  1.7341
 3058SOL     OW20632   0.254   0.828  12.616  0.5721 -0.1686 -0.3414
 3058SOL    HW120633   0.230   0.920  12.612  0.1204 -0.3791 -2.5967
 3058SOL    HW220634   0.179   0.778  12.649  0.8510 -2.7851 -3.6227
 3059SOL     OW20635   0.945   3.093   7.417  0.6894  0.0254  0.3158
 3059SOL    HW120636   0.957   3.026   7.484 -3.5225  0.2184  1.3058
 3059SOL    HW220637   0.919   3.157   7.484  0.3865  0.6219 -0.3703
 3060SOL     OW20638   4.534   1.247   8.023 -0.5181  0.2737  0.0586
 3060SOL    HW120639   4.522   1.234   8.117 -0.4205  1.2381  0.1960
 3060SOL    HW220640   4.573   1.160   8.011 -0.6031  0.1463  0.7015
 3061SOL     OW20641   2.062   4.251   1.072 -0.3395 -0.4708  0.4212
 3061SOL    HW120642   2.119   4.209   1.008  0.6158 -1.1772  1.7452
 3061SOL    HW220643   2.099   4.338   1.086  0.9984 -1.1250  0.9509
 3062SOL     OW20644   0.499   1.888   7.084  0.1633  0.1241 -0.3603
 3062SOL    HW120645   0.543   1.942   7.150 -0.8269  1.1965 -0.5591
 3062SOL    HW220646   0.405   1.896   7.102  0.2819  1.7662 -0.4380
 3063SOL     OW20647   0.216   0.878  12.906 -0.1512 -0.0715  0.3710
 3063SOL    HW120648   0.299   0.924  12.916 -1.2571  2.4542 -1.8853
 3063SOL    HW220649   0.238   0.829  12.827 -0.8552  1.2959 -0.6765
 3064SOL     OW20650   0.692   4.090   6.309  0.0708  0.5325  0.4118
 3064SOL    HW120651   0.647   4.161   6.263  0.1732  1.0103  1.0467
 3064SOL    HW220652   0.635   4.078   6.385  0.6479  0.4737  0.8323
 3065SOL     OW20653   0.695   3.727   0.663  0.5097  0.4908 -0.0167
 3065SOL    HW120654   0.653   3.683   0.589  0.6715 -0.8196  0.6805
 3065SOL    HW220655   0.727   3.655   0.717 -3.5399 -1.0490  0.2829
 3066SOL     OW20656   0.908   4.720   7.012 -0.1521 -0.9174 -0.0471
 3066SOL    HW120657   0.929   4.661   7.084  1.9488  0.6802  0.6378
 3066SOL    HW220658   0.987   0.000   6.958 -0.9406  0.5733 -1.0486
 3067SOL     OW20659   3.786   1.229   8.841  0.1851 -0.1590  0.1884
 3067SOL    HW120660   3.796   1.168   8.769 -0.4409 -0.0705  0.0308
 3067SOL    HW220661   3.696   1.256   8.824 -0.4575 -0.8066  2.5458
 3068SOL     OW20662   1.985   2.429   8.483  0.1508 -0.0034 -0.1892
 3068SOL    HW120663   1.995   2.358   8.546 -1.8529 -0.8638 -0.8315
 3068SOL    HW220664   1.987   2.393   8.395 -0.5450  0.0093 -0.2148
 3069SOL     OW20665   0.191   2.748   6.694  1.0944 -0.1964  0.5531
 3069SOL    HW120666   0.148   2.827   6.661  0.3145 -0.7772  0.1564
 3069SOL    HW220667   0.232   2.713   6.614  0.9764 -1.3535  1.0010
 3070SOL     OW20668   0.595   2.472  16.708 -0.0298  1.5206 -0.1959
 3070SOL    HW120669   0.626   2.458  16.798  2.8734  0.0464 -1.4232
 3070SOL    HW220670   0.674   2.452  16.658  1.2625 -0.4252  2.5892
 3071SOL     OW20671   4.313   4.349   1.456  0.1672  1.2412  0.1300
 3071SOL    HW120672   4.230   4.359   1.410 -0.3136  2.2932  1.2537
 3071SOL    HW220673   4.292   4.399   1.535 -1.8915  0.3204  0.1490
 3072SOL     OW20674   4.024   3.591  17.318 -0.1402  1.0117 -0.0487
 3072SOL    HW120675   4.042   3.595  17.412  0.3387 -1.6503 -0.0349
 3072SOL    HW220676   4.069   3.509  17.303  1.4403  1.5541  1.6756
 3073SOL     OW20677   1.266   2.368   7.704  0.2250  0.2373  0.2578
 3073SOL    HW120678   1.279   2.426   7.779 -2.1915  0.8482  0.2024
 3073SOL    HW220679   1.176   2.383   7.675  0.3761 -1.2031 -0.9234
 3074SOL     OW20680   3.300   2.772   7.284 -0.3290 -0.3921 -0.1706
 3074SOL    HW120681   3.302   2.679   7.307  1.2797 -0.7234 -1.6483
 3074SOL    HW220682   3.381   2.781   7.234  0.4044  1.1236  1.2875
 3075SOL     OW20683   1.531   0.660   4.896 -0.5677  0.3932 -0.3099
 3075SOL    HW120684   1.474   0.637   4.823  0.2206  0.1529 -0.8505
 3075SOL    HW220685   1.593   0.588   4.889 -1.1388 -0.1978  0.8617
 3076SOL     OW20686   0.034   3.764  14.100 -0.1489  0.1205  0.1024
 3076SOL    HW120687   4.713   3.840  14.135 -0.8038 -0.6618  0.9604
 3076SOL    HW220688   4.687   3.721  14.053 -1.1176 -0.3249  1.9798
 3077SOL     OW20689   4.364   2.184   9.795 -0.0945 -0.2727  0.2270
 3077SOL    HW120690   4.318   2.169   9.713 -0.7295  0.7520  0.3988
 3077SOL    HW220691   4.288   2.205   9.848  0.1254  1.7416 -0.2711
 3078SOL     OW20692   1.718   0.051   3.254  0.2865  0.0788  0.1412
 3078SOL    HW120693   1.760   0.106   3.188 -0.4631  1.2142  0.6188
 3078SOL    HW220694   1.794   0.023   3.304 -0.0882 -1.3522 -0.0943
 3079SOL     OW20695   4.255   3.571   2.905  0.1068  0.1602 -0.6729
 3079SOL    HW120696   4.233   3.652   2.951 -1.6396  0.1122 -1.4363
 3079SOL    HW220697   4.176   3.558   2.852  0.3474 -0.3462 -0.9098
 3080SOL     OW20698   4.241   1.910  13.393  0.1064 -0.1591  0.1676
 3080SOL    HW120699   4.309   1.844  13.403  1.0588  1.1634  2.4616
 3080SOL    HW220700   4.167   1.878  13.444 -1.6260 -0.7359 -2.6599
 3081SOL     OW20701   1.291   0.184   3.862  0.1649  0.0314 -0.0355
 3081SOL    HW120702   1.298   0.138   3.778  2.9985  1.3457 -0.5637
 3081SOL    HW220703   1.363   0.149   3.914  2.2154  1.9145 -1.5747
 3082SOL     OW20704   0.586   3.722   3.061  0.3556 -0.6973 -0.5290
 3082SOL    HW120705   0.495   3.694   3.060  0.5170 -1.3764  2.3291
 3082SOL    HW220706   0.621   3.653   3.004 -1.0791 -0.5685 -1.5551
 3083SOL     OW20707   2.562   1.569  12.629 -0.1219  0.5764 -0.0439
 3083SOL    HW120708   2.625   1.637  12.654 -0.0758  0.9255 -1.1144
 3083SOL    HW220709   2.616   1.501  12.588  0.1818  0.7169  0.1292
 3084SOL     OW20710   4.413   3.660   0.325  0.2337  0.4962 -0.3381
 3084SOL    HW120711   4.489   3.671   0.384 -0.2589  0.3907  0.3183
 3084SOL    HW220712   4.361   3.735   0.354 -1.4652 -0.5210 -0.8250
 3085SOL     OW20713   2.233   0.620   3.947 -0.2570  0.2100 -0.2109
 3085SOL    HW120714   2.156   0.647   3.998 -1.4966 -0.8050 -1.5282
 3085SOL    HW220715   2.206   0.659   3.864 -1.0106  0.7628  0.2935
 3086SOL     OW20716   1.766   1.640   8.149 -0.5705  0.2050  0.7790
 3086SOL    HW120717   1.832   1.682   8.094 -3.9915  2.3413 -1.7115
 3086SOL    HW220718   1.779   1.680   8.236 -0.2245  0.5414  0.5727
 3087SOL     OW20719   4.167   1.104   6.200  0.1741  0.6535 -0.6904
 3087SOL    HW120720   4.177   1.140   6.113 -1.3655  0.2358 -1.0355
 3087SOL    HW220721   4.093   1.044   6.189  1.1926 -0.1019 -3.3513
 3088SOL     OW20722   4.442   0.631   2.585 -0.3414 -0.3647 -0.7004
 3088SOL    HW120723   4.414   0.641   2.494  1.5990  0.5045 -1.2027
 3088SOL    HW220724   4.536   0.629   2.568 -0.5935 -1.4050 -2.0105
 3089SOL     OW20725   3.467   3.082  10.586  0.1876 -0.0597  0.0142
 3089SOL    HW120726   3.400   3.088  10.653 -2.4628  0.1851 -2.6367
 3089SOL    HW220727   3.485   2.990  10.604 -0.7095 -0.5343 -1.4867
 3090SOL     OW20728   0.786   4.125   9.748 -0.3450 -0.1681  0.2012
 3090SOL    HW120729   0.863   4.155   9.700  0.1764 -2.3501 -0.3363
 3090SOL    HW220730   0.831   4.127   9.833  1.4943 -0.0052 -0.7646
 3091SOL     OW20731   1.398   2.299  15.678  0.4822  0.4543  0.5583
 3091SOL    HW120732   1.378   2.281  15.770 -0.3988  0.9239  0.4647
 3091SOL    HW220733   1.462   2.230  15.664  1.4567  1.4385  0.1445
 3092SOL     OW20734   3.705   4.017   3.068 -0.3484 -0.1355  0.3700
 3092SOL    HW120735   3.672   4.052   2.985  0.6973  0.0012  0.0074
 3092SOL    HW220736   3.624   3.991   3.112 -0.1030 -0.3431  0.6987
 3093SOL     OW20737   3.242   0.422   4.612 -0.0417  0.0797 -0.2884
 3093SOL    HW120738   3.295   0.456   4.540  0.1720  3.6836  1.5393
 3093SOL    HW220739   3.227   0.331   4.590 -1.1375  0.4639 -1.1252
 3094SOL     OW20740   2.612   1.931   8.971  0.1876  0.0163  0.3796
 3094SOL    HW120741   2.707   1.933   8.967  0.2428 -2.2707  0.0552
 3094SOL    HW220742   2.588   1.900   8.883 -0.8294 -1.1348  1.0624
 3095SOL     OW20743   1.092   3.467   4.293  0.0598 -0.2264 -0.3487
 3095SOL    HW120744   0.998   3.448   4.299  0.5736 -3.2440 -1.7646
 3095SOL    HW220745   1.126   3.438   4.377 -1.5255  0.7385  0.6142
 3096SOL     OW20746   1.974   1.016   8.071  0.5325  0.2892 -0.1533
 3096SOL    HW120747   1.933   0.935   8.043 -1.6625  0.9859  1.0995
 3096SOL    HW220748   1.927   1.043   8.149  0.2317  0.3426 -0.3541
 3097SOL     OW20749   1.523   3.399   9.818 -0.2749  0.1548  0.1091
 3097SOL    HW120750   1.544   3.400   9.912 -2.2830 -0.0102  0.5586
 3097SOL    HW220751   1.432   3.373   9.832 -0.4075  0.3475 -0.3990
 3098SOL     OW20752   3.157   2.062   2.500 -0.3467 -0.4360  0.6420
 3098SOL    HW120753   3.192   2.027   2.418  0.3722  0.3556  0.6042
 3098SOL    HW220754   3.107   2.139   2.472  1.0333 -0.3166 -1.5115
 3099SOL     OW20755   3.542   3.088   7.763 -0.5018  0.0152 -0.0293
 3099SOL    HW120756   3.630   3.101   7.729 -0.5043 -1.2798 -0.5409
 3099SOL    HW220757   3.561   3.100   7.856  0.3140  0.8740 -0.3109
 3100SOL     OW20758   1.005   3.999   5.993  0.2838  0.7096 -0.1141
 3100SOL    HW120759   1.014   3.944   5.915  2.9841 -2.0114  2.1264
 3100SOL    HW220760   0.971   4.080   5.955 -0.3412 -0.3334 -1.7485
 3101SOL     OW20761   1.720   1.572  15.163  0.0149 -0.1162 -0.2126
 3101SOL    HW120762   1.746   1.606  15.249  0.8271 -0.5232 -0.2993
 3101SOL    HW220763   1.805   1.547  15.127 -0.8291 -0.8922 -1.6496
 3102SOL     OW20764   1.938   2.428   0.669  0.6759  0.5889  0.8414
 3102SOL    HW120765   1.924   2.483   0.592  3.1633  0.9014  0.6062
 3102SOL    HW220766   1.976   2.481   0.739 -0.3787 -1.4831  3.0147
 3103SOL     OW20767   3.671   2.667   8.604 -0.0529 -0.1864  0.3597
 3103SOL    HW120768   3.630   2.627   8.681 -0.6805  0.6345  0.4375
 3103SOL    HW220769   3.649   2.758   8.620  1.8600  0.2247  0.6803
 3104SOL     OW20770   2.128   1.269   6.849  0.0573  0.3013 -0.2220
 3104SOL    HW120771   2.082   1.313   6.921  0.0350 -0.9397  0.5300
 3104SOL    HW220772   2.067   1.288   6.778  0.8406  0.2542 -0.8967
 3105SOL     OW20773   0.889   4.214   6.562 -0.2143 -0.1374  0.5553
 3105SOL    HW120774   0.939   4.293   6.541 -0.9142 -0.1508 -1.1733
 3105SOL    HW220775   0.849   4.200   6.476 -1.4044 -1.2808  1.2908
 3106SOL     OW20776   0.750   0.071  13.960 -0.1029  0.0477 -0.3775
 3106SOL    HW120777   0.690   4.724  13.976 -1.2907  0.7382 -1.7127
 3106SOL    HW220778   0.814   0.033  13.900 -2.3982 -0.2526 -2.6501
 3107SOL     OW20779   0.649   4.289  14.788  0.2261 -0.3348 -0.7648
 3107SOL    HW120780   0.676   4.229  14.857 -0.8340  0.9476  0.7728
 3107SOL    HW220781   0.668   4.376  14.825  0.6953  0.3693 -2.6702
 3108SOL     OW20782   0.431   3.182   4.123  0.8146 -0.5033  0.6432
 3108SOL    HW120783   0.466   3.097   4.098  0.2708 -0.1347 -1.4577
 3108SOL    HW220784   0.500   3.244   4.097 -0.3862  0.3205 -0.5967
 3109SOL     OW20785   2.244   0.042   6.786  0.1067  0.5311  0.2261
 3109SOL    HW120786   2.173   4.720   6.743 -0.0737  0.1623  0.9206
 3109SOL    HW220787   2.212   0.069   6.872 -1.1032 -0.2279  0.0161
 3110SOL     OW20788   2.925   3.927   6.861  0.3276  0.3952 -0.0907
 3110SOL    HW120789   2.837   3.932   6.823  0.6315 -0.2642 -0.8667
 3110SOL    HW220790   2.898   3.915   6.952  2.3561  1.1572  0.6061
 3111SOL     OW20791   1.822   4.119   6.451  0.0169  0.0757  0.2143
 3111SOL    HW120792   1.755   4.140   6.516 -1.5297 -2.0031 -0.6706
 3111SOL    HW220793   1.781   4.039   6.417 -0.6446  1.3412 -1.9715
 3112SOL     OW20794   4.356   2.397   1.975 -1.0334 -0.6202 -0.0498
 3112SOL    HW120795   4.418   2.469   1.973 -0.8039 -0.8508 -1.2591
 3112SOL    HW220796   4.274   2.444   1.993  0.5986  1.7914  1.1253
 3113SOL     OW20797   4.290   0.781   8.240  0.2782 -0.4883 -1.1116
 3113SOL    HW120798   4.271   0.871   8.266 -0.9310 -0.7906 -0.9446
 3113SOL    HW220799   4.213   0.765   8.184 -0.2339 -2.0134  0.0211
 3114SOL     OW20800   3.429   4.158   2.657  0.4296 -0.4308 -0.4072
 3114SOL    HW120801   3.368   4.178   2.585 -1.1323 -0.2159  0.9681
 3114SOL    HW220802   3.449   4.249   2.678 -1.3981 -0.3746  1.1243
 3115SOL     OW20803   4.164   1.593   3.306  0.7521 -0.9348 -0.2767
 3115SOL    HW120804   4.168   1.569   3.213 -1.0924 -0.6659 -0.4266
 3115SOL    HW220805   4.169   1.507   3.348 -1.7994 -0.2293  1.4998
 3116SOL     OW20806   2.321   1.186   1.015 -0.2452  0.1257 -0.2241
 3116SOL    HW120807   2.282   1.165   0.931  0.9373  0.9988 -0.9826
 3116SOL    HW220808   2.385   1.115   1.023 -1.6100 -0.7614  2.8426
 3117SOL     OW20809   3.409   0.186  13.013  0.3259 -0.2752  0.0109
 3117SOL    HW120810   3.342   0.118  13.007  2.9119 -2.6952 -1.4568
 3117SOL    HW220811   3.487   0.135  13.032 -0.7094 -1.6377  0.6269
 3118SOL     OW20812   3.661   0.797  10.830 -0.2199 -0.4151 -0.6467
 3118SOL    HW120813   3.750   0.780  10.800 -0.0187 -0.3873 -0.0533
 3118SOL    HW220814   3.650   0.876  10.777  2.4452  0.4723  0.1333
 3119SOL     OW20815   3.794   0.307   5.960 -0.6842  0.2539 -0.6735
 3119SOL    HW120816   3.824   0.272   6.044  0.3769 -1.1829 -1.6629
 3119SOL    HW220817   3.826   0.240   5.900  1.4084  0.2486  0.4823
 3120SOL     OW20818   1.815   4.259   9.252  0.3081  0.1626 -0.0393
 3120SOL    HW120819   1.788   4.303   9.332 -0.0154  1.3192 -0.7821
 3120SOL    HW220820   1.897   4.218   9.281 -0.3091  0.1847  1.7337
 3121SOL     OW20821   1.489   0.107   4.667  0.1760 -0.4856 -0.0549
 3121SOL    HW120822   1.550   0.179   4.648 -0.6802  0.4149  0.6555
 3121SOL    HW220823   1.542   0.065   4.735  0.3943  1.0448  0.7251
 3122SOL     OW20824   1.059   0.101   2.901  0.3550  0.4683 -0.0646
 3122SOL    HW120825   1.055   0.116   2.807 -1.3418  1.3070  0.1415
 3122SOL    HW220826   1.130   0.037   2.901  1.0250  1.2149 -1.4749
 3123SOL     OW20827   4.076   2.679   1.766 -0.0448 -0.0730 -0.0500
 3123SOL    HW120828   4.160   2.633   1.764 -0.6838 -1.2804  0.7483
 3123SOL    HW220829   4.008   2.612   1.776 -1.5316  1.5754  0.8518
 3124SOL     OW20830   2.126   2.114   3.954  0.1263  0.4439  0.6585
 3124SOL    HW120831   2.185   2.167   3.899 -1.3869  0.4518 -0.9482
 3124SOL    HW220832   2.170   2.091   4.036  1.2871  0.0259 -0.0753
 3125SOL     OW20833   0.267   4.279  10.239  0.1419 -0.0877 -0.3735
 3125SOL    HW120834   0.253   4.238  10.325 -0.8649 -1.3408 -1.1280
 3125SOL    HW220835   0.185   4.256  10.196  0.7455 -1.3109 -0.8810
 3126SOL     OW20836   4.223   2.744   8.789 -0.4045 -0.4880 -0.1844
 3126SOL    HW120837   4.145   2.751   8.845  0.5489  2.6968  0.7740
 3126SOL    HW220838   4.196   2.673   8.731  1.8640 -0.8320 -0.7911
 3127SOL     OW20839   3.735   0.026   5.512 -0.2445  0.3504 -0.2540
 3127SOL    HW120840   3.756   0.118   5.496 -1.8881  0.5602 -1.1823
 3127SOL    HW220841   3.821   4.713   5.531 -1.2000 -0.2211  2.9808
 3128SOL     OW20842   2.944   3.600  12.862 -0.2708 -0.5519 -0.3575
 3128SOL    HW120843   2.969   3.526  12.805  1.6564 -0.5028  0.4354
 3128SOL    HW220844   2.994   3.664  12.811 -0.2814  0.4342  0.8698
 3129SOL     OW20845   3.832   3.140   2.452 -0.3748 -0.7027  0.3112
 3129SOL    HW120846   3.775   3.123   2.527  1.7607  0.1824  2.1085
 3129SOL    HW220847   3.867   3.051   2.446 -0.4325 -0.6048 -1.5030
 3130SOL     OW20848   3.764   0.584   2.860  0.4230  0.1177 -0.4099
 3130SOL    HW120849   3.697   0.603   2.795 -0.5094  1.0938  0.8218
 3130SOL    HW220850   3.820   0.661   2.865 -1.6823  1.7154 -1.7542
 3131SOL     OW20851   1.640   4.378   6.459  0.5958  0.2843 -0.9884
 3131SOL    HW120852   1.629   4.289   6.494 -1.4163  1.2279  0.7994
 3131SOL    HW220853   1.694   4.414   6.529 -0.3866  0.7645 -0.4699
 3132SOL     OW20854   0.600   0.687  14.582 -0.8104  0.1727  0.1303
 3132SOL    HW120855   0.511   0.704  14.551 -0.6295 -1.2811 -1.2023
 3132SOL    HW220856   0.624   0.617  14.521 -2.8288  0.2855 -0.7895
 3133SOL     OW20857   1.579   0.106  11.423 -0.4781 -0.6252  0.4559
 3133SOL    HW120858   1.531   0.029  11.391  0.0156 -0.4882 -0.6391
 3133SOL    HW220859   1.552   0.117  11.514 -0.4681  2.1864  0.1118
 3134SOL     OW20860   2.539   4.610   4.532  0.4012 -0.5592 -0.4322
 3134SOL    HW120861   2.460   4.586   4.485 -1.0055  1.6423  0.8314
 3134SOL    HW220862   2.515   4.572   4.617  0.1270 -3.4802 -1.8340
 3135SOL     OW20863   4.146   3.359  17.285  0.0147 -0.0022  0.1970
 3135SOL    HW120864   4.170   3.354  17.192  2.4113 -1.0733  0.8700
 3135SOL    HW220865   4.233   3.335  17.318 -0.1125  1.6835  1.7853
 3136SOL     OW20866   2.534   0.077  15.967 -0.5569 -0.3016 -0.5663
 3136SOL    HW120867   2.605   0.025  16.004  0.6892  0.7791 -1.4293
 3136SOL    HW220868   2.519   0.035  15.883 -3.6835  0.4775 -0.3909
 3137SOL     OW20869   4.685   0.925   7.260  0.0012  0.3704  0.0610
 3137SOL    HW120870   0.015   0.849   7.242 -0.8321  0.1098 -1.4353
 3137SOL    HW220871   4.600   0.880   7.261  0.2770 -0.1690 -0.4412
 3138SOL     OW20872   2.772   0.204   2.632 -0.6926  0.0406  0.0905
 3138SOL    HW120873   2.803   0.244   2.551 -1.2078  1.1278  0.4282
 3138SOL    HW220874   2.790   0.278   2.690  0.4324 -2.1926  2.5589
 3139SOL     OW20875   4.329   1.666   7.262  0.7430  0.4200 -1.0029
 3139SOL    HW120876   4.238   1.691   7.250  0.9335  0.7843 -1.7200
 3139SOL    HW220877   4.354   1.665   7.169  1.8846  0.8412 -0.6966
 3140SOL     OW20878   2.037   3.465   2.734 -0.0683 -0.1247  0.6331
 3140SOL    HW120879   2.108   3.413   2.769  0.1475 -0.2748 -0.0220
 3140SOL    HW220880   2.011   3.503   2.818  0.3066  0.2752  0.5675
 3141SOL     OW20881   1.504   2.750   0.743  0.1459  0.3690  0.3134
 3141SOL    HW120882   1.587   2.745   0.697 -0.1950 -1.2965 -0.0925
 3141SOL    HW220883   1.480   2.835   0.706 -0.2368 -0.2403 -0.8212
 3142SOL     OW20884   3.340   3.015  10.321  1.3103 -0.5398 -0.7855
 3142SOL    HW120885   3.278   3.018  10.394  1.0139 -0.3199 -1.0473
 3142SOL    HW220886   3.385   3.099  10.327  1.6181 -0.7920  0.4128
 3143SOL     OW20887   1.698   2.513   9.432  0.3965  0.4356  0.0290
 3143SOL    HW120888   1.736   2.425   9.425  0.6238  0.4564  1.1395
 3143SOL    HW220889   1.632   2.525   9.363  1.0393  0.0770 -0.6471
 3144SOL     OW20890   1.702   1.931   5.779  0.3263 -0.4243  0.0424
 3144SOL    HW120891   1.684   1.900   5.867 -2.5441  1.3253  0.0550
 3144SOL    HW220892   1.746   1.851   5.749 -1.2973 -0.8266 -1.2571
 3145SOL     OW20893   2.280   0.063   0.109  0.3308 -0.1226 -0.6949
 3145SOL    HW120894   2.247   0.151   0.127 -0.1926 -0.8146  1.7587
 3145SOL    HW220895   2.338   0.079   0.034  3.6503 -0.3926  1.7822
 3146SOL     OW20896   2.609   2.891   4.709  0.2919  0.4475 -0.0400
 3146SOL    HW120897   2.671   2.934   4.650 -0.4993  0.6494 -0.7151
 3146SOL    HW220898   2.639   2.801   4.719  2.3009  1.0684 -0.5411
 3147SOL     OW20899   2.027   4.475   4.304  0.1033  0.8468  0.0910
 3147SOL    HW120900   2.076   4.409   4.255  1.5308  1.2424  0.9779
 3147SOL    HW220901   1.996   4.428   4.382  0.3105 -0.6620 -0.7369
 3148SOL     OW20902   1.790   0.659  16.241 -0.1434 -0.6749 -0.0254
 3148SOL    HW120903   1.718   0.688  16.296 -0.9407 -1.6292 -0.5681
 3148SOL    HW220904   1.804   0.731  16.180  0.0237  1.0886  2.1172
 3149SOL     OW20905   4.083   2.421  15.148 -0.1099  0.0838  0.0265
 3149SOL    HW120906   4.037   2.503  15.166  1.0540  0.2988  1.9906
 3149SOL    HW220907   4.038   2.398  15.067  1.7561  0.4278 -1.1220
 3150SOL     OW20908   4.174   4.115  10.094  0.2887 -0.1483  1.1381
 3150SOL    HW120909   4.206   4.128  10.005 -0.1413 -3.1059  0.5528
 3150SOL    HW220910   4.111   4.046  10.074  0.6162  0.5606 -2.3482
 3151SOL     OW20911   4.386   0.302   5.440 -0.1648  0.1858 -0.1104
 3151SOL    HW120912   4.316   0.288   5.503  0.7264 -1.2815  0.5725
 3151SOL    HW220913   4.408   0.392   5.464  0.0735 -0.0722  0.6414
 3152SOL     OW20914   4.104   0.976   1.122 -0.1833  0.0884 -0.3127
 3152SOL    HW120915   4.137   0.935   1.042  0.8341 -2.2590  1.3388
 3152SOL    HW220916   4.036   0.919   1.157  1.6248 -1.6361  0.3472
 3153SOL     OW20917   0.517   3.884   5.514  0.0788  0.2023  0.1981
 3153SOL    HW120918   0.452   3.954   5.517  0.8444  0.8403  1.8896
 3153SOL    HW220919   0.523   3.886   5.418 -2.7239 -3.0930 -0.0442
 3154SOL     OW20920   0.592   1.526  11.915 -0.0999  0.5990 -0.2398
 3154SOL    HW120921   0.585   1.431  11.902  1.0955  0.2886  1.3549
 3154SOL    HW220922   0.497   1.539  11.911 -0.2511 -0.5519 -0.3253
 3155SOL     OW20923   4.654   3.667   6.004 -0.1006 -0.0462  0.0451
 3155SOL    HW120924   4.560   3.660   6.021 -0.0739 -0.7556 -0.1135
 3155SOL    HW220925   4.664   3.606   5.931 -1.9392  1.4404 -1.4600
 3156SOL     OW20926   3.338   2.067   8.962  0.1106 -0.4139 -0.0077
 3156SOL    HW120927   3.314   2.061   9.055  0.7112 -2.1753  0.0261
 3156SOL    HW220928   3.430   2.091   8.968  0.0735 -1.1529  3.7878
 3157SOL     OW20929   0.505   0.004   6.672 -0.1812  0.5567 -0.0345
 3157SOL    HW120930   0.568   0.067   6.635  0.0317  0.9476  0.9813
 3157SOL    HW220931   0.416   0.038   6.662  0.4835  1.8778 -1.5069
 3158SOL     OW20932   2.504   4.009   2.370 -0.5143  0.1406 -0.3753
 3158SOL    HW120933   2.502   4.008   2.274 -0.6496  2.1718 -0.4006
 3158SOL    HW220934   2.418   3.975   2.393 -0.2421  0.4959  1.1897
 3159SOL     OW20935   1.584   0.234   7.155  0.1476  0.4752 -0.3988
 3159SOL    HW120936   1.623   0.242   7.068  1.9542 -1.9327  0.1900
 3159SOL    HW220937   1.573   0.327   7.175  0.2264  0.1551  1.1581
 3160SOL     OW20938   3.399   3.267   7.315 -0.6134 -0.1951  0.0042
 3160SOL    HW120939   3.388   3.174   7.335  5.6790 -1.3790 -2.0362
 3160SOL    HW220940   3.428   3.301   7.400  1.4234 -1.0019 -0.3654
 3161SOL     OW20941   1.468   1.112  10.403  0.1231  0.0685  0.3453
 3161SOL    HW120942   1.496   1.170  10.333  0.4852  1.5924  1.7697
 3161SOL    HW220943   1.437   1.040  10.348  0.8126 -0.8634  1.1802
 3162SOL     OW20944   1.653   4.238   9.514  0.1187  0.5122  0.2187
 3162SOL    HW120945   1.598   4.162   9.494 -0.1484  0.6832  0.3161
 3162SOL    HW220946   1.587   4.305   9.525  0.1885  0.3050  1.8661
 3163SOL     OW20947   1.220   3.811   0.494 -0.3738 -0.8893 -0.2881
 3163SOL    HW120948   1.199   3.816   0.401 -1.3675  1.4823  0.0879
 3163SOL    HW220949   1.165   3.738   0.523 -0.2158 -1.5403 -1.6353
 3164SOL     OW20950   4.561   1.963   7.845  0.1757 -0.0995 -0.2577
 3164SOL    HW120951   4.505   1.914   7.906 -0.2817 -0.1011 -0.6824
 3164SOL    HW220952   4.544   1.928   7.758 -0.3869 -2.0044  0.6160
 3165SOL     OW20953   3.338   4.060  14.074  0.0339 -0.1754 -0.1530
 3165SOL    HW120954   3.369   3.970  14.084 -1.0804 -0.5531 -0.0393
 3165SOL    HW220955   3.250   4.051  14.037  0.2968 -0.8381 -0.6107
 3166SOL     OW20956   1.910   2.514   5.401  0.1009  0.8331 -0.0597
 3166SOL    HW120957   2.004   2.532   5.397  0.3117 -0.3660 -0.5412
 3166SOL    HW220958   1.887   2.555   5.317  1.3335  0.8663 -0.3786
 3167SOL     OW20959   2.397   2.987   4.813  0.2099  0.3927  0.1019
 3167SOL    HW120960   2.476   2.958   4.767 -0.0870  1.2899 -0.9809
 3167SOL    HW220961   2.444   3.033   4.883  2.2610 -1.1212 -0.2899
 3168SOL     OW20962   2.571   3.475  15.713 -0.4419 -0.1339  0.5342
 3168SOL    HW120963   2.568   3.458  15.618  2.2733 -1.3058  0.6415
 3168SOL    HW220964   2.546   3.384  15.729  2.5594 -0.7907  1.5466
 3169SOL     OW20965   2.253   4.455   5.852  0.6638  0.1839  0.0160
 3169SOL    HW120966   2.296   4.510   5.917  0.3256 -2.4313  2.4124
 3169SOL    HW220967   2.234   4.386   5.915 -1.6111  1.6830  0.9767
 3170SOL     OW20968   4.138   1.939   0.048  0.0213 -0.8215  0.0010
 3170SOL    HW120969   4.232   1.931   0.030  0.6373  1.9376  2.0866
 3170SOL    HW220970   4.151   1.956   0.141 -0.0739  1.0595 -0.3273
 3171SOL     OW20971   0.406   3.808   6.205  0.1650  0.3882 -0.1925
 3171SOL    HW120972   0.358   3.852   6.135 -2.3517 -1.8393  0.1343
 3171SOL    HW220973   0.396   3.872   6.275  1.1049 -0.4388  0.6973
 3172SOL     OW20974   0.149   3.416   8.730  0.3820  0.1859 -0.2370
 3172SOL    HW120975   0.211   3.406   8.802 -1.2905 -0.0199  1.1653
 3172SOL    HW220976   0.074   3.366   8.762 -0.7172  1.7928 -0.2796
 3173SOL     OW20977   3.819   4.703   1.983  0.0330  0.2875 -0.2664
 3173SOL    HW120978   3.732   4.721   1.945 -0.1595  0.6873  0.3525
 3173SOL    HW220979   3.865   4.700   1.900 -0.7908  0.0511 -0.7185
 3174SOL     OW20980   3.296   0.894   0.989 -0.3838  0.1236 -0.0242
 3174SOL    HW120981   3.380   0.896   1.033 -1.6136  0.2031  2.3001
 3174SOL    HW220982   3.227   0.916   1.051 -0.2635  0.1213  0.1092
 3175SOL     OW20983   2.052   1.131   3.279 -0.4751 -0.1337 -0.1178
 3175SOL    HW120984   2.023   1.040   3.287 -0.2277 -0.3246 -1.4651
 3175SOL    HW220985   2.109   1.132   3.356 -1.0424  2.3141  0.2706
 3176SOL     OW20986   4.407   2.220   0.923  0.2941  0.1918  0.1246
 3176SOL    HW120987   4.331   2.175   0.959  2.3054 -1.5531  2.2027
 3176SOL    HW220988   4.471   2.149   0.915 -1.5574 -1.3417 -1.0263
 3177SOL     OW20989   2.059   4.183  10.553 -0.4727 -0.1917 -0.3200
 3177SOL    HW120990   1.977   4.167  10.506 -1.0316  0.6202  0.3632
 3177SOL    HW220991   2.040   4.164  10.645 -1.2633 -2.4915 -0.9481
 3178SOL     OW20992   3.774   0.754  15.334 -0.4649  0.3691 -0.0522
 3178SOL    HW120993   3.827   0.713  15.265  2.0121 -0.6075  2.4174
 3178SOL    HW220994   3.692   0.765  15.287  0.0044  0.0106 -0.9444
 3179SOL     OW20995   0.715   0.617   7.553  0.5104 -0.4890 -0.5935
 3179SOL    HW120996   0.665   0.616   7.635 -1.9011 -1.7925 -2.0561
 3179SOL    HW220997   0.663   0.550   7.508  0.5070 -0.4614 -0.6307
 3180SOL     OW20998   1.290   4.401  17.546 -0.9915 -0.6131  0.0810
 3180SOL    HW120999   1.277   4.441  17.460  1.9484  0.4289  0.1030
 3180SOL    HW221000   1.201   4.387  17.578 -0.4481 -1.6228  1.1243
 3181SOL     OW21001   4.594   0.430   0.886  0.3490  0.2808 -0.2995
 3181SOL    HW121002   4.594   0.362   0.953  0.1455  0.5724 -0.0006
 3181SOL    HW221003   4.676   0.411   0.842  0.6037 -1.6737  1.0305
 3182SOL     OW21004   1.908   3.396   6.795 -0.2883  0.7148 -0.4572
 3182SOL    HW121005   1.966   3.420   6.722 -0.4369  1.3302 -0.3716
 3182SOL    HW221006   1.892   3.306   6.768  2.7420  0.0943 -0.1741
 3183SOL     OW21007   0.236   2.303   7.613 -0.3614  0.5624  0.4817
 3183SOL    HW121008   0.313   2.351   7.583  0.1450 -0.7342 -0.3331
 3183SOL    HW221009   0.197   2.271   7.532  0.3564 -3.8302  1.8474
 3184SOL     OW21010   4.249   3.930  16.446 -0.1903 -0.4887 -0.3496
 3184SOL    HW121011   4.246   3.838  16.417 -1.5189 -0.1120 -1.3972
 3184SOL    HW221012   4.200   3.977  16.379  0.1161 -1.0106 -0.9391
 3185SOL     OW21013   0.103   0.410   5.696 -0.5222  0.2981 -0.1739
 3185SOL    HW121014   0.157   0.451   5.628 -0.5453  0.4776 -0.0837
 3185SOL    HW221015   0.099   0.486   5.755 -1.5137 -1.2405  1.7416
 3186SOL     OW21016   3.015   4.137  15.565 -0.1432  0.0295  0.1127
 3186SOL    HW121017   2.950   4.076  15.600 -0.3780 -0.3901 -1.0890
 3186SOL    HW221018   2.987   4.209  15.621 -1.5078 -1.2520  1.0938
 3187SOL     OW21019   1.896   1.330  11.994  0.7744 -0.3914 -0.2169
 3187SOL    HW121020   1.888   1.323  12.089 -0.1105  1.2103 -0.1635
 3187SOL    HW221021   1.966   1.395  11.990  0.3651 -0.0362 -1.5510
 3188SOL     OW21022   3.342   2.739   6.864 -0.0850 -0.5271 -0.0714
 3188SOL    HW121023   3.341   2.679   6.939  1.4601  0.4598  0.7361
 3188SOL    HW221024   3.425   2.783   6.881  1.2727 -2.7234 -0.8641
 3189SOL     OW21025   0.649   2.420  16.987  0.0964 -0.2951 -0.5229
 3189SOL    HW121026   0.668   2.358  17.057 -0.2768  0.6602  0.4162
 3189SOL    HW221027   0.555   2.428  17.002  0.5410  1.7585  1.2625
 3190SOL     OW21028   1.613   0.821   5.502 -0.5178 -0.5161  0.0324
 3190SOL    HW121029   1.703   0.830   5.534 -0.6537  0.6981  0.0850
 3190SOL    HW221030   1.629   0.792   5.412  2.5183 -0.2900  0.4913
 3191SOL     OW21031   2.950   0.256  11.021  0.2800  0.0677  0.0476
 3191SOL    HW121032   2.958   0.320  10.951  0.2368 -0.3621 -0.3488
 3191SOL    HW221033   2.872   0.206  10.999  0.3061 -0.4465  1.1040
 3192SOL     OW21034   4.497   0.969   0.666 -0.2329 -0.1472 -0.2400
 3192SOL    HW121035   4.438   1.018   0.610 -1.5270  0.7891  1.9208
 3192SOL    HW221036   4.537   1.042   0.713  0.6656 -1.7372  1.4847
 3193SOL     OW21037   3.650   0.604  12.663  0.2900 -0.4239 -0.0821
 3193SOL    HW121038   3.683   0.546  12.731 -0.2012 -0.3894  0.1859
 3193SOL    HW221039   3.679   0.688  12.698  1.1035 -1.0453  0.7117
 3194SOL     OW21040   3.869   4.670   9.332  0.4654  0.4233  0.1021
 3194SOL    HW121041   3.916   0.021   9.364  0.5369  0.5761 -0.3768
 3194SOL    HW221042   3.842   4.646   9.420 -1.3565 -2.0857 -1.1416
 3195SOL     OW21043   0.838   3.844   0.875 -0.5920  0.1224  0.9178
 3195SOL    HW121044   0.840   3.797   0.792  0.2232 -0.6984  1.3951
 3195SOL    HW221045   0.884   3.925   0.856 -0.7203  0.0875  0.4631
 3196SOL     OW21046   3.046   4.123   7.671 -0.7683  0.0824 -0.2987
 3196SOL    HW121047   3.062   4.210   7.633  2.9555 -0.5590 -0.2048
 3196SOL    HW221048   3.139   4.104   7.686 -0.3083  1.5605 -1.2177
 3197SOL     OW21049   1.202   3.515   7.456  0.1270  0.0927  0.0953
 3197SOL    HW121050   1.188   3.518   7.362  1.3350  1.3307 -0.0342
 3197SOL    HW221051   1.278   3.456   7.458  0.4244  0.5229  1.8106
 3198SOL     OW21052   2.262   0.025  15.511 -0.6550 -0.5843 -0.1916
 3198SOL    HW121053   2.243   0.104  15.561  2.8402 -0.1272  0.3775
 3198SOL    HW221054   2.220   0.053  15.430  1.9293 -1.6144 -1.8884
 3199SOL     OW21055   3.537   0.407  13.129  0.3068  0.0857 -0.1061
 3199SOL    HW121056   3.510   0.385  13.219 -3.3021 -0.0662 -1.2428
 3199SOL    HW221057   3.483   0.344  13.082  1.2585 -0.8049  0.0074
 3200SOL     OW21058   1.436   3.855   8.096  0.0788 -0.0293 -0.2439
 3200SOL    HW121059   1.377   3.785   8.069 -0.6044  1.2302 -2.0188
 3200SOL    HW221060   1.368   3.917   8.123 -0.5935 -1.3841  1.1918
 3201SOL     OW21061   0.317   0.507   7.744  0.1952  0.4832 -0.2389
 3201SOL    HW121062   0.234   0.487   7.701  0.7403 -1.7212 -0.2873
 3201SOL    HW221063   0.303   0.443   7.814  0.3478 -0.0434 -0.6957
 3202SOL     OW21064   0.014   4.636   9.747  0.5790  0.0738  0.3280
 3202SOL    HW121065   4.647   4.653   9.730  0.7089 -0.6966 -1.1519
 3202SOL    HW221066   0.063   4.693   9.688 -0.5799 -0.5565 -1.2378
 3203SOL     OW21067   2.235   0.265   1.775 -0.2106 -0.0936 -0.0672
 3203SOL    HW121068   2.159   0.231   1.727  0.3283 -0.4979 -0.6328
 3203SOL    HW221069   2.199   0.343   1.816  1.4887 -0.2483  1.7185
 3204SOL     OW21070   4.003   0.459   7.665 -0.3946  0.3534 -0.7667
 3204SOL    HW121071   3.922   0.408   7.668 -0.2539  0.0734 -1.5378
 3204SOL    HW221072   3.973   0.548   7.682 -0.1826 -0.0177  1.4907
 3205SOL     OW21073   2.438   1.240   7.078  0.6569 -0.1886 -0.0300
 3205SOL    HW121074   2.358   1.195   7.106  1.0618 -0.0035  1.4011
 3205SOL    HW221075   2.406   1.331   7.080 -1.6130 -0.9965  0.3836
 3206SOL     OW21076   2.097   2.652  10.333  0.3716 -0.2164 -0.1484
 3206SOL    HW121077   2.080   2.595  10.259 -1.4086 -1.4337  1.2035
 3206SOL    HW221078   2.088   2.586  10.402 -1.3419 -2.5953 -2.6590
 3207SOL     OW21079   2.811   4.480  12.420  0.1037  0.1708 -0.3704
 3207SOL    HW121080   2.825   4.573  12.403  0.1043  0.3697  0.7403
 3207SOL    HW221081   2.719   4.480  12.447  0.0278  0.4528 -0.6315
 3208SOL     OW21082   3.088   2.612   1.663  0.2601 -0.4781  0.9817
 3208SOL    HW121083   3.015   2.598   1.603  1.6465  3.9499 -1.7530
 3208SOL    HW221084   3.105   2.706   1.665 -0.4286 -0.3544  1.0779
 3209SOL     OW21085   0.786   4.525  14.905  0.4912  0.4105 -0.2643
 3209SOL    HW121086   0.729   4.595  14.872  0.6438  0.4076 -0.5354
 3209SOL    HW221087   0.865   4.546  14.855  1.0698  0.8201  0.8237
 3210SOL     OW21088   0.520   1.042   8.605 -0.1595 -0.2012 -0.7923
 3210SOL    HW121089   0.551   1.126   8.572 -1.6106  0.9560  0.7651
 3210SOL    HW221090   0.428   1.046   8.582 -0.4761 -0.6812  0.3688
 3211SOL     OW21091   3.444   0.620   8.574 -0.8733  0.0763  0.3133
 3211SOL    HW121092   3.424   0.566   8.497 -1.4103 -1.7031  1.7061
 3211SOL    HW221093   3.375   0.591   8.633 -1.0416  2.5611  1.3502
 3212SOL     OW21094   0.574   2.257   3.691  0.4848 -0.5889 -0.1515
 3212SOL    HW121095   0.504   2.314   3.660 -0.2108 -0.9407  0.7575
 3212SOL    HW221096   0.629   2.246   3.614  2.1878 -2.7010  1.3424
 3213SOL     OW21097   1.848   2.945  10.608  0.2049  0.0636  0.3130
 3213SOL    HW121098   1.757   2.935  10.582 -0.0868 -0.4397  1.5400
 3213SOL    HW221099   1.867   3.036  10.586 -1.4667  0.1193 -0.8436
 3214SOL     OW21100   3.373   2.846   4.111 -0.3094 -0.1591 -0.3369
 3214SOL    HW121101   3.307   2.833   4.043  0.1119 -1.3368 -0.5237
 3214SOL    HW221102   3.391   2.754   4.133  1.3837 -0.1225 -1.5770
 3215SOL     OW21103   2.569   3.468   1.719 -0.6734 -0.4439 -0.1923
 3215SOL    HW121104   2.486   3.486   1.762 -0.1088  1.4106  0.1424
 3215SOL    HW221105   2.578   3.544   1.661 -0.6649 -0.0635  0.3016
 3216SOL     OW21106   4.263   4.322   4.251 -0.2081  0.0470 -0.4462
 3216SOL    HW121107   4.275   4.406   4.298 -2.8769  0.7598 -1.0430
 3216SOL    HW221108   4.223   4.356   4.171 -0.3919 -1.7361 -1.1039
 3217SOL     OW21109   4.240   2.155  11.816 -0.2849  0.1517  0.2627
 3217SOL    HW121110   4.200   2.071  11.840  1.2937  0.0181  2.4447
 3217SOL    HW221111   4.157   2.186  11.779 -1.2890  0.1053  2.5000
 3218SOL     OW21112   3.647   0.288   3.636  0.2799  0.1605 -0.1081
 3218SOL    HW121113   3.666   0.382   3.626  0.1220  0.3382  1.2523
 3218SOL    HW221114   3.635   0.281   3.541  1.2474 -0.3129 -0.1939
 3219SOL     OW21115   2.834   4.338   7.009  0.4642 -0.3087 -0.3370
 3219SOL    HW121116   2.784   4.400   6.956 -0.2379 -0.3036  0.3428
 3219SOL    HW221117   2.762   4.280   7.033 -0.1892  0.9221  0.7026
 3220SOL     OW21118   2.565   1.410  15.195 -0.7435 -0.3467  0.0045
 3220SOL    HW121119   2.655   1.399  15.163  0.0603 -2.0664  2.8512
 3220SOL    HW221120   2.548   1.335  15.252 -0.3948 -1.0726 -0.8597
 3221SOL     OW21121   1.754   0.937  12.879 -0.1477 -0.3990  0.8142
 3221SOL    HW121122   1.757   0.907  12.788 -1.6732 -0.2250  0.7034
 3221SOL    HW221123   1.674   0.989  12.880 -1.2408 -2.0887  0.6465
 3222SOL     OW21124   4.587   4.351  17.069 -0.3926 -0.2829  0.5403
 3222SOL    HW121125   4.599   4.329  16.976 -0.4040  0.3449  0.3914
 3222SOL    HW221126   4.655   4.411  17.101  1.6077 -0.6340 -3.0402
 3223SOL     OW21127   3.766   3.585  16.450  0.4278 -0.1253 -0.4178
 3223SOL    HW121128   3.847   3.596  16.400  0.7689 -2.8292 -0.4939
 3223SOL    HW221129   3.712   3.535  16.388  1.6640 -0.7089 -1.0222
 3224SOL     OW21130   0.234   3.674   6.451 -0.0106  0.0398  0.1416
 3224SOL    HW121131   0.157   3.727   6.475 -1.4435 -1.1576 -1.7566
 3224SOL    HW221132   0.233   3.667   6.356 -0.1444  2.5928 -0.0335
 3225SOL     OW21133   2.643   1.199   0.052 -0.2415 -1.1717 -0.0945
 3225SOL    HW121134   2.628   1.214   0.146  0.9533  0.1399 -0.1066
 3225SOL    HW221135   2.647   1.105   0.034 -1.5203 -1.2955  0.2862
 3226SOL     OW21136   1.622   2.781   3.458  0.2043  0.0684 -0.2519
 3226SOL    HW121137   1.625   2.870   3.423  0.8846  0.8250  1.7684
 3226SOL    HW221138   1.576   2.736   3.387  0.2339  2.3036 -1.6846
 3227SOL     OW21139   3.624   2.498   5.855  0.0546  0.5838 -0.2917
 3227SOL    HW121140   3.617   2.506   5.950  1.3328  0.6068 -0.1965
 3227SOL    HW221141   3.712   2.470   5.831  0.5372  2.2987 -0.5398
 3228SOL     OW21142   1.932   3.613   2.155 -0.3515  0.3289 -0.1189
 3228SOL    HW121143   2.018   3.575   2.170 -0.7834 -1.1031 -1.2618
 3228SOL    HW221144   1.897   3.569   2.078  0.3349  0.4680 -0.5041
 3229SOL     OW21145   1.236   2.899  12.940  0.6445  0.5500 -0.2106
 3229SOL    HW121146   1.225   2.821  12.994 -3.2576 -0.0670 -1.8535
 3229SOL    HW221147   1.151   2.943  12.945  0.0595 -0.4829 -1.1318
 3230SOL     OW21148   2.142   3.261   8.102 -0.4475  0.1583  0.0882
 3230SOL    HW121149   2.215   3.200   8.115 -2.7207 -2.6578 -0.1380
 3230SOL    HW221150   2.110   3.279   8.191  0.3452 -1.2654  0.6608
 3231SOL     OW21151   4.396   0.581   5.505 -0.2175 -0.1749  0.5390
 3231SOL    HW121152   4.351   0.645   5.560 -1.9109  0.1123 -1.2082
 3231SOL    HW221153   4.474   0.632   5.483 -0.7353  0.4348  0.1245
 3232SOL     OW21154   2.853   0.573   4.737  0.2672 -0.2339 -0.3282
 3232SOL    HW121155   2.850   0.514   4.661 -0.6691 -2.1915  1.2214
 3232SOL    HW221156   2.859   0.506   4.806 -1.7515 -0.4495 -0.3430
 3233SOL     OW21157   4.438   4.110  16.952 -0.5417 -0.2132 -0.2988
 3233SOL    HW121158   4.413   4.072  16.868 -2.2656 -0.6005  0.4046
 3233SOL    HW221159   4.386   4.072  17.022  1.4017  0.5418  1.5718
 3234SOL     OW21160   3.551   3.390   8.886  0.2528 -0.6310 -0.1337
 3234SOL    HW121161   3.532   3.480   8.860  1.1331 -0.4561 -0.1859
 3234SOL    HW221162   3.555   3.411   8.979 -2.2047  2.2494 -0.7039
 3235SOL     OW21163   1.108   2.704   2.199 -0.5269 -0.5632 -0.1012
 3235SOL    HW121164   1.136   2.657   2.277 -0.3273  0.7616  0.6194
 3235SOL    HW221165   1.190   2.696   2.152 -0.1340 -1.0289  0.6584
 3236SOL     OW21166   1.527   4.396  14.104 -0.1543 -0.1692 -0.3844
 3236SOL    HW121167   1.537   4.312  14.058 -1.2282 -0.9623  0.8440
 3236SOL    HW221168   1.450   4.430  14.058 -1.2441  1.7593  2.9112
 3237SOL     OW21169   4.096   2.994   1.139 -0.1410  0.0369 -0.0137
 3237SOL    HW121170   4.039   2.919   1.155 -1.5986  1.0147 -0.6514
 3237SOL    HW221171   4.149   2.984   1.218 -0.8949  1.5041  0.6898
 3238SOL     OW21172   1.614   3.529   6.579  0.3513 -0.4938  0.2575
 3238SOL    HW121173   1.637   3.436   6.589  0.1259 -0.4196  1.5012
 3238SOL    HW221174   1.610   3.570   6.666  1.0254  2.1898 -0.9939
 3239SOL     OW21175   3.443   4.504   4.725 -0.4467 -0.3803  0.1596
 3239SOL    HW121176   3.404   4.422   4.756 -1.2203 -0.4975 -1.1342
 3239SOL    HW221177   3.510   4.466   4.668  1.4006 -1.3879  2.9407
 3240SOL     OW21178   3.768   2.831   2.535 -0.4402  0.5899 -0.1291
 3240SOL    HW121179   3.778   2.804   2.626  0.4922  0.3206 -0.3134
 3240SOL    HW221180   3.673   2.828   2.520 -0.7495  2.1014  1.5920
 3241SOL     OW21181   2.817   0.696   4.419  0.6925 -0.2835 -0.6402
 3241SOL    HW121182   2.829   0.620   4.476  2.5576 -0.0460 -0.7290
 3241SOL    HW221183   2.800   0.655   4.334  0.7252  0.4038 -0.9701
 3242SOL     OW21184   3.627   1.027  10.697 -0.5002  0.3670  0.4580
 3242SOL    HW121185   3.548   1.040  10.644 -0.3495  1.5073  0.5317
 3242SOL    HW221186   3.685   1.068  10.633  0.8677 -1.5794  0.4530
 3243SOL     OW21187   2.274   0.739   5.525 -0.2424  0.0918 -0.3685
 3243SOL    HW121188   2.362   0.766   5.496  0.1809 -1.2967 -0.3638
 3243SOL    HW221189   2.230   0.824   5.515  0.4235  0.3173 -1.3677
 3244SOL     OW21190   3.671   2.222  11.917 -0.2351  0.3375 -0.4341
 3244SOL    HW121191   3.733   2.244  11.848  1.0279  1.5921  1.0763
 3244SOL    HW221192   3.625   2.305  11.930  1.5056  1.0089  1.5702
 3245SOL     OW21193   0.680   0.956   3.613 -0.1795  0.1140  0.6743
 3245SOL    HW121194   0.663   0.957   3.707  0.4088 -0.0056  0.7825
 3245SOL    HW221195   0.664   1.048   3.593  1.6633  0.2322 -0.2317
 3246SOL     OW21196   0.432   2.715   6.124  0.0482 -0.7965  0.3701
 3246SOL    HW121197   0.509   2.731   6.069  0.0151 -0.5336  0.4017
 3246SOL    HW221198   0.420   2.620   6.116 -1.0356 -0.4704 -1.8477
 3247SOL     OW21199   2.497   2.847  10.694 -0.3224 -0.1895  0.0445
 3247SOL    HW121200   2.406   2.840  10.664  0.2452 -1.9946 -1.2883
 3247SOL    HW221201   2.493   2.936  10.729 -0.1832 -0.3794  0.5357
 3248SOL     OW21202   4.661   4.400   6.675 -0.3496  0.1567 -0.3318
 3248SOL    HW121203   4.572   4.411   6.710 -0.1673  1.7602 -0.3531
 3248SOL    HW221204   4.656   4.489   6.639  0.6931  0.0373 -0.7767
 3249SOL     OW21205   2.152   3.095  10.185  0.2336 -0.4518  0.4181
 3249SOL    HW121206   2.159   3.013  10.136  1.6594 -0.0514 -0.0417
 3249SOL    HW221207   2.241   3.125  10.168  0.0680 -0.3866 -0.3217
 3250SOL     OW21208   3.809   2.469   7.008 -0.5339  0.1916 -0.4119
 3250SOL    HW121209   3.904   2.478   7.014 -0.6173  0.8871 -0.1876
 3250SOL    HW221210   3.792   2.448   7.100  1.1928  0.4875 -0.0317
 3251SOL     OW21211   1.309   4.337   7.149 -0.4593 -0.4676  0.0766
 3251SOL    HW121212   1.239   4.365   7.090 -0.4896 -0.4298  0.1300
 3251SOL    HW221213   1.325   4.418   7.197 -0.3538  0.2144 -1.0916
 3252SOL     OW21214   3.005   2.131   6.206 -0.4548  0.5066 -0.1217
 3252SOL    HW121215   2.975   2.147   6.116 -2.1031 -1.8050  0.0073
 3252SOL    HW221216   3.050   2.047   6.199 -1.2865  0.0303  0.1630
 3253SOL     OW21217   2.243   4.541   4.964 -0.9634 -0.1805 -0.5258
 3253SOL    HW121218   2.192   4.580   5.036  0.0108 -0.8810  0.5491
 3253SOL    HW221219   2.282   4.470   5.016  0.3412  3.4681  3.4839
 3254SOL     OW21220   0.428   3.908  13.512  0.4343 -0.2427  0.0265
 3254SOL    HW121221   0.477   3.959  13.576 -1.6736  4.3852 -2.0292
 3254SOL    HW221222   0.492   3.838  13.498  0.4337  0.0446 -1.5027
 3255SOL     OW21223   2.714   0.098   8.831 -0.1914 -0.1210  0.5199
 3255SOL    HW121224   2.657   0.057   8.895  0.4876  0.0154  1.2135
 3255SOL    HW221225   2.705   0.192   8.850  0.4547  0.3236 -1.3245
 3256SOL     OW21226   0.463   0.551   6.389  0.0918  0.3006  0.0188
 3256SOL    HW121227   0.500   0.511   6.310 -0.0997  0.4368 -0.1368
 3256SOL    HW221228   0.540   0.539   6.445 -0.2258  0.9306  0.5876
 3257SOL     OW21229   3.794   2.935   5.737 -0.2731  0.5026 -0.2017
 3257SOL    HW121230   3.836   2.886   5.808  0.7175 -1.2399 -2.0173
 3257SOL    HW221231   3.705   2.938   5.771 -0.2452  0.1890 -0.1011
 3258SOL     OW21232   3.417   4.672   3.178  0.9914 -0.1164  0.0260
 3258SOL    HW121233   3.465   4.590   3.179 -1.1835 -1.3826  1.7658
 3258SOL    HW221234   3.341   4.649   3.125  2.4680 -2.6828 -0.9618
 3259SOL     OW21235   3.589   3.653   7.635 -0.1133  0.2762 -0.3358
 3259SOL    HW121236   3.511   3.646   7.689  0.7796 -1.7184  0.7024
 3259SOL    HW221237   3.662   3.631   7.693 -0.4675  0.1856  0.0724
 3260SOL     OW21238   3.702   4.473   3.673  0.9100  0.3147 -0.7678
 3260SOL    HW121239   3.659   4.553   3.643  0.3510  0.1251 -0.4685
 3260SOL    HW221240   3.732   4.495   3.761 -1.9788  0.5232  0.1562
 3261SOL     OW21241   3.846   0.681   7.388  0.0995  0.0240  0.1777
 3261SOL    HW121242   3.880   0.771   7.382 -2.0884  0.7555 -1.0993
 3261SOL    HW221243   3.754   0.703   7.378  0.4464  0.8569 -1.1771
 3262SOL     OW21244   4.707   3.731  16.413 -0.0564 -0.2308 -0.0310
 3262SOL    HW121245   4.713   3.751  16.320 -1.6338  2.5654  0.4830
 3262SOL    HW221246   4.637   3.795  16.423  1.2092  1.0996  0.3519
 3263SOL     OW21247   3.411   0.725  17.274 -0.3313  0.1261  0.0954
 3263SOL    HW121248   3.316   0.715  17.267 -0.2594 -0.8759  0.4880
 3263SOL    HW221249   3.443   0.736  17.184 -0.7997  1.2718  0.0760
 3264SOL     OW21250   3.272   4.521   2.450  0.1521  0.2414 -0.1741
 3264SOL    HW121251   3.193   4.574   2.457  1.7925  2.6298  0.4084
 3264SOL    HW221252   3.325   4.561   2.381  1.8276  0.5260  1.2604
 3265SOL     OW21253   3.068   0.597   2.713 -0.0140 -0.1981 -0.3238
 3265SOL    HW121254   3.049   0.631   2.626  1.1614  2.5169  0.4772
 3265SOL    HW221255   3.152   0.559   2.688  1.5825  2.6622  0.7386
 3266SOL     OW21256   3.315   3.438   3.123 -0.3129  0.3523 -0.1403
 3266SOL    HW121257   3.375   3.364   3.117 -1.1833 -0.4293  0.8438
 3266SOL    HW221258   3.322   3.486   3.040  0.9338 -1.0092 -0.8291
 3267SOL     OW21259   3.031   3.570  15.471  0.4091 -0.1793  0.1871
 3267SOL    HW121260   2.990   3.515  15.404 -0.1011  0.0101  0.3415
 3267SOL    HW221261   3.097   3.506  15.497 -0.9539 -1.6681 -0.0273
 3268SOL     OW21262   0.561   0.144   1.623 -0.5606  0.0406 -0.2285
 3268SOL    HW121263   0.581   0.207   1.554 -1.3665 -1.0531 -1.4733
 3268SOL    HW221264   0.529   0.213   1.682 -3.7285 -2.0074  0.4411
 3269SOL     OW21265   0.215   1.830   6.584  0.3880  0.1290  0.2254
 3269SOL    HW121266   0.153   1.759   6.567  0.9739 -0.9624  2.6702
 3269SOL    HW221267   0.194   1.897   6.519  1.2539  0.6099  0.4491
 3270SOL     OW21268   0.242   4.000   6.323  0.0548  0.3778 -0.3023
 3270SOL    HW121269   0.200   4.052   6.254 -0.2787 -1.8475 -1.7779
 3270SOL    HW221270   0.163   3.951   6.347  0.3132 -1.3819 -3.0493
 3271SOL     OW21271   4.348   2.344   9.439  0.3201  0.4561  0.5232
 3271SOL    HW121272   4.278   2.342   9.504  0.4941  1.7088  0.7484
 3271SOL    HW221273   4.320   2.279   9.374 -0.0820 -0.4641  1.6353
 3272SOL     OW21274   0.899   0.710   6.153  0.9065  0.3516 -0.2654
 3272SOL    HW121275   0.853   0.747   6.078 -2.3135  0.0516  1.5561
 3272SOL    HW221276   0.953   0.641   6.114  1.1130  0.1839  0.3080
 3273SOL     OW21277   0.435   3.313   5.198 -0.3255  0.0148 -0.6092
 3273SOL    HW121278   0.435   3.409   5.209 -0.3938 -0.1567  0.9045
 3273SOL    HW221279   0.381   3.273   5.266  0.8217 -2.5558 -1.2288
 3274SOL     OW21280   4.067   0.848   9.605  0.1605 -0.2764 -0.4177
 3274SOL    HW121281   4.111   0.776   9.559  0.4853 -0.9267  0.9144
 3274SOL    HW221282   4.135   0.916   9.605 -0.5108  0.3963  1.6947
 3275SOL     OW21283   3.681   0.292   1.865  0.0110 -0.0699  0.4382
 3275SOL    HW121284   3.627   0.365   1.836 -1.5569 -1.0223  1.0171
 3275SOL    HW221285   3.765   0.328   1.836 -0.6537  2.8887  2.2595
 3276SOL     OW21286   4.359   0.900  16.031 -0.0443 -0.2337 -0.0873
 3276SOL    HW121287   4.297   0.970  16.055 -0.7628 -1.3162  1.2094
 3276SOL    HW221288   4.385   0.921  15.941 -1.6372  2.8090  0.1492
 3277SOL     OW21289   1.126   2.706   3.184 -0.3703  0.1173  0.3049
 3277SOL    HW121290   1.037   2.683   3.211 -1.2541  1.2207 -1.6348
 3277SOL    HW221291   1.180   2.649   3.239  0.3769 -0.2680 -0.8049
 3278SOL     OW21292   2.514   1.263  14.797  0.3548 -0.0249 -0.4107
 3278SOL    HW121293   2.538   1.180  14.755  0.0293 -0.1472 -0.3567
 3278SOL    HW221294   2.593   1.280  14.849  0.8756 -1.0089 -0.8821
 3279SOL     OW21295   2.849   3.426   6.308  0.8247  0.1045 -0.2827
 3279SOL    HW121296   2.841   3.395   6.399  0.2703  0.4140 -0.2227
 3279SOL    HW221297   2.787   3.499   6.314  1.3408  0.4330  1.0791
 3280SOL     OW21298   2.693   2.740  14.952 -0.2248  0.0836  0.0548
 3280SOL    HW121299   2.608   2.704  14.978  1.2746 -2.4690  1.5094
 3280SOL    HW221300   2.676   2.831  14.928  0.3538  0.1253 -0.1890
 3281SOL     OW21301   1.390   0.476  15.869 -0.5883 -0.0255 -0.4049
 3281SOL    HW121302   1.355   0.395  15.833  1.5802 -0.7711 -0.8194
 3281SOL    HW221303   1.335   0.546  15.834  0.9745  1.7592  0.6757
 3282SOL     OW21304   2.570   1.109   8.090 -0.1031 -0.5028  0.0105
 3282SOL    HW121305   2.503   1.041   8.097  1.9511 -2.6562 -0.9499
 3282SOL    HW221306   2.564   1.126   7.996  0.8977  0.2246  0.0670
 3283SOL     OW21307   2.114   0.144   8.287 -0.0083  0.0530  0.0584
 3283SOL    HW121308   2.166   0.220   8.316 -0.4719 -0.5453  2.4918
 3283SOL    HW221309   2.060   0.140   8.366  0.2288  0.9581  0.2712
 3284SOL     OW21310   3.470   2.137   4.702 -0.1212  0.6034  0.4655
 3284SOL    HW121311   3.534   2.168   4.639 -1.2991  0.8604 -0.6022
 3284SOL    HW221312   3.487   2.043   4.707 -1.2460  0.3635 -0.1449
 3285SOL     OW21313   3.037   4.018  11.895 -0.2255  0.2828  0.1452
 3285SOL    HW121314   2.943   4.004  11.881  0.5544 -0.3698 -4.1970
 3285SOL    HW221315   3.081   3.980  11.819 -2.9314 -1.8793 -0.3731
 3286SOL     OW21316   1.623   2.645   7.453 -0.5427  0.0324  0.0132
 3286SOL    HW121317   1.577   2.722   7.488  2.0652  1.1361  1.0470
 3286SOL    HW221318   1.572   2.578   7.497 -1.2458 -0.2241 -1.2087
 3287SOL     OW21319   1.807   0.030   5.465 -0.3687 -0.1246  0.2419
 3287SOL    HW121320   1.797   4.662   5.450  0.0019  0.0468 -1.0193
 3287SOL    HW221321   1.744   0.074   5.407 -1.8673 -3.6091 -0.7423
 3288SOL     OW21322   2.008   1.682   5.825  0.3454 -0.1106  0.3033
 3288SOL    HW121323   2.004   1.749   5.756  1.9554  0.7434  1.0553
 3288SOL    HW221324   1.919   1.648   5.817  0.6177 -0.7854  0.2202
 3289SOL     OW21325   3.799   1.894   3.965  0.4116 -0.5178 -0.2702
 3289SOL    HW121326   3.717   1.942   3.976  1.2687  0.7443  0.5518
 3289SOL    HW221327   3.826   1.930   3.880  0.1497  1.7767  0.6129
 3290SOL     OW21328   3.568   2.230  17.337  0.2974  0.1862  0.7053
 3290SOL    HW121329   3.659   2.222  17.307 -0.5377  1.2991 -2.0875
 3290SOL    HW221330   3.546   2.144  17.373  0.7216 -0.3358 -0.3039
 3291SOL     OW21331   3.857   3.190   5.665  0.4111 -0.2519 -0.7664
 3291SOL    HW121332   3.835   3.098   5.677  1.0760 -0.0899  1.5638
 3291SOL    HW221333   3.895   3.226   5.745 -0.8135  1.9156 -1.1663
 3292SOL     OW21334   4.427   0.034   1.122  0.4234  0.1460  0.2220
 3292SOL    HW121335   4.382   0.118   1.108  0.8156  0.1530 -1.0103
 3292SOL    HW221336   4.428   0.013   1.215 -0.3046  1.0526  0.4377
 3293SOL     OW21337   0.045   4.278   8.509 -0.7021 -0.0429  0.6802
 3293SOL    HW121338   0.048   4.343   8.580 -0.8122 -1.3406  1.8635
 3293SOL    HW221339   4.676   4.275   8.491 -0.1781  1.2270 -2.2274
 3294SOL     OW21340   1.725   3.331   8.252 -0.0282 -0.6256  0.4459
 3294SOL    HW121341   1.750   3.269   8.321 -2.1642 -2.9546 -0.8854
 3294SOL    HW221342   1.641   3.371   8.276  0.1520  0.1903 -0.2975
 3295SOL     OW21343   1.368   3.147   6.008 -0.4877  0.1781 -0.5888
 3295SOL    HW121344   1.355   3.072   6.066  0.0249  0.5778  0.0427
 3295SOL    HW221345   1.325   3.111   5.930  0.1877 -3.4852  0.7176
 3296SOL     OW21346   1.609   3.974   5.741 -0.3434 -0.2360 -0.2182
 3296SOL    HW121347   1.651   3.981   5.826 -2.0551  2.0500  0.4423
 3296SOL    HW221348   1.628   3.882   5.721 -1.2143 -0.5642  0.4904
 3297SOL     OW21349   0.659   3.460   3.654 -0.7070  0.0227  0.2769
 3297SOL    HW121350   0.703   3.377   3.672 -1.8072 -0.8128 -0.8627
 3297SOL    HW221351   0.626   3.456   3.564  0.1913  1.3507 -0.1136
 3298SOL     OW21352   3.889   3.295   9.580  0.0218 -0.2881  0.6004
 3298SOL    HW121353   3.898   3.330   9.492  1.5175 -0.6046  0.6149
 3298SOL    HW221354   3.975   3.253   9.588 -0.6388 -1.9636 -1.1714
 3299SOL     OW21355   4.255   1.944   3.124  0.1761 -0.1601 -0.1703
 3299SOL    HW121356   4.296   2.030   3.115  0.6148 -0.2286  1.0919
 3299SOL    HW221357   4.164   1.962   3.099 -0.2458 -2.5230 -0.3263
 3300SOL     OW21358   2.847   0.796  14.117 -0.7123 -0.6687 -0.3342
 3300SOL    HW121359   2.794   0.833  14.046 -1.8634 -1.1953  0.2520
 3300SOL    HW221360   2.876   0.715  14.073 -0.3069  0.7442 -2.6840
 3301SOL     OW21361   4.629   1.972   8.653 -0.3095 -0.5081  0.0538
 3301SOL    HW121362   4.681   1.964   8.733 -0.4572 -3.0944 -0.1380
 3301SOL    HW221363   4.537   1.979   8.680  0.1443 -2.2065  2.0031
 3302SOL     OW21364   3.613   1.035   6.909 -0.8221 -0.4547  0.1474
 3302SOL    HW121365   3.683   0.974   6.928  0.3884  1.1610  0.8687
 3302SOL    HW221366   3.618   1.038   6.813 -1.1276 -2.4099  0.0652
 3303SOL     OW21367   3.942   0.734   5.425  0.0120 -0.2796 -0.1342
 3303SOL    HW121368   3.947   0.694   5.338 -2.7150  0.1274 -0.4752
 3303SOL    HW221369   3.847   0.744   5.432  0.2800  1.4787  0.9365
 3304SOL     OW21370   3.559   0.543   1.526 -0.2093  0.1707 -0.0075
 3304SOL    HW121371   3.653   0.560   1.526  0.4143 -3.4794 -1.1288
 3304SOL    HW221372   3.542   0.491   1.448  0.6124 -0.1793  0.0525
 3305SOL     OW21373   0.393   4.639   1.540 -0.0504  0.5618 -0.0542
 3305SOL    HW121374   0.328   4.675   1.600 -1.3040 -0.3039 -0.9079
 3305SOL    HW221375   0.465   4.694   1.571 -0.7223  0.6198  1.4159
 3306SOL     OW21376   0.992   2.207  14.996 -0.2428 -0.2442 -0.5377
 3306SOL    HW121377   1.010   2.173  15.084  2.3307 -0.2543 -1.0911
 3306SOL    HW221378   0.899   2.230  15.005  0.4469  2.9642 -1.6151
 3307SOL     OW21379   1.405   0.482   5.525 -0.5043  0.0374  0.1884
 3307SOL    HW121380   1.367   0.496   5.439  0.1373 -2.3911 -0.5067
 3307SOL    HW221381   1.404   0.386   5.529 -0.9841  0.0573  0.5672
 3308SOL     OW21382   3.043   4.703   7.362 -0.2523  0.8920 -0.1051
 3308SOL    HW121383   2.966   4.648   7.371  1.2484 -1.5027 -1.6529
 3308SOL    HW221384   3.037   4.721   7.268 -0.0179 -1.1187 -0.5009
 3309SOL     OW21385   1.875   1.262  11.088  0.1638 -0.5364  0.1352
 3309SOL    HW121386   1.956   1.285  11.043 -0.5279 -1.2061 -1.4745
 3309SOL    HW221387   1.815   1.241  11.016  0.4755 -3.4303  0.7183
 3310SOL     OW21388   1.111   1.930   7.696 -0.4514 -0.3238 -0.1220
 3310SOL    HW121389   1.096   1.837   7.679  0.4473 -0.8395  1.9294
 3310SOL    HW221390   1.146   1.928   7.785 -1.4927 -1.0267  0.2790
 3311SOL     OW21391   0.756   0.774   9.576  0.4924 -0.6726 -0.0967
 3311SOL    HW121392   0.799   0.698   9.616 -1.0269 -0.8124  1.2866
 3311SOL    HW221393   0.663   0.761   9.594  0.6289 -1.6724 -0.1542
 3312SOL     OW21394   3.411   4.103   1.354  0.6855  0.2320  0.5322
 3312SOL    HW121395   3.476   4.032   1.354  0.8844  0.4141  0.9447
 3312SOL    HW221396   3.334   4.053   1.327  2.9850 -2.6647 -0.6674
 3313SOL     OW21397   1.570   0.735   3.440 -0.3084 -0.2357 -0.4361
 3313SOL    HW121398   1.598   0.647   3.415 -2.2057 -0.9656 -0.0194
 3313SOL    HW221399   1.505   0.761   3.374 -1.9637  0.1618  1.3575
 3314SOL     OW21400   1.971   0.062   7.569 -0.0362 -0.1387  0.0683
 3314SOL    HW121401   2.058   0.101   7.570 -0.4736  0.8272 -0.0466
 3314SOL    HW221402   1.958   0.051   7.475 -0.2456 -2.4874  0.3654
 3315SOL     OW21403   1.173   0.480  14.292 -0.5276  0.2584  0.1235
 3315SOL    HW121404   1.161   0.412  14.358 -3.7008  0.9971  0.3234
 3315SOL    HW221405   1.120   0.443  14.221  0.1960 -0.4464 -0.0510
 3316SOL     OW21406   3.077   4.387  13.481 -0.5269 -0.0861  1.2070
 3316SOL    HW121407   3.093   4.295  13.459 -0.0966  0.2814 -0.0199
 3316SOL    HW221408   3.136   4.427  13.416 -1.6510 -1.1908 -0.5026
 3317SOL     OW21409   0.869   0.548   1.547  0.7385 -0.1689 -0.0349
 3317SOL    HW121410   0.940   0.506   1.498  1.0729 -0.5147  0.7409
 3317SOL    HW221411   0.835   0.613   1.486 -2.3116 -0.2865  1.5591
 3318SOL     OW21412   4.054   4.191   8.599  0.9192 -0.1013 -0.2599
 3318SOL    HW121413   3.991   4.199   8.527  0.3195  0.3460  0.3103
 3318SOL    HW221414   4.087   4.277   8.625  0.9774 -0.3942  0.6366
 3319SOL     OW21415   4.181   1.099  16.088 -0.3411 -0.3490 -0.1785
 3319SOL    HW121416   4.115   1.064  16.028  0.2246  0.6242 -1.3651
 3319SOL    HW221417   4.128   1.169  16.126  1.6563  1.2155 -0.2846
 3320SOL     OW21418   2.962   2.796   2.550 -0.0383  0.0338 -0.0437
 3320SOL    HW121419   2.960   2.849   2.630 -1.1269 -3.5909  2.3500
 3320SOL    HW221420   3.014   2.722   2.580  1.3329  1.4575  1.0939
 3321SOL     OW21421   2.860   0.148   4.829 -0.6165 -0.1409  0.1758
 3321SOL    HW121422   2.899   0.109   4.750 -1.3474 -0.7784  0.1266
 3321SOL    HW221423   2.796   0.078   4.845  0.9485 -1.8485 -0.9808
 3322SOL     OW21424   0.239   1.726   7.116 -0.0969  0.0829  0.2938
 3322SOL    HW121425   0.175   1.777   7.065  1.8330  2.0988 -0.1482
 3322SOL    HW221426   0.246   1.650   7.059  1.6567  0.7235 -0.3632
 3323SOL     OW21427   3.736   1.763  15.432 -0.1206  0.2783 -0.0404
 3323SOL    HW121428   3.666   1.829  15.427 -1.2698 -0.9153  0.1437
 3323SOL    HW221429   3.790   1.787  15.357  0.8443 -1.3691  0.1395
 3324SOL     OW21430   4.086   0.117   7.270  0.3839  0.2420 -0.4403
 3324SOL    HW121431   4.069   0.061   7.194  0.7517 -2.4507  1.4335
 3324SOL    HW221432   4.006   0.110   7.322  0.2813  1.1581 -0.4812
 3325SOL     OW21433   2.658   2.146   7.330 -0.6500 -0.5551 -0.0321
 3325SOL    HW121434   2.704   2.079   7.381  0.9131 -0.1202 -0.8547
 3325SOL    HW221435   2.582   2.099   7.296 -1.3750  0.5369  0.0573
 3326SOL     OW21436   3.221   1.693   0.445 -0.6688 -0.5535  0.2074
 3326SOL    HW121437   3.157   1.653   0.386 -0.1339 -1.9781  0.6010
 3326SOL    HW221438   3.246   1.773   0.399  0.2076 -1.9540 -1.7412
 3327SOL     OW21439   0.066   0.900   0.720 -0.2101  0.1600  0.4416
 3327SOL    HW121440   0.021   0.892   0.805 -0.7308 -0.4500  0.1060
 3327SOL    HW221441   4.718   0.882   0.662 -0.3723 -0.7532  0.9296
 3328SOL     OW21442   4.235   2.555   3.298 -0.4118  0.3830 -0.8689
 3328SOL    HW121443   4.202   2.633   3.254 -0.5536  1.3660  0.9725
 3328SOL    HW221444   4.327   2.573   3.321 -0.2498 -1.6958  0.1358
 3329SOL     OW21445   1.357   1.551  16.131  0.1567 -0.2678  0.5172
 3329SOL    HW121446   1.364   1.630  16.078 -0.6308  0.5468  1.6318
 3329SOL    HW221447   1.440   1.509  16.108  0.9015  1.4652  0.0279
 3330SOL     OW21448   3.304   2.482   1.550 -0.1393  0.4714 -0.5518
 3330SOL    HW121449   3.343   2.447   1.630 -3.1986  2.3771  1.7720
 3330SOL    HW221450   3.254   2.555   1.587 -1.1311 -0.0603 -0.8225
 3331SOL     OW21451   1.889   0.306  16.963 -0.3964 -0.5748 -0.1314
 3331SOL    HW121452   1.961   0.268  17.014  0.7034 -0.9084 -1.9407
 3331SOL    HW221453   1.920   0.299  16.873  0.4189  0.4112  0.0715
 3332SOL     OW21454   1.000   3.699   1.293 -0.1527 -0.6243 -0.4297
 3332SOL    HW121455   0.934   3.758   1.257  1.6239  2.0024  0.6364
 3332SOL    HW221456   1.016   3.742   1.377 -1.1422 -1.5345  0.2285
 3333SOL     OW21457   4.042   2.166   9.855  0.2104 -0.4962  0.4470
 3333SOL    HW121458   3.946   2.168   9.855  0.2575  0.8618 -2.1804
 3333SOL    HW221459   4.058   2.077   9.888 -1.5465 -1.2002 -0.6102
 3334SOL     OW21460   2.601   4.578  16.908  0.3666 -0.0317  0.1827
 3334SOL    HW121461   2.613   4.578  16.813  0.3513  2.1727  0.1640
 3334SOL    HW221462   2.678   4.524  16.927  0.0278  0.2501  2.4173
 3335SOL     OW21463   1.241   0.405  10.325 -0.7753 -0.3870 -0.2227
 3335SOL    HW121464   1.181   0.331  10.333  1.3829 -2.2242 -0.9014
 3335SOL    HW221465   1.326   0.384  10.287 -0.2703  0.2485  0.5581
 3336SOL     OW21466   2.736   1.168  16.695  0.7240  0.1972 -0.9299
 3336SOL    HW121467   2.663   1.120  16.734  2.1450 -0.1044  1.3548
 3336SOL    HW221468   2.807   1.106  16.686 -0.8560 -1.6168 -0.9125
 3337SOL     OW21469   2.841   3.241  10.335  0.0140 -0.2431 -0.4749
 3337SOL    HW121470   2.876   3.307  10.274  0.5111 -0.3735 -0.3317
 3337SOL    HW221471   2.748   3.263  10.330 -0.0863  0.1723  3.6144
 3338SOL     OW21472   0.355   2.011   4.076 -0.2029 -0.0939 -0.1347
 3338SOL    HW121473   0.358   2.099   4.114 -0.7112  0.1978 -0.7596
 3338SOL    HW221474   0.418   2.026   4.006  0.2173  0.9518  0.4798
 3339SOL     OW21475   3.008   2.438   3.820  0.0176 -0.3308  0.6332
 3339SOL    HW121476   2.921   2.458   3.784 -0.7942 -2.8319  1.1859
 3339SOL    HW221477   3.034   2.527   3.843 -1.7937  0.4951 -0.5032
 3340SOL     OW21478   4.554   2.441   0.856 -0.5601 -0.0365  0.4784
 3340SOL    HW121479   4.498   2.364   0.840 -0.6813 -0.3390  2.2942
 3340SOL    HW221480   4.544   2.454   0.951 -2.1377  0.8274  0.1926
 3341SOL     OW21481   0.740   2.636   3.630 -0.1743 -0.3788  0.3584
 3341SOL    HW121482   0.801   2.582   3.681 -0.3946 -0.0128  1.0195
 3341SOL    HW221483   0.793   2.714   3.616 -0.1196 -0.6514 -0.9126
 3342SOL     OW21484   0.741   0.251   5.964  0.3545  0.1316 -0.6111
 3342SOL    HW121485   0.802   0.321   5.942  0.0066  0.0146 -1.9317
 3342SOL    HW221486   0.798   0.200   6.023 -3.0318 -2.7741  0.0875
 3343SOL     OW21487   1.926   0.793  10.481 -0.2102 -0.7526  0.3047
 3343SOL    HW121488   1.933   0.744  10.563  2.6135  1.3635  1.2993
 3343SOL    HW221489   1.836   0.826  10.481  0.0897  0.0788  0.8232
 3344SOL     OW21490   4.249   1.526   6.384  0.1007 -0.8656  0.1129
 3344SOL    HW121491   4.179   1.461   6.379 -0.0575 -0.7407  0.7292
 3344SOL    HW221492   4.325   1.475   6.357 -0.1444 -2.0077  1.6163
 3345SOL     OW21493   3.438   3.549   9.852 -0.4872 -0.1289  0.1338
 3345SOL    HW121494   3.364   3.553   9.912  0.7901  0.8706  1.6456
 3345SOL    HW221495   3.407   3.554   9.762 -1.3743 -2.0667  0.3311
 3346SOL     OW21496   4.087   0.946   5.533  0.4130 -0.2723  0.0694
 3346SOL    HW121497   4.034   0.881   5.485  1.4347 -0.7968 -0.3458
 3346SOL    HW221498   4.106   1.003   5.458  0.5674  1.3909  1.3752
 3347SOL     OW21499   0.555   2.734   4.384  0.5073  0.4036 -0.1591
 3347SOL    HW121500   0.590   2.795   4.449  2.6278  0.5406 -1.4104
 3347SOL    HW221501   0.544   2.795   4.310 -0.7819  2.7644  1.9634
 3348SOL     OW21502   0.502   2.768   4.787 -0.3210  0.5144  0.0833
 3348SOL    HW121503   0.579   2.728   4.826 -0.9354 -0.6670  0.0898
 3348SOL    HW221504   0.482   2.699   4.724  0.3878  2.2788 -2.0826
 3349SOL     OW21505   1.125   2.810  14.350  0.0494 -0.8716  0.2111
 3349SOL    HW121506   1.111   2.768  14.265 -2.6515 -2.7289  1.5740
 3349SOL    HW221507   1.115   2.902  14.326 -2.2639 -1.5129 -1.3511
 3350SOL     OW21508   4.141   1.393   2.356 -0.1750  0.3573 -0.0341
 3350SOL    HW121509   4.051   1.414   2.381 -0.6003 -0.0103 -1.2503
 3350SOL    HW221510   4.133   1.300   2.335 -0.9160  0.6993 -1.3073
 3351SOL     OW21511   2.166   1.940  16.897 -0.6715  0.0242  0.3976
 3351SOL    HW121512   2.151   1.898  16.813 -0.1370 -1.4393  1.0296
 3351SOL    HW221513   2.257   1.913  16.906 -0.8982 -1.0458 -0.4703
 3352SOL     OW21514   3.859   3.520   5.299 -0.3491 -0.5328 -0.3550
 3352SOL    HW121515   3.887   3.526   5.391 -1.6938  0.1848  0.0141
 3352SOL    HW221516   3.846   3.426   5.287  0.8167 -0.5287 -1.6241
 3353SOL     OW21517   1.383   2.808  12.748 -0.1656  0.4977  0.0401
 3353SOL    HW121518   1.313   2.851  12.797  1.9755  2.4263  1.4070
 3353SOL    HW221519   1.453   2.839  12.805 -0.5782 -1.0200  1.3689
 3354SOL     OW21520   0.453   2.083  17.095  0.6141 -0.2303  0.6283
 3354SOL    HW121521   0.439   2.177  17.101 -2.3434 -0.5960 -0.5649
 3354SOL    HW221522   0.419   2.078  17.006  1.0029  0.8231  0.4298
 3355SOL     OW21523   4.320   4.360  14.921  0.1914 -0.0577  0.0317
 3355SOL    HW121524   4.400   4.410  14.911  0.2423 -0.1499 -0.0207
 3355SOL    HW221525   4.260   4.418  14.874 -1.9758  1.0889  4.1632
 3356SOL     OW21526   1.068   0.045   1.310  0.9134 -0.5856  0.4307
 3356SOL    HW121527   1.083   4.712   1.236 -0.5777 -1.3032  0.6849
 3356SOL    HW221528   1.036   0.125   1.268 -0.6093 -1.0097  0.7768
 3357SOL     OW21529   0.424   2.025   3.049  0.8030 -0.1360 -0.4888
 3357SOL    HW121530   0.353   1.974   3.010  0.4928  0.9178 -1.3058
 3357SOL    HW221531   0.495   1.961   3.048 -0.4090 -1.4789  0.2839
 3358SOL     OW21532   4.269   1.137   4.492 -0.3669 -0.0652  0.6394
 3358SOL    HW121533   4.222   1.212   4.457  1.7288  0.2768 -1.4599
 3358SOL    HW221534   4.212   1.099   4.558  0.6837  1.5019  2.4168
 3359SOL     OW21535   0.597   0.501   3.137  0.2034 -0.2297  0.4063
 3359SOL    HW121536   0.570   0.529   3.224  0.9813  0.5487  0.3951
 3359SOL    HW221537   0.687   0.527   3.118  0.8235 -1.7869  1.1413
 3360SOL     OW21538   1.048   0.682   8.133 -0.1126  0.3269 -0.5815
 3360SOL    HW121539   1.055   0.763   8.083 -0.4166  0.8469  0.2075
 3360SOL    HW221540   0.958   0.694   8.164 -1.1545 -1.1349 -3.0629
 3361SOL     OW21541   3.926   3.586  16.695 -0.2962  0.3927 -0.2083
 3361SOL    HW121542   3.959   3.676  16.698  3.6884 -1.0644 -0.1181
 3361SOL    HW221543   3.873   3.590  16.615 -0.9170  0.2546  0.2033
 3362SOL     OW21544   0.199   4.252  11.568  0.1145 -0.4614  0.5076
 3362SOL    HW121545   0.285   4.280  11.600  0.7819 -0.4804 -1.2670
 3362SOL    HW221546   0.171   4.193  11.638 -0.7630 -0.1066  0.4475
 3363SOL     OW21547   2.567   1.484   1.537 -0.1949 -0.0979  0.0637
 3363SOL    HW121548   2.518   1.518   1.462 -0.5858  0.4181  0.5550
 3363SOL    HW221549   2.656   1.511   1.514 -1.4510  3.5801 -0.3448
 3364SOL     OW21550   2.721   2.422   6.504  0.5970 -0.4350  0.5028
 3364SOL    HW121551   2.642   2.398   6.456 -0.8409  1.3652  1.9547
 3364SOL    HW221552   2.693   2.502   6.550  0.9791  0.8631 -1.4965
 3365SOL     OW21553   4.349   4.509   3.559  0.1608 -0.2723 -0.3325
 3365SOL    HW121554   4.311   4.515   3.471  0.2712  0.0670 -0.3543
 3365SOL    HW221555   4.417   4.576   3.558 -0.1931  0.0875 -0.6114
 3366SOL     OW21556   0.786   0.526   8.782  0.3576 -0.3722  0.7551
 3366SOL    HW121557   0.829   0.471   8.717  0.8946  0.1844  0.6376
 3366SOL    HW221558   0.825   0.496   8.864  2.7352  1.1671  0.1686
 3367SOL     OW21559   2.431   2.950  12.555  0.6103  0.3801 -0.4395
 3367SOL    HW121560   2.386   2.884  12.502  0.1636  0.5027 -0.2166
 3367SOL    HW221561   2.352   2.985  12.597  0.3219 -0.6612 -0.1141
 3368SOL     OW21562   3.654   3.782  16.269 -0.2527  0.4164  0.1760
 3368SOL    HW121563   3.609   3.817  16.346  1.3283  0.8593  0.8993
 3368SOL    HW221564   3.747   3.803  16.275  0.1275 -0.7996 -1.5875
 3369SOL     OW21565   1.199   0.122   7.183 -0.3043  0.7040  0.4868
 3369SOL    HW121566   1.154   0.078   7.256  0.3810 -1.8056 -0.6274
 3369SOL    HW221567   1.258   0.050   7.161  1.3189  1.7322  1.4762
 3370SOL     OW21568   1.721   1.731   9.813  0.3212  0.2213  0.5936
 3370SOL    HW121569   1.659   1.801   9.833  0.5050  0.1932  1.2801
 3370SOL    HW221570   1.700   1.731   9.720  0.3175 -0.2308  0.5981
 3371SOL     OW21571   1.345   0.770   6.794 -0.3457  0.4341 -0.2384
 3371SOL    HW121572   1.279   0.700   6.800 -1.8323  1.6364 -2.6720
 3371SOL    HW221573   1.290   0.848   6.792 -0.8485  0.1396  2.2260
 3372SOL     OW21574   4.667   1.487   6.925  0.1894 -0.2809  0.0221
 3372SOL    HW121575   4.638   1.419   6.986  2.2750 -0.8567  0.3637
 3372SOL    HW221576   4.608   1.559   6.952  0.5536 -0.3021  0.8648
 3373SOL     OW21577   4.498   2.758   8.921  0.3642 -0.2142  0.2118
 3373SOL    HW121578   4.557   2.683   8.917  0.5650  0.0515 -1.4991
 3373SOL    HW221579   4.564   2.826   8.905  1.1049 -0.8783  0.4461
 3374SOL     OW21580   2.074   1.429  11.660 -0.2834 -0.2319  0.4214
 3374SOL    HW121581   2.077   1.479  11.579  1.1033 -1.0252 -0.0279
 3374SOL    HW221582   2.138   1.477  11.714 -0.1571 -1.3452  1.2626
 3375SOL     OW21583   2.365   2.590  11.364 -0.4667  1.0328 -0.4313
 3375SOL    HW121584   2.351   2.517  11.303  0.1762 -1.0481  1.9043
 3375SOL    HW221585   2.421   2.656  11.325 -0.6162  0.2614 -1.9451
 3376SOL     OW21586   3.308   3.886   7.921  0.1468  0.2645 -0.2020
 3376SOL    HW121587   3.320   3.833   8.000  0.1966 -0.5813 -0.7659
 3376SOL    HW221588   3.396   3.883   7.883  0.5693 -0.0973  0.8091
 3377SOL     OW21589   1.492   2.370   1.515  0.8038 -0.9029 -0.9920
 3377SOL    HW121590   1.499   2.412   1.429 -1.2555  1.3459 -0.0605
 3377SOL    HW221591   1.583   2.344   1.530  1.4930  0.6642 -2.4625
 3378SOL     OW21592   1.820   2.684   8.126 -0.1941 -0.2086  0.1430
 3378SOL    HW121593   1.860   2.771   8.123 -1.2288  0.3306  1.6925
 3378SOL    HW221594   1.829   2.672   8.220 -0.4209  0.9519  0.3108
 3379SOL     OW21595   3.333   1.031   8.098 -0.1799 -0.2259  0.0238
 3379SOL    HW121596   3.361   1.015   8.189 -1.2270 -0.3841  0.3182
 3379SOL    HW221597   3.418   1.018   8.057  0.0797  0.7246  0.2611
 3380SOL     OW21598   2.030   2.672  11.283  0.1375 -0.1789 -0.0290
 3380SOL    HW121599   2.005   2.755  11.244  0.3322 -0.5022 -0.8380
 3380SOL    HW221600   2.113   2.698  11.322  1.5604 -1.3755 -2.2659
 3381SOL     OW21601   0.442   3.375   4.499 -0.5718 -0.7647  0.3007
 3381SOL    HW121602   0.529   3.344   4.475 -0.3813 -0.2955  0.4021
 3381SOL    HW221603   0.419   3.445   4.438  0.5133  0.4734  1.3300
 3382SOL     OW21604   2.351   1.949   5.459  0.7638  0.0633 -0.3667
 3382SOL    HW121605   2.435   1.989   5.434  0.9961  0.7305  1.5111
 3382SOL    HW221606   2.349   1.969   5.552  0.0239 -3.4020  0.3530
 3383SOL     OW21607   2.699   2.358   4.230  0.3844 -0.2245  0.3041
 3383SOL    HW121608   2.733   2.427   4.174 -2.1011  1.9488  1.4722
 3383SOL    HW221609   2.660   2.407   4.303  0.7801  0.5109  0.0221
 3384SOL     OW21610   3.780   1.289  13.840  0.5787 -0.8403 -0.1239
 3384SOL    HW121611   3.700   1.281  13.891  0.2105 -1.6228 -0.8152
 3384SOL    HW221612   3.762   1.228  13.768  1.3039 -1.2782  0.0623
 3385SOL     OW21613   3.027   1.253   5.303 -0.3591 -0.1795 -0.0047
 3385SOL    HW121614   3.117   1.269   5.329 -0.6082  1.0292  0.1198
 3385SOL    HW221615   3.044   1.294   5.219 -2.5295  0.4934 -0.1145
 3386SOL     OW21616   0.712   0.942  12.284 -0.0922 -0.2988 -0.0568
 3386SOL    HW121617   0.678   0.957  12.372  1.1994  0.3575  0.3354
 3386SOL    HW221618   0.632   0.918  12.237 -1.1443  2.8236  0.1673
 3387SOL     OW21619   4.315   1.779   7.573  0.1472 -0.0314  0.0154
 3387SOL    HW121620   4.267   1.706   7.614  2.1967 -0.4297  1.6968
 3387SOL    HW221621   4.315   1.741   7.485 -0.2040 -0.9044  0.3900
 3388SOL     OW21622   1.713   1.363   6.174 -0.0764 -0.3605  0.1454
 3388SOL    HW121623   1.738   1.312   6.251  0.7306 -0.2214 -0.0231
 3388SOL    HW221624   1.749   1.447   6.203 -3.3656  1.2579 -0.5042
 3389SOL     OW21625   1.850   3.842   9.655 -0.0435  0.0994  0.0884
 3389SOL    HW121626   1.773   3.796   9.620  0.8338 -0.7771 -0.6978
 3389SOL    HW221627   1.842   3.914   9.592 -2.5203 -2.0893 -2.0998
 3390SOL     OW21628   1.260   0.202  14.697  0.1438 -0.4596  0.4545
 3390SOL    HW121629   1.277   0.121  14.649  0.7564 -0.4204  0.6075
 3390SOL    HW221630   1.310   0.187  14.778 -0.5429 -1.1597  0.7513
 3391SOL     OW21631   0.311   3.105   9.144 -0.8667  0.6119 -0.6097
 3391SOL    HW121632   0.245   3.049   9.187 -0.6842  0.8902  0.0316
 3391SOL    HW221633   0.338   3.169   9.209  0.3329 -0.2523 -0.2654
 3392SOL     OW21634   1.632   1.764  16.933  0.1153  0.8745 -0.1738
 3392SOL    HW121635   1.558   1.721  16.977 -0.9128  3.0431  0.1913
 3392SOL    HW221636   1.584   1.811  16.865  1.0419  0.3753 -1.1768
 3393SOL     OW21637   2.810   1.073  11.138  0.3100 -0.5021 -0.2757
 3393SOL    HW121638   2.758   0.994  11.120 -0.3128 -0.5694  1.9031
 3393SOL    HW221639   2.756   1.147  11.110  1.1274  1.2323  2.7540
 3394SOL     OW21640   0.980   2.947   2.821  0.0133  0.4883 -0.7934
 3394SOL    HW121641   0.990   3.003   2.744 -2.6495  0.3777 -1.2376
 3394SOL    HW221642   1.012   3.006   2.888  1.6588  0.2986 -1.4112
 3395SOL     OW21643   3.080   4.055   4.675 -0.4443 -0.3314 -0.0564
 3395SOL    HW121644   3.149   3.994   4.698  1.2102  1.6070  0.1495
 3395SOL    HW221645   3.057   4.074   4.766  0.5662  0.1889  0.0933
 3396SOL     OW21646   1.290   3.130   8.113 -0.0184 -0.2235 -0.2313
 3396SOL    HW121647   1.257   3.163   8.029 -2.3146 -0.2396  0.6615
 3396SOL    HW221648   1.378   3.100   8.090 -1.0483 -1.1934 -2.8299
 3397SOL     OW21649   0.289   0.164   4.618 -0.2231  0.2726  0.0119
 3397SOL    HW121650   0.196   0.161   4.597  0.0840  0.4347 -1.3759
 3397SOL    HW221651   0.313   0.251   4.588 -0.8456 -0.0593 -1.4364
 3398SOL     OW21652   0.415   0.781  11.829 -0.6132 -0.3046 -0.0437
 3398SOL    HW121653   0.350   0.827  11.776 -0.6692  0.5979  0.8045
 3398SOL    HW221654   0.482   0.769  11.761  0.2135 -2.4846  1.1616
 3399SOL     OW21655   0.956   0.629   7.681  0.1937 -0.0277 -0.5531
 3399SOL    HW121656   0.998   0.549   7.713  0.0001 -0.0186 -0.2778
 3399SOL    HW221657   0.881   0.599   7.630 -0.1843 -4.3618  2.5560
 3400SOL     OW21658   1.475   0.453  14.329 -0.6404  0.4483  0.8652
 3400SOL    HW121659   1.388   0.421  14.306 -0.1553  0.6913 -1.3172
 3400SOL    HW221660   1.482   0.527  14.269  0.4727 -0.1386  0.2723
 3401SOL     OW21661   1.354   2.382  10.869 -0.2579  0.1492  0.1741
 3401SOL    HW121662   1.316   2.343  10.790  1.7793 -1.0359 -0.2072
 3401SOL    HW221663   1.298   2.336  10.933  0.9812  1.1370  1.9595
 3402SOL     OW21664   1.566   4.412   8.078  0.4178 -0.2159  0.2146
 3402SOL    HW121665   1.603   4.423   7.990  0.5119  0.3216  0.3203
 3402SOL    HW221666   1.620   4.348   8.123  1.0796 -0.6737 -1.2257
 3403SOL     OW21667   0.202   0.809   5.368 -0.5661 -0.2887  0.4541
 3403SOL    HW121668   0.296   0.810   5.388 -1.1811  1.3651  3.3469
 3403SOL    HW221669   0.203   0.845   5.280 -1.9551  0.2083  0.6495
 3404SOL     OW21670   1.166   1.437   9.673  0.2794 -0.2912 -0.5973
 3404SOL    HW121671   1.166   1.366   9.738  1.6418 -0.4315 -0.7392
 3404SOL    HW221672   1.108   1.405   9.604  2.6061 -0.4777 -2.4863
 3405SOL     OW21673   1.091   3.303   0.176  0.0827  0.4192  0.4170
 3405SOL    HW121674   1.138   3.288   0.094  2.1649  0.0324  1.6734
 3405SOL    HW221675   1.112   3.395   0.195 -1.7621  1.1210 -0.9512
 3406SOL     OW21676   4.632   2.655   5.538 -0.4407  0.3128 -0.1615
 3406SOL    HW121677   4.652   2.562   5.553  2.3106  1.4272  3.0590
 3406SOL    HW221678   4.691   2.696   5.601 -0.2847 -3.0252  1.9108
 3407SOL     OW21679   0.554   1.360   4.894 -0.6525  0.5410 -0.0286
 3407SOL    HW121680   0.475   1.305   4.898  1.2022 -2.0396  1.4010
 3407SOL    HW221681   0.604   1.318   4.964  1.9150  1.4995 -1.2697
 3408SOL     OW21682   4.099   1.280  12.342 -0.1007 -0.6684  0.1061
 3408SOL    HW121683   4.101   1.348  12.410 -0.7952  0.1610 -0.6963
 3408SOL    HW221684   4.128   1.201  12.388 -0.9295  0.0419  1.8630
 3409SOL     OW21685   4.130   4.507   2.840  0.0821  0.1853  0.3997
 3409SOL    HW121686   4.106   4.423   2.878  0.2817  0.5035  1.2226
 3409SOL    HW221687   4.092   4.567   2.904  0.0547  1.1618 -0.5424
 3410SOL     OW21688   0.907   0.805   4.995 -0.4604 -0.6130  0.6735
 3410SOL    HW121689   0.930   0.893   5.026  1.4372 -0.4664 -1.1781
 3410SOL    HW221690   0.949   0.746   5.058  1.4784  1.1444  1.0325
 3411SOL     OW21691   3.475   1.589   4.088  0.1751 -0.2935 -0.0758
 3411SOL    HW121692   3.456   1.655   4.022 -0.9608  0.0263  0.5801
 3411SOL    HW221693   3.497   1.648   4.161  1.2182 -0.0548 -0.5782
 3412SOL     OW21694   0.347   0.634  15.970 -0.6823  0.2161  0.2033
 3412SOL    HW121695   0.252   0.627  15.983 -0.5900  0.9261  1.3357
 3412SOL    HW221696   0.353   0.557  15.913  2.2439  2.7643 -2.9138
 3413SOL     OW21697   4.592   2.539  16.012  0.4235  0.3518 -0.3374
 3413SOL    HW121698   4.676   2.550  16.056  1.3001  0.2990 -2.0221
 3413SOL    HW221699   4.617   2.534  15.920  2.4063  0.1343  0.2104
 3414SOL     OW21700   3.212   0.027  10.153  0.0560 -0.5028 -0.2549
 3414SOL    HW121701   3.262   0.070  10.083  0.4299  0.4358  0.5888
 3414SOL    HW221702   3.282   0.022  10.218 -2.3759  0.5366  2.4355
 3415SOL     OW21703   0.797   4.195   4.999  0.2855 -0.2920 -0.1949
 3415SOL    HW121704   0.892   4.192   5.007  0.2069 -0.2103  0.7803
 3415SOL    HW221705   0.778   4.289   4.992  0.5991 -0.2993 -1.1465
 3416SOL     OW21706   3.797   0.703   9.393  0.2333  0.3084  0.0387
 3416SOL    HW121707   3.723   0.764   9.399  1.5985  1.6763  3.2108
 3416SOL    HW221708   3.853   0.765   9.347 -0.4822  1.4135  0.6413
 3417SOL     OW21709   0.912   2.286  13.320  0.3232  0.0388  0.1025
 3417SOL    HW121710   0.945   2.375  13.324 -1.0108  0.5836 -0.8871
 3417SOL    HW221711   0.818   2.305  13.321  0.3952  0.3169  1.2048
 3418SOL     OW21712   4.615   3.664  13.879  0.4355 -0.6640  0.1174
 3418SOL    HW121713   4.596   3.757  13.864  3.4765 -0.1727 -0.7282
 3418SOL    HW221714   4.707   3.657  13.853 -0.6921  0.8670 -4.3585
 3419SOL     OW21715   2.811   1.745   2.672 -0.4261 -0.0726 -0.6952
 3419SOL    HW121716   2.809   1.836   2.701  1.3060 -0.1548 -0.3030
 3419SOL    HW221717   2.765   1.704   2.745 -1.1351 -1.1523 -1.7250
 3420SOL     OW21718   4.295   2.484   6.782 -0.6534 -0.3093  0.2413
 3420SOL    HW121719   4.355   2.558   6.790 -2.0337  0.8818 -0.3533
 3420SOL    HW221720   4.288   2.472   6.687  3.2099 -0.9080  0.0211
 3421SOL     OW21721   1.188   3.821   5.277  0.0151  0.5191  0.1116
 3421SOL    HW121722   1.227   3.822   5.364 -0.9341  1.9064  0.5249
 3421SOL    HW221723   1.247   3.762   5.230 -1.2649 -0.8156  0.1844
 3422SOL     OW21724   0.592   1.810  17.638 -0.1657 -0.3617 -1.1088
 3422SOL    HW121725   0.533   1.855  17.697 -0.6191 -2.1617 -0.2083
 3422SOL    HW221726   0.610   1.732  17.691 -0.7612  1.0540  1.1799
 3423SOL     OW21727   0.210   0.746   7.037  0.1425 -0.9594 -0.4085
 3423SOL    HW121728   0.194   0.689   7.112 -2.3445 -0.4069 -0.5223
 3423SOL    HW221729   0.293   0.789   7.056 -1.8871  3.1703 -0.8787
 3424SOL     OW21730   0.586   0.939   6.047  0.9934  0.2027 -0.2045
 3424SOL    HW121731   0.568   0.853   6.009  0.0394  1.0813 -1.7643
 3424SOL    HW221732   0.634   0.925   6.128 -1.1331 -0.2897  0.9775
 3425SOL     OW21733   0.642   0.315  12.906 -0.0716  0.0900  0.2965
 3425SOL    HW121734   0.589   0.318  12.827  2.2478 -1.5339 -1.3281
 3425SOL    HW221735   0.669   0.406  12.902  0.1739  0.0768  1.6766
 3426SOL     OW21736   2.651   2.410  10.852  0.5954  0.1183 -0.2827
 3426SOL    HW121737   2.630   2.327  10.894 -1.3314  2.2600  2.9090
 3426SOL    HW221738   2.614   2.399  10.764 -0.0396  1.8164 -0.2130
 3427SOL     OW21739   0.347   1.439   2.410  0.5733  0.3172  0.2855
 3427SOL    HW121740   0.382   1.448   2.321  0.5605  1.4715  0.4029
 3427SOL    HW221741   0.364   1.525   2.448  0.1221  0.1214  0.9255
 3428SOL     OW21742   4.652   0.301   0.394  0.2623  0.6349 -0.3461
 3428SOL    HW121743   4.683   0.223   0.439 -1.1181  1.5926  2.2797
 3428SOL    HW221744   4.713   0.368   0.426  1.1433 -1.4456  2.2758
 3429SOL     OW21745   3.346   2.336   4.997  0.1072 -0.1501 -0.4943
 3429SOL    HW121746   3.388   2.279   4.933  2.5172 -0.4499  1.3523
 3429SOL    HW221747   3.397   2.316   5.076  1.8274  2.5126 -0.9091
 3430SOL     OW21748   1.792   3.917   8.104 -0.4662 -0.5242 -0.4204
 3430SOL    HW121749   1.843   3.880   8.031 -1.0694  0.4063 -1.3120
 3430SOL    HW221750   1.794   4.001   8.058 -0.3041 -0.2181  0.1473
 3431SOL     OW21751   2.529   1.407   0.874  0.3161 -0.1034 -0.4472
 3431SOL    HW121752   2.612   1.372   0.842 -1.2627 -0.3810 -4.2228
 3431SOL    HW221753   2.492   1.342   0.933  2.1485 -0.2962  0.4657
 3432SOL     OW21754   3.730   3.259  11.080  0.0455  0.6277 -0.1360
 3432SOL    HW121755   3.776   3.340  11.056  0.5581  1.1512  2.7046
 3432SOL    HW221756   3.656   3.262  11.019  0.0150  1.9611 -0.0393
 3433SOL     OW21757   0.125   4.118   5.801 -0.2733  0.2800  0.4613
 3433SOL    HW121758   0.040   4.125   5.759 -1.3493 -1.9680  2.2612
 3433SOL    HW221759   0.186   4.140   5.731 -0.1158 -1.0235  0.1771
 3434SOL     OW21760   4.403   3.987   8.109  0.0868 -0.1396 -0.2973
 3434SOL    HW121761   4.366   3.898   8.109  0.7959 -0.4161  2.4726
 3434SOL    HW221762   4.483   3.978   8.056  2.1900  1.7603  2.5623
 3435SOL     OW21763   0.411   1.001   2.040  0.0330 -0.2866  0.6537
 3435SOL    HW121764   0.409   0.906   2.053 -0.0828 -0.6507 -1.9754
 3435SOL    HW221765   0.408   1.010   1.945 -0.3083  3.1749  0.9828
 3436SOL     OW21766   3.504   0.523   3.994  0.2194  0.4125 -0.4451
 3436SOL    HW121767   3.477   0.463   3.925 -1.4442 -0.7859  1.2472
 3436SOL    HW221768   3.543   0.597   3.947  0.8004  0.6558  0.4195
 3437SOL     OW21769   1.192   0.511   7.962  0.2845  0.4515  0.0147
 3437SOL    HW121770   1.132   0.480   7.894  1.9018 -1.7102 -0.4351
 3437SOL    HW221771   1.130   0.534   8.031 -0.5693 -1.3139 -0.1744
 3438SOL     OW21772   0.609   1.652  12.523  0.5928 -0.4168 -0.2348
 3438SOL    HW121773   0.566   1.731  12.555  0.7972  0.1175 -1.2903
 3438SOL    HW221774   0.577   1.643  12.433  2.0861  1.6562 -0.9659
 3439SOL     OW21775   2.958   3.097   0.240 -0.6401  0.0068 -0.9938
 3439SOL    HW121776   2.939   3.057   0.325  1.7347  1.4206  0.2103
 3439SOL    HW221777   3.036   3.048   0.217 -0.0242  1.2121 -1.4767
 3440SOL     OW21778   2.580   4.150  15.614 -0.3303 -0.7395 -0.0461
 3440SOL    HW121779   2.501   4.096  15.622 -1.2483  0.6304  0.3985
 3440SOL    HW221780   2.553   4.241  15.631  0.6780 -0.4210 -0.1473
 3441SOL     OW21781   1.276   2.801   8.041  0.2126  0.6520  0.4981
 3441SOL    HW121782   1.255   2.807   8.134 -0.6195 -0.8315  0.4088
 3441SOL    HW221783   1.367   2.778   8.026  0.3632  0.0628  2.2769
 3442SOL     OW21784   2.343   2.035  10.471 -0.3917  0.2295 -0.1339
 3442SOL    HW121785   2.272   2.010  10.411 -0.3178 -2.0472  0.7449
 3442SOL    HW221786   2.285   2.024  10.546 -0.5720 -3.2631 -0.7646
 3443SOL     OW21787   1.702   1.168   3.183  0.0825 -0.1528 -0.1593
 3443SOL    HW121788   1.631   1.232   3.186  0.6796  0.4875  0.2867
 3443SOL    HW221789   1.689   1.130   3.270 -2.3998  1.4360  0.1819
 3444SOL     OW21790   0.335   4.678   5.440  0.1138  0.2758  0.0716
 3444SOL    HW121791   0.247   4.642   5.456  1.1349 -2.8164 -1.1004
 3444SOL    HW221792   0.396   4.625   5.491  0.1119 -0.9592 -1.1941
 3445SOL     OW21793   3.358   4.416   2.192  0.4882 -0.2718  0.0725
 3445SOL    HW121794   3.263   4.426   2.202  0.3677 -0.6554 -0.6712
 3445SOL    HW221795   3.378   4.509   2.203  0.7557 -0.3861  0.5487
 3446SOL     OW21796   3.567   0.155   8.773 -0.4058  0.2665  0.2370
 3446SOL    HW121797   3.627   0.111   8.833  0.6796  1.6445  0.1566
 3446SOL    HW221798   3.493   0.098   8.792 -0.1609 -0.7401 -1.8279
 3447SOL     OW21799   4.723   1.145  12.012 -0.3101 -0.0725  0.0704
 3447SOL    HW121800   0.064   1.187  12.067 -3.1264 -0.4604  3.8275
 3447SOL    HW221801   4.644   1.151  12.066  0.8477 -0.6679  1.8291
 3448SOL     OW21802   1.967   1.367   7.346  0.1175  0.3166 -0.1552
 3448SOL    HW121803   1.949   1.274   7.359  0.0037  0.2202 -0.9963
 3448SOL    HW221804   1.877   1.398   7.353 -0.2195 -0.2553 -1.8033
 3449SOL     OW21805   3.316   3.483  10.275  0.6466  0.5814 -0.2755
 3449SOL    HW121806   3.282   3.394  10.276  1.2310  0.3261 -2.0224
 3449SOL    HW221807   3.365   3.489  10.357 -0.5474  1.4170  0.3762
 3450SOL     OW21808   0.138   0.808   4.517 -0.2533 -0.2344 -0.1494
 3450SOL    HW121809   0.135   0.795   4.422  1.2273 -2.1454  0.0667
 3450SOL    HW221810   0.201   0.739   4.538 -0.5607 -0.6588 -0.6243
 3451SOL     OW21811   4.358   1.714   8.776  0.1201 -0.1450  0.4937
 3451SOL    HW121812   4.398   1.628   8.766 -0.5641 -0.4092  0.0315
 3451SOL    HW221813   4.269   1.700   8.745 -0.7664 -0.4711  3.2558
 3452SOL     OW21814   3.424   3.462  10.730  0.8085 -0.5994  0.4805
 3452SOL    HW121815   3.367   3.410  10.785  0.4825  2.0065  2.5964
 3452SOL    HW221816   3.509   3.434  10.765  1.1454 -0.8836 -0.5594
 3453SOL     OW21817   4.662   2.257   4.042  0.4076 -0.3799 -0.2937
 3453SOL    HW121818   4.569   2.242   4.055  0.4082 -0.1144  0.0275
 3453SOL    HW221819   4.663   2.283   3.950 -0.6118 -1.9930 -0.7514
 3454SOL     OW21820   4.299   0.449   2.285 -0.0589 -0.1086  0.4170
 3454SOL    HW121821   4.216   0.488   2.314  0.6852  0.9509  1.1278
 3454SOL    HW221822   4.306   0.499   2.203 -0.8922  0.9511  1.0004
 3455SOL     OW21823   0.108   2.298   9.816 -0.6243  0.2553  0.7588
 3455SOL    HW121824   0.024   2.280   9.859 -1.1678 -0.7673 -0.7174
 3455SOL    HW221825   0.172   2.285   9.886 -2.2859 -1.3770  1.9949
 3456SOL     OW21826   1.034   0.084   3.655 -0.2249 -0.9607  0.4393
 3456SOL    HW121827   1.079   4.725   3.664  0.2326 -0.5086  2.4261
 3456SOL    HW221828   1.038   0.109   3.562 -1.4727  2.3201  1.3010
 3457SOL     OW21829   2.049   3.196   8.815  0.3727 -0.3640 -0.3232
 3457SOL    HW121830   1.976   3.144   8.783 -1.0693  1.1155  0.6149
 3457SOL    HW221831   2.049   3.262   8.746 -1.1293  1.2372  1.2175
 3458SOL     OW21832   2.681   4.385   5.445 -0.7878 -0.2439  1.3330
 3458SOL    HW121833   2.648   4.466   5.407  1.4702 -0.7702 -1.7437
 3458SOL    HW221834   2.627   4.383   5.525 -0.7992 -1.7304  1.2824
 3459SOL     OW21835   3.969   1.667   8.281  0.3709  0.3662  0.5161
 3459SOL    HW121836   4.057   1.639   8.253 -0.5776 -0.5249 -1.5210
 3459SOL    HW221837   3.954   1.715   8.200  1.5862 -1.5296 -0.8441
 3460SOL     OW21838   0.656   2.226  11.813  0.8419 -0.0714 -0.4343
 3460SOL    HW121839   0.654   2.321  11.810  3.7072  0.0244  0.2702
 3460SOL    HW221840   0.596   2.199  11.743  2.8311  0.3909 -2.3388
 3461SOL     OW21841   1.765   1.872   5.409  0.3860 -0.3769 -0.5446
 3461SOL    HW121842   1.728   1.905   5.490 -2.5993 -0.5257 -1.8364
 3461SOL    HW221843   1.688   1.884   5.353  0.3415 -0.3635 -0.4802
 3462SOL     OW21844   4.147   4.639  10.025 -0.1812  0.1905  0.2654
 3462SOL    HW121845   4.204   4.571   9.988  0.7077  0.5008  1.0746
 3462SOL    HW221846   4.203   4.716  10.016  1.3877 -0.9954  0.0058
 3463SOL     OW21847   1.303   2.750   8.867  0.6215 -0.3598  0.0079
 3463SOL    HW121848   1.302   2.821   8.803  0.8278 -1.7762 -1.5804
 3463SOL    HW221849   1.236   2.786   8.924  1.8314 -1.1084  1.9355
 3464SOL     OW21850   3.331   1.178   3.512  0.5257 -0.5006 -0.5674
 3464SOL    HW121851   3.291   1.265   3.511 -3.0148 -2.1614 -1.4547
 3464SOL    HW221852   3.346   1.148   3.422 -1.3386 -1.1149 -0.6611
 3465SOL     OW21853   1.671   2.579   6.718  0.8967  0.0773  0.1490
 3465SOL    HW121854   1.580   2.589   6.690  1.4988  1.4510 -1.3460
 3465SOL    HW221855   1.655   2.593   6.811 -1.4281  0.4643 -0.3132
 3466SOL     OW21856   0.700   0.128  15.655  0.0058 -0.1826 -1.0998
 3466SOL    HW121857   0.698   0.033  15.642 -2.5715 -0.4130  0.8866
 3466SOL    HW221858   0.633   0.159  15.595 -2.3607 -0.4352  1.3992
 3467SOL     OW21859   3.738   3.241   5.238 -0.0907  0.9299 -0.3651
 3467SOL    HW121860   3.742   3.234   5.333  1.9491 -1.3096 -0.6187
 3467SOL    HW221861   3.653   3.274   5.211  0.1489  0.2536 -1.9871
 3468SOL     OW21862   4.329   2.988   8.736 -0.1593 -0.0196 -0.7331
 3468SOL    HW121863   4.363   3.053   8.798 -1.1110 -1.1880  0.9888
 3468SOL    HW221864   4.293   2.915   8.785  1.1598 -2.0241 -2.7501
 3469SOL     OW21865   2.569   3.249   6.921 -0.0185 -0.3987 -0.1512
 3469SOL    HW121866   2.656   3.216   6.902  0.3042  0.9287 -1.0246
 3469SOL    HW221867   2.550   3.187   6.991 -1.4554 -1.6696 -1.6624
 3470SOL     OW21868   4.406   1.946  10.908  0.0588  0.3788  0.4508
 3470SOL    HW121869   4.409   1.994  10.991 -1.6719 -0.5088  1.0294
 3470SOL    HW221870   4.314   1.918  10.904 -0.2489  1.5143 -0.6225
 3471SOL     OW21871   0.848   1.924   5.253  0.4600  0.0382  0.1626
 3471SOL    HW121872   0.840   1.879   5.338  0.2544  2.2554  1.3178
 3471SOL    HW221873   0.770   1.889   5.210 -0.3987 -0.3312  1.9969
 3472SOL     OW21874   3.740   1.965   0.923  0.3501 -0.0228 -0.5773
 3472SOL    HW121875   3.822   1.952   0.971  0.0514 -2.3218 -0.6923
 3472SOL    HW221876   3.763   2.034   0.861 -2.0626 -0.2021 -1.6851
 3473SOL     OW21877   2.041   2.678  13.590  0.0687  0.6617 -0.4690
 3473SOL    HW121878   2.115   2.737  13.601  0.1793  0.1433  1.5367
 3473SOL    HW221879   2.068   2.588  13.611 -1.7847 -0.3766 -2.4555
 3474SOL     OW21880   2.198   4.307   4.174 -1.2663  0.3464  0.1451
 3474SOL    HW121881   2.250   4.226   4.167 -0.4878  0.7521  1.1193
 3474SOL    HW221882   2.265   4.375   4.167  0.8446 -1.9270 -1.6417
 3475SOL     OW21883   1.512   4.321   8.390  0.0684 -0.2552  0.0802
 3475SOL    HW121884   1.570   4.316   8.466  0.1989 -0.4601 -0.0349
 3475SOL    HW221885   1.521   4.414   8.367  2.0506  0.5125  4.0010
 3476SOL     OW21886   3.847   3.551  16.975 -0.0647  0.0786  0.1551
 3476SOL    HW121887   3.815   3.637  16.951  1.0096  0.3806 -0.1766
 3476SOL    HW221888   3.889   3.527  16.893 -1.7870  0.8885 -0.9497
 3477SOL     OW21889   1.296   3.865   4.690 -0.0942 -0.5477 -0.1267
 3477SOL    HW121890   1.246   3.897   4.615 -0.8864 -0.2515  0.5344
 3477SOL    HW221891   1.240   3.897   4.760  0.5755  1.5106 -0.5339
 3478SOL     OW21892   3.903   1.792   4.181 -0.1484 -0.0856 -0.0908
 3478SOL    HW121893   3.954   1.720   4.143  0.8278  0.9598 -0.7723
 3478SOL    HW221894   3.859   1.828   4.103 -2.0908 -0.8432  0.6423
 3479SOL     OW21895   1.806   2.735   2.898  0.1612  0.6850 -0.4482
 3479SOL    HW121896   1.744   2.720   2.827  0.6952 -0.0417 -0.7674
 3479SOL    HW221897   1.878   2.778   2.851  2.1373 -2.5153 -0.3517
 3480SOL     OW21898   1.161   2.821   7.027 -0.6916  0.1795 -0.0740
 3480SOL    HW121899   1.074   2.835   7.066  0.0524  1.4091  1.1384
 3480SOL    HW221900   1.130   2.796   6.940 -0.1372 -0.1236 -0.1804
 3481SOL     OW21901   2.815   0.689  14.348  0.1062 -0.3073  0.5100
 3481SOL    HW121902   2.911   0.681  14.346  0.0879 -0.4070 -0.0452
 3481SOL    HW221903   2.808   0.739  14.266  0.4092  0.4062  0.9179
 3482SOL     OW21904   3.537   1.583   4.886 -0.1075 -0.2880  0.9336
 3482SOL    HW121905   3.517   1.503   4.935 -0.4913 -0.2611  0.8210
 3482SOL    HW221906   3.621   1.564   4.844 -0.2786 -1.4271  1.0938
 3483SOL     OW21907   0.744   3.769   7.216  0.2015 -0.1416 -0.2297
 3483SOL    HW121908   0.681   3.806   7.278  1.9969  0.0905  1.4601
 3483SOL    HW221909   0.795   3.712   7.273 -0.4459 -1.0861 -0.5766
 3484SOL     OW21910   3.963   4.038   3.520 -0.3692 -0.2096 -0.2459
 3484SOL    HW121911   3.918   4.097   3.581 -0.0516  1.0461 -1.2270
 3484SOL    HW221912   3.898   4.029   3.450 -0.7318  0.9143 -0.0580
 3485SOL     OW21913   3.510   2.108   9.579  0.5416  0.4421 -0.5551
 3485SOL    HW121914   3.460   2.102   9.660 -0.8816 -0.4266 -1.4857
 3485SOL    HW221915   3.493   2.199   9.554 -2.8683  0.6010  2.3612
 3486SOL     OW21916   4.562   0.994   5.267  0.3768 -0.6834 -0.3300
 3486SOL    HW121917   4.528   1.063   5.324  0.2312 -1.8479  0.9888
 3486SOL    HW221918   4.474   0.959   5.254  0.4517 -0.5530 -1.2373
 3487SOL     OW21919   4.217   0.519   2.722 -0.0797 -0.7313 -0.2070
 3487SOL    HW121920   4.224   0.426   2.701  0.4613 -0.6577 -0.3669
 3487SOL    HW221921   4.299   0.551   2.684  0.9475  0.5968  3.0748
 3488SOL     OW21922   4.284   4.038   9.583  0.6516  0.4427 -0.9045
 3488SOL    HW121923   4.196   4.032   9.545 -0.5528 -0.3292  2.0248
 3488SOL    HW221924   4.323   3.951   9.571  3.3962  1.4762  0.6056
 3489SOL     OW21925   3.739   1.059   8.628 -0.2977  0.1607  0.2705
 3489SOL    HW121926   3.747   1.060   8.533  1.5136  0.2888  0.4150
 3489SOL    HW221927   3.644   1.070   8.634 -0.3635 -0.1251 -0.3187
 3490SOL     OW21928   0.441   3.059   7.970  0.3739  0.0575 -0.0437
 3490SOL    HW121929   0.487   2.977   7.952  2.1576  1.2974 -1.1334
 3490SOL    HW221930   0.356   3.034   7.933  0.4243 -2.0547  1.3146
 3491SOL     OW21931   3.900   1.301   9.093 -0.1074 -0.6309  0.2623
 3491SOL    HW121932   3.987   1.292   9.054  0.2407 -2.1005  1.3656
 3491SOL    HW221933   3.839   1.300   9.020  2.1426 -0.3680 -1.6437
 3492SOL     OW21934   2.483   0.136   8.444  0.8965 -0.0249  0.2443
 3492SOL    HW121935   2.463   0.053   8.485  2.8051  0.3371  1.9166
 3492SOL    HW221936   2.510   0.096   8.361  1.6458 -0.7391  0.8356
 3493SOL     OW21937   0.477   4.257  14.278  0.0673  0.7093  0.2213
 3493SOL    HW121938   0.386   4.231  14.267  0.6944 -1.0528 -0.8747
 3493SOL    HW221939   0.511   4.197  14.344 -2.4496 -1.1507 -0.1863
 3494SOL     OW21940   2.697   0.003  13.940  0.2533  0.1276  0.2831
 3494SOL    HW121941   2.789   4.700  13.948  0.5435  0.9489 -0.0909
 3494SOL    HW221942   2.678   0.055  14.018 -0.8275  0.0681  0.0508
 3495SOL     OW21943   3.898   0.518  15.533 -0.0118  0.2396 -0.6328
 3495SOL    HW121944   3.911   0.491  15.442 -0.5881 -0.3665 -0.5365
 3495SOL    HW221945   3.838   0.452  15.569 -0.1090  0.1183 -1.0201
 3496SOL     OW21946   3.495   4.561   8.740  0.1296 -0.3454  0.2358
 3496SOL    HW121947   3.420   4.519   8.697  1.1120 -1.6498 -0.2013
 3496SOL    HW221948   3.462   4.640   8.782  0.4069 -0.7860  1.3033
 3497SOL     OW21949   2.330   0.152   3.495 -1.1252 -0.0950  0.5417
 3497SOL    HW121950   2.351   0.177   3.585  1.9026 -1.0042  0.0893
 3497SOL    HW221951   2.402   0.095   3.468 -2.3797 -1.8640  0.9198
 3498SOL     OW21952   3.172   2.541   2.475  0.6997  0.3996 -0.4740
 3498SOL    HW121953   3.178   2.448   2.457  3.2561  0.3843  0.3838
 3498SOL    HW221954   3.078   2.550   2.460  0.4325 -2.4610 -0.3783
 3499SOL     OW21955   1.598   0.109  13.810 -0.3134 -0.0557 -0.4453
 3499SOL    HW121956   1.583   0.016  13.827  1.1139 -0.2071 -0.0104
 3499SOL    HW221957   1.534   0.124  13.740 -0.6357  0.9871  0.0674
 3500SOL     OW21958   4.619   4.594   5.124  0.2136 -0.3796 -0.1853
 3500SOL    HW121959   4.577   4.657   5.183 -2.1993  0.5346 -2.8745
 3500SOL    HW221960   4.543   4.537   5.118  1.1534 -1.4706 -1.5809
 3501SOL     OW21961   1.709   1.922   7.074 -0.3844  0.0314  0.5469
 3501SOL    HW121962   1.735   1.879   7.155 -2.0633 -0.8474  0.6216
 3501SOL    HW221963   1.667   2.001   7.109  0.3704  0.4627  0.4664
 3502SOL     OW21964   3.202   0.625   3.773 -0.1083  0.1192 -0.7202
 3502SOL    HW121965   3.120   0.606   3.819  0.8502  1.3388  1.5124
 3502SOL    HW221966   3.211   0.547   3.718  1.1347 -0.9995  1.0391
 3503SOL     OW21967   2.936   4.383   0.350  0.5431  0.6584  0.1654
 3503SOL    HW121968   3.017   4.420   0.385  2.2917 -1.5180 -1.5631
 3503SOL    HW221969   2.964   4.292   0.362 -1.4120  0.4953  3.5668
 3504SOL     OW21970   3.864   1.916   5.167  0.1553  0.6989  0.0550
 3504SOL    HW121971   3.901   1.857   5.102 -0.5454 -0.7167  0.9368
 3504SOL    HW221972   3.872   2.001   5.123  0.6060  0.7775  0.2894
 3505SOL     OW21973   1.401   2.306  16.790  0.1494 -0.1230  0.0297
 3505SOL    HW121974   1.488   2.311  16.829 -1.2525  2.5319  2.8578
 3505SOL    HW221975   1.365   2.377  16.844  2.1048 -1.2179  2.8255
 3506SOL     OW21976   3.232   4.139   1.560 -0.1577 -0.3301  0.0532
 3506SOL    HW121977   3.298   4.152   1.492  0.1719 -0.2916  0.3789
 3506SOL    HW221978   3.154   4.116   1.509 -0.2226  2.4217 -1.1009
 3507SOL     OW21979   1.476   4.075  14.404  0.2310 -0.1312 -0.3779
 3507SOL    HW121980   1.505   3.985  14.422  1.2914  0.2819 -0.0456
 3507SOL    HW221981   1.429   4.085  14.487  0.4697  1.9409 -0.4990
 3508SOL     OW21982   2.604   1.220   1.071  0.2702 -0.6177 -0.0970
 3508SOL    HW121983   2.628   1.253   1.157  1.1949 -0.5134 -0.3904
 3508SOL    HW221984   2.570   1.132   1.086 -0.3620 -1.1662 -4.7572
 3509SOL     OW21985   0.671   1.259   6.796 -0.4286 -0.1634 -0.4410
 3509SOL    HW121986   0.662   1.188   6.861 -1.1501  0.0557 -0.2938
 3509SOL    HW221987   0.760   1.289   6.813 -0.7743  1.2470 -1.1475
 3510SOL     OW21988   3.406   0.477   4.967  0.1230  0.0192  0.4010
 3510SOL    HW121989   3.386   0.418   4.895  1.5648  0.2490 -0.1815
 3510SOL    HW221990   3.388   0.558   4.921  1.8185  1.5794  2.5010
 3511SOL     OW21991   3.607   4.321   7.450  0.3935  0.5489  0.4441
 3511SOL    HW121992   3.597   4.414   7.427 -0.6514  0.3384  0.0948
 3511SOL    HW221993   3.523   4.306   7.494  0.0211 -3.1826 -1.5574
 3512SOL     OW21994   2.811   1.841   7.377 -0.0167  0.0455 -0.4986
 3512SOL    HW121995   2.895   1.818   7.338  0.9845  0.4045  1.4318
 3512SOL    HW221996   2.756   1.836   7.299  0.5263  0.5520 -0.9080
 3513SOL     OW21997   0.739   4.352  11.654  0.2131  0.0544 -0.3751
 3513SOL    HW121998   0.788   4.332  11.734 -0.4511 -0.8431 -0.1837
 3513SOL    HW221999   0.756   4.446  11.659  0.1513 -0.0720  2.2172
 3514SOL     OW22000   4.402   1.661   5.758  0.4406  0.0058  0.0677
 3514SOL    HW122001   4.465   1.702   5.817 -0.4522  1.6451 -0.1197
 3514SOL    HW222002   4.342   1.732   5.735  0.4335 -0.5627 -1.7459
 3515SOL     OW22003   3.483   4.532   4.005 -0.3124  0.2591  0.0788
 3515SOL    HW122004   3.420   4.594   3.968 -0.4487 -1.1466 -2.0394
 3515SOL    HW222005   3.568   4.569   3.980 -0.6016  0.8280 -0.0619
 3516SOL     OW22006   2.562   4.342   6.142  0.3418  0.4939 -0.1715
 3516SOL    HW122007   2.606   4.426   6.153  1.9582 -0.4395  0.6335
 3516SOL    HW222008   2.473   4.368   6.119 -0.5085 -0.9449  1.4453
 3517SOL     OW22009   2.693   2.683   1.169 -0.4876  0.6274 -0.3384
 3517SOL    HW122010   2.782   2.686   1.202 -0.9162 -1.4986  0.9956
 3517SOL    HW222011   2.641   2.697   1.248 -0.6549  2.7230 -0.8242
 3518SOL     OW22012   0.258   2.310   5.521 -0.5731 -0.3741 -0.0745
 3518SOL    HW122013   0.348   2.286   5.541 -0.4507 -1.6164 -2.0965
 3518SOL    HW222014   0.221   2.319   5.609 -0.0906  0.4857  0.0385
 3519SOL     OW22015   2.333   2.615   7.051 -0.3467  0.5556  0.0468
 3519SOL    HW122016   2.351   2.702   7.015 -1.5674 -0.5245 -3.0994
 3519SOL    HW222017   2.382   2.625   7.133 -0.2753 -0.9370  0.1858
 3520SOL     OW22018   1.760   1.431   7.818 -0.3986 -0.0499  0.5639
 3520SOL    HW122019   1.800   1.485   7.750  1.3677 -1.6908  0.2837
 3520SOL    HW222020   1.771   1.342   7.784 -2.1933  0.0499 -0.2510
 3521SOL     OW22021   2.632   3.322   1.476 -0.1215 -0.0210 -0.3604
 3521SOL    HW122022   2.721   3.299   1.449 -0.8053 -1.8971 -1.0345
 3521SOL    HW222023   2.636   3.319   1.572  1.4593  2.9779 -0.3491
 3522SOL     OW22024   4.106   2.410   5.308 -0.2652  0.6943 -0.2167
 3522SOL    HW122025   4.022   2.384   5.347 -0.6479  0.1336 -1.4314
 3522SOL    HW222026   4.150   2.386   5.390 -0.3849  2.4093  0.3372
 3523SOL     OW22027   4.019   4.605  10.650  0.3097 -0.1483  0.0115
 3523SOL    HW122028   4.044   4.518  10.617 -0.7844  0.1919 -1.7496
 3523SOL    HW222029   4.021   4.591  10.744 -0.4396  0.1524  0.0729
 3524SOL     OW22030   2.857   1.528   4.438  0.1300 -0.1476  0.5454
 3524SOL    HW122031   2.805   1.520   4.518  0.2942 -2.1683  0.4376
 3524SOL    HW222032   2.791   1.545   4.370 -0.7694 -4.0200  0.4318
 3525SOL     OW22033   0.439   4.178   1.275  0.0089  0.3559 -0.0013
 3525SOL    HW122034   0.418   4.249   1.335 -3.1416 -1.2552  0.8398
 3525SOL    HW222035   0.512   4.211   1.222  0.3563  0.8154  0.7733
 3526SOL     OW22036   0.290   0.243  14.660 -0.0644  0.1522 -0.0380
 3526SOL    HW122037   0.236   0.322  14.662  0.1849  0.3609 -1.3145
 3526SOL    HW222038   0.293   0.243  14.564  2.1095 -1.9784  0.0499
 3527SOL     OW22039   2.705   4.322   3.925 -0.3626  0.5436 -0.0754
 3527SOL    HW122040   2.742   4.263   3.860 -2.4834  0.5699 -1.3136
 3527SOL    HW222041   2.614   4.294   3.916 -0.0152 -0.6564  0.0987
 3528SOL     OW22042   1.518   4.047  17.692  0.4650  0.4008 -0.3812
 3528SOL    HW122043   1.609   4.073  17.682  1.1519 -1.4779  1.1542
 3528SOL    HW222044   1.470   4.126  17.666  0.0968  1.0089  2.0968
 3529SOL     OW22045   0.456   4.562   6.358 -0.0614  0.0840 -0.3161
 3529SOL    HW122046   0.380   4.573   6.415  0.9959 -0.1459  1.1426
 3529SOL    HW222047   0.495   4.649   6.348 -2.3616  1.4397  2.4619
 3530SOL     OW22048   0.887   0.555   9.683  0.2434  0.1604  0.2072
 3530SOL    HW122049   0.900   0.540   9.777 -0.3047 -2.5733 -0.1593
 3530SOL    HW222050   0.899   0.466   9.651  3.2629  0.8258 -0.4910
 3531SOL     OW22051   2.142   0.786  13.860 -0.1582  0.2656 -0.3663
 3531SOL    HW122052   2.170   0.810  13.772  3.5590 -1.5661  0.3384
 3531SOL    HW222053   2.093   0.866  13.876 -0.8748 -0.4813  1.1604
 3532SOL     OW22054   2.481   4.307   2.316  0.2435 -0.6682 -0.2454
 3532SOL    HW122055   2.467   4.213   2.312 -1.3997 -0.4000 -0.6757
 3532SOL    HW222056   2.502   4.316   2.409 -1.6726  0.2138  0.1038
 3533SOL     OW22057   3.737   3.084   9.638  0.7420 -0.4988 -0.2117
 3533SOL    HW122058   3.696   3.095   9.724 -1.5173  0.4514 -1.4148
 3533SOL    HW222059   3.783   3.166   9.620  0.5616  0.2248  2.6337
 3534SOL     OW22060   2.149   2.663   8.587 -0.2002 -0.6811  0.2123
 3534SOL    HW122061   2.074   2.723   8.586 -2.3117 -3.3179 -0.4523
 3534SOL    HW222062   2.101   2.582   8.609  0.2100 -0.4702  1.8596
 3535SOL     OW22063   1.267   1.811   8.832 -0.1346  0.5184 -0.0759
 3535SOL    HW122064   1.226   1.870   8.896 -2.9478 -1.6424  0.1350
 3535SOL    HW222065   1.185   1.777   8.796  0.8585  0.2382 -2.0768
 3536SOL     OW22066   4.160   0.584   7.117 -0.4595  0.1357  0.0923
 3536SOL    HW122067   4.182   0.611   7.207  1.9081  1.5017 -0.8961
 3536SOL    HW222068   4.245   0.581   7.073 -1.3411  1.6096 -1.6934
 3537SOL     OW22069   4.438   2.468   5.915  0.0245  0.1182 -0.0186
 3537SOL    HW122070   4.347   2.477   5.942 -0.7273 -0.3356 -2.3882
 3537SOL    HW222071   4.445   2.547   5.861 -1.4506 -1.5501 -2.6654
 3538SOL     OW22072   4.465   2.962   5.742  0.3859 -0.7559  0.4085
 3538SOL    HW122073   4.399   3.029   5.723 -0.2943 -1.5946 -0.1928
 3538SOL    HW222074   4.479   2.949   5.648  0.6184  2.5506 -0.0420
 3539SOL     OW22075   3.642   3.510   3.659 -0.3214  0.1161 -0.1983
 3539SOL    HW122076   3.678   3.454   3.727  1.8269  0.5178 -1.0163
 3539SOL    HW222077   3.554   3.473   3.656  0.2234 -0.9348 -2.9440
 3540SOL     OW22078   2.094   2.898   2.794  0.1021  0.1255 -0.0082
 3540SOL    HW122079   2.036   2.895   2.718  0.3725  0.2491 -0.2224
 3540SOL    HW222080   2.184   2.880   2.766 -0.4762 -2.0948 -0.4090
 3541SOL     OW22081   1.025   0.957  10.942  0.6201 -0.3262  0.2722
 3541SOL    HW122082   1.103   0.903  10.954  0.7960 -0.2049 -0.3333
 3541SOL    HW222083   1.040   1.016  11.016 -0.4458 -2.9967  2.5981
 3542SOL     OW22084   0.519   0.547  16.721 -0.4564 -0.0263 -0.3775
 3542SOL    HW122085   0.465   0.625  16.705  0.1453  0.4744  0.0424
 3542SOL    HW222086   0.580   0.555  16.648  0.9172 -1.8816  0.5803
 3543SOL     OW22087   0.840   4.405   3.650 -0.5028  0.1766 -0.2081
 3543SOL    HW122088   0.934   4.417   3.666 -0.3390  0.4787 -1.3821
 3543SOL    HW222089   0.841   4.375   3.559  0.1480 -1.3683  0.3164
 3544SOL     OW22090   0.198   1.670   7.583 -0.3029 -0.6858 -0.3280
 3544SOL    HW122091   0.108   1.650   7.555 -0.7159  0.2358  0.3505
 3544SOL    HW222092   0.243   1.644   7.502  0.1551 -1.0035  0.0298
 3545SOL     OW22093   4.136   0.753  13.419  0.2749 -0.0137  0.1019
 3545SOL    HW122094   4.175   0.767  13.333  1.3184  2.1963  0.9421
 3545SOL    HW222095   4.070   0.691  13.390  1.7902 -0.9188 -1.3550
 3546SOL     OW22096   0.778   3.345   6.940 -0.1240 -0.2770  0.2850
 3546SOL    HW122097   0.857   3.396   6.926  1.1026 -2.3076 -0.2370
 3546SOL    HW222098   0.784   3.283   6.867 -0.6021 -0.2851  0.2492
 3547SOL     OW22099   0.436   3.778   2.079 -0.5649  0.0360 -0.4632
 3547SOL    HW122100   0.353   3.752   2.120 -0.4293  0.9557  0.3997
 3547SOL    HW222101   0.494   3.746   2.148 -1.4538 -1.0566 -0.2198
 3548SOL     OW22102   1.535   0.318  10.256  0.3978  0.0048  0.0036
 3548SOL    HW122103   1.568   0.242  10.304 -2.2017  0.0342  1.8291
 3548SOL    HW222104   1.558   0.386  10.319  1.5629 -0.0747 -0.3302
 3549SOL     OW22105   3.276   2.681   5.973  0.5470 -0.1260  0.2863
 3549SOL    HW122106   3.340   2.668   5.903 -1.0324  0.5336 -1.3063
 3549SOL    HW222107   3.323   2.646   6.049 -0.8185 -0.2394  1.0861
 3550SOL     OW22108   3.848   2.579   2.113 -0.1320 -0.0388  0.0617
 3550SOL    HW122109   3.853   2.519   2.039 -0.0858  0.4256 -0.3073
 3550SOL    HW222110   3.757   2.557   2.133  0.0929 -2.7143 -1.8774
 3551SOL     OW22111   2.180   0.848  10.361  0.6918  0.1588  0.2594
 3551SOL    HW122112   2.211   0.776  10.306 -0.3457  0.3811 -0.6007
 3551SOL    HW222113   2.111   0.818  10.420 -0.9350  1.1677 -1.1660
 3552SOL     OW22114   0.099   2.049   8.873  0.3619 -0.3653 -0.0676
 3552SOL    HW122115   0.163   2.120   8.887 -2.3218  2.1996 -0.7715
 3552SOL    HW222116   0.161   1.981   8.846 -0.0154 -0.8145  0.2024
 3553SOL     OW22117   2.883   4.480  13.679 -0.3913 -0.0871 -0.0174
 3553SOL    HW122118   2.930   4.435  13.608  0.5893 -2.2823  2.0177
 3553SOL    HW222119   2.951   4.540  13.711 -0.6930  1.2421 -1.8939
 3554SOL     OW22120   3.067   2.484  15.647  0.4456 -0.0395 -0.2654
 3554SOL    HW122121   3.113   2.468  15.565 -0.3116  1.7234 -1.0231
 3554SOL    HW222122   3.084   2.577  15.660  1.3056 -0.2470  0.0807
 3555SOL     OW22123   4.480   3.100   8.964  0.0774 -0.3309 -0.2252
 3555SOL    HW122124   4.408   3.078   9.023  0.4146  1.5225  0.8636
 3555SOL    HW222125   4.533   3.022   8.953  1.0510  0.3981 -0.6350
 3556SOL     OW22126   3.403   3.700   4.551 -0.4291 -0.6248 -0.4201
 3556SOL    HW122127   3.372   3.630   4.610  2.4961 -1.3864  0.2086
 3556SOL    HW222128   3.498   3.687   4.556 -0.2935  0.0368 -1.3974
 3557SOL     OW22129   0.082   2.408   6.617 -0.6406 -0.2274 -0.2369
 3557SOL    HW122130   0.107   2.428   6.707 -0.3748  0.0032 -0.3622
 3557SOL    HW222131   0.069   2.313   6.621  3.9671 -0.8727 -0.2165
 3558SOL     OW22132   2.325   1.911   2.454 -0.3929  0.5715 -0.4791
 3558SOL    HW122133   2.327   1.816   2.451 -1.8589  0.6031 -2.5690
 3558SOL    HW222134   2.334   1.923   2.549 -1.4053  0.8544 -0.4165
 3559SOL     OW22135   2.834   1.607  14.730  0.3633 -0.1987 -0.1712
 3559SOL    HW122136   2.753   1.633  14.773  0.9075 -0.3015  0.9056
 3559SOL    HW222137   2.832   1.512  14.727  1.0891 -0.1703 -1.9726
 3560SOL     OW22138   2.161   0.210  14.626  0.2357  0.5504  0.2291
 3560SOL    HW122139   2.098   0.142  14.601 -0.2755  1.1640 -0.1697
 3560SOL    HW222140   2.182   0.242  14.538 -0.0684 -0.4105 -0.1929
 3561SOL     OW22141   0.271   3.485  12.395  0.2492  0.3820  0.0529
 3561SOL    HW122142   0.339   3.546  12.423  0.1939  0.5127 -0.1010
 3561SOL    HW222143   0.187   3.527  12.410  1.5900  2.9014  0.4713
 3562SOL     OW22144   0.829   0.400  17.300 -0.1815 -0.7405  0.2926
 3562SOL    HW122145   0.824   0.470  17.235 -2.5091  1.4757  2.9046
 3562SOL    HW222146   0.752   0.349  17.274  1.8280 -1.9951 -3.3039
 3563SOL     OW22147   3.795   4.210   6.255 -0.2793 -0.2193  0.6281
 3563SOL    HW122148   3.862   4.212   6.187 -1.3108 -0.1244 -0.3661
 3563SOL    HW222149   3.809   4.288   6.310  0.7923  1.7109 -2.3755
 3564SOL     OW22150   0.084   1.553  15.232 -0.3508 -0.2240 -0.0302
 3564SOL    HW122151   0.067   1.460  15.219 -0.8504 -0.1401  0.0456
 3564SOL    HW222152   0.038   1.560  15.315 -0.4693 -0.9108 -0.0422
 3565SOL     OW22153   1.632   0.663  15.823 -0.5218 -0.2254  0.3842
 3565SOL    HW122154   1.578   0.584  15.827 -0.6902 -0.1040  0.4735
 3565SOL    HW222155   1.586   0.716  15.887  0.3520  0.6077  0.3214
 3566SOL     OW22156   1.771   2.413   2.198 -0.2259  0.2675  0.2568
 3566SOL    HW122157   1.851   2.373   2.163 -1.4560  0.1958 -2.3917
 3566SOL    HW222158   1.731   2.443   2.117  1.1510  2.9117  0.5330
 3567SOL     OW22159   3.113   1.207   4.691 -0.0656  0.0363 -0.6408
 3567SOL    HW122160   3.127   1.117   4.718 -1.5159 -0.1496 -0.4986
 3567SOL    HW222161   3.147   1.200   4.602  1.5338 -0.3116  0.0015
 3568SOL     OW22162   1.617   2.431   3.413 -0.3330 -0.3857  0.5608
 3568SOL    HW122163   1.548   2.476   3.462 -1.4913 -0.6832 -0.7567
 3568SOL    HW222164   1.574   2.351   3.382 -1.8877 -0.0038  1.7278
 3569SOL     OW22165   2.090   2.983   2.471 -0.1822  0.4169 -0.0887
 3569SOL    HW122166   2.093   3.025   2.385 -1.4538  1.2565  0.2708
 3569SOL    HW222167   2.156   3.039   2.510 -0.6328  0.3431  0.7665
 3570SOL     OW22168   3.340   2.150  10.174  0.2084 -0.0227 -0.0328
 3570SOL    HW122169   3.320   2.109  10.258  0.9879  1.3657  0.8205
 3570SOL    HW222170   3.370   2.070  10.129 -0.6989  0.4894 -1.5381
 3571SOL     OW22171   3.285   1.484   7.992 -0.2383 -0.2781  0.2681
 3571SOL    HW122172   3.241   1.516   8.071 -1.6336 -0.1627 -0.5532
 3571SOL    HW222173   3.255   1.393   7.995  2.5984 -1.1684  1.4449
 3572SOL     OW22174   2.811   3.771   3.308  0.0448  0.1915  0.0104
 3572SOL    HW122175   2.854   3.771   3.222  1.5567 -1.1023  0.7765
 3572SOL    HW222176   2.770   3.857   3.299  0.8889  0.2878 -3.0014
 3573SOL     OW22177   0.103   2.009   3.989  0.2114 -0.4637  0.4189
 3573SOL    HW122178   0.192   1.990   4.020 -0.1119 -1.2303  0.8633
 3573SOL    HW222179   0.122   2.063   3.912  0.9222  1.2968  1.8145
 3574SOL     OW22180   0.124   1.251   0.719 -0.3674 -0.3927  0.6811
 3574SOL    HW122181   0.136   1.158   0.738  1.3831 -0.4977 -0.9136
 3574SOL    HW222182   0.047   1.273   0.771  1.3478  2.5072  1.9860
 3575SOL     OW22183   4.377   1.438   2.484  0.8141 -0.4106  0.2165
 3575SOL    HW122184   4.418   1.407   2.403  1.1201  0.6401 -0.0421
 3575SOL    HW222185   4.286   1.421   2.460 -0.2492  3.9485  1.0588
 3576SOL     OW22186   3.280   1.868  14.340  0.4698  0.0477 -0.0538
 3576SOL    HW122187   3.282   1.869  14.245  0.5067 -0.8069 -0.0622
 3576SOL    HW222188   3.370   1.838  14.355  1.0097  1.5716 -0.2772
 3577SOL     OW22189   0.966   2.473   7.239 -0.7813  0.0149  0.2022
 3577SOL    HW122190   0.989   2.560   7.271 -1.6678  0.2597  0.1596
 3577SOL    HW222191   0.986   2.479   7.146 -3.1673  0.8883 -0.2449
 3578SOL     OW22192   1.737   0.780   3.668 -0.0155  0.2278  0.2424
 3578SOL    HW122193   1.802   0.810   3.604  1.6764 -1.4052  1.1943
 3578SOL    HW222194   1.685   0.720   3.615  1.3696  1.7072 -2.7955
 3579SOL     OW22195   4.107   1.224   7.036  0.0258 -0.0438  0.0056
 3579SOL    HW122196   4.146   1.311   7.034 -0.3915  0.1141 -1.1621
 3579SOL    HW222197   4.174   1.179   7.089 -0.0225 -1.6942 -1.3274
 3580SOL     OW22198   4.447   1.279   6.293 -0.6888 -0.4692 -0.1176
 3580SOL    HW122199   4.390   1.204   6.310 -1.2505  0.3302  1.5382
 3580SOL    HW222200   4.520   1.261   6.353 -0.6137 -1.1662 -0.4071
 3581SOL     OW22201   1.620   4.685   2.597 -0.3342 -0.1370  0.0490
 3581SOL    HW122202   1.676   0.003   2.533 -0.2023 -1.2707 -0.6018
 3581SOL    HW222203   1.683   4.633   2.645  2.3783  3.4570  0.3713
 3582SOL     OW22204   1.010   2.221   4.952 -0.0028  0.6602 -0.2673
 3582SOL    HW122205   0.950   2.266   5.012 -0.2339  0.2581 -0.1947
 3582SOL    HW222206   0.961   2.214   4.870 -2.9783 -0.4690  1.5992
 3583SOL     OW22207   2.190   1.017  14.892  0.5841 -0.1975 -0.1910
 3583SOL    HW122208   2.212   1.109  14.877 -0.4867 -0.2346 -1.8836
 3583SOL    HW222209   2.179   0.985  14.803  1.7142 -2.4436  0.4720
 3584SOL     OW22210   4.051   3.131   5.192 -0.3141  0.0617 -0.5159
 3584SOL    HW122211   4.025   3.070   5.124 -0.8935  0.0738 -0.2991
 3584SOL    HW222212   3.974   3.140   5.247  0.7698  2.2001  0.6616
 3585SOL     OW22213   0.665   0.627   3.702 -0.2062  0.3777 -0.2244
 3585SOL    HW122214   0.738   0.662   3.650  0.2562 -0.9420 -0.4681
 3585SOL    HW222215   0.628   0.714   3.717 -1.1869 -0.2495  0.9598
 3586SOL     OW22216   0.660   2.268   4.974  0.3333 -0.3133 -0.3317
 3586SOL    HW122217   0.693   2.236   4.890 -2.5100 -0.1560 -1.5200
 3586SOL    HW222218   0.738   2.255   5.028  1.1022 -2.7986 -2.0043
 3587SOL     OW22219   1.786   2.185   6.690  0.2083  0.3308  0.3806
 3587SOL    HW122220   1.816   2.270   6.720 -1.1512  1.0452 -0.3148
 3587SOL    HW222221   1.863   2.157   6.641 -0.1389  0.5616 -0.2942
 3588SOL     OW22222   4.284   3.884   6.278  0.0987 -0.1726 -0.2769
 3588SOL    HW122223   4.277   3.970   6.235 -1.9425 -0.6237 -0.8498
 3588SOL    HW222224   4.360   3.851   6.230  1.1967  1.2073  0.5318
 3589SOL     OW22225   4.153   3.031   4.263  0.7034 -0.6597 -0.2954
 3589SOL    HW122226   4.222   2.997   4.206  1.5535 -0.0999  0.3917
 3589SOL    HW222227   4.083   3.034   4.199  0.3938  2.2923  0.1765
 3590SOL     OW22228   3.103   3.913   4.067 -0.9588  0.1754  0.3439
 3590SOL    HW122229   3.196   3.904   4.046 -0.1026  1.9750  3.3456
 3590SOL    HW222230   3.077   3.838   4.120  1.4328  0.1864  1.4978
 3591SOL     OW22231   0.860   2.826   2.373  0.3746  0.2233  0.2718
 3591SOL    HW122232   0.946   2.816   2.416  1.4377  0.0249 -1.9257
 3591SOL    HW222233   0.902   2.820   2.287  1.3485  0.3562  0.7298
 3592SOL     OW22234   2.436   0.942  10.421 -0.0856  0.2938 -0.2018
 3592SOL    HW122235   2.451   0.945  10.327 -1.2261  0.2277 -0.3853
 3592SOL    HW222236   2.360   0.883  10.425  0.2103 -0.0132  1.1340
 3593SOL     OW22237   1.037   0.640   7.122 -0.1018 -0.1078  0.9730
 3593SOL    HW122238   1.090   0.571   7.081  1.2094 -0.2043  2.8140
 3593SOL    HW222239   0.959   0.596   7.157  0.0734  1.4001  3.2546
 3594SOL     OW22240   4.167   1.249   1.719 -0.4206 -0.6290 -0.8199
 3594SOL    HW122241   4.200   1.238   1.808  1.2712  0.2590 -1.3242
 3594SOL    HW222242   4.223   1.190   1.667 -0.7125 -2.1547  0.6011
 3595SOL     OW22243   2.084   0.027   3.545 -0.6765 -0.2198  0.2421
 3595SOL    HW122244   2.031   0.104   3.523 -1.8049 -0.9744  0.2672
 3595SOL    HW222245   2.168   0.070   3.553  0.5153 -2.6064  0.5251
 3596SOL     OW22246   0.815   3.067   4.952  0.2593 -0.1968 -0.5995
 3596SOL    HW122247   0.754   3.110   4.894 -0.6226 -1.4242 -0.5765
 3596SOL    HW222248   0.853   3.143   4.996 -0.5573  0.5826 -1.2629
 3597SOL     OW22249   2.390   2.689   4.757  0.4069  0.1603  0.5073
 3597SOL    HW122250   2.413   2.781   4.748  4.0767 -0.7380  0.5952
 3597SOL    HW222251   2.444   2.648   4.689 -0.6209  1.4770 -1.1242
 3598SOL     OW22252   1.510   0.553   5.782  0.0338  0.7093 -0.0839
 3598SOL    HW122253   1.596   0.517   5.762 -0.2935  0.2102 -0.6087
 3598SOL    HW222254   1.459   0.498   5.723 -0.4234  1.5168 -0.4539
 3599SOL     OW22255   2.983   1.188   7.319  0.4257  0.4074  0.8106
 3599SOL    HW122256   3.029   1.120   7.270  2.1503  1.3842  1.0355
 3599SOL    HW222257   2.910   1.137   7.351 -0.5725  0.6456 -1.0999
 3600SOL     OW22258   3.764   2.305   9.658 -0.3146 -0.1106  0.0969
 3600SOL    HW122259   3.811   2.372   9.708  1.9925 -3.0311  1.8882
 3600SOL    HW222260   3.685   2.349   9.625  0.1306  2.9231  3.0790
 3601SOL     OW22261   4.199   2.134   1.089 -0.0215  0.0745 -0.7596
 3601SOL    HW122262   4.115   2.087   1.088  1.4704 -2.6302  2.9637
 3601SOL    HW222263   4.250   2.097   1.161  0.0072 -0.3150 -0.9813
 3602SOL     OW22264   4.292   1.418   1.463 -0.4753  0.0075  0.2165
 3602SOL    HW122265   4.223   1.466   1.507 -1.0850 -0.0969 -0.6299
 3602SOL    HW222266   4.255   1.419   1.375 -2.1912 -0.2390  0.9392
 3603SOL     OW22267   1.478   1.023   7.507  0.0190 -0.3356 -0.1716
 3603SOL    HW122268   1.476   0.937   7.549 -1.7444 -0.4606 -0.5505
 3603SOL    HW222269   1.424   1.081   7.560 -0.2588  0.4999 -1.3766
 3604SOL     OW22270   4.586   4.645   2.463  0.4432 -0.2653 -0.1156
 3604SOL    HW122271   4.653   4.683   2.406 -0.4463  1.5391  0.0605
 3604SOL    HW222272   4.636   4.633   2.544  2.3108  0.4048 -1.1707
 3605SOL     OW22273   0.424   0.287  12.219 -0.7353  0.3913 -0.4562
 3605SOL    HW122274   0.482   0.293  12.143 -3.1052  1.4780 -2.1666
 3605SOL    HW222275   0.481   0.324  12.287 -1.5347  1.1522 -0.1954
 3606SOL     OW22276   2.788   1.583  13.700  0.1677 -0.3793  0.6480
 3606SOL    HW122277   2.718   1.604  13.763  0.9957 -0.5640  1.6280
 3606SOL    HW222278   2.745   1.515  13.648  0.4931 -0.3586  0.3534
 3607SOL     OW22279   4.251   1.456   7.052 -0.8607 -0.0527 -0.1318
 3607SOL    HW122280   4.324   1.414   7.097 -1.6717  0.9604  2.1134
 3607SOL    HW222281   4.303   1.514   6.996 -0.5997 -0.4712 -0.3252
 3608SOL     OW22282   1.764   1.175   5.797 -0.4124  0.3114 -0.1478
 3608SOL    HW122283   1.698   1.237   5.827 -1.2214 -2.8380  4.5305
 3608SOL    HW222284   1.786   1.134   5.880 -0.2339 -0.2516 -0.4711
 3609SOL     OW22285   0.511   0.161   5.570  0.1590 -0.3861 -0.1508
 3609SOL    HW122286   0.525   0.254   5.555  0.7851 -0.5255 -0.4345
 3609SOL    HW222287   0.441   0.137   5.509  0.5517 -1.5403 -0.1480
 3610SOL     OW22288   3.237   0.880   2.242  0.2888  0.3373 -0.6651
 3610SOL    HW122289   3.280   0.799   2.269 -1.4701 -0.4662 -0.2278
 3610SOL    HW222290   3.300   0.937   2.285 -0.2444  0.1888  0.2981
 3611SOL     OW22291   1.088   3.490  14.567 -0.0824  0.7402  0.2561
 3611SOL    HW122292   1.131   3.545  14.633 -0.7463 -0.3194  1.5749
 3611SOL    HW222293   0.996   3.514  14.582 -0.2906  0.9281 -1.3273
 3612SOL     OW22294   1.194   3.888   2.911 -0.2753  0.2461 -0.3748
 3612SOL    HW122295   1.213   3.971   2.869  1.3895 -0.4472 -1.0131
 3612SOL    HW222296   1.108   3.865   2.877 -1.5067  1.9544  1.5708
 3613SOL     OW22297   3.761   2.353  17.093  0.5793 -0.0262 -0.8103
 3613SOL    HW122298   3.677   2.373  17.052  0.2376 -2.4032 -1.2919
 3613SOL    HW222299   3.740   2.268  17.133  2.1737 -0.1204 -0.1537
 3614SOL     OW22300   3.224   3.500   8.964 -0.4433 -0.7193  0.2910
 3614SOL    HW122301   3.309   3.544   8.965  0.9352 -3.3160 -0.0214
 3614SOL    HW222302   3.164   3.554   9.015 -0.6822  0.9662 -1.8050
 3615SOL     OW22303   1.099   2.769   6.749 -0.0817  0.0197 -0.0035
 3615SOL    HW122304   1.156   2.693   6.738 -0.5858 -0.7394  2.6255
 3615SOL    HW222305   1.016   2.736   6.716  0.5546 -3.9048  2.3150
 3616SOL     OW22306   1.378   4.083   9.776 -0.4244  0.0741 -0.4099
 3616SOL    HW122307   1.354   4.075   9.684  2.2168  0.2958 -1.1169
 3616SOL    HW222308   1.417   3.997   9.792  0.1829  0.3188 -0.5932
 3617SOL     OW22309   4.169   2.505   2.956 -0.3952  0.2516  0.3097
 3617SOL    HW122310   4.180   2.478   2.865 -1.4436 -2.1404  0.8908
 3617SOL    HW222311   4.234   2.574   2.963  2.7209 -2.5339 -1.4063
 3618SOL     OW22312   0.218   2.972   1.216  0.1209 -0.1275  0.3069
 3618SOL    HW122313   0.312   2.980   1.203  0.4632 -2.9578  1.1331
 3618SOL    HW222314   0.185   3.022   1.142  0.2881 -1.2529 -0.5241
 3619SOL     OW22315   4.508   3.106  16.332  0.3710 -0.4482  0.2178
 3619SOL    HW122316   4.482   3.119  16.423  2.3399 -1.4049  0.9184
 3619SOL    HW222317   4.427   3.135  16.290  1.3267 -0.0513 -1.3314
 3620SOL     OW22318   1.634   2.313   8.846  0.7850 -0.0534 -0.4237
 3620SOL    HW122319   1.693   2.373   8.893 -0.0177  0.3808  0.0464
 3620SOL    HW222320   1.698   2.272   8.788  2.5581  1.7921  0.2166
 3621SOL     OW22321   3.452   2.739   8.964 -0.3939  0.2825 -0.0070
 3621SOL    HW122322   3.431   2.829   8.939 -2.3706  0.3394  1.8909
 3621SOL    HW222323   3.372   2.720   9.013 -0.8215  0.8012 -0.5028
 3622SOL     OW22324   0.349   3.120  11.495 -0.1528 -0.0760  0.0484
 3622SOL    HW122325   0.285   3.126  11.423  0.8558  0.6023 -0.7911
 3622SOL    HW222326   0.337   3.204  11.538  1.1607  0.5472 -0.8086
 3623SOL     OW22327   0.843   2.694   8.201  0.5446 -0.8764 -0.7301
 3623SOL    HW122328   0.850   2.628   8.132 -0.9159 -2.7766  0.9328
 3623SOL    HW222329   0.936   2.714   8.207  0.5601 -1.0446 -0.4379
 3624SOL     OW22330   0.286   1.961   7.562 -0.2627 -0.7062  0.2790
 3624SOL    HW122331   0.323   1.985   7.647 -1.3056 -3.1424  1.4369
 3624SOL    HW222332   0.259   1.872   7.585 -1.5045 -0.5356 -0.5531
 3625SOL     OW22333   3.186   2.495  17.298  0.4606  0.1491 -0.3166
 3625SOL    HW122334   3.237   2.463  17.372 -1.1108  0.1561  0.7665
 3625SOL    HW222335   3.123   2.556  17.338  0.6986  0.3252 -0.2112
 3626SOL     OW22336   1.162   2.169   2.600 -0.4876  0.4006  0.4506
 3626SOL    HW122337   1.202   2.109   2.537 -0.2221  0.4251  0.5938
 3626SOL    HW222338   1.236   2.216   2.638  2.0150 -1.2610 -2.3173
 3627SOL     OW22339   2.842   1.428   3.069  0.6017  0.6337 -0.7232
 3627SOL    HW122340   2.882   1.502   3.116  4.7527 -1.1653 -1.4595
 3627SOL    HW222341   2.751   1.423   3.097  0.9679 -0.7334  0.1881
 3628SOL     OW22342   3.709   3.579  17.318 -0.1859  0.2154 -0.5612
 3628SOL    HW122343   3.692   3.671  17.337 -3.7329 -0.5250 -0.0859
 3628SOL    HW222344   3.801   3.566  17.338 -0.8632 -0.4213  2.1423
 3629SOL     OW22345   1.220   2.566   4.091 -0.7063 -0.0824  0.2008
 3629SOL    HW122346   1.140   2.552   4.041  0.5293 -2.1217 -1.1826
 3629SOL    HW222347   1.193   2.639   4.147  0.1670  1.4505 -1.4040
 3630SOL     OW22348   4.205   0.896   0.539 -0.2652  0.1537 -0.4086
 3630SOL    HW122349   4.269   0.919   0.471 -0.8358 -0.4391 -1.1434
 3630SOL    HW222350   4.163   0.819   0.500  0.7594 -2.0574  2.7968
 3631SOL     OW22351   1.948   2.010  14.218 -0.3047  0.0821  0.0177
 3631SOL    HW122352   1.944   2.014  14.313 -0.3803 -0.3145  0.0308
 3631SOL    HW222353   1.914   1.926  14.188 -0.0271 -0.7338  2.0375
 3632SOL     OW22354   3.108   0.602   9.031  0.0709 -0.3447 -0.0978
 3632SOL    HW122355   3.030   0.556   9.060 -0.5714  1.8574  1.6205
 3632SOL    HW222356   3.170   0.543   9.074 -1.2265 -2.1846 -0.7840
 3633SOL     OW22357   1.545   2.912  11.582 -0.3313 -0.3774  0.3338
 3633SOL    HW122358   1.596   2.836  11.556 -2.0620 -2.0737  1.8708
 3633SOL    HW222359   1.611   2.979  11.564  0.8880 -1.7533 -0.2413
 3634SOL     OW22360   1.563   4.389   4.468 -0.5988 -0.4399 -0.1908
 3634SOL    HW122361   1.480   4.431   4.445 -0.9234 -0.9197  0.1137
 3634SOL    HW222362   1.536   4.298   4.468  1.5955 -1.1013 -0.0368
 3635SOL     OW22363   1.569   3.783   4.771 -0.4712 -0.2837 -0.1510
 3635SOL    HW122364   1.476   3.804   4.767 -0.8194 -2.2885 -2.0734
 3635SOL    HW222365   1.569   3.763   4.865 -1.5666 -1.3229 -0.3728
 3636SOL     OW22366   1.061   3.150  11.795 -0.3700 -0.3232  0.7681
 3636SOL    HW122367   0.977   3.137  11.839 -0.2255 -2.6614  0.3487
 3636SOL    HW222368   1.113   3.139  11.875  0.3873 -0.7451  0.2189
 3637SOL     OW22369   4.272   1.118   3.350  0.0660  0.0226  0.8177
 3637SOL    HW122370   4.345   1.160   3.304 -0.8749 -0.3635 -1.0111
 3637SOL    HW222371   4.309   1.034   3.376  1.4034  0.1070 -0.8391
 3638SOL     OW22372   2.529   1.601   4.389 -0.3400  0.2304  0.5655
 3638SOL    HW122373   2.586   1.559   4.324 -2.8068 -0.1628 -1.3112
 3638SOL    HW222374   2.437   1.584   4.373 -0.3105  0.6364 -0.0305
 3639SOL     OW22375   3.592   3.274   2.324 -0.2833  0.1576 -0.2181
 3639SOL    HW122376   3.651   3.213   2.367  0.8583  1.1832 -0.3301
 3639SOL    HW222377   3.637   3.353   2.353  1.1081 -0.8937  0.4842
 3640SOL     OW22378   0.963   1.563   5.495 -0.1108 -0.1562  0.0197
 3640SOL    HW122379   0.891   1.559   5.431  2.3927  0.7643 -2.8439
 3640SOL    HW222380   1.031   1.580   5.431  2.1123  1.1149  2.7332
 3641SOL     OW22381   1.848   3.392   6.340 -0.3144 -0.1499  0.1614
 3641SOL    HW122382   1.808   3.345   6.413 -0.4022  0.5303  0.5465
 3641SOL    HW222383   1.927   3.426   6.383  0.7215 -0.5454 -1.4523
 3642SOL     OW22384   4.182   1.556   0.308 -0.4580  0.7577  0.3504
 3642SOL    HW122385   4.107   1.597   0.264 -0.3288  0.8654  0.2334
 3642SOL    HW222386   4.141   1.517   0.386 -0.0979  1.6107  0.9688
 3643SOL     OW22387   1.837   4.108   7.904 -0.1626  0.0820 -0.0402
 3643SOL    HW122388   1.914   4.142   7.859 -0.3133 -1.6162 -1.5624
 3643SOL    HW222389   1.768   4.172   7.890  1.1766  1.7289  0.8213
 3644SOL     OW22390   0.758   4.666   0.976  0.7406  0.1911  0.5073
 3644SOL    HW122391   0.678   4.717   0.961  2.4930  3.6095  2.8497
 3644SOL    HW222392   0.734   4.584   0.934 -0.6761  0.5593  0.5852
 3645SOL     OW22393   1.439   0.164  15.346  0.8385  0.1907  0.3673
 3645SOL    HW122394   1.397   0.246  15.373  1.0379  0.6681 -0.7789
 3645SOL    HW222395   1.385   0.105  15.398 -0.1372  1.5566  0.9108
 3646SOL     OW22396   1.993   2.707  10.627  0.1504  0.2141 -0.1590
 3646SOL    HW122397   1.920   2.650  10.605 -1.3770  1.8760  0.6642
 3646SOL    HW222398   1.939   2.779  10.661 -0.9247  0.1333 -1.7230
 3647SOL     OW22399   1.754   0.447   0.131  0.9678 -0.1596 -0.0163
 3647SOL    HW122400   1.801   0.417   0.053  0.7041  1.1218 -0.6695
 3647SOL    HW222401   1.677   0.390   0.136  1.9734 -1.2308  3.5668
 3648SOL     OW22402   3.867   4.578   7.390 -0.4033 -0.4145  0.0123
 3648SOL    HW122403   3.935   4.568   7.323  0.1130  1.3040  0.2846
 3648SOL    HW222404   3.914   4.569   7.473  1.9310 -0.8587 -1.3561
 3649SOL     OW22405   2.412   3.868   3.221 -0.3034 -0.0404  0.1212
 3649SOL    HW122406   2.431   3.925   3.296 -0.0554 -0.2389  0.2077
 3649SOL    HW222407   2.427   3.788   3.271  0.7530  0.1041  0.0254
 3650SOL     OW22408   1.490   1.562  12.646  0.1710 -0.2941 -0.7373
 3650SOL    HW122409   1.398   1.588  12.638  0.0150 -0.1830  1.4481
 3650SOL    HW222410   1.505   1.526  12.558 -0.5976 -0.3175 -0.8628
 3651SOL     OW22411   3.685   0.699   6.598 -0.0598 -0.2045  0.5078
 3651SOL    HW122412   3.755   0.634   6.592 -0.4460 -0.5278 -0.6753
 3651SOL    HW222413   3.632   0.659   6.666  0.2026  0.9208  1.3761
 3652SOL     OW22414   3.801   3.568   7.762 -0.2393  0.4041 -0.3134
 3652SOL    HW122415   3.797   3.474   7.747  0.9865  0.3467 -0.2843
 3652SOL    HW222416   3.876   3.576   7.820  0.3070  2.2031 -1.2592
 3653SOL     OW22417   3.326   2.038  15.917  0.0732 -0.0586 -0.4359
 3653SOL    HW122418   3.406   2.090  15.928 -0.9560  1.4545 -0.2217
 3653SOL    HW222419   3.268   2.111  15.895  0.1180 -0.1560 -0.8898
 3654SOL     OW22420   3.130   2.649   5.242 -0.2188 -0.1233 -0.0811
 3654SOL    HW122421   3.216   2.690   5.252 -0.0220 -0.8951  1.2721
 3654SOL    HW222422   3.135   2.577   5.304  0.1961  0.6836  0.8238
 3655SOL     OW22423   0.356   2.363   9.668 -0.8053  0.0865  0.5308
 3655SOL    HW122424   0.305   2.381   9.589 -1.9358 -0.5418  1.1224
 3655SOL    HW222425   0.291   2.312   9.717 -1.6525 -0.0402 -0.7230
 3656SOL     OW22426   4.023   0.077   6.786  0.5538  0.1842 -0.6421
 3656SOL    HW122427   4.013   0.093   6.693  1.1188  0.2790 -0.6835
 3656SOL    HW222428   3.989   0.159   6.824 -1.6864 -1.5812  1.2142
 3657SOL     OW22429   3.415   0.654  13.897 -0.7063 -0.1309  0.2691
 3657SOL    HW122430   3.510   0.657  13.909 -0.7394 -0.9226  0.7171
 3657SOL    HW222431   3.393   0.740  13.861 -0.0465  0.8234  2.1123
 3658SOL     OW22432   4.391   0.571   8.710 -0.2003  0.3342 -0.4163
 3658SOL    HW122433   4.316   0.521   8.744 -0.1026  0.4168 -0.0849
 3658SOL    HW222434   4.356   0.609   8.629  0.9039 -0.5130 -1.2996
 3659SOL     OW22435   2.866   2.784   0.220 -0.4263 -0.1803 -0.1196
 3659SOL    HW122436   2.888   2.766   0.128 -0.2099 -0.0297 -0.0978
 3659SOL    HW222437   2.945   2.760   0.269 -0.1249  0.6823 -0.1810
 3660SOL     OW22438   3.797   2.070   7.304  0.4854 -0.0827  0.3226
 3660SOL    HW122439   3.750   2.027   7.376  0.0924 -0.3924 -0.1234
 3660SOL    HW222440   3.885   2.085   7.340  1.1385  1.6080 -1.9829
 3661SOL     OW22441   0.881   0.330   7.911  0.0882  0.9080 -0.3504
 3661SOL    HW122442   0.860   0.248   7.955 -0.1889 -0.8151 -3.6221
 3661SOL    HW222443   0.804   0.385   7.925  0.9519  2.1613 -0.5477
 3662SOL     OW22444   1.234   4.107   5.205 -1.2870  0.4362 -0.1676
 3662SOL    HW122445   1.318   4.085   5.163 -0.9620 -1.4058  1.4477
 3662SOL    HW222446   1.218   4.024   5.250  1.7483  0.1501  0.4022
 3663SOL     OW22447   0.364   4.094   5.592  0.3701 -0.0564  0.2037
 3663SOL    HW122448   0.296   4.151   5.555  0.7088  1.1770  1.4973
 3663SOL    HW222449   0.439   4.152   5.579 -0.8205  1.1438 -1.3263
 3664SOL     OW22450   1.391   3.081   3.763  0.2568  0.7619  0.2396
 3664SOL    HW122451   1.481   3.065   3.738 -0.1034  0.1215 -0.6583
 3664SOL    HW222452   1.403   3.172   3.788  0.7447  0.5040  0.9632
 3665SOL     OW22453   1.982   1.241   8.744  0.4133  0.2280  0.2247
 3665SOL    HW122454   1.964   1.330   8.775 -0.9263 -0.9772  2.8996
 3665SOL    HW222455   2.027   1.201   8.818  1.2033  0.6894 -0.0074
 3666SOL     OW22456   3.542   4.242   6.721 -0.2842 -0.4395 -0.1356
 3666SOL    HW122457   3.597   4.259   6.798 -0.3356 -0.9563  0.0144
 3666SOL    HW222458   3.468   4.204   6.768 -0.7467  2.3658  1.4379
 3667SOL     OW22459   3.031   4.425   4.059  0.1071 -0.1799  0.0179
 3667SOL    HW122460   3.026   4.331   4.042 -2.6596 -0.1392  0.5342
 3667SOL    HW222461   3.066   4.435   4.147  0.8899  0.4743 -0.3681
 3668SOL     OW22462   0.409   3.249   6.895  0.2365 -0.1739  0.0473
 3668SOL    HW122463   0.419   3.155   6.909  2.1164  0.0923  0.3980
 3668SOL    HW222464   0.466   3.262   6.820  0.6342 -2.0703  0.0339
 3669SOL     OW22465   1.223   1.177   3.322  0.3409 -0.0181  0.2895
 3669SOL    HW122466   1.163   1.106   3.347 -0.5975  1.3399  1.8987
 3669SOL    HW222467   1.194   1.192   3.232 -1.3969 -0.5018  0.7537
 3670SOL     OW22468   1.919   2.814  15.913  0.1602  0.8846 -0.2368
 3670SOL    HW122469   1.886   2.860  15.836 -0.7974  2.3518  1.0534
 3670SOL    HW222470   2.012   2.836  15.911  0.0958  1.1254 -0.6636
 3671SOL     OW22471   4.123   2.775   3.199  0.0561  0.5509 -0.0805
 3671SOL    HW122472   4.123   2.852   3.256 -2.3015  1.1589 -0.8925
 3671SOL    HW222473   4.098   2.823   3.120  2.3051  0.6486 -0.7203
 3672SOL     OW22474   0.305   2.062   5.069 -0.3171  0.0894 -0.4158
 3672SOL    HW122475   0.212   2.044   5.055  0.0363 -1.4308 -0.7091
 3672SOL    HW222476   0.312   2.046   5.163 -0.7594  0.7510 -0.2689
 3673SOL     OW22477   0.041   4.284   1.289 -0.1511  0.0872 -0.0497
 3673SOL    HW122478   0.051   4.193   1.261  0.5048 -0.8475  3.2835
 3673SOL    HW222479   0.102   4.333   1.234 -0.4132  0.2780 -0.1723
 3674SOL     OW22480   3.364   3.685   6.817  0.2732  0.5844  0.3913
 3674SOL    HW122481   3.336   3.748   6.751 -0.3995 -0.4795 -0.3360
 3674SOL    HW222482   3.289   3.687   6.876 -0.4214 -0.3875 -0.4717
 3675SOL     OW22483   1.833   3.905   4.648 -0.4857 -0.4632 -0.0934
 3675SOL    HW122484   1.809   3.882   4.558 -0.3587  1.0995 -0.5224
 3675SOL    HW222485   1.754   3.880   4.696 -1.3669  0.0815 -1.2516
 3676SOL     OW22486   1.922   1.157   9.271  0.2569  0.5609  0.1262
 3676SOL    HW122487   1.904   1.207   9.191  0.8392  0.4107 -0.1038
 3676SOL    HW222488   1.959   1.079   9.231 -2.9158  0.0234 -1.7402
 3677SOL     OW22489   3.562   0.195   3.134 -0.1308  0.4107 -0.2370
 3677SOL    HW122490   3.513   0.113   3.134  1.7090 -0.7046  1.2989
 3677SOL    HW222491   3.535   0.217   3.045  0.4503 -0.1556 -0.5554
 3678SOL     OW22492   4.260   2.630  16.853  0.2306 -0.2940 -0.0067
 3678SOL    HW122493   4.172   2.598  16.875 -0.2857  0.7513 -0.4849
 3678SOL    HW222494   4.295   2.547  16.822  0.6815 -0.6031  1.3652
 3679SOL     OW22495   3.690   4.678   6.493  0.4459  0.5861  0.1128
 3679SOL    HW122496   3.679   4.668   6.398  1.5216  0.6840 -0.0186
 3679SOL    HW222497   3.696   4.583   6.503  2.2039  0.6683 -0.2573
 3680SOL     OW22498   2.269   0.680   1.651  0.3158 -0.0058  0.4631
 3680SOL    HW122499   2.342   0.731   1.617  0.3655 -2.2632 -2.8491
 3680SOL    HW222500   2.302   0.620   1.718 -0.1279 -3.3005 -2.2491
 3681SOL     OW22501   4.009   3.955   6.063  0.1742 -0.5020  0.4668
 3681SOL    HW122502   4.098   3.986   6.047 -0.3263 -0.8590 -3.0644
 3681SOL    HW222503   4.008   3.995   6.150 -0.1246 -1.4766  0.9094
 3682SOL     OW22504   2.104   1.579  10.579  0.1131  0.6164  0.2170
 3682SOL    HW122505   2.055   1.555  10.657  1.5636  1.6995  1.4500
 3682SOL    HW222506   2.173   1.632  10.619  1.9635 -0.9453 -0.8843
 3683SOL     OW22507   1.161   2.838  14.925  0.2087  0.0930  0.2022
 3683SOL    HW122508   1.179   2.906  14.990  2.3307  0.1103 -0.3990
 3683SOL    HW222509   1.128   2.898  14.858 -0.1067 -0.4281 -0.1102
 3684SOL     OW22510   0.356   3.909   3.887  0.0190  0.2935  0.6784
 3684SOL    HW122511   0.365   3.860   3.805  0.4826 -0.7328  1.3440
 3684SOL    HW222512   0.264   3.933   3.892  0.1371  0.8136  0.3854
 3685SOL     OW22513   3.891   2.264   5.430  0.6190  0.0449 -0.0743
 3685SOL    HW122514   3.828   2.219   5.373  1.7505 -1.5550 -0.0830
 3685SOL    HW222515   3.832   2.330   5.467  0.2499 -0.7935  0.8590
 3686SOL     OW22516   2.132   1.968   2.276 -0.0858  0.7353  0.1461
 3686SOL    HW122517   2.086   1.986   2.358 -1.3326 -1.5775 -0.0594
 3686SOL    HW222518   2.223   1.974   2.304 -0.9025 -0.3765  2.9916
 3687SOL     OW22519   0.115   3.597  13.765 -0.2420 -0.0284  0.0998
 3687SOL    HW122520   0.211   3.592  13.763 -0.2960 -0.6851 -0.9372
 3687SOL    HW222521   0.102   3.626  13.674 -0.5085  2.7085  1.0149
 3688SOL     OW22522   2.909   1.870  12.700  0.2745 -0.6737 -0.0499
 3688SOL    HW122523   2.929   1.868  12.606 -1.7800  2.0918 -0.5373
 3688SOL    HW222524   2.976   1.810  12.734  2.6148  1.5239 -0.7875
 3689SOL     OW22525   4.612   3.823   3.117  0.3323 -0.4476 -0.2823
 3689SOL    HW122526   4.594   3.782   3.202 -3.2950 -0.4347 -1.0743
 3689SOL    HW222527   4.707   3.809   3.119 -0.2096 -3.7559  3.1068
 3690SOL     OW22528   3.106   0.639   5.615 -0.0370  0.1151 -0.0862
 3690SOL    HW122529   3.123   0.660   5.523 -1.9991  0.3618 -0.3899
 3690SOL    HW222530   3.160   0.562   5.633 -1.1317 -1.1920 -2.4578
 3691SOL     OW22531   3.610   0.061  11.316 -0.5054 -0.3165  0.7473
 3691SOL    HW122532   3.584   0.102  11.398  0.5484 -1.4306  1.6352
 3691SOL    HW222533   3.704   0.046  11.328 -0.6779  0.3655  2.8640
 3692SOL     OW22534   3.800   3.699   6.214 -0.0952 -0.2618  0.2981
 3692SOL    HW122535   3.843   3.780   6.242  1.2957 -0.6418 -0.7003
 3692SOL    HW222536   3.709   3.713   6.239 -0.6589 -1.4078 -1.1255
 3693SOL     OW22537   2.812   2.603   7.838 -0.5130  0.1197  0.0931
 3693SOL    HW122538   2.741   2.667   7.840 -1.5294 -1.0456  1.2811
 3693SOL    HW222539   2.890   2.651   7.810 -0.2653 -0.7247 -0.6789
 3694SOL     OW22540   0.482   4.642   0.801  0.1957 -0.2868 -0.1319
 3694SOL    HW122541   0.403   4.604   0.763  0.2758  1.5106 -2.0974
 3694SOL    HW222542   0.457   4.618   0.891 -1.1406  0.1792 -0.3773
 3695SOL     OW22543   2.347   2.575   2.353 -0.4232 -0.1156  0.0466
 3695SOL    HW122544   2.386   2.494   2.321 -0.9541 -1.1218  1.9766
 3695SOL    HW222545   2.259   2.549   2.378  0.1039 -0.4720  1.4880
 3696SOL     OW22546   1.518   4.683   6.665  0.2278 -1.2255  0.6049
 3696SOL    HW122547   1.463   4.685   6.586  0.1017  0.2706  0.7397
 3696SOL    HW222548   1.566   0.036   6.640 -1.6438 -0.4312 -0.5452
 3697SOL     OW22549   2.058   1.287   1.710 -0.1543 -0.4982  0.0009
 3697SOL    HW122550   2.045   1.381   1.703  0.1820 -0.5886 -1.7780
 3697SOL    HW222551   2.046   1.280   1.805  1.9750  2.6247  0.4823
 3698SOL     OW22552   2.961   0.822   3.035  0.5328  0.0186 -0.2084
 3698SOL    HW122553   2.909   0.762   3.088  0.4048 -0.1913 -0.5721
 3698SOL    HW222554   2.898   0.852   2.970  1.5473  0.3164 -1.0563
 3699SOL     OW22555   0.881   0.436   5.803  0.4095  0.0165 -0.7950
 3699SOL    HW122556   0.949   0.502   5.818  0.4747 -0.6140  1.7552
 3699SOL    HW222557   0.909   0.412   5.715  0.6475 -1.8707 -0.1871
 3700SOL     OW22558   1.542   2.476   1.263 -0.3153  0.1795 -0.5507
 3700SOL    HW122559   1.632   2.462   1.290 -0.3088  1.6859  0.1990
 3700SOL    HW222560   1.533   2.458   1.169  3.1151  0.7094 -0.9790
 3701SOL     OW22561   1.787   3.297  15.379 -0.3341 -0.3956 -0.4796
 3701SOL    HW122562   1.704   3.338  15.357 -1.0872 -0.7792  1.6478
 3701SOL    HW222563   1.841   3.327  15.305 -0.9664  1.3411 -0.2331
 3702SOL     OW22564   4.451   1.473   8.700 -0.5557  0.2273  0.0928
 3702SOL    HW122565   4.400   1.441   8.625  3.2804 -2.8989 -1.1198
 3702SOL    HW222566   4.439   1.407   8.768  0.9197 -1.6035 -1.4433
 3703SOL     OW22567   4.438   3.265   4.237 -0.2631 -0.0037 -0.7875
 3703SOL    HW122568   4.389   3.306   4.308 -0.0268 -2.1839  0.6198
 3703SOL    HW222569   4.371   3.267   4.169 -1.0368 -0.5645 -0.0319
 3704SOL     OW22570   1.100   2.691   4.684 -0.5573  0.0834  0.3158
 3704SOL    HW122571   1.153   2.643   4.748 -1.0568 -1.0207 -0.1168
 3704SOL    HW222572   1.086   2.767   4.741  1.7069 -0.0570  1.0646
 3705SOL     OW22573   3.407   3.863   3.795  0.5664 -0.0826 -0.1068
 3705SOL    HW122574   3.377   3.788   3.846 -0.0850 -1.3521 -2.3474
 3705SOL    HW222575   3.495   3.834   3.771 -0.1075 -0.5698 -1.9955
 3706SOL     OW22576   2.172   2.395   3.312 -0.0447  0.6733 -0.2471
 3706SOL    HW122577   2.083   2.408   3.342  0.3005  0.9796  0.6249
 3706SOL    HW222578   2.198   2.469   3.257 -1.0405  0.7798 -0.5646
 3707SOL     OW22579   4.218   4.248   2.649 -0.2920 -0.0132 -0.7065
 3707SOL    HW122580   4.124   4.260   2.663  0.3328  0.2111  3.2911
 3707SOL    HW222581   4.248   4.287   2.731  1.7755 -0.7928 -1.1163
 3708SOL     OW22582   4.242   4.026   0.608  0.2247  0.7008  0.1316
 3708SOL    HW122583   4.152   4.058   0.614 -0.2958 -0.7054 -0.0878
 3708SOL    HW222584   4.227   3.955   0.546 -1.1833 -0.8925  2.2585
 3709SOL     OW22585   0.095   4.076   1.577 -0.1673 -0.1777  0.9091
 3709SOL    HW122586   0.132   4.155   1.539 -1.7158 -0.5288 -1.3359
 3709SOL    HW222587   0.012   4.074   1.528  1.3330  0.5057 -1.6399
 3710SOL     OW22588   0.034   0.281   2.590 -0.9429 -0.2713 -0.1126
 3710SOL    HW122589   0.087   0.351   2.550  0.2588  0.0256  1.9798
 3710SOL    HW222590   4.678   0.291   2.540 -0.9180  0.8504  0.0747
 3711SOL     OW22591   2.665   4.228   0.341  0.5756  0.0089 -0.3883
 3711SOL    HW122592   2.692   4.236   0.433  0.7033  0.6097 -0.4799
 3711SOL    HW222593   2.602   4.300   0.343 -0.1171 -0.5870 -0.5223
 3712SOL     OW22594   0.874   2.674   6.538 -0.8054 -0.1468  0.2780
 3712SOL    HW122595   0.840   2.638   6.620 -1.2698  0.4036  0.3254
 3712SOL    HW222596   0.799   2.693   6.482 -1.8582  1.3908  2.2163
 3713SOL     OW22597   1.808   0.448   2.748  0.2482 -0.5152  0.1184
 3713SOL    HW122598   1.743   0.514   2.770 -0.2817 -0.8659 -0.3817
 3713SOL    HW222599   1.755   0.379   2.707 -0.1219 -1.9353  3.0317
 3714SOL     OW22600   2.849   0.151   4.316 -0.1547  0.5098 -0.9123
 3714SOL    HW122601   2.907   0.134   4.242 -0.4476 -0.8248 -0.8483
 3714SOL    HW222602   2.763   0.123   4.285 -1.3185  3.0345  0.0746
 3715SOL     OW22603   3.286   2.463   7.231  1.1103 -0.7910 -0.1752
 3715SOL    HW122604   3.191   2.449   7.229  0.8122  1.3681 -0.3689
 3715SOL    HW222605   3.297   2.409   7.309 -3.0608 -2.0057 -0.4023
 3716SOL     OW22606   2.267   1.712   7.423  0.1389 -0.0276 -0.0666
 3716SOL    HW122607   2.334   1.769   7.459 -0.5101  1.6462 -1.5393
 3716SOL    HW222608   2.219   1.677   7.498  1.2324 -1.8336 -0.2004
 3717SOL     OW22609   4.230   1.268   2.960  0.0161 -0.2073 -0.0175
 3717SOL    HW122610   4.283   1.220   3.024  0.5906 -0.1017 -0.4065
 3717SOL    HW222611   4.278   1.257   2.878  0.7479  3.2582 -0.0398
 3718SOL     OW22612   2.869   1.856   8.290 -0.0409 -0.0766  0.2513
 3718SOL    HW122613   2.923   1.835   8.214 -2.9611 -2.3186 -1.1707
 3718SOL    HW222614   2.861   1.951   8.281 -1.3091 -0.1414  0.6617
 3719SOL     OW22615   3.881   1.456   8.658 -1.0100  0.0314 -0.1925
 3719SOL    HW122616   3.890   1.376   8.708 -1.7488  0.6428  0.9146
 3719SOL    HW222617   3.879   1.434   8.565 -2.6540  2.5726 -0.7768
 3720SOL     OW22618   2.709   3.639  16.836 -0.1841 -0.1903 -0.5864
 3720SOL    HW122619   2.742   3.696  16.766  2.2162 -1.3941 -0.4401
 3720SOL    HW222620   2.772   3.567  16.832  0.2070  0.2542 -2.7923
 3721SOL     OW22621   1.324   3.382  10.108  0.5534  0.3765 -0.3952
 3721SOL    HW122622   1.354   3.471  10.128  0.7943  0.2007  0.0155
 3721SOL    HW222623   1.248   3.378  10.166  1.0055 -0.2766  0.1551
 3722SOL     OW22624   3.313   1.430   7.074 -0.5069 -0.1864  0.4825
 3722SOL    HW122625   3.221   1.457   7.079 -0.6545 -0.4423 -0.7455
 3722SOL    HW222626   3.339   1.411   7.163  0.6039  3.0089  0.8403
 3723SOL     OW22627   1.588   2.247   6.934  0.3257 -0.5320 -0.1928
 3723SOL    HW122628   1.530   2.261   6.859  0.2114  0.5537  0.0893
 3723SOL    HW222629   1.535   2.185   6.983 -0.0274  0.5220  0.7677
 3724SOL     OW22630   3.516   2.842   9.600 -0.0955 -0.3750 -0.3532
 3724SOL    HW122631   3.529   2.931   9.634  3.0164 -1.1486  0.5717
 3724SOL    HW222632   3.606   2.816   9.581 -0.3229 -1.4530  0.0508
 3725SOL     OW22633   2.387   3.261  10.069  1.1000 -0.0058  0.5167
 3725SOL    HW122634   2.385   3.194  10.001  2.4577  1.2890 -0.7915
 3725SOL    HW222635   2.381   3.341  10.017 -2.4902 -0.9179 -0.5061
 3726SOL     OW22636   2.817   3.618   0.100 -0.1387  0.0859  0.4009
 3726SOL    HW122637   2.775   3.623   0.186  0.6334  0.8471  0.7309
 3726SOL    HW222638   2.838   3.711   0.090  0.0403  0.0896  0.8056
 3727SOL     OW22639   3.923   4.612   1.459  0.1896 -0.3544 -0.2844
 3727SOL    HW122640   3.899   4.631   1.369 -0.9191  0.0043  0.0906
 3727SOL    HW222641   3.980   4.535   1.448 -0.7793 -1.2433  0.8791
 3728SOL     OW22642   0.264   0.342   8.051  0.0827  0.3990 -0.2799
 3728SOL    HW122643   0.259   0.248   8.033 -1.7845  0.7008 -1.3976
 3728SOL    HW222644   0.188   0.343   8.110  0.2274  1.3414 -0.1103
 3729SOL     OW22645   3.690   0.268   4.866 -0.1512  0.2124 -0.0269
 3729SOL    HW122646   3.680   0.173   4.868  3.7854 -0.2130  0.8796
 3729SOL    HW222647   3.610   0.301   4.825 -0.2483  1.3733  1.0726
 3730SOL     OW22648   0.611   1.504  15.484 -0.2286 -0.1257  0.1399
 3730SOL    HW122649   0.589   1.453  15.562 -3.1455 -1.3469 -1.4879
 3730SOL    HW222650   0.617   1.430  15.423  0.0843 -0.0716  0.1028
 3731SOL     OW22651   1.844   3.201   5.839  0.1087 -0.5710 -0.5303
 3731SOL    HW122652   1.822   3.118   5.797  1.1921 -1.4369  0.5874
 3731SOL    HW222653   1.784   3.187   5.913  1.3416  4.1503  1.3758
 3732SOL     OW22654   0.828   0.967   8.807 -0.6190  0.6477 -0.2598
 3732SOL    HW122655   0.846   0.924   8.724 -0.8086 -1.3552  0.7405
 3732SOL    HW222656   0.882   0.916   8.867 -2.2033 -0.8112 -0.0572
 3733SOL     OW22657   1.362   3.930   3.113  0.0744  0.4861 -0.2380
 3733SOL    HW122658   1.315   3.914   3.031  0.1990 -0.6988 -0.0741
 3733SOL    HW222659   1.291   3.924   3.176  1.0220 -0.7357  0.7065
 3734SOL     OW22660   3.237   4.269  12.194  0.0333  0.8482  0.1037
 3734SOL    HW122661   3.146   4.296  12.198 -1.0441 -2.8096  0.0770
 3734SOL    HW222662   3.246   4.227  12.108  1.2145 -1.1125  1.1672
 3735SOL     OW22663   3.479   3.594   5.510  0.2558 -0.4801  0.3173
 3735SOL    HW122664   3.520   3.524   5.562 -0.3480  0.0192  1.4681
 3735SOL    HW222665   3.485   3.551   5.425 -2.7747 -3.7577  1.7624
 3736SOL     OW22666   2.879   1.160  15.856  0.1249 -0.1748 -0.3611
 3736SOL    HW122667   2.882   1.137  15.949  0.6003  0.1098 -0.3034
 3736SOL    HW222668   2.824   1.087  15.828 -0.4462  0.4647 -0.8999
 3737SOL     OW22669   0.946   3.540  10.704  0.3166  0.0802 -1.0049
 3737SOL    HW122670   0.963   3.626  10.666 -0.2047  0.5644 -0.1466
 3737SOL    HW222671   0.967   3.550  10.797  1.5388  1.4896 -1.4239
 3738SOL     OW22672   3.850   2.311  11.728  0.1472  0.6687  0.2672
 3738SOL    HW122673   3.925   2.323  11.670 -2.2033 -3.1483 -3.5739
 3738SOL    HW222674   3.797   2.252  11.674 -0.8177  0.2535  1.6600
 3739SOL     OW22675   3.125   2.766  15.731  0.3750  0.2693 -0.2935
 3739SOL    HW122676   3.110   2.845  15.680 -2.8502  1.1019  1.9602
 3739SOL    HW222677   3.205   2.794  15.776 -1.4679 -0.7165  3.5414
 3740SOL     OW22678   3.182   3.986   1.287 -0.1168 -0.1534  0.5371
 3740SOL    HW122679   3.216   3.906   1.247 -0.8636 -1.0767  1.7552
 3740SOL    HW222680   3.092   3.992   1.256 -0.1015 -0.1142  0.5005
 3741SOL     OW22681   1.481   2.653   0.430  0.1597 -0.3930  0.1674
 3741SOL    HW122682   1.551   2.668   0.365  0.1823 -0.3995  0.1904
 3741SOL    HW222683   1.452   2.742   0.450  1.6115 -0.4605  2.4744
 3742SOL     OW22684   3.205   4.474   2.745 -0.3946  0.4812  0.0712
 3742SOL    HW122685   3.125   4.451   2.697  1.9541 -2.6498 -2.3373
 3742SOL    HW222686   3.241   4.545   2.692  0.6571 -0.9260 -1.0797
 3743SOL     OW22687   1.769   4.482   4.643 -0.5921 -0.0317 -0.7738
 3743SOL    HW122688   1.718   4.525   4.712 -1.6225  0.3641 -1.7805
 3743SOL    HW222689   1.700   4.456   4.582 -1.8679  0.5979  0.3908
 3744SOL     OW22690   3.839   0.755   3.371  0.5582  0.0294 -0.1324
 3744SOL    HW122691   3.879   0.841   3.385  1.6996 -0.5299  0.0563
 3744SOL    HW222692   3.899   0.704   3.316 -0.1467  0.3029 -1.1676
 3745SOL     OW22693   0.775   2.419  15.230  0.1854 -0.0080 -0.0485
 3745SOL    HW122694   0.805   2.348  15.287  1.2861  0.7678  0.3407
 3745SOL    HW222695   0.682   2.401  15.217  0.0163  0.4893  0.4575
 3746SOL     OW22696   0.168   1.995   9.837  0.1329 -0.4057  0.0329
 3746SOL    HW122697   0.117   1.944   9.900 -2.1339  1.9074  0.1058
 3746SOL    HW222698   0.121   2.078   9.826 -3.6568 -2.7746 -1.4305
 3747SOL     OW22699   4.707   3.297   2.680  0.0360 -0.3808  0.0978
 3747SOL    HW122700   0.003   3.353   2.605  1.0556 -0.5590  0.2554
 3747SOL    HW222701   4.616   3.312   2.706 -1.1114 -1.8513 -3.0571
 3748SOL     OW22702   3.595   3.681   8.491  0.2245  0.0041  0.1511
 3748SOL    HW122703   3.665   3.617   8.504  0.8318  0.9316  1.3812
 3748SOL    HW222704   3.599   3.743   8.563 -1.8739  1.6455 -1.1534
 3749SOL     OW22705   4.336   0.518  15.861  0.2225  0.3436 -0.5281
 3749SOL    HW122706   4.261   0.489  15.808 -0.2163 -1.0972  0.8609
 3749SOL    HW222707   4.405   0.462  15.826 -1.1264 -1.9762  0.4285
 3750SOL     OW22708   0.156   2.498   7.955 -0.7346  0.2708  0.3963
 3750SOL    HW122709   0.061   2.496   7.942 -0.4193 -0.1724 -1.8449
 3750SOL    HW222710   0.171   2.590   7.977 -0.8513  0.4343 -0.1987
 3751SOL     OW22711   2.926   4.554   5.686 -0.3608 -0.0017 -0.4942
 3751SOL    HW122712   2.939   4.506   5.768 -0.9306 -1.1917 -1.0995
 3751SOL    HW222713   2.834   4.580   5.689 -0.6881 -1.0603 -1.1675
 3752SOL     OW22714   1.357   2.474   8.580  0.1667 -0.1831 -0.6349
 3752SOL    HW122715   1.307   2.472   8.499  0.5991 -1.0013 -0.8806
 3752SOL    HW222716   1.430   2.531   8.555  0.2376 -0.6431 -1.4781
 3753SOL     OW22717   1.002   0.126   4.837 -0.0691 -0.2629  0.2259
 3753SOL    HW122718   0.988   0.210   4.792  0.3145 -0.6575 -0.6234
 3753SOL    HW222719   1.080   0.101   4.788  0.6415 -0.2327  1.3401
 3754SOL     OW22720   3.759   2.768  15.256 -0.0537 -0.1895 -0.1793
 3754SOL    HW122721   3.772   2.675  15.241 -0.0402 -0.3939  1.1361
 3754SOL    HW222722   3.765   2.780  15.351  0.6880 -1.6264 -0.0542
 3755SOL     OW22723   0.042   0.181   7.837  0.2290  0.1721  0.2848
 3755SOL    HW122724   4.692   0.147   7.884 -0.1999  1.3580  0.4516
 3755SOL    HW222725   0.112   0.152   7.895  1.1783 -0.6546 -1.2576
 3756SOL     OW22726   1.595   2.900   8.295  0.3458  0.1264  0.6520
 3756SOL    HW122727   1.686   2.883   8.317  0.3689  0.0050  0.4606
 3756SOL    HW222728   1.552   2.889   8.380  0.3847  2.8419  1.0355
 3757SOL     OW22729   2.974   3.321   3.611 -0.4057 -0.1836  0.0559
 3757SOL    HW122730   2.886   3.358   3.603  0.7626  2.3524 -1.4255
 3757SOL    HW222731   3.007   3.306   3.523  0.8784 -3.1000  1.0356
 3758SOL     OW22732   1.864   2.878   2.584  0.2417 -0.1640 -0.3422
 3758SOL    HW122733   1.792   2.854   2.525 -0.6092 -0.9905  1.0295
 3758SOL    HW222734   1.929   2.920   2.528 -1.4573  1.4298 -1.1175
 3759SOL     OW22735   0.808   0.374  13.199 -0.1012 -0.0781 -0.3128
 3759SOL    HW122736   0.877   0.436  13.223  1.1118 -2.2826  1.9365
 3759SOL    HW222737   0.730   0.402  13.247 -1.4868 -0.5720 -2.3063
 3760SOL     OW22738   1.810   4.493   1.899 -0.7369 -0.2984  0.2271
 3760SOL    HW122739   1.826   4.437   1.822  2.1580 -1.7421  1.8888
 3760SOL    HW222740   1.806   4.580   1.859  3.1166  0.0366  0.5846
 3761SOL     OW22741   3.110   1.544  13.470 -0.0810 -0.2470 -0.3782
 3761SOL    HW122742   3.032   1.524  13.418 -1.5453  3.4404  0.4139
 3761SOL    HW222743   3.076   1.602  13.538 -0.4128 -0.3947 -0.4149
 3762SOL     OW22744   4.452   3.628   3.750 -0.0676 -0.0110 -0.2915
 3762SOL    HW122745   4.461   3.671   3.835  1.7654 -0.7001 -0.1379
 3762SOL    HW222746   4.466   3.708   3.699 -0.1884  0.4858  0.4537
 3763SOL     OW22747   3.391   4.619  12.180  0.1446  0.5169  0.2267
 3763SOL    HW122748   3.343   4.599  12.260  0.2285  0.8152  0.3514
 3763SOL    HW222749   3.370   4.550  12.117  0.5658 -0.5101  1.2037
 3764SOL     OW22750   3.709   4.416  10.693  0.4607  0.0672  0.0756
 3764SOL    HW122751   3.754   4.478  10.635 -1.5716 -0.8748 -2.5197
 3764SOL    HW222752   3.706   4.475  10.768 -1.4256 -3.3264  2.6408
 3765SOL     OW22753   3.977   4.491   8.925 -0.5074  0.3537 -0.4085
 3765SOL    HW122754   3.915   4.505   8.997  0.2780 -1.1980  0.5822
 3765SOL    HW222755   4.034   4.431   8.973 -2.1239 -0.2656  0.7548
 3766SOL     OW22756   3.812   1.331   8.146 -0.0391 -0.0405  0.0605
 3766SOL    HW122757   3.723   1.319   8.111  0.0477  0.0919 -0.2081
 3766SOL    HW222758   3.851   1.374   8.069  0.5664  0.5960  0.7248
 3767SOL     OW22759   2.734   2.697   2.500  0.3099 -0.0586 -0.3485
 3767SOL    HW122760   2.810   2.752   2.480  0.1795  0.6298  1.0434
 3767SOL    HW222761   2.766   2.616   2.461 -2.9751 -1.2984 -0.5018
 3768SOL     OW22762   1.657   4.254  15.800 -0.4301 -0.0483  0.3469
 3768SOL    HW122763   1.630   4.164  15.780  0.5792 -0.6949  1.8915
 3768SOL    HW222764   1.706   4.273  15.719 -1.1404  0.7835  0.1165
 3769SOL     OW22765   2.396   2.731   7.571 -0.3876  0.1585 -0.2508
 3769SOL    HW122766   2.354   2.807   7.530  0.4211  0.1990 -1.0260
 3769SOL    HW222767   2.483   2.743   7.533  0.0103 -0.1017  0.5786
 3770SOL     OW22768   0.922   0.413   8.570  0.0590  0.1337 -0.5608
 3770SOL    HW122769   0.934   0.438   8.478 -1.1915 -2.3371 -1.3989
 3770SOL    HW222770   0.963   0.327   8.567  0.8131  0.4890 -0.3023
 3771SOL     OW22771   1.355   1.137   3.876 -0.3436  0.0013  0.2520
 3771SOL    HW122772   1.357   1.088   3.958  1.1903 -0.9710 -0.3433
 3771SOL    HW222773   1.280   1.097   3.831  1.2472 -2.0512 -0.6060
 3772SOL     OW22774   3.776   4.456   3.958 -0.0720 -0.1336  0.1741
 3772SOL    HW122775   3.855   4.507   3.971  1.4385 -2.3224 -0.4115
 3772SOL    HW222776   3.770   4.418   4.046  3.5988  1.2204  0.9698
 3773SOL     OW22777   0.247   3.054   4.293 -0.2354  0.1375 -0.4250
 3773SOL    HW122778   0.312   3.117   4.263 -0.8737  0.1344 -1.8083
 3773SOL    HW222779   0.220   3.084   4.380 -2.5068 -1.5553 -0.5579
 3774SOL     OW22780   1.332   0.704  15.270 -0.6687 -0.0066 -0.5556
 3774SOL    HW122781   1.315   0.747  15.355 -0.7942  3.4545 -2.3150
 3774SOL    HW222782   1.352   0.613  15.289  0.7643  0.7819  1.7219
 3775SOL     OW22783   2.014   1.278  13.302 -0.3561  0.2533 -0.1343
 3775SOL    HW122784   1.940   1.260  13.244  1.9525  1.3007 -3.4325
 3775SOL    HW222785   2.003   1.370  13.327  3.9540  1.0447 -1.1125
 3776SOL     OW22786   1.935   3.306   4.093 -0.0476 -0.2726 -0.3998
 3776SOL    HW122787   1.941   3.220   4.052  0.2670 -0.7793  0.7132
 3776SOL    HW222788   1.852   3.305   4.141  1.2290 -1.2050  1.7920
 3777SOL     OW22789   3.176   1.377   1.884 -0.0970  0.2870  0.0415
 3777SOL    HW122790   3.144   1.438   1.818 -1.2091  0.0358  0.3610
 3777SOL    HW222791   3.147   1.294   1.844  0.0656 -0.1759  0.8797
 3778SOL     OW22792   2.770   4.165   5.294  0.4968  0.6415 -0.4099
 3778SOL    HW122793   2.717   4.230   5.339  0.8509  0.0547  0.8540
 3778SOL    HW222794   2.854   4.210   5.301  0.9956 -0.0941 -1.4788
 3779SOL     OW22795   2.343   4.282   3.012 -0.2737 -0.2381  0.2821
 3779SOL    HW122796   2.307   4.193   3.011 -1.0222  0.0647  0.4417
 3779SOL    HW222797   2.335   4.314   3.102  1.3623  0.8421  0.0431
 3780SOL     OW22798   1.453   4.133   4.486  0.2193  0.4733 -0.7279
 3780SOL    HW122799   1.506   4.054   4.498  0.0590  0.7305  1.6014
 3780SOL    HW222800   1.365   4.100   4.465  0.1946 -0.9437  1.5425
 3781SOL     OW22801   0.520   2.507  13.161  1.1909  0.1688 -0.3778
 3781SOL    HW122802   0.489   2.422  13.130  1.2416 -0.1018  0.3122
 3781SOL    HW222803   0.443   2.560  13.142  0.1204 -0.7709  1.3153
 3782SOL     OW22804   0.074   1.926   2.798  0.5314 -0.1592 -0.0541
 3782SOL    HW122805   0.007   1.858   2.789 -1.4265  1.8312 -0.6009
 3782SOL    HW222806   0.104   1.947   2.710 -1.9625 -1.3856 -1.2129
 3783SOL     OW22807   1.320   2.433   6.971  0.2458  0.0491 -0.2012
 3783SOL    HW122808   1.361   2.513   7.002  0.9287 -0.6947  0.8012
 3783SOL    HW222809   1.381   2.399   6.906  1.4758  0.2937  0.8273
 3784SOL     OW22810   4.392   3.663   6.076 -0.1211  0.2151 -0.0386
 3784SOL    HW122811   4.305   3.627   6.058  0.6997 -0.7641 -2.0488
 3784SOL    HW222812   4.389   3.729   6.006 -4.5782 -1.8626 -1.7575
 3785SOL     OW22813   0.967   3.838   9.460 -0.7088 -0.4016 -0.3978
 3785SOL    HW122814   0.980   3.744   9.474 -2.6712 -0.6745 -0.4803
 3785SOL    HW222815   0.885   3.859   9.504  0.0544  0.9904  0.3444
 3786SOL     OW22816   3.865   4.001   2.563 -0.5950  0.1020  0.5161
 3786SOL    HW122817   3.909   4.010   2.478 -0.2636  0.5605  0.7345
 3786SOL    HW222818   3.788   4.057   2.556  2.8309  4.3366 -3.0431
 3787SOL     OW22819   0.079   2.821   3.432 -0.4357 -0.1247  1.0459
 3787SOL    HW122820   0.100   2.894   3.490  1.6899  1.7118 -2.0072
 3787SOL    HW222821   4.724   2.842   3.384 -0.1424  0.1062  0.6627
 3788SOL     OW22822   2.670   3.147   0.470 -0.7790 -0.1319 -0.2195
 3788SOL    HW122823   2.633   3.120   0.386 -1.2950  0.7616 -0.2780
 3788SOL    HW222824   2.765   3.144   0.458 -0.8937 -0.2631 -1.1091
 3789SOL     OW22825   0.107   1.230   4.032 -0.1049  0.0173 -0.0859
 3789SOL    HW122826   0.109   1.295   4.102  2.4332  2.3239 -2.2703
 3789SOL    HW222827   0.122   1.286   3.955 -0.3040  1.6545  1.0782
 3790SOL     OW22828   0.324   3.594   8.965 -0.1527  0.2041 -0.1287
 3790SOL    HW122829   0.413   3.590   8.929 -0.0366 -2.3123  0.4132
 3790SOL    HW222830   0.315   3.687   8.946  0.6956  0.6761  1.8179
 3791SOL     OW22831   4.209   2.600   4.326 -0.0885  0.4966  1.0025
 3791SOL    HW122832   4.132   2.636   4.282  1.2247 -0.6700 -2.2136
 3791SOL    HW222833   4.216   2.510   4.293  1.0606  0.7281  0.6080
 3792SOL     OW22834   2.509   3.712  10.089 -0.2597 -0.3056 -0.2198
 3792SOL    HW122835   2.480   3.630  10.049  2.1223 -0.6202 -1.2595
 3792SOL    HW222836   2.603   3.697  10.084 -0.0892  0.6759  0.1279
 3793SOL     OW22837   0.575   1.597   6.658 -0.2543  0.6763 -0.0294
 3793SOL    HW122838   0.493   1.640   6.683 -0.1568  0.9454 -0.1743
 3793SOL    HW222839   0.541   1.510   6.639  0.0833  0.7758 -1.0757
 3794SOL     OW22840   2.123   3.115  16.538 -0.1212 -0.2082  0.1888
 3794SOL    HW122841   2.040   3.142  16.577  0.4132 -0.1632  1.3029
 3794SOL    HW222842   2.157   3.048  16.598  0.1837 -1.2842 -1.1956
 3795SOL     OW22843   1.976   1.948   2.621 -0.3090  0.4009 -0.0904
 3795SOL    HW122844   1.974   1.853   2.623 -1.6245  0.4201 -0.4959
 3795SOL    HW222845   1.986   1.972   2.713 -2.1147 -0.4943  0.3477
 3796SOL     OW22846   2.624   3.022   5.188  0.4031 -0.2791  0.2617
 3796SOL    HW122847   2.565   3.001   5.261 -1.0492 -1.7946 -1.3326
 3796SOL    HW222848   2.575   3.090   5.143  0.0698 -0.9177 -0.3372
 3797SOL     OW22849   1.110   0.063   5.839  0.1235  0.6111 -0.2297
 3797SOL    HW122850   1.067   0.072   5.754  0.1815 -0.7389 -0.4082
 3797SOL    HW222851   1.158   4.708   5.819 -0.1058  0.7063 -1.1694
 3798SOL     OW22852   4.452   4.713   7.103 -0.2834  0.0389  0.3609
 3798SOL    HW122853   4.509   4.644   7.135  3.1664  2.9598  0.5001
 3798SOL    HW222854   4.375   4.659   7.121 -0.8399  0.5123 -0.5888
 3799SOL     OW22855   2.029   0.419   4.097 -0.3343  0.2393 -0.3866
 3799SOL    HW122856   2.039   0.514   4.097  0.8235  0.0979  1.5665
 3799SOL    HW222857   2.008   0.409   4.004 -0.6558  3.9025 -0.6929
 3800SOL     OW22858   4.602   2.332   7.689  0.0441 -0.7737  0.0632
 3800SOL    HW122859   4.635   2.254   7.646 -0.4429 -0.2652 -1.2586
 3800SOL    HW222860   4.510   2.307   7.700 -0.1169 -0.8266 -1.3635
 3801SOL     OW22861   3.294   1.889   4.297  0.1657 -0.0971 -0.0309
 3801SOL    HW122862   3.361   1.822   4.288  0.2287 -0.0352 -0.0169
 3801SOL    HW222863   3.275   1.871   4.389 -0.9554 -1.4187 -0.5024
 3802SOL     OW22864   1.818   1.234   6.392 -0.0043 -0.6209 -0.0044
 3802SOL    HW122865   1.754   1.178   6.436  0.7511 -0.9263  0.7129
 3802SOL    HW222866   1.898   1.200   6.432 -0.5485 -0.1150  1.4889
 3803SOL     OW22867   0.557   0.561   1.886 -0.6403 -0.0956  0.1973
 3803SOL    HW122868   0.637   0.610   1.869 -0.0771 -0.0854  2.8850
 3803SOL    HW222869   0.495   0.626   1.852  1.5089  2.2935  0.8264
 3804SOL     OW22870   3.029   1.810   5.635  0.2222 -0.3288 -1.6852
 3804SOL    HW122871   3.017   1.735   5.693 -1.9728  1.5015  0.1873
 3804SOL    HW222872   2.945   1.810   5.589 -0.2933  1.2582 -0.7225
 3805SOL     OW22873   1.453   1.877  16.749  0.0109  0.3143 -0.2462
 3805SOL    HW122874   1.369   1.923  16.744  0.0813  0.3910 -0.7026
 3805SOL    HW222875   1.516   1.949  16.757  0.2021  0.1982 -0.6962
 3806SOL     OW22876   1.934   3.745   6.079  0.2130  0.2193  0.6400
 3806SOL    HW122877   1.873   3.741   6.153  1.0339 -2.0717  1.1926
 3806SOL    HW222878   2.019   3.739   6.123  0.0425 -0.8444  0.8393
 3807SOL     OW22879   4.385   3.012   7.565  0.2907  0.2416  0.4575
 3807SOL    HW122880   4.386   2.947   7.495 -0.2620  0.8511 -0.1171
 3807SOL    HW222881   4.328   2.965   7.625  1.2617  0.8672  1.8730
 3808SOL     OW22882   3.096   1.788   9.500  0.0379  0.4971  0.4227
 3808SOL    HW122883   3.031   1.731   9.458 -1.2231  0.8187  1.9324
 3808SOL    HW222884   3.160   1.793   9.429  0.7038  0.5959  1.0267
 3809SOL     OW22885   3.258   0.390   5.624  0.2973 -0.6930 -0.0029
 3809SOL    HW122886   3.315   0.406   5.550 -1.0123 -0.9519 -1.0841
 3809SOL    HW222887   3.220   0.310   5.588 -1.1776  0.3707 -0.8077
 3810SOL     OW22888   3.354   0.583   1.014 -0.0512  0.0459 -0.4500
 3810SOL    HW122889   3.408   0.543   0.947  0.5550  0.3051 -0.1135
 3810SOL    HW222890   3.355   0.678   1.007  0.3878  0.1358  0.7808
 3811SOL     OW22891   3.946   3.255   5.436  0.2530  0.2454 -0.0670
 3811SOL    HW122892   3.991   3.334   5.465  0.0123  0.8345 -1.2592
 3811SOL    HW222893   3.934   3.207   5.518 -0.7637  2.0446  0.8365
 3812SOL     OW22894   1.495   3.309   7.775  0.1311  0.9169  0.2186
 3812SOL    HW122895   1.492   3.367   7.851 -0.3990  0.6011  0.4389
 3812SOL    HW222896   1.418   3.341   7.726 -0.0852 -0.1411 -0.1356
 3813SOL     OW22897   3.985   0.412   9.281 -0.1860 -0.6342  0.6544
 3813SOL    HW122898   3.948   0.457   9.206 -0.9959 -0.5200  1.1274
 3813SOL    HW222899   4.032   0.480   9.331 -0.3069 -0.8555  1.0640
 3814SOL     OW22900   2.403   0.110   4.290  0.0236 -0.0718  0.4070
 3814SOL    HW122901   2.412   0.164   4.368  0.9514 -2.6015  2.0530
 3814SOL    HW222902   2.346   0.162   4.233  2.4028  0.8630 -1.0969
 3815SOL     OW22903   4.529   4.283   6.107  0.4392 -0.2818  0.1085
 3815SOL    HW122904   4.543   4.321   6.194 -0.1696  0.6356 -0.2021
 3815SOL    HW222905   4.613   4.300   6.064  1.0772 -0.5411  1.2325
 3816SOL     OW22906   1.448   0.326   1.608  0.1183  0.2388  1.1518
 3816SOL    HW122907   1.460   0.386   1.534  1.7037 -0.0336  1.1953
 3816SOL    HW222908   1.360   0.352   1.637  0.4266 -0.7306  2.9352
 3817SOL     OW22909   3.400   2.262   8.327 -0.4129  0.1033  0.7179
 3817SOL    HW122910   3.491   2.250   8.297 -0.1958 -0.0134  1.4210
 3817SOL    HW222911   3.386   2.357   8.318 -1.4348  0.1481  2.7993
 3818SOL     OW22912   2.419   4.356  16.945 -0.0844 -0.6409  0.2606
 3818SOL    HW122913   2.480   4.428  16.930  0.1007 -0.6355  1.0827
 3818SOL    HW222914   2.460   4.310  17.017 -0.5337 -2.4639 -0.6442
 3819SOL     OW22915   4.440   3.594   3.428 -0.3536 -0.2680 -0.1094
 3819SOL    HW122916   4.464   3.505   3.454  0.3183  0.0861  0.5014
 3819SOL    HW222917   4.526   3.635   3.420 -0.1933 -0.6015 -0.1151
 3820SOL     OW22918   2.330   3.289   8.425 -0.0877 -0.0299 -0.1394
 3820SOL    HW122919   2.359   3.378   8.405 -0.5346 -0.3356 -2.1368
 3820SOL    HW222920   2.412   3.241   8.423 -0.7864 -1.2814  2.1455
 3821SOL     OW22921   2.619   0.684   1.964  0.2527 -0.1795 -0.4998
 3821SOL    HW122922   2.618   0.749   2.034  0.9225  0.2110 -0.8487
 3821SOL    HW222923   2.617   0.741   1.886  1.7385 -1.3123 -1.3760
 3822SOL     OW22924   2.628   4.210   8.713 -0.4904 -0.0213 -0.8857
 3822SOL    HW122925   2.621   4.131   8.766 -2.7535  0.6232 -0.2142
 3822SOL    HW222926   2.536   4.211   8.687 -0.1786  0.2644 -1.9672
 3823SOL     OW22927   0.300   0.672  13.289 -0.5239  0.3943  0.2669
 3823SOL    HW122928   0.273   0.693  13.378  0.4982  1.6496  0.2724
 3823SOL    HW222929   0.220   0.682  13.236 -0.1183 -1.1262 -0.6455
 3824SOL     OW22930   1.683   0.213   7.457  0.1852 -0.0705 -0.0538
 3824SOL    HW122931   1.616   0.145   7.449  0.0469 -0.3098  2.8788
 3824SOL    HW222932   1.643   0.294   7.426 -0.5437 -0.2610  0.3755
 3825SOL     OW22933   2.258   3.741   4.267 -0.1397 -0.5220  0.8284
 3825SOL    HW122934   2.242   3.711   4.357 -0.4162  1.6163  1.4800
 3825SOL    HW222935   2.211   3.824   4.263 -0.6081 -0.8700 -1.1297
 3826SOL     OW22936   2.686   3.596  17.440 -0.0633 -0.3071 -0.0825
 3826SOL    HW122937   2.708   3.513  17.482 -1.0466  0.5699  2.2113
 3826SOL    HW222938   2.773   3.635  17.442 -0.2915  0.3777 -4.2435
 3827SOL     OW22939   1.382   2.180   7.885 -0.6671  0.6940  0.5088
 3827SOL    HW122940   1.360   2.225   7.803 -5.1674  0.4947  1.5765
 3827SOL    HW222941   1.298   2.138   7.905 -1.1968  0.9727 -1.1514
 3828SOL     OW22942   2.371   2.086  13.600  0.1909  0.4066 -0.2744
 3828SOL    HW122943   2.303   2.134  13.553  2.2966  3.7599  0.0871
 3828SOL    HW222944   2.326   2.015  13.646 -0.8335  1.5091  0.4382
 3829SOL     OW22945   3.995   4.075   2.305  0.2994 -0.3651 -0.4066
 3829SOL    HW122946   3.916   4.112   2.267  1.5662  0.7401 -1.9785
 3829SOL    HW222947   4.027   4.024   2.231 -1.3165  1.3417 -2.2557
 3830SOL     OW22948   4.697   3.162  12.783  0.3030 -0.0264 -0.0272
 3830SOL    HW122949   0.050   3.133  12.831  1.2355 -1.1436 -2.2487
 3830SOL    HW222950   4.723   3.165  12.691 -1.9479 -0.7235 -0.6858
 3831SOL     OW22951   4.177   1.118  10.046 -0.8186 -0.1603 -0.3233
 3831SOL    HW122952   4.184   1.039  10.100 -0.7656 -0.6590 -1.0551
 3831SOL    HW222953   4.097   1.098   9.996 -1.0705 -0.4698  0.2106
 3832SOL     OW22954   0.102   2.066  14.089 -0.1199  0.1989  0.0317
 3832SOL    HW122955   0.080   2.157  14.109  2.7995  0.4502  2.3074
 3832SOL    HW222956   0.124   2.065  13.996  0.2972  1.5826  0.1061
 3833SOL     OW22957   3.708   0.973   2.186  0.0487  0.3367  0.7974
 3833SOL    HW122958   3.698   1.064   2.215  0.6263  0.8809 -0.7061
 3833SOL    HW222959   3.669   0.929   2.261 -2.0264 -0.3914 -0.7161
 3834SOL     OW22960   2.825   0.381   4.920  0.0965  0.0754 -0.3819
 3834SOL    HW122961   2.849   0.294   4.889  0.6599  1.0118 -2.5482
 3834SOL    HW222962   2.730   0.368   4.921 -0.1208  1.6793  0.0272
 3835SOL     OW22963   2.004   3.680   5.813 -0.2863  0.0875  0.5064
 3835SOL    HW122964   2.031   3.763   5.774 -0.6657 -0.5788 -1.1325
 3835SOL    HW222965   1.979   3.691   5.905 -0.2101 -2.7649  0.8825
 3836SOL     OW22966   4.724   2.926   5.021  0.3368 -0.2770  0.0219
 3836SOL    HW122967   4.640   2.950   5.061  0.9738  0.7331  0.7334
 3836SOL    HW222968   0.013   2.832   5.032  0.1884 -0.5788 -2.1915
 3837SOL     OW22969   0.737   2.149   3.391  0.1139  0.4394  0.0312
 3837SOL    HW122970   0.707   2.068   3.350  0.2429  1.0449 -1.2716
 3837SOL    HW222971   0.682   2.205   3.335  0.8246  0.9460 -0.1578
 3838SOL     OW22972   0.837   0.296   0.973 -0.3557 -0.1802 -0.1271
 3838SOL    HW122973   0.778   0.221   0.979 -1.1719  0.3435 -1.4509
 3838SOL    HW222974   0.828   0.306   0.878 -2.1047  0.3298  0.0887
 3839SOL     OW22975   3.074   0.259   8.397 -0.2228 -0.4686 -0.0398
 3839SOL    HW122976   3.062   0.175   8.353  2.3907 -1.8380  1.8623
 3839SOL    HW222977   3.037   0.323   8.335 -0.6067 -0.1410  0.5210
 3840SOL     OW22978   1.188   3.021   2.267 -0.3563  0.2428  0.2204
 3840SOL    HW122979   1.173   2.934   2.231  2.4982 -0.3675  0.5104
 3840SOL    HW222980   1.184   3.002   2.361 -0.9292  2.2615  0.6088
 3841SOL     OW22981   1.149   4.566   7.006  0.4101  0.2874  0.1173
 3841SOL    HW122982   1.169   4.621   6.930  0.9928 -1.2919 -0.8915
 3841SOL    HW222983   1.124   4.486   6.959  0.2787  2.8654 -4.1599
 3842SOL     OW22984   2.384   0.626   4.857  0.1954 -1.0599 -0.4333
 3842SOL    HW122985   2.466   0.660   4.820  0.4053 -1.1325 -0.0377
 3842SOL    HW222986   2.349   0.708   4.891 -1.0555 -2.5316  1.8155
 3843SOL     OW22987   2.155   0.001  11.968 -0.0917 -0.1269  0.1008
 3843SOL    HW122988   2.163   0.094  11.991  1.4637  0.0771 -1.1973
 3843SOL    HW222989   2.097   0.003  11.892  1.7314  3.9494 -1.2074
 3844SOL     OW22990   3.361   4.287   7.545 -0.3126 -0.1342  0.2045
 3844SOL    HW122991   3.265   4.294   7.542 -0.1661  1.6555 -0.4609
 3844SOL    HW222992   3.368   4.224   7.616 -0.8791  0.0257  0.4017
 3845SOL     OW22993   3.418   2.218   3.498 -0.4343 -0.0474 -0.5389
 3845SOL    HW122994   3.363   2.255   3.567  1.4428  1.3024  0.2153
 3845SOL    HW222995   3.502   2.251   3.530 -0.5905  0.3865 -0.5807
 3846SOL     OW22996   0.382   3.385   5.826  0.0791  0.0074  0.2115
 3846SOL    HW122997   0.366   3.476   5.851 -0.8722  0.2606 -1.3568
 3846SOL    HW222998   0.406   3.398   5.734  0.2244  1.8497  0.5081
 3847SOL     OW22999   3.324   2.049  12.942 -0.1388 -0.6175  0.2739
 3847SOL    HW123000   3.415   2.033  12.915 -0.7297 -4.1709  0.4281
 3847SOL    HW223001   3.274   2.036  12.862  0.7006 -0.8404 -0.2158
 3848SOL     OW23002   4.386   1.216   2.715 -0.0661  0.0168  0.1224
 3848SOL    HW123003   4.479   1.212   2.693 -0.2758 -0.7450 -0.5847
 3848SOL    HW223004   4.371   1.309   2.698 -2.9005 -0.2916  0.8970
 3849SOL     OW23005   4.066   1.810   6.887 -0.4027 -0.7649  0.0219
 3849SOL    HW123006   4.015   1.890   6.895  0.5585 -0.0069 -1.3619
 3849SOL    HW223007   4.157   1.841   6.881 -1.0234  1.3362  1.6874
 3850SOL     OW23008   3.141   1.563  14.917  0.0024  0.3756  0.1621
 3850SOL    HW123009   3.169   1.483  14.872 -2.8611 -1.5628  1.8506
 3850SOL    HW223010   3.182   1.549  15.003 -0.9427 -1.7739  0.2648
 3851SOL     OW23011   2.514   1.676   3.670  0.0929  0.6856  0.5593
 3851SOL    HW123012   2.451   1.714   3.732 -4.5603 -1.9013 -2.5451
 3851SOL    HW223013   2.474   1.591   3.655  0.2014  0.8937 -0.9292
 3852SOL     OW23014   3.285   3.753   1.180  0.5378  1.0077  0.6768
 3852SOL    HW123015   3.325   3.713   1.102 -3.7745 -2.3732  0.1899
 3852SOL    HW223016   3.247   3.686   1.236 -2.0436  2.2589  0.4313
 3853SOL     OW23017   3.428   0.358   6.009  0.3272  0.2967 -0.3124
 3853SOL    HW123018   3.502   0.405   5.972  1.0391 -0.2354  0.4421
 3853SOL    HW223019   3.357   0.410   5.971 -0.7277  0.7284  2.2082
 3854SOL     OW23020   3.976   3.704   4.227 -0.1884  0.1309 -0.1366
 3854SOL    HW123021   3.918   3.656   4.168 -0.6449 -1.1566  1.3344
 3854SOL    HW223022   3.923   3.783   4.230 -0.3635  0.0410 -0.7460
 3855SOL     OW23023   0.267   0.815  16.693  0.5836 -0.4942 -0.1033
 3855SOL    HW123024   0.236   0.857  16.773 -1.4441 -3.1410  0.5261
 3855SOL    HW223025   0.340   0.869  16.664 -0.3580  0.5593 -0.5118
 3856SOL     OW23026   4.269   0.803   5.982  0.1918 -0.6245 -0.4554
 3856SOL    HW123027   4.317   0.818   5.900 -0.0879 -2.6595 -0.9942
 3856SOL    HW223028   4.343   0.826   6.038 -0.8104  2.1367 -0.2338
 3857SOL     OW23029   2.286   4.426   3.257 -0.0748 -0.0237  0.5332
 3857SOL    HW123030   2.337   4.456   3.332  0.6839 -1.6721  0.6765
 3857SOL    HW223031   2.238   4.352   3.295 -1.4502  0.0833 -1.0023
 3858SOL     OW23032   0.681   3.400   8.313 -0.3024 -0.1824 -0.4140
 3858SOL    HW123033   0.678   3.387   8.218  1.1086  1.6740 -0.7019
 3858SOL    HW223034   0.623   3.333   8.350 -0.1075  0.3237  0.8330
 3859SOL     OW23035   2.589   4.669  11.127 -0.7023  0.6434  0.4086
 3859SOL    HW123036   2.595   4.623  11.211 -1.2816  0.3399  0.2853
 3859SOL    HW223037   2.570   4.589  11.077  2.0545  0.9697 -1.1297
 3860SOL     OW23038   3.170   3.262  10.144  0.0351 -0.2432  0.2512
 3860SOL    HW123039   3.142   3.180  10.184 -0.3584 -1.6821 -2.9468
 3860SOL    HW223040   3.097   3.324  10.147 -2.9389 -3.7650  0.2742
 3861SOL     OW23041   1.017   0.541  12.941  0.2909  0.0030  0.6053
 3861SOL    HW123042   0.929   0.576  12.926  1.4858  1.5808 -2.6503
 3861SOL    HW223043   1.066   0.624  12.945  1.0051 -0.4715  1.9302
 3862SOL     OW23044   2.008   1.481  15.146  0.3162  0.4647 -0.3040
 3862SOL    HW123045   2.027   1.447  15.059 -1.4301 -0.5162 -0.3058
 3862SOL    HW223046   2.096   1.506  15.172 -0.0844  0.2867  1.2365
 3863SOL     OW23047   3.953   0.869   9.251 -0.3256 -0.4770  0.0872
 3863SOL    HW123048   3.983   0.957   9.277  1.8855 -0.5990 -2.0281
 3863SOL    HW223049   3.911   0.885   9.167 -1.0096  0.6478  0.6350
 3864SOL     OW23050   1.042   1.241   3.946 -0.7678  0.0250  0.4197
 3864SOL    HW123051   1.008   1.276   4.029 -1.3927 -0.7300  0.4860
 3864SOL    HW223052   1.086   1.159   3.968 -0.4898 -0.0185 -0.3018
 3865SOL     OW23053   2.141   2.178  11.491  0.3171 -0.0954 -0.1429
 3865SOL    HW123054   2.084   2.238  11.539  2.5997  0.6599  1.6284
 3865SOL    HW223055   2.229   2.212  11.510  0.0122  0.5694  0.0707
 3866SOL     OW23056   0.469   4.522   1.068 -0.2648 -0.2441  0.0512
 3866SOL    HW123057   0.485   4.572   1.148  0.1505 -0.2191 -0.0503
 3866SOL    HW223058   0.525   4.445   1.068 -1.3412 -1.0297 -1.0339
 3867SOL     OW23059   4.010   0.243   6.557  0.4070  0.0058 -0.2308
 3867SOL    HW123060   3.982   0.288   6.477  1.4839 -1.4592 -1.4417
 3867SOL    HW223061   4.067   0.311   6.594 -0.7090  0.6583  0.2681
 3868SOL     OW23062   0.394   2.380   9.158 -0.0369 -0.2373 -0.4028
 3868SOL    HW123063   0.339   2.326   9.215 -2.7422  1.6839 -1.1900
 3868SOL    HW223064   0.329   2.411   9.095 -0.8493 -0.6593  0.2302
 3869SOL     OW23065   4.632   4.659   6.588  0.3059  0.1910  0.1397
 3869SOL    HW123066   4.693   0.002   6.560  0.1706 -0.2504 -1.2359
 3869SOL    HW223067   4.561   4.711   6.626  0.2378 -1.1166  1.8239
 3870SOL     OW23068   4.196   4.703   1.798  0.3918 -0.3832 -0.1825
 3870SOL    HW123069   4.105   4.692   1.824  0.3774 -3.1518 -1.3814
 3870SOL    HW223070   4.219   0.055   1.850  1.3173 -1.2435  0.6843
 3871SOL     OW23071   4.077   3.716   8.620  0.5823  0.1419 -0.0625
 3871SOL    HW123072   4.147   3.676   8.568 -0.5415  0.2295 -1.6165
 3871SOL    HW223073   4.129   3.784   8.664 -0.4057 -0.6234  2.3048
 3872SOL     OW23074   0.591   4.063   3.916 -0.1578  0.4593  0.5350
 3872SOL    HW123075   0.583   4.101   4.003  1.0235  0.7771  0.4984
 3872SOL    HW223076   0.499   4.046   3.894 -0.9569  1.8096  2.8092
 3873SOL     OW23077   2.320   0.294  12.374 -0.2264 -0.4145 -0.1522
 3873SOL    HW123078   2.355   0.370  12.421  2.6018 -3.6752  2.9382
 3873SOL    HW223079   2.393   0.274  12.315  0.2598  2.3944 -0.4968
 3874SOL     OW23080   3.026   2.827  15.328  0.3331 -0.1070 -0.7078
 3874SOL    HW123081   2.998   2.829  15.420  0.3999  1.6743 -0.7249
 3874SOL    HW223082   2.960   2.884  15.289 -1.1738 -1.6570 -0.4415
 3875SOL     OW23083   1.473   3.383   5.939  0.1644 -0.2474 -0.9501
 3875SOL    HW123084   1.540   3.370   6.007 -0.5361 -0.9790 -0.4017
 3875SOL    HW223085   1.431   3.297   5.939  2.7277 -1.5035  2.9268
 3876SOL     OW23086   1.908   3.863   6.337  0.0612 -0.5091  0.0122
 3876SOL    HW123087   1.932   3.873   6.429 -0.5685  0.6959  0.0375
 3876SOL    HW223088   1.976   3.896   6.279 -1.0148  2.7580  0.6378
 3877SOL     OW23089   3.674   3.782   3.697 -0.0706 -0.2122  0.4782
 3877SOL    HW123090   3.664   3.698   3.651 -0.7053 -0.9400  1.9425
 3877SOL    HW223091   3.769   3.782   3.709 -0.1681  0.3386  1.2332
 3878SOL     OW23092   1.410   1.815   3.726  0.2899  0.9117  0.8735
 3878SOL    HW123093   1.441   1.734   3.767 -0.2879 -0.1832 -0.8690
 3878SOL    HW223094   1.315   1.808   3.733  0.1586  0.5814 -1.1047
 3879SOL     OW23095   4.068   1.449  16.912 -0.0204  0.0572 -0.2155
 3879SOL    HW123096   3.993   1.508  16.915 -0.3133 -0.3297 -0.0369
 3879SOL    HW223097   4.101   1.447  17.002 -0.7780  3.2842  0.1394
 3880SOL     OW23098   3.724   4.164   3.961 -0.4726 -0.3504  0.0301
 3880SOL    HW123099   3.631   4.189   3.955 -0.5394 -0.4406  0.7588
 3880SOL    HW223100   3.747   4.225   4.031  1.0479  1.2424 -1.8581
 3881SOL     OW23101   4.215   3.768   2.215 -0.2008 -0.0477 -0.0529
 3881SOL    HW123102   4.176   3.832   2.155 -0.8998 -0.2414  0.1935
 3881SOL    HW223103   4.138   3.727   2.255 -1.0462  2.8295  1.2654
 3882SOL     OW23104   0.649   3.560   3.351 -0.2181  0.2553  0.2162
 3882SOL    HW123105   0.736   3.560   3.391 -0.4258 -0.7933  0.6836
 3882SOL    HW223106   0.666   3.516   3.267  1.7818  0.5147  0.4802
 3883SOL     OW23107   3.531   2.735  13.139 -0.6532  0.5530  0.0370
 3883SOL    HW123108   3.514   2.828  13.153 -0.7697  0.4275  0.6992
 3883SOL    HW223109   3.614   2.742  13.093 -0.8707 -0.2149 -0.4776
 3884SOL     OW23110   1.863   1.336   9.050 -0.3400  0.1211  0.1933
 3884SOL    HW123111   1.861   1.427   9.022  0.8827 -0.9390 -3.3579
 3884SOL    HW223112   1.770   1.321   9.066 -0.9127  1.3142 -2.0030
 3885SOL     OW23113   0.036   1.121   7.048 -0.6538  0.3918 -0.2589
 3885SOL    HW123114   0.088   1.193   7.085  1.4086 -0.2278 -1.9510
 3885SOL    HW223115   0.026   1.063   7.123  1.9477 -1.3356 -1.2660
 3886SOL     OW23116   2.320   2.697   9.225  0.1692  0.1765  0.7659
 3886SOL    HW123117   2.402   2.743   9.214  0.3753  0.0729  1.8649
 3886SOL    HW223118   2.270   2.716   9.146  2.7130  0.6321 -0.7160
 3887SOL     OW23119   2.890   2.527  11.577  0.4300  0.5852 -0.0083
 3887SOL    HW123120   2.815   2.519  11.637 -0.8762  0.4065 -1.6671
 3887SOL    HW223121   2.954   2.534  11.647 -0.2967  2.6306  0.4616
 3888SOL     OW23122   3.659   3.103  15.471  0.5641 -0.0694 -0.2107
 3888SOL    HW123123   3.647   3.077  15.380 -1.2686 -0.2234  0.0802
 3888SOL    HW223124   3.744   3.147  15.478  2.2442 -3.4076  0.3376
 3889SOL     OW23125   1.355   3.969  15.888 -0.2239  0.6633  0.1302
 3889SOL    HW123126   1.420   3.933  15.828  0.7527  0.5340  1.2678
 3889SOL    HW223127   1.298   4.017  15.828 -1.8054  0.1406  1.2116
 3890SOL     OW23128   0.082   0.522  15.974 -0.0031  0.1758 -0.9866
 3890SOL    HW123129   0.074   0.536  15.879  0.5437  2.4748 -0.6962
 3890SOL    HW223130   0.069   0.429  15.988  0.9363  0.1636 -0.2083
 3891SOL     OW23131   0.285   3.141  11.046 -0.2649 -0.9002  0.1511
 3891SOL    HW123132   0.340   3.214  11.017  2.5247 -3.2133 -0.3590
 3891SOL    HW223133   0.273   3.159  11.139 -1.1476 -0.3233 -0.0780
 3892SOL     OW23134   1.880   4.144  11.616 -0.1898  0.0943  0.9770
 3892SOL    HW123135   1.827   4.215  11.581 -0.5827 -0.0847  1.2014
 3892SOL    HW223136   1.916   4.100  11.539 -1.6795 -3.2571  2.1845
 3893SOL     OW23137   0.232   2.334   2.659 -0.1274  0.4994  0.5682
 3893SOL    HW123138   0.271   2.298   2.579 -1.5879  0.3574 -0.0792
 3893SOL    HW223139   0.305   2.383   2.696  0.6744 -0.6549  0.5297
 3894SOL     OW23140   0.523   2.893   7.294 -0.3328  0.2146  0.0580
 3894SOL    HW123141   0.593   2.949   7.259  1.3085 -2.1524 -0.4026
 3894SOL    HW223142   0.473   2.962   7.339 -0.1335  1.4659 -1.6636
 3895SOL     OW23143   0.070   2.425   9.101  0.1336 -0.1666 -0.5990
 3895SOL    HW123144   4.718   2.464   9.059 -1.4210 -0.1318  2.2688
 3895SOL    HW223145   0.047   2.332   9.094  0.2405 -0.3917  1.9679
 3896SOL     OW23146   0.086   0.778   8.862 -0.1039  0.1762 -0.0391
 3896SOL    HW123147   0.071   0.775   8.956 -1.5521 -0.1154 -0.2804
 3896SOL    HW223148   0.179   0.765   8.845 -0.1209  0.8037 -0.6325
 3897SOL     OW23149   2.874   1.418  12.288 -0.3529  0.3805  0.3001
 3897SOL    HW123150   2.888   1.492  12.348 -2.1918  0.8984  0.0926
 3897SOL    HW223151   2.960   1.377  12.291  0.8283  2.9288  1.1049
 3898SOL     OW23152   1.406   3.348   6.258  0.0411 -0.2586  0.0605
 3898SOL    HW123153   1.493   3.379   6.232  0.5682 -1.7012  0.1426
 3898SOL    HW223154   1.439   3.265   6.291  1.7611  0.9195  1.3703
 3899SOL     OW23155   3.037   1.287  16.598 -0.8985  0.2828  0.5431
 3899SOL    HW123156   3.031   1.195  16.622 -0.4464 -0.0496 -0.6234
 3899SOL    HW223157   3.092   1.325  16.667 -0.5838  0.0337  0.4291
 3900SOL     OW23158   3.447   3.956  12.308 -0.0821 -0.1510  0.3935
 3900SOL    HW123159   3.384   4.013  12.351 -0.4251  0.1703 -0.5222
 3900SOL    HW223160   3.438   3.881  12.366 -0.4454 -0.0134  0.5144
 3901SOL     OW23161   4.343   2.464  15.920  0.4265 -0.9310  0.0610
 3901SOL    HW123162   4.420   2.463  15.977 -1.7384 -1.0007  2.9812
 3901SOL    HW223163   4.379   2.497  15.838 -3.6928  2.7657 -0.2767
 3902SOL     OW23164   3.542   2.667  11.769  0.3176  0.1186 -0.0909
 3902SOL    HW123165   3.462   2.641  11.724  0.0506  0.4588  0.1952
 3902SOL    HW223166   3.606   2.683  11.700  0.9189  1.9541  0.9067
 3903SOL     OW23167   0.351   3.876  11.113  0.2107  0.4885 -0.1151
 3903SOL    HW123168   0.259   3.890  11.138 -0.3125 -2.1892 -0.5193
 3903SOL    HW223169   0.377   3.816  11.182 -0.1394 -1.0378 -1.2868
 3904SOL     OW23170   0.016   4.029   5.129  0.1369 -0.0159  0.2785
 3904SOL    HW123171   4.682   4.100   5.153  0.6682  0.4829  0.1243
 3904SOL    HW223172   0.067   4.059   5.053 -2.1471  0.8825 -0.8839
 3905SOL     OW23173   0.842   3.041   7.897  0.0903 -0.7708  0.0324
 3905SOL    HW123174   0.800   3.069   7.979 -0.1203 -1.7182  0.2490
 3905SOL    HW223175   0.784   2.978   7.855 -1.3486  0.0791  0.7497
 3906SOL     OW23176   4.439   3.228   7.349 -0.0456  0.2462  0.3561
 3906SOL    HW123177   4.426   3.157   7.412  1.2228  0.6017  1.0285
 3906SOL    HW223178   4.355   3.219   7.304  0.8906 -0.7093 -1.2249
 3907SOL     OW23179   3.246   2.916  12.230  0.4921 -0.4418 -0.4140
 3907SOL    HW123180   3.214   2.948  12.314  1.5778  0.5722 -0.3775
 3907SOL    HW223181   3.311   2.986  12.223 -0.8178  0.8072 -0.1017
 3908SOL     OW23182   0.581   0.156   8.729  0.0502  0.1835  0.5559
 3908SOL    HW123183   0.529   0.190   8.656  0.1979 -0.3702  0.1919
 3908SOL    HW223184   0.522   0.185   8.799  1.3017 -0.9816  2.0999
 3909SOL     OW23185   3.643   2.637   4.055  0.5773  0.3132  0.0333
 3909SOL    HW123186   3.560   2.592   4.039 -0.2590  1.7481  0.3733
 3909SOL    HW223187   3.700   2.562   4.071  1.1487  0.9618  0.9808
 3910SOL     OW23188   4.684   0.295   8.914  0.0023  0.1283  0.2056
 3910SOL    HW123189   4.658   0.338   8.832 -1.7764  0.5925  1.0110
 3910SOL    HW223190   0.029   0.239   8.882 -1.9615 -0.2808 -3.4455
 3911SOL     OW23191   4.599   4.000   6.360 -0.1584 -0.3859 -0.8003
 3911SOL    HW123192   4.605   4.083   6.407 -0.5232 -0.2737 -0.9512
 3911SOL    HW223193   4.547   4.035   6.287 -2.6841  1.1830  1.7696
 3912SOL     OW23194   3.542   3.012   6.240 -0.0130 -0.2214  0.2165
 3912SOL    HW123195   3.546   3.108   6.249 -0.0974 -0.0896 -1.1204
 3912SOL    HW223196   3.611   2.989   6.301  3.4123  2.9395 -2.4588
 3913SOL     OW23197   0.988   3.243  10.661  0.1358 -0.3682  0.1307
 3913SOL    HW123198   0.985   3.333  10.694  1.5873  0.9469 -3.3680
 3913SOL    HW223199   1.081   3.219  10.656  0.5501  1.4192 -0.7167
 3914SOL     OW23200   3.789   4.368   7.208 -0.2830  0.9749 -0.3555
 3914SOL    HW123201   3.740   4.298   7.252  1.3431  0.4586  0.6492
 3914SOL    HW223202   3.786   4.445   7.265 -1.3158  1.2356 -0.7614
 3915SOL     OW23203   1.324   4.507   8.674 -0.1652  0.3956 -0.0645
 3915SOL    HW123204   1.328   4.486   8.767 -0.9679  2.6235  0.4771
 3915SOL    HW223205   1.285   4.431   8.632 -2.1011  1.4493 -0.1452
 3916SOL     OW23206   2.744   1.572   5.627  0.0773 -0.2157 -0.3425
 3916SOL    HW123207   2.727   1.506   5.560  2.6482 -2.2970  1.0285
 3916SOL    HW223208   2.726   1.650   5.575 -1.9426 -0.1053  0.5316
 3917SOL     OW23209   3.793   1.780  15.712  0.5794  0.0400  0.1393
 3917SOL    HW123210   3.770   1.760  15.621  1.9572 -3.2269  0.4712
 3917SOL    HW223211   3.726   1.725  15.753 -0.0117  0.4798 -0.2394
 3918SOL     OW23212   0.459   3.292   2.775 -0.3980  0.7405  0.4985
 3918SOL    HW123213   0.376   3.244   2.766  1.1070 -2.3232  2.8280
 3918SOL    HW223214   0.501   3.258   2.696 -0.8846  0.7082  0.2525
 3919SOL     OW23215   4.166   3.175   0.931  0.3572  0.6043  0.3496
 3919SOL    HW123216   4.168   3.259   0.977  1.3641  0.1609  1.1452
 3919SOL    HW223217   4.131   3.114   0.996  2.3315 -1.4731 -0.5346
 3920SOL     OW23218   2.694   2.527   5.062  1.0964 -0.1762 -0.5184
 3920SOL    HW123219   2.773   2.569   5.029 -0.8614  2.0860 -2.2915
 3920SOL    HW223220   2.651   2.604   5.098  1.8594 -0.1854  0.4198
 3921SOL     OW23221   3.914   3.833   7.706  0.6138  0.3747 -0.3902
 3921SOL    HW123222   3.891   3.741   7.721 -1.3653  1.0051  0.5287
 3921SOL    HW223223   3.825   3.867   7.714 -0.0102 -1.8127  2.2151
 3922SOL     OW23224   2.338   1.010   8.741  0.0675  0.1585 -0.2234
 3922SOL    HW123225   2.416   1.067   8.742  0.5137 -0.4878  0.9909
 3922SOL    HW223226   2.353   0.963   8.659 -1.0113 -0.8020  0.1453
 3923SOL     OW23227   2.516   2.815   3.000  0.2726  0.0138  0.4478
 3923SOL    HW123228   2.473   2.730   2.986 -0.5580  0.7102 -1.2019
 3923SOL    HW223229   2.526   2.853   2.912  2.6860  1.5800  1.4020
 3924SOL     OW23230   1.316   3.299   8.609 -0.4994 -0.2617 -0.2840
 3924SOL    HW123231   1.359   3.293   8.694 -1.0347 -0.8135 -0.0496
 3924SOL    HW223232   1.230   3.336   8.630 -0.3478  0.9329 -1.7211
 3925SOL     OW23233   0.073   1.158   3.015 -0.1843  0.3740 -0.7575
 3925SOL    HW123234   0.004   1.105   2.975  0.2106 -1.4382  0.9946
 3925SOL    HW223235   0.106   1.097   3.080  1.6054  1.6007 -0.5370
 3926SOL     OW23236   1.736   3.306   3.146  0.4914  0.3488 -0.4011
 3926SOL    HW123237   1.740   3.401   3.130  2.1003  0.2670 -0.4795
 3926SOL    HW223238   1.685   3.271   3.073 -1.5255  0.4161  0.9911
 3927SOL     OW23239   0.748   4.716  12.904 -0.1382  0.6125  0.2647
 3927SOL    HW123240   0.791   4.638  12.871 -1.3203 -0.2866  0.8541
 3927SOL    HW223241   0.668   0.008  12.855 -0.9785  0.0439  1.4368
 3928SOL     OW23242   1.042   4.599  10.922 -0.1059  0.5582  0.5117
 3928SOL    HW123243   1.099   4.527  10.947 -1.1422 -0.8136 -1.0504
 3928SOL    HW223244   1.105   4.666  10.897 -0.5495  0.6662 -0.3426
 3929SOL     OW23245   0.222   0.406   3.194  0.0109 -0.4733  0.0756
 3929SOL    HW123246   0.274   0.337   3.154 -0.8172 -0.0904 -1.6730
 3929SOL    HW223247   0.269   0.410   3.277  2.4550 -3.1493 -1.1880
 3930SOL     OW23248   2.300   4.291   2.054  0.8077 -0.1010 -0.1065
 3930SOL    HW123249   2.360   4.308   1.982  2.4899  0.1620  1.3717
 3930SOL    HW223250   2.278   4.202   2.027 -0.0508  0.8564 -2.5527
 3931SOL     OW23251   2.616   1.188   3.873 -0.3733 -0.1666  0.3271
 3931SOL    HW123252   2.652   1.172   3.960 -1.0632  1.3815  0.9013
 3931SOL    HW223253   2.693   1.219   3.825 -0.1222  0.8159  1.3692
 3932SOL     OW23254   1.408   4.261   4.035  0.0582  0.5474 -0.6009
 3932SOL    HW123255   1.342   4.300   4.092 -2.9451 -1.5002 -2.6529
 3932SOL    HW223256   1.481   4.242   4.094 -0.5966  1.5358  0.5232
 3933SOL     OW23257   0.742   0.054   3.684  0.0465 -0.0277  0.0992
 3933SOL    HW123258   0.704   0.134   3.649 -1.7051 -0.5670  0.7959
 3933SOL    HW223259   0.835   0.061   3.660 -0.0054  1.2214  0.2713
 3934SOL     OW23260   3.576   0.964   4.150  0.3965 -0.0450 -0.1747
 3934SOL    HW123261   3.504   0.964   4.212  1.0743 -2.7587  0.5862
 3934SOL    HW223262   3.586   1.060   4.150  1.4302 -0.1573 -1.2165
 3935SOL     OW23263   4.131   2.034   5.072 -0.3197 -0.0389 -0.2811
 3935SOL    HW123264   4.043   2.070   5.080 -1.0471 -1.5252 -1.4823
 3935SOL    HW223265   4.198   2.102   5.067 -0.2724 -0.0856 -0.2844
 3936SOL     OW23266   3.351   0.647   2.390  0.5089 -0.2784 -0.6155
 3936SOL    HW123267   3.377   0.555   2.403 -0.6644 -0.4895  0.2761
 3936SOL    HW223268   3.355   0.673   2.482  0.1037 -0.1422 -0.6367
 3937SOL     OW23269   1.786   0.646   0.296 -0.3140 -0.1576 -0.7864
 3937SOL    HW123270   1.802   0.578   0.231  2.0870 -0.4014  0.0666
 3937SOL    HW223271   1.858   0.702   0.267  0.2988 -0.0250  0.9848
 3938SOL     OW23272   2.682   4.626  16.123 -0.4703  0.0904  0.2148
 3938SOL    HW123273   2.769   4.590  16.135  0.5532  2.0846 -1.2549
 3938SOL    HW223274   2.621   4.563  16.160 -1.9806  0.4564 -1.5949
 3939SOL     OW23275   1.092   2.481   9.676 -0.0238  0.1772 -0.5550
 3939SOL    HW123276   1.145   2.532   9.616 -0.2674  0.2730 -0.6894
 3939SOL    HW223277   1.045   2.548   9.726 -1.1457 -0.7888 -0.3083
 3940SOL     OW23278   3.128   2.997   5.210 -0.5746  0.0474  0.2126
 3940SOL    HW123279   3.146   3.022   5.301  1.6712 -1.7144  0.2531
 3940SOL    HW223280   3.197   2.932   5.196  1.4644  2.6616 -1.8566
 3941SOL     OW23281   2.262   4.494   2.863  0.0363 -0.9177  0.3001
 3941SOL    HW123282   2.237   4.465   2.775 -1.2754 -0.7885  0.6241
 3941SOL    HW223283   2.305   4.418   2.902  2.4266 -0.4392 -1.4210
 3942SOL     OW23284   2.634   3.049   7.699 -0.2783  0.3283 -0.0094
 3942SOL    HW123285   2.633   3.102   7.779 -0.1789  0.1596  0.1029
 3942SOL    HW223286   2.718   3.073   7.661 -0.2051 -1.6290 -1.0243
 3943SOL     OW23287   1.543   1.907   8.209 -0.5868  0.4261  0.3202
 3943SOL    HW123288   1.629   1.875   8.182  0.6913  3.1787  1.0650
 3943SOL    HW223289   1.554   1.902   8.304  1.2794  0.3568  0.1010
 3944SOL     OW23290   4.548   1.876   9.533  0.0153  0.2003  0.3519
 3944SOL    HW123291   4.525   1.943   9.468 -0.0462 -0.1360  0.0242
 3944SOL    HW223292   4.579   1.921   9.611  0.3621  2.1487 -0.8983
 3945SOL     OW23293   0.775   0.236   6.882  0.3415 -0.0007 -0.2809
 3945SOL    HW123294   0.817   0.310   6.926  0.7906  0.6166 -1.7463
 3945SOL    HW223295   0.817   0.161   6.924  2.7007  0.6093 -1.5800
 3946SOL     OW23296   3.861   2.478   8.192  0.5709  0.2449 -0.1106
 3946SOL    HW123297   3.841   2.538   8.263  0.1943 -0.1588  0.1205
 3946SOL    HW223298   3.874   2.539   8.119  1.5836  1.1864  0.8569
 3947SOL     OW23299   1.785   0.562   9.813 -0.5836  0.1549  0.4482
 3947SOL    HW123300   1.755   0.474   9.788  1.9049 -1.1280  1.9952
 3947SOL    HW223301   1.800   0.597   9.725 -2.0048 -0.9747 -0.2521
 3948SOL     OW23302   4.101   2.241   3.684  0.8014  0.3854 -0.8030
 3948SOL    HW123303   4.148   2.287   3.615  1.4042 -0.4641 -0.9541
 3948SOL    HW223304   4.044   2.184   3.632 -1.4378  0.5575  1.4772
 3949SOL     OW23305   4.319   2.718   2.896  0.1851  0.2322  0.5109
 3949SOL    HW123306   4.340   2.743   2.986 -1.6869  1.1804  0.6676
 3949SOL    HW223307   4.390   2.761   2.848  1.5440 -1.5234  0.9585
 3950SOL     OW23308   0.209   4.644   0.647 -0.0614  0.1556 -0.0410
 3950SOL    HW123309   0.136   4.582   0.649 -0.8347  1.1698  3.3110
 3950SOL    HW223310   0.270   4.596   0.591 -0.1835  0.9620 -0.8572
 3951SOL     OW23311   4.265   1.014   2.613 -0.1435 -0.1761 -0.6178
 3951SOL    HW123312   4.278   1.050   2.526  0.1664  0.0385 -0.4823
 3951SOL    HW223313   4.324   1.079   2.652  1.0300 -0.8971 -1.1876
 3952SOL     OW23314   0.806   0.164   7.387  0.0154  0.8553  0.3639
 3952SOL    HW123315   0.739   0.097   7.372  0.5363  0.2599  0.6952
 3952SOL    HW223316   0.760   0.243   7.357  0.5551  1.5079  1.2694
 3953SOL     OW23317   1.899   3.684  13.464 -0.3929 -0.8969  0.0195
 3953SOL    HW123318   1.932   3.772  13.480 -2.5336 -0.0284 -0.2534
 3953SOL    HW223319   1.908   3.639  13.548 -1.6265  0.5332  0.9259
 3954SOL     OW23320   4.379   0.968   4.155  0.3708  0.1884 -0.2005
 3954SOL    HW123321   4.383   1.047   4.100  0.3667 -1.1085 -2.0836
 3954SOL    HW223322   4.466   0.955   4.192 -0.8749 -2.7720  1.6324
 3955SOL     OW23323   2.321   2.225   2.608  0.5261 -0.0606  0.4576
 3955SOL    HW123324   2.368   2.154   2.651  3.0517  1.1486 -0.2906
 3955SOL    HW223325   2.316   2.287   2.681  0.5754  0.0432  0.3744
 3956SOL     OW23326   1.802   1.651   5.176  0.1654 -0.4533 -0.0587
 3956SOL    HW123327   1.757   1.736   5.173 -2.1210 -1.6530  0.1053
 3956SOL    HW223328   1.891   1.674   5.201 -0.0455 -0.5947  0.8332
 3957SOL     OW23329   1.083   0.108   2.205 -0.0398 -0.1467  0.2773
 3957SOL    HW123330   1.060   0.015   2.212 -1.1053  0.2015  1.2286
 3957SOL    HW223331   1.008   0.155   2.238  0.6514  1.2505 -0.1314
 3958SOL     OW23332   1.643   4.192  10.254  0.1205  0.7418  0.7099
 3958SOL    HW123333   1.599   4.144  10.185  0.6347 -0.1048  0.9664
 3958SOL    HW223334   1.659   4.278  10.215 -0.6340  0.1421 -0.9008
 3959SOL     OW23335   3.160   3.741   0.186 -0.3430  0.4835 -0.0548
 3959SOL    HW123336   3.193   3.816   0.135  1.6275 -1.1986 -1.2894
 3959SOL    HW223337   3.078   3.727   0.138  1.0582  1.4027 -2.7530
 3960SOL     OW23338   2.943   3.040   3.001 -0.2644 -0.0385 -0.2261
 3960SOL    HW123339   2.955   2.948   3.025 -2.4508 -0.2749  0.0267
 3960SOL    HW223340   3.010   3.091   3.047  0.2382  0.0408 -1.0523
 3961SOL     OW23341   3.753   1.193   1.890  0.5727  0.4562 -0.3924
 3961SOL    HW123342   3.678   1.234   1.848  0.0860  0.1307  0.1663
 3961SOL    HW223343   3.747   1.217   1.982 -1.7537  0.6396 -0.6007
 3962SOL     OW23344   4.091   1.387   5.630 -0.3337  0.6072  0.1600
 3962SOL    HW123345   4.075   1.453   5.698  0.2893 -0.4218  1.3083
 3962SOL    HW223346   4.064   1.435   5.552  0.0437  0.8234  0.1620
 3963SOL     OW23347   1.119   3.390   9.038  0.2070  0.2526 -0.2587
 3963SOL    HW123348   1.027   3.368   9.024  0.3100  0.4801 -1.2881
 3963SOL    HW223349   1.164   3.312   9.006 -0.6071 -0.6200  0.7357
 3964SOL     OW23350   3.352   2.143   0.310  0.1904  0.4099  0.4706
 3964SOL    HW123351   3.400   2.165   0.390  0.9784 -0.7301  0.3012
 3964SOL    HW223352   3.330   2.051   0.321  3.8015 -0.7050 -1.6191
 3965SOL     OW23353   2.415   4.188   9.403  0.4889  0.4820  0.1192
 3965SOL    HW123354   2.400   4.101   9.439 -0.6206  0.7218  0.2358
 3965SOL    HW223355   2.326   4.221   9.410  0.5626  0.6812  0.1256
 3966SOL     OW23356   1.741   2.265   3.829  0.1001  0.6059 -0.3320
 3966SOL    HW123357   1.669   2.328   3.831 -1.5275 -1.2288 -0.3597
 3966SOL    HW223358   1.760   2.252   3.922  0.6751 -0.1664 -0.5535
 3967SOL     OW23359   1.316   3.568   6.382 -0.4159  0.0737 -0.8317
 3967SOL    HW123360   1.289   3.624   6.309 -1.3556 -1.2336 -1.4759
 3967SOL    HW223361   1.300   3.479   6.352  1.1863 -1.3186  2.4613
 3968SOL     OW23362   3.982   1.421   6.822 -0.4471  0.1133  0.1797
 3968SOL    HW123363   3.996   1.326   6.819  0.1883  0.1741  1.1726
 3968SOL    HW223364   3.895   1.411   6.784 -0.7326  0.5195  0.7165
 3969SOL     OW23365   3.098   0.841   5.800 -0.1444  0.1476 -0.7473
 3969SOL    HW123366   3.099   0.767   5.738 -1.3458 -1.3808  1.0625
 3969SOL    HW223367   3.047   0.906   5.752  0.3611  0.2376 -1.1616
 3970SOL     OW23368   1.569   0.147  11.939  0.0309 -0.0378  0.5123
 3970SOL    HW123369   1.648   0.120  11.985  0.4186  0.4585  0.1322
 3970SOL    HW223370   1.525   0.194  12.010  0.0845  1.2433 -0.3165
 3971SOL     OW23371   1.477   2.745   4.193 -0.2658  0.0772 -0.1627
 3971SOL    HW123372   1.387   2.777   4.204 -0.1638  1.0291 -2.1233
 3971SOL    HW223373   1.490   2.759   4.099 -0.5907  0.1237 -0.2018
 3972SOL     OW23374   0.180   1.725  14.119 -0.2921  0.1268 -0.0008
 3972SOL    HW123375   0.182   1.659  14.189 -1.3863 -0.9152 -0.9592
 3972SOL    HW223376   0.101   1.704  14.069 -1.0241 -0.2716  1.3004
 3973SOL     OW23377   1.191   3.989   8.164  0.2239  0.5533  0.6693
 3973SOL    HW123378   1.253   4.061   8.166  1.2130 -0.2987  0.5017
 3973SOL    HW223379   1.130   4.000   8.237 -0.6854 -2.0553  0.3097
 3974SOL     OW23380   4.690   3.767   4.306 -0.2159  0.4978  0.7787
 3974SOL    HW123381   4.628   3.840   4.302  0.3626  0.8237 -2.0957
 3974SOL    HW223382   4.642   3.685   4.315  0.0930  0.4634  2.2428
 3975SOL     OW23383   1.758   1.959  10.454 -0.2922 -0.0384 -0.4080
 3975SOL    HW123384   1.674   1.991  10.486  1.0871  1.9838  1.1836
 3975SOL    HW223385   1.802   1.948  10.538  0.6915  0.8125 -0.8117
 3976SOL     OW23386   0.350   3.793   3.630 -0.1217  0.4645 -0.1693
 3976SOL    HW123387   0.387   3.753   3.551  1.1122 -0.2372  0.7640
 3976SOL    HW223388   0.305   3.872   3.599 -2.3537  0.2722  2.5559
 3977SOL     OW23389   1.611   3.148   1.100  0.6403  0.1112 -0.2621
 3977SOL    HW123390   1.555   3.226   1.093  0.6866 -0.1174 -3.4427
 3977SOL    HW223391   1.663   3.164   1.179  0.9985 -0.2646 -0.4264
 3978SOL     OW23392   3.889   3.506  13.697 -0.3428 -0.3257  0.5106
 3978SOL    HW123393   3.984   3.520  13.707 -0.8897  2.5627  1.6893
 3978SOL    HW223394   3.868   3.575  13.634 -0.1498 -2.0402 -1.4326
 3979SOL     OW23395   3.848   0.019   3.362 -0.2564 -0.5252  0.0382
 3979SOL    HW123396   3.821   0.063   3.282  0.7846 -0.5606 -0.3381
 3979SOL    HW223397   3.890   4.670   3.319 -2.6453 -1.1280 -1.2607
 3980SOL     OW23398   0.284   2.692   9.256  0.2710  0.0974  0.9474
 3980SOL    HW123399   0.370   2.676   9.295  1.2386  0.4095 -1.0620
 3980SOL    HW223400   0.227   2.646   9.318 -0.5661 -0.5344 -0.2872
 3981SOL     OW23401   0.655   3.711  17.424  0.1459  0.0657 -0.0186
 3981SOL    HW123402   0.602   3.777  17.380  0.2009  0.5197  0.5948
 3981SOL    HW223403   0.597   3.656  17.476  0.2220 -1.1462 -1.2164
 3982SOL     OW23404   3.523   0.398   8.843 -0.1387 -0.1851  0.2597
 3982SOL    HW123405   3.519   0.307   8.814 -0.1902 -0.8133  2.1876
 3982SOL    HW223406   3.575   0.401   8.924 -1.6594  1.4362  1.1934
 3983SOL     OW23407   3.995   1.746  13.181  0.5180 -0.0573  0.3841
 3983SOL    HW123408   4.004   1.695  13.261  2.0577 -0.9209 -0.3330
 3983SOL    HW223409   4.077   1.722  13.138  1.1089  0.5221  1.1741
 3984SOL     OW23410   4.005   0.246   1.855 -0.7539 -0.2085  0.1876
 3984SOL    HW123411   4.094   0.218   1.875 -0.2807  1.2465  0.1044
 3984SOL    HW223412   4.016   0.288   1.769  1.8086 -2.1208 -0.4150
 3985SOL     OW23413   1.257   3.712   7.202 -0.2872  0.2009  0.2128
 3985SOL    HW123414   1.191   3.709   7.132  0.0912 -1.7172 -0.0733
 3985SOL    HW223415   1.309   3.635   7.178 -0.0594  0.5153 -0.3091
 3986SOL     OW23416   1.821   1.605   3.523 -1.0418  0.1221 -0.1744
 3986SOL    HW123417   1.768   1.545   3.470 -0.2462 -1.2535  0.5883
 3986SOL    HW223418   1.774   1.688   3.517 -2.1903 -0.6475 -1.7509
 3987SOL     OW23419   2.380   1.748  12.927 -0.2976 -0.1230 -0.1209
 3987SOL    HW123420   2.326   1.820  12.894 -1.4077 -1.0410 -0.3380
 3987SOL    HW223421   2.467   1.771  12.895  0.1113 -0.9261  0.4345
 3988SOL     OW23422   2.523   3.471   3.583  0.3235  0.5515 -0.3724
 3988SOL    HW123423   2.440   3.480   3.630  0.2657 -0.4090 -0.2980
 3988SOL    HW223424   2.504   3.403   3.519  2.3562 -0.3619  0.0015
 3989SOL     OW23425   1.573   3.023  13.563 -0.0419 -0.0419  0.1794
 3989SOL    HW123426   1.639   3.013  13.631  0.9885  0.3696 -0.7547
 3989SOL    HW223427   1.520   2.943  13.562 -0.0877  0.0349 -2.4219
 3990SOL     OW23428   0.725   2.909   4.658  0.2346 -0.0982 -1.1181
 3990SOL    HW123429   0.728   2.999   4.689 -1.6707 -0.7403  0.9214
 3990SOL    HW223430   0.652   2.877   4.711  1.1485 -1.6272 -0.7926
 3991SOL     OW23431   0.579   0.161   8.231  0.2451 -0.4320 -0.2733
 3991SOL    HW123432   0.622   0.121   8.306 -0.8648  1.0238  1.1427
 3991SOL    HW223433   0.592   0.100   8.158  2.9465  0.4891 -0.5557
 3992SOL     OW23434   3.812   3.375   8.791  0.1397  0.1414  0.7366
 3992SOL    HW123435   3.718   3.375   8.810  0.1731  0.0729  0.9041
 3992SOL    HW223436   3.847   3.369   8.880  2.7660  0.3172 -0.2864
 3993SOL     OW23437   2.107   0.493   1.902 -0.3155 -0.0692 -0.2930
 3993SOL    HW123438   2.052   0.499   1.980  0.0710  0.8737 -0.0926
 3993SOL    HW223439   2.191   0.533   1.921 -0.3504  0.2973 -0.8751
 3994SOL     OW23440   0.529   1.164   3.843 -0.1202 -0.0811 -0.1796
 3994SOL    HW123441   0.572   1.242   3.809  0.4158 -0.0926  0.4629
 3994SOL    HW223442   0.506   1.192   3.932  2.5300  0.0981  0.4408
 3995SOL     OW23443   1.248   1.922   7.959 -0.3181  0.5244  0.0186
 3995SOL    HW123444   1.328   1.905   7.909 -2.0582 -0.5297 -2.4150
 3995SOL    HW223445   1.259   1.856   8.027 -2.1261 -0.4727 -0.6627
 3996SOL     OW23446   3.844   1.510   3.436  0.0319 -0.0276  0.3596
 3996SOL    HW123447   3.851   1.452   3.361 -3.3726  0.3263 -0.1958
 3996SOL    HW223448   3.922   1.483   3.485  0.7463  0.5791 -0.4188
 3997SOL     OW23449   2.710   0.371   8.946  0.2035 -0.3812  0.1071
 3997SOL    HW123450   2.774   0.430   8.906  0.4098 -0.3816  0.4292
 3997SOL    HW223451   2.632   0.383   8.893  0.5409 -0.1939 -0.3489
 3998SOL     OW23452   1.396   2.129   0.223  0.3230 -0.1976 -0.1456
 3998SOL    HW123453   1.369   2.109   0.133  1.3305 -0.8566 -0.2996
 3998SOL    HW223454   1.335   2.070   0.267  0.0500  1.0633  1.1551
 3999SOL     OW23455   0.835   1.413   7.686 -0.2745 -0.1799 -0.2370
 3999SOL    HW123456   0.926   1.413   7.657  0.0387 -2.9208  0.7631
 3999SOL    HW223457   0.787   1.428   7.605  1.8323  3.3212 -0.8039
 4000SOL     OW23458   3.864   1.348  16.379 -0.2066 -0.0714  0.1153
 4000SOL    HW123459   3.883   1.307  16.464 -0.1131 -0.5598 -0.1392
 4000SOL    HW223460   3.770   1.345  16.396 -0.1160  1.2759  0.8558
 4001SOL     OW23461   4.285   0.390   1.636  0.1811 -0.3269 -0.3004
 4001SOL    HW123462   4.380   0.396   1.638  0.0523  1.0794  1.1705
 4001SOL    HW223463   4.277   0.320   1.571 -0.7836  1.2592 -1.8822
 4002SOL     OW23464   3.010   2.691  17.691 -0.2271  0.3008  0.2122
 4002SOL    HW123465   3.074   2.723  17.627  0.5113  0.3405  0.9663
 4002SOL    HW223466   3.050   2.606   0.002 -0.2149  0.0508 -1.3709
 4003SOL     OW23467   2.420   2.774   3.446  0.4169  0.2344 -0.3229
 4003SOL    HW123468   2.388   2.845   3.391  2.5209  2.1820  0.9977
 4003SOL    HW223469   2.472   2.715   3.391 -0.4653  0.9052 -1.8710
 4004SOL     OW23470   3.730   0.468   3.135 -0.6239 -0.1043 -0.2908
 4004SOL    HW123471   3.747   0.508   3.050 -0.4133 -0.5453 -0.4573
 4004SOL    HW223472   3.792   0.513   3.193  0.1769 -1.2240 -0.2761
 4005SOL     OW23473   1.529   2.423  10.184  0.2168 -0.1812  0.0527
 4005SOL    HW123474   1.596   2.491  10.192 -1.8741  1.2547  4.9886
 4005SOL    HW223475   1.552   2.364  10.256  0.4504  1.0032  0.9469
 4006SOL     OW23476   1.426   2.175   2.365 -0.7947 -0.0689 -0.0161
 4006SOL    HW123477   1.470   2.187   2.450 -1.0771  1.3761 -0.0782
 4006SOL    HW223478   1.414   2.268   2.350  0.6572  0.2967  1.1201
 4007SOL     OW23479   1.132   1.517   3.244  0.1098  0.4885 -0.0304
 4007SOL    HW123480   1.056   1.542   3.191  0.7191  0.5380 -0.8915
 4007SOL    HW223481   1.168   1.448   3.187  0.5355  1.2934 -0.7316
 4008SOL     OW23482   3.713   1.505   4.703  0.3038  0.4594  0.8230
 4008SOL    HW123483   3.789   1.551   4.668 -0.6868  1.6748  0.2581
 4008SOL    HW223484   3.742   1.421   4.739  0.2460  0.0934  0.0019
 4009SOL     OW23485   0.170   2.754  17.566 -0.3914 -0.7205 -0.5661
 4009SOL    HW123486   0.260   2.761  17.533  0.0053 -1.6799  0.3025
 4009SOL    HW223487   0.135   2.832  17.523 -2.7264 -2.3734 -1.6694
 4010SOL     OW23488   2.701   0.999   6.789  0.2114 -0.1040 -0.3748
 4010SOL    HW123489   2.726   1.081   6.746  0.2881  0.7571  1.3160
 4010SOL    HW223490   2.612   0.994   6.753  0.0508  0.4552 -0.0635
 4011SOL     OW23491   1.687   2.639   5.897  0.0218  0.3155 -0.0150
 4011SOL    HW123492   1.683   2.550   5.933 -0.8979  0.1180 -0.6145
 4011SOL    HW223493   1.740   2.621   5.820  0.4752  0.2686  0.3077
 4012SOL     OW23494   2.791   0.309   0.504  0.2516 -0.5743 -0.1348
 4012SOL    HW123495   2.827   0.229   0.465  0.2110  0.0625 -1.4992
 4012SOL    HW223496   2.811   0.298   0.596  1.1899 -0.9197 -0.3853
 4013SOL     OW23497   3.694   4.673   2.669 -0.1865 -0.0082 -0.1420
 4013SOL    HW123498   3.623   0.000   2.633  0.4861 -1.3939 -3.5070
 4013SOL    HW223499   3.757   4.668   2.597  0.3665  1.2497  0.2487
 4014SOL     OW23500   3.908   1.290   5.089  0.1740  0.2979  0.0320
 4014SOL    HW123501   3.974   1.308   5.155  0.5865 -2.0504  0.2659
 4014SOL    HW223502   3.954   1.277   5.006  0.8014 -1.2621  0.6188
 4015SOL     OW23503   0.292   4.313   4.003  0.2706  0.1256  0.1924
 4015SOL    HW123504   0.305   4.337   3.911  1.7787  0.1791  0.4152
 4015SOL    HW223505   0.244   4.391   4.031 -0.5177 -0.0044 -0.8303
 4016SOL     OW23506   2.875   0.549   8.796 -0.0121 -0.2852  0.0293
 4016SOL    HW123507   2.856   0.591   8.712  0.1257 -0.7979 -0.2588
 4016SOL    HW223508   2.941   0.483   8.773  2.0364  1.7209  0.1444
 4017SOL     OW23509   2.475   0.964   3.179  0.2336  0.0846  0.3184
 4017SOL    HW123510   2.480   0.919   3.094  1.3308  0.3460  0.2456
 4017SOL    HW223511   2.511   1.049   3.156 -0.9697 -0.1194 -2.3678
 4018SOL     OW23512   1.924   4.628  13.022 -0.2778  0.7713  0.5451
 4018SOL    HW123513   1.905   4.672  13.104  0.1173  1.2331  0.3891
 4018SOL    HW223514   2.015   4.608  13.043 -0.2423 -1.0490 -1.3099
 4019SOL     OW23515   3.125   2.923   9.460  0.5878  0.2660  0.2882
 4019SOL    HW123516   3.053   2.864   9.484  0.5170  0.1620 -0.1741
 4019SOL    HW223517   3.190   2.853   9.459 -0.0716 -0.3116 -1.2382
 4020SOL     OW23518   1.079   2.539  11.008 -0.0594 -0.6902  0.0699
 4020SOL    HW123519   1.063   2.624  11.050  3.5488 -0.0346  0.1288
 4020SOL    HW223520   1.166   2.511  11.038  0.4780  0.1637 -0.6787
 4021SOL     OW23521   0.805   3.150   8.711  0.3964 -0.0694  0.3209
 4021SOL    HW123522   0.835   3.176   8.624 -1.7518 -1.3964 -0.7962
 4021SOL    HW223523   0.713   3.156   8.687  0.8781 -0.2305 -1.5732
 4022SOL     OW23524   1.298   1.159  16.236  0.3791  0.5601  0.1640
 4022SOL    HW123525   1.203   1.159  16.248  0.1270 -2.8938 -1.7571
 4022SOL    HW223526   1.319   1.243  16.278 -1.7245  0.6214  1.0681
 4023SOL     OW23527   2.085   1.411  10.987  0.0595  0.2869 -0.1364
 4023SOL    HW123528   2.171   1.379  10.962  1.3693  3.0268  0.9092
 4023SOL    HW223529   2.096   1.498  11.027  1.4674  1.1278 -2.3558
 4024SOL     OW23530   0.307   1.030   3.719  0.5004 -0.3846  0.7347
 4024SOL    HW123531   0.401   1.031   3.738  0.3769  2.1162  1.2866
 4024SOL    HW223532   0.281   1.122   3.707 -2.5344 -1.2042  0.9025
 4025SOL     OW23533   1.554   3.084   8.799 -0.2110 -0.1414 -0.0489
 4025SOL    HW123534   1.634   3.100   8.849 -0.8044  2.0721  0.1829
 4025SOL    HW223535   1.499   3.156   8.830 -0.7428 -1.0051  1.0520
 4026SOL     OW23536   2.304   0.340   8.375 -0.1165 -0.0877 -0.1643
 4026SOL    HW123537   2.369   0.274   8.397  0.1265  1.0860  2.6819
 4026SOL    HW223538   2.356   0.411   8.337  0.0227  1.4671  2.9344
 4027SOL     OW23539   2.108   4.253   9.339  0.5168  0.4994 -0.4562
 4027SOL    HW123540   2.148   4.317   9.280 -0.5017  1.9231  0.3865
 4027SOL    HW223541   2.127   4.176   9.285 -1.7286  0.1238 -0.7290
 4028SOL     OW23542   4.706   2.932  10.747  0.0480 -0.6579 -0.5956
 4028SOL    HW123543   0.014   2.882  10.672 -1.5464 -2.0016 -0.4045
 4028SOL    HW223544   0.031   3.013  10.751  1.0611 -1.3557  0.5780
 4029SOL     OW23545   1.941   0.205   8.080 -0.0073  0.4775 -0.1283
 4029SOL    HW123546   1.904   0.118   8.067  0.9112  0.0437  0.1563
 4029SOL    HW223547   2.002   0.190   8.153  0.9083 -0.0494 -0.9992
 4030SOL     OW23548   4.041   3.485   2.752 -0.2758 -0.0122  0.6544
 4030SOL    HW123549   3.995   3.446   2.677 -0.8790  2.8697 -0.4698
 4030SOL    HW223550   3.970   3.499   2.816  2.5575  0.2352  3.7344
 4031SOL     OW23551   0.367   0.953   4.468 -0.2841  0.2866 -0.4617
 4031SOL    HW123552   0.405   1.002   4.542 -1.0517  0.8567 -0.4511
 4031SOL    HW223553   0.279   0.932   4.499 -0.2948  2.8115  1.2484
 4032SOL     OW23554   3.045   4.145   3.151  0.2342  0.2309 -0.2883
 4032SOL    HW123555   3.063   4.111   3.064  0.4771  1.0834 -0.5703
 4032SOL    HW223556   3.100   4.093   3.210 -0.1473 -0.0412 -0.1774
 4033SOL     OW23557   3.172   1.514   4.876  0.4096 -0.2051 -0.3108
 4033SOL    HW123558   3.201   1.456   4.805 -1.1983 -0.8142 -0.4515
 4033SOL    HW223559   3.196   1.600   4.841 -1.0401  0.4068  0.2430
 4034SOL     OW23560   4.072   4.082   5.461  0.2265  0.4809 -0.2308
 4034SOL    HW123561   4.005   4.122   5.405  0.5807 -0.9095 -1.6471
 4034SOL    HW223562   4.089   4.156   5.520 -2.4019 -0.3487  1.5305
 4035SOL     OW23563   3.631   0.532   4.227 -0.6517 -0.6373  0.2467
 4035SOL    HW123564   3.724   0.525   4.205 -1.1012 -1.3102 -1.4237
 4035SOL    HW223565   3.578   0.534   4.148 -1.2804 -2.6718  0.6204
 4036SOL     OW23566   0.908   0.748  16.776 -0.2493 -0.1711 -0.2237
 4036SOL    HW123567   0.876   0.658  16.776 -0.5338 -0.0719 -0.6068
 4036SOL    HW223568   0.894   0.781  16.865 -2.0858 -1.1490 -0.1658
 4037SOL     OW23569   1.207   2.302   2.211 -0.0806 -0.2907 -0.4427
 4037SOL    HW123570   1.175   2.289   2.121  1.3400 -4.4955 -0.3427
 4037SOL    HW223571   1.188   2.215   2.246  1.3820  0.6163  2.5882
 4038SOL     OW23572   2.952   0.111   9.174  0.2247 -0.2444 -0.3589
 4038SOL    HW123573   2.983   0.060   9.249 -1.4016 -2.1423 -0.9584
 4038SOL    HW223574   2.860   0.128   9.195  0.1569  1.7230 -2.3085
 4039SOL     OW23575   0.380   0.935   6.448 -0.7635 -0.2280 -0.1083
 4039SOL    HW123576   0.458   0.979   6.416 -0.8236 -1.4968 -1.9638
 4039SOL    HW223577   0.402   0.924   6.541 -1.3963 -0.2835  0.0387
 4040SOL     OW23578   4.089   2.665  13.872 -0.4598  0.1440  0.2486
 4040SOL    HW123579   4.128   2.676  13.958  1.4082 -1.8481 -0.3450
 4040SOL    HW223580   4.158   2.701  13.816 -0.2483 -0.5691  0.0514
 4041SOL     OW23581   3.888   1.826   8.058 -0.2165  0.2099 -0.3506
 4041SOL    HW123582   3.972   1.834   8.014 -0.5583 -1.4788 -1.2983
 4041SOL    HW223583   3.853   1.915   8.066 -1.1814 -0.2602  0.8367
 4042SOL     OW23584   3.941   2.043   6.913  0.8344  0.1150  0.4707
 4042SOL    HW123585   3.880   2.117   6.911 -1.1212 -1.5029  0.3678
 4042SOL    HW223586   3.869   1.984   6.891  2.5036 -1.6677 -0.1791
 4043SOL     OW23587   2.477   1.260   2.572 -0.0327 -0.4218  0.5039
 4043SOL    HW123588   2.486   1.292   2.483 -1.0030 -0.9759  0.2124
 4043SOL    HW223589   2.391   1.296   2.589 -0.0166 -0.9833  1.7787
 4044SOL     OW23590   2.281   3.842  14.481 -0.6514  0.4371 -0.1279
 4044SOL    HW123591   2.199   3.854  14.433 -1.0954  0.8762  0.7501
 4044SOL    HW223592   2.278   3.895  14.561 -0.2158 -0.9488  0.8107
 4045SOL     OW23593   0.293   2.558  15.417 -0.3191  0.9954  0.6888
 4045SOL    HW123594   0.220   2.514  15.373  0.9062 -1.7505  1.4432
 4045SOL    HW223595   0.248   2.638  15.443 -1.2010  1.4215 -2.1572
 4046SOL     OW23596   4.462   3.704   6.667  0.1037 -0.3730 -0.0690
 4046SOL    HW123597   4.445   3.612   6.648  0.3722 -0.4416  0.0296
 4046SOL    HW223598   4.381   3.754   6.654  0.1110  0.9010  4.8118
 4047SOL     OW23599   3.245   1.120   5.538 -0.1778  0.5398 -0.0316
 4047SOL    HW123600   3.295   1.053   5.584 -0.4495  0.5502  0.2800
 4047SOL    HW223601   3.156   1.084   5.545 -0.0036  0.1676  0.2731
 4048SOL     OW23602   3.797   1.088  13.604  0.1467 -0.0752 -0.4498
 4048SOL    HW123603   3.858   1.143  13.555  2.9104 -0.6457  2.3151
 4048SOL    HW223604   3.859   1.028  13.644  0.1733 -0.1994 -0.6836
 4049SOL     OW23605   3.289   0.444   8.430  0.3557 -0.6492 -0.3831
 4049SOL    HW123606   3.366   0.397   8.398  0.3125 -0.6372 -0.5065
 4049SOL    HW223607   3.217   0.389   8.401 -1.2059  0.6441  1.0006
 4050SOL     OW23608   4.553   1.911  12.997 -0.1978 -0.6559 -0.0072
 4050SOL    HW123609   4.545   1.971  12.923  1.3564 -1.7675 -1.0752
 4050SOL    HW223610   4.516   1.968  13.064  0.4567  0.6233 -0.7242
 4051SOL     OW23611   1.009   3.934   8.945  0.2351 -0.4335 -0.2297
 4051SOL    HW123612   1.047   3.904   9.027  1.7435 -0.3165 -0.8824
 4051SOL    HW223613   1.075   3.994   8.909  1.0403 -0.0564  1.9005
 4052SOL     OW23614   1.165   0.583   6.761  0.4354  0.1364 -0.3359
 4052SOL    HW123615   1.161   0.521   6.834  1.4090 -1.5194 -1.6731
 4052SOL    HW223616   1.085   0.560   6.713 -0.2710  3.0287 -0.5332
 4053SOL     OW23617   3.585   0.053   4.606  0.4681 -0.4745  0.1141
 4053SOL    HW123618   3.495   0.030   4.626  0.2324  0.6369  0.3662
 4053SOL    HW223619   3.634   0.026   4.684  1.9822  0.5711 -0.4724
 4054SOL     OW23620   0.153   2.986   3.618  0.7442  0.0259  0.0829
 4054SOL    HW123621   0.200   3.063   3.650  0.7310  0.4883 -1.0067
 4054SOL    HW223622   0.101   2.971   3.697  0.2541  1.2225 -0.0201
 4055SOL     OW23623   1.371   0.442   6.635 -0.2650  0.1295 -0.8416
 4055SOL    HW123624   1.302   0.496   6.672  0.2954  0.5253 -0.3783
 4055SOL    HW223625   1.414   0.507   6.579  1.8633 -2.8784 -2.7730
 4056SOL     OW23626   4.193   3.331   8.515 -0.3139 -0.5980 -0.2649
 4056SOL    HW123627   4.185   3.400   8.581 -0.6978  0.2908 -1.2418
 4056SOL    HW223628   4.123   3.354   8.454 -0.1193 -2.4546 -1.2016
 4057SOL     OW23629   3.698   1.188   4.490  0.0039  0.7240  0.0849
 4057SOL    HW123630   3.648   1.111   4.518  0.7702  0.3871  0.5214
 4057SOL    HW223631   3.619   1.242   4.501 -1.4163 -1.4004  0.4838
 4058SOL     OW23632   4.707   3.044   7.651  0.0829 -0.1924 -0.1824
 4058SOL    HW123633   0.013   3.026   7.562 -1.0388  0.4970 -0.7289
 4058SOL    HW223634   4.613   3.025   7.644  0.1339 -0.4740 -0.0664
 4059SOL     OW23635   4.409   4.459   6.789  0.1494  1.4936  0.1345
 4059SOL    HW123636   4.356   4.432   6.714 -0.7931 -1.3676  1.8490
 4059SOL    HW223637   4.367   4.409   6.859  2.0787 -0.7679 -0.3594
 4060SOL     OW23638   4.641   2.076   3.572  0.1715  0.6106 -0.1254
 4060SOL    HW123639   4.546   2.067   3.563  0.1450  0.9128 -0.1494
 4060SOL    HW223640   4.661   2.027   3.492 -0.3216 -0.7638  0.5966
 4061SOL     OW23641   1.322   0.671   7.744  0.1083  0.4307 -0.4704
 4061SOL    HW123642   1.382   0.723   7.797 -0.5958  0.3657  0.3890
 4061SOL    HW223643   1.304   0.598   7.802 -2.1008  0.0825 -1.5694
 4062SOL     OW23644   2.477   2.513  13.665  0.6756 -0.4508  0.3691
 4062SOL    HW123645   2.534   2.441  13.638 -0.4923 -0.9952 -0.5694
 4062SOL    HW223646   2.527   2.590  13.635 -1.4186  1.8257  2.7251
 4063SOL     OW23647   4.354   2.070   6.638  0.2944 -0.1396  0.1434
 4063SOL    HW123648   4.308   2.021   6.570  1.2982  0.5868 -1.0818
 4063SOL    HW223649   4.357   2.159   6.603 -2.6413 -0.0515  0.1414
 4064SOL     OW23650   4.243   1.546   5.367  0.0947  0.3976 -0.0068
 4064SOL    HW123651   4.326   1.584   5.394  0.2755 -0.7542  1.0587
 4064SOL    HW223652   4.190   1.625   5.365  1.7651  1.4943 -0.8321
 4065SOL     OW23653   3.965   4.257   6.038  0.8866  0.2362 -0.1093
 4065SOL    HW123654   3.975   4.211   5.955  3.0703 -0.8290  0.7563
 4065SOL    HW223655   4.041   4.315   6.032  1.0324  0.2056  1.4119
 4066SOL     OW23656   4.461   0.096  13.145  0.6143 -0.3388 -0.0697
 4066SOL    HW123657   4.431   0.010  13.113 -1.1424  0.1428  0.3231
 4066SOL    HW223658   4.544   0.099  13.096 -0.0329 -0.8626 -1.2121
 4067SOL     OW23659   4.221   1.865   5.740 -0.0031 -0.0896 -0.1143
 4067SOL    HW123660   4.150   1.878   5.676  1.8684  2.2111 -1.6834
 4067SOL    HW223661   4.179   1.891   5.822  0.7779 -0.6677  0.4649
 4068SOL     OW23662   2.819   4.567   5.226  0.2001 -0.0460 -0.6838
 4068SOL    HW123663   2.731   4.531   5.211  0.7092 -1.6490  0.2299
 4068SOL    HW223664   2.797   4.660   5.221 -0.4493 -0.0330  2.1824
 4069SOL     OW23665   0.071   0.827   9.125 -0.1678  0.3027  0.5983
 4069SOL    HW123666   0.035   0.813   9.213 -1.2431 -0.4085  0.0481
 4069SOL    HW223667   0.060   0.922   9.125 -2.2737  0.0571 -0.5984
 4070SOL     OW23668   3.901   4.177   7.687 -0.0072  0.5236 -0.0658
 4070SOL    HW123669   3.956   4.238   7.640 -0.7625  0.4929 -1.0037
 4070SOL    HW223670   3.957   4.135   7.752  0.4360  1.8862  0.4092
 4071SOL     OW23671   0.798   4.352   7.569  0.1299  0.7942 -0.1359
 4071SOL    HW123672   0.773   4.268   7.530  0.2230  1.0283 -0.6964
 4071SOL    HW223673   0.894   4.353   7.570  0.1624 -1.3446  0.8687
 4072SOL     OW23674   3.663   0.421  12.869  0.1955 -0.6487  0.0292
 4072SOL    HW123675   3.647   0.365  12.945 -2.9820 -0.7263 -0.6821
 4072SOL    HW223676   3.601   0.383  12.806 -0.3724  0.0484  0.1765
 4073SOL     OW23677   3.474   3.514  10.482 -0.2376 -0.5509 -0.2989
 4073SOL    HW123678   3.441   3.508  10.571 -1.8059  2.2490 -0.7116
 4073SOL    HW223679   3.561   3.474  10.487 -0.6582 -1.6292 -1.5445
 4074SOL     OW23680   0.477   1.878  12.646  0.2173 -0.2100  0.2960
 4074SOL    HW123681   0.430   1.901  12.566  2.6126  0.2277 -0.9812
 4074SOL    HW223682   0.432   1.930  12.713  1.7023 -1.8177  2.5474
 4075SOL     OW23683   4.386   3.823   3.560 -0.4725 -0.6693 -0.5399
 4075SOL    HW123684   4.394   3.737   3.518  0.6624 -0.7181 -0.2156
 4075SOL    HW223685   4.320   3.864   3.504  0.5301  2.0533  0.2870
 4076SOL     OW23686   4.203   3.653   3.295 -0.0826 -0.1663 -0.6255
 4076SOL    HW123687   4.286   3.634   3.339 -0.6937 -1.5594 -0.0832
 4076SOL    HW223688   4.171   3.738   3.324 -0.4828 -0.2040 -0.9431
 4077SOL     OW23689   0.317   3.372   3.886  0.2545 -0.6557  0.6183
 4077SOL    HW123690   0.374   3.449   3.878 -2.2142  1.2369  1.1561
 4077SOL    HW223691   0.359   3.317   3.952  0.0699  0.0836  1.3442
 4078SOL     OW23692   0.432   1.356  14.706 -0.5057 -0.2761  0.0671
 4078SOL    HW123693   0.484   1.278  14.723  0.9865  1.0541  1.6642
 4078SOL    HW223694   0.448   1.407  14.786 -0.8916 -0.5258  0.3022
 4079SOL     OW23695   2.041   0.302   7.842 -0.2162 -0.3020 -0.2389
 4079SOL    HW123696   2.000   0.250   7.912  0.2801 -1.7885 -1.0586
 4079SOL    HW223697   1.975   0.280   7.777 -1.9724 -1.2255  1.8564
 4080SOL     OW23698   0.625   2.241  12.937 -0.3029  0.3066 -0.1325
 4080SOL    HW123699   0.576   2.275  13.011  0.3164 -0.1960  0.5016
 4080SOL    HW223700   0.675   2.319  12.914 -0.1684  0.8258  1.9295
 4081SOL     OW23701   2.877   3.873   3.889 -0.3145  0.1253 -0.3864
 4081SOL    HW123702   2.946   3.893   3.952 -1.0264 -3.0295  1.3552
 4081SOL    HW223703   2.809   3.896   3.952 -0.7612  0.3988 -0.9602
 4082SOL     OW23704   2.228   3.995   4.429  0.1697 -0.1836  0.0975
 4082SOL    HW123705   2.181   4.042   4.498 -3.5107 -2.1613 -1.0842
 4082SOL    HW223706   2.236   3.903   4.456  3.0382 -0.2490 -0.9525
 4083SOL     OW23707   0.990   2.492   2.887  0.4724 -0.5462 -0.0548
 4083SOL    HW123708   1.055   2.522   2.950  1.9948  1.8174 -2.7265
 4083SOL    HW223709   0.955   2.577   2.858  0.9520 -0.5289 -0.5716
 4084SOL     OW23710   0.003   1.558   6.036  0.0958  0.3100 -0.4491
 4084SOL    HW123711   0.032   1.500   5.965  0.3473  1.6199 -1.4137
 4084SOL    HW223712   4.645   1.516   6.054  1.9458 -3.2713 -0.2381
 4085SOL     OW23713   0.795   2.406  14.851 -0.5454 -0.6726 -0.4310
 4085SOL    HW123714   0.752   2.322  14.860 -2.0713  0.3610  1.8619
 4085SOL    HW223715   0.731   2.452  14.796  1.2005 -0.2623 -2.1506
 4086SOL     OW23716   3.218   3.021   5.453 -0.1117  0.0620  0.3413
 4086SOL    HW123717   3.215   3.113   5.479 -1.4379  0.3322 -0.7669
 4086SOL    HW223718   3.311   3.003   5.441 -0.4149 -1.0970 -0.2302
 4087SOL     OW23719   3.736   2.421   7.663 -0.1586  0.3856 -0.3256
 4087SOL    HW123720   3.812   2.363   7.670 -0.5485  0.0255  0.9893
 4087SOL    HW223721   3.778   2.504   7.684 -1.8464  0.9385  0.8869
 4088SOL     OW23722   1.933   3.868  13.962 -0.1428 -0.1729 -0.3649
 4088SOL    HW123723   2.015   3.868  14.013  1.0002 -1.9939 -2.2107
 4088SOL    HW223724   1.900   3.779  13.977 -2.6334  0.3779 -2.6428
 4089SOL     OW23725   1.269   2.564   3.379 -0.1580 -0.0347  0.5126
 4089SOL    HW123726   1.355   2.603   3.365 -0.9037  1.8624  1.2198
 4089SOL    HW223727   1.244   2.584   3.469 -0.0169 -1.3310  0.8464
 4090SOL     OW23728   1.465   4.060   9.460 -0.2409  0.0877  0.3402
 4090SOL    HW123729   1.402   3.990   9.480 -1.7386  0.9302 -1.3955
 4090SOL    HW223730   1.514   4.024   9.387 -1.8145 -0.0152 -0.6702
 4091SOL     OW23731   3.993   4.688   8.532  0.4316 -0.1056  0.2512
 4091SOL    HW123732   3.966   4.596   8.533 -2.8541  0.8809  1.6859
 4091SOL    HW223733   3.948   4.719   8.610  2.2187 -2.6026  2.2746
 4092SOL     OW23734   2.670   4.554  15.805  0.5593  0.2979  0.1467
 4092SOL    HW123735   2.614   4.620  15.765  0.7241 -0.1406 -0.8147
 4092SOL    HW223736   2.630   4.528  15.888  0.5081 -0.7463 -0.2094
 4093SOL     OW23737   3.674   3.999  13.428  0.2354 -0.1890  0.3219
 4093SOL    HW123738   3.757   4.045  13.415  0.1612 -0.3896 -0.9011
 4093SOL    HW223739   3.610   4.070  13.420  1.4136  0.6211 -1.8790
 4094SOL     OW23740   3.913   2.735   5.890  0.3154 -0.0851 -0.7960
 4094SOL    HW123741   3.977   2.692   5.833 -1.1187 -4.2041  0.7505
 4094SOL    HW223742   3.946   2.737   5.980  0.7723  0.0166 -0.9666
 4095SOL     OW23743   3.709   0.032   8.979  0.4888  1.0986 -0.3461
 4095SOL    HW123744   3.668   0.100   9.032  1.7978  2.2346 -0.8115
 4095SOL    HW223745   3.731   4.702   9.055 -0.1757  2.5651  0.9019
 4096SOL     OW23746   4.466   1.840   2.160 -0.0516  0.2894 -0.1239
 4096SOL    HW123747   4.519   1.762   2.142  1.3409  0.8085  1.7711
 4096SOL    HW223748   4.433   1.816   2.246  2.0718 -0.5159  0.4582
 4097SOL     OW23749   1.659   0.900  10.880 -0.5065 -0.0239  0.3308
 4097SOL    HW123750   1.655   0.994  10.862  1.3668  0.1070  0.6077
 4097SOL    HW223751   1.725   0.893  10.949  2.0388  0.4968 -2.0533
 4098SOL     OW23752   3.777   4.036   5.654 -0.0933  0.1895  0.3766
 4098SOL    HW123753   3.768   4.039   5.749  2.7943 -1.0464  0.6715
 4098SOL    HW223754   3.855   4.089   5.638  0.7759 -1.3928 -0.7259
 4099SOL     OW23755   2.225   2.705   7.907  0.2170  0.1645 -0.2590
 4099SOL    HW123756   2.279   2.637   7.947  1.4055  1.4461  0.3407
 4099SOL    HW223757   2.136   2.687   7.936  1.1914 -0.4479  2.3633
 4100SOL     OW23758   3.325   4.320   4.111 -0.0250 -0.1783 -0.4773
 4100SOL    HW123759   3.373   4.238   4.103  4.3702  2.5059 -1.8854
 4100SOL    HW223760   3.363   4.379   4.047  0.8958  0.4814  0.6661
 4101SOL     OW23761   2.715   0.731  11.749 -0.0901  0.4930  0.5894
 4101SOL    HW123762   2.722   0.680  11.830 -3.0989  0.0589  0.5799
 4101SOL    HW223763   2.693   0.655  11.696 -1.4080  0.5298  1.0718
 4102SOL     OW23764   2.425   4.198  17.171 -0.0655 -0.1564  0.1084
 4102SOL    HW123765   2.518   4.182  17.184 -0.4573 -2.4453 -0.0102
 4102SOL    HW223766   2.395   4.208  17.262 -0.1363 -2.1916  0.2920
 4103SOL     OW23767   3.566   0.753   7.663 -0.1585  0.3438  0.0414
 4103SOL    HW123768   3.561   0.740   7.568  1.7516  1.8079 -0.2479
 4103SOL    HW223769   3.560   0.848   7.671  0.2738  0.4015 -0.3311
 4104SOL     OW23770   0.744   4.365   4.522  0.0322  0.0807 -0.7714
 4104SOL    HW123771   0.663   4.340   4.478  0.0572 -1.5190  0.0894
 4104SOL    HW223772   0.752   4.458   4.503 -1.1658 -0.1295 -2.2711
 4105SOL     OW23773   4.270   4.007  12.036 -0.1796 -0.2306  0.2335
 4105SOL    HW123774   4.341   4.037  11.980 -0.3231  1.3988  0.9447
 4105SOL    HW223775   4.214   3.966  11.970 -0.6117 -2.4426  1.9187
 4106SOL     OW23776   4.328   1.388   9.001  0.1818 -0.1574  0.0035
 4106SOL    HW123777   4.263   1.453   8.976  0.7830 -0.0218 -1.2171
 4106SOL    HW223778   4.379   1.437   9.065  0.2747 -1.7140  1.1145
 4107SOL     OW23779   0.795   4.248  16.421 -0.0374 -0.1309  0.1371
 4107SOL    HW123780   0.885   4.216  16.423 -0.9441 -2.6944 -0.7005
 4107SOL    HW223781   0.741   4.178  16.456 -0.5464 -0.2920 -0.9781
 4108SOL     OW23782   4.613   3.598   1.537  0.0465 -0.5390  0.2170
 4108SOL    HW123783   4.631   3.659   1.465  1.2401 -3.4096 -1.9386
 4108SOL    HW223784   4.610   3.661   1.609  2.7339 -0.5504  0.3329
 4109SOL     OW23785   0.238   0.075   6.677 -0.2510 -0.5421  0.1494
 4109SOL    HW123786   0.261   0.159   6.717 -0.4121 -0.9148  1.0291
 4109SOL    HW223787   0.152   0.090   6.639 -1.1427 -0.4409  2.1698
 4110SOL     OW23788   2.419   4.507   4.108 -1.2986  0.5550  0.5259
 4110SOL    HW123789   2.508   4.533   4.084 -0.8391 -0.8191  0.7542
 4110SOL    HW223790   2.375   4.521   4.024 -0.4502  0.1466  0.0220
 4111SOL     OW23791   0.734   2.738  10.702  0.1779  0.1549  0.1952
 4111SOL    HW123792   0.695   2.825  10.691  1.6950  0.9529  1.1489
 4111SOL    HW223793   0.810   2.773  10.747 -0.0287  2.6658 -1.4357
 4112SOL     OW23794   1.433   0.819   3.184 -0.1364 -0.0603 -0.0019
 4112SOL    HW123795   1.463   0.908   3.201 -1.9523  0.7673 -1.1734
 4112SOL    HW223796   1.394   0.820   3.097 -1.1043  0.6885  0.4286
 4113SOL     OW23797   2.919   2.274   3.173 -0.0981 -0.1798  0.8386
 4113SOL    HW123798   2.946   2.197   3.122  1.5608  1.4657 -0.7458
 4113SOL    HW223799   2.968   2.253   3.252 -1.8905 -2.4863  1.3445
 4114SOL     OW23800   1.594   3.240   9.445  0.0712 -0.2177  0.6238
 4114SOL    HW123801   1.682   3.203   9.438  0.7377  2.1582 -3.3578
 4114SOL    HW223802   1.543   3.161   9.431  0.4996 -0.0619 -1.7404
 4115SOL     OW23803   2.013   2.680   4.283  0.2153  0.1744 -0.1857
 4115SOL    HW123804   1.921   2.687   4.257  0.2325 -2.4355 -0.9724
 4115SOL    HW223805   2.026   2.772   4.303 -1.5106  0.4642 -0.4247
 4116SOL     OW23806   0.769   1.632  12.140 -0.1631 -0.1870 -0.4199
 4116SOL    HW123807   0.702   1.683  12.186 -0.9000 -0.3314 -1.3270
 4116SOL    HW223808   0.724   1.607  12.059 -1.5379  1.6706 -0.2186
 4117SOL     OW23809   0.070   0.641  12.715  0.0232  0.3317  0.6524
 4117SOL    HW123810   0.007   0.583  12.672  0.5149 -0.6205  1.2027
 4117SOL    HW223811   0.145   0.582  12.728  0.0900 -0.1430 -1.9188
 4118SOL     OW23812   1.150   0.769   3.461  0.8854  0.3273 -0.3576
 4118SOL    HW123813   1.173   0.698   3.400  2.2801 -1.6580  2.4902
 4118SOL    HW223814   1.229   0.760   3.514  0.7796 -0.4761 -0.3394
 4119SOL     OW23815   3.090   4.174   0.112 -0.5338 -0.7751 -0.0961
 4119SOL    HW123816   3.143   4.093   0.117  1.7214  0.7467  0.6718
 4119SOL    HW223817   3.159   4.235   0.140 -2.2899  0.5901  1.2490
 4120SOL     OW23818   1.699   3.196   2.842  0.1100  0.2818 -0.3631
 4120SOL    HW123819   1.666   3.107   2.827  1.8298 -0.5245  0.7210
 4120SOL    HW223820   1.776   3.203   2.786  1.2628  2.4664  1.5191
 4121SOL     OW23821   0.513   0.381   6.779  0.7223 -0.1363  0.0243
 4121SOL    HW123822   0.577   0.317   6.811  1.2793  0.5122  0.1902
 4121SOL    HW223823   0.556   0.411   6.699  0.6495 -0.0147  0.0318
 4122SOL     OW23824   1.664   0.325   6.900  0.2468  0.6499 -0.1061
 4122SOL    HW123825   1.593   0.300   6.842  0.0244  1.1815 -0.0655
 4122SOL    HW223826   1.638   0.417   6.908  0.9232  0.8491 -0.1639
 4123SOL     OW23827   1.652   2.751   1.792 -0.3134 -0.1662 -0.1813
 4123SOL    HW123828   1.631   2.844   1.799 -1.1201 -0.2559 -1.4137
 4123SOL    HW223829   1.578   2.730   1.736  1.8673 -1.7708 -2.4475
 4124SOL     OW23830   3.482   1.556  11.400 -0.1022  0.3797 -0.3588
 4124SOL    HW123831   3.483   1.464  11.374 -0.3104  0.6004 -1.1638
 4124SOL    HW223832   3.409   1.548  11.462 -0.6108  1.0590 -0.8626
 4125SOL     OW23833   1.736   4.045  16.642 -0.7687 -0.4637 -0.0643
 4125SOL    HW123834   1.779   4.123  16.676  0.0002 -1.3053  0.8883
 4125SOL    HW223835   1.779   4.045  16.556 -1.8848 -1.8052 -0.6303
 4126SOL     OW23836   0.226   0.515   6.555  0.2094  0.5128 -0.8427
 4126SOL    HW123837   0.179   0.594   6.531  0.5961  0.5704 -1.3870
 4126SOL    HW223838   0.299   0.518   6.494 -0.1964 -0.5138 -1.3800
 4127SOL     OW23839   2.302   4.095   5.860 -0.0117  0.0775 -0.5170
 4127SOL    HW123840   2.379   4.038   5.867  0.3659  0.8384  1.2582
 4127SOL    HW223841   2.302   4.156   5.933 -0.1601  0.1342 -0.5637
 4128SOL     OW23842   0.066   3.945   9.027 -0.7492 -0.4512 -0.7795
 4128SOL    HW123843   0.027   3.898   8.953  0.6140  0.5728 -2.1409
 4128SOL    HW223844   4.725   4.013   9.032  1.2734  1.4688 -0.0921
 4129SOL     OW23845   2.005   1.064  11.832  0.0860 -0.5232 -0.4357
 4129SOL    HW123846   1.965   1.151  11.833 -1.0048 -1.0399  0.3925
 4129SOL    HW223847   2.076   1.087  11.772  1.4416 -3.6893 -0.0169
 4130SOL     OW23848   1.446   4.052   1.845  0.2448 -0.4679  0.1584
 4130SOL    HW123849   1.540   4.039   1.837  0.3710  2.4524 -2.9400
 4130SOL    HW223850   1.433   4.140   1.810  3.1874 -0.4138 -0.7763
 4131SOL     OW23851   1.432   3.403   5.660  0.3957 -0.0644  0.2154
 4131SOL    HW123852   1.345   3.437   5.639  0.0667 -1.5394 -0.8682
 4131SOL    HW223853   1.437   3.409   5.755  1.6832 -0.4727  0.1700
 4132SOL     OW23854   2.059   0.038   2.594 -0.6702 -0.2314  0.0998
 4132SOL    HW123855   2.059   0.130   2.622  0.6044 -0.3944  0.6290
 4132SOL    HW223856   2.047   0.045   2.499  0.8265 -0.3027 -0.0823
 4133SOL     OW23857   2.361   3.430   2.654 -0.2490  0.2353  0.1835
 4133SOL    HW123858   2.412   3.488   2.596  1.4526  0.0897  1.5333
 4133SOL    HW223859   2.319   3.498   2.706 -0.9735 -0.6545  0.7565
 4134SOL     OW23860   3.253   2.880  10.054 -0.0117 -0.8079  0.4517
 4134SOL    HW123861   3.178   2.857   9.999  1.9952 -0.9661 -2.2199
 4134SOL    HW223862   3.217   2.930  10.128  0.5914 -0.2039  0.3397
 4135SOL     OW23863   0.049   2.302  14.611  0.4678  0.2473  0.2188
 4135SOL    HW123864   4.685   2.278  14.636  0.4557  0.5431  0.4611
 4135SOL    HW223865   0.031   2.362  14.539 -2.0241 -1.3706 -0.5195
 4136SOL     OW23866   1.946   1.176  11.495  0.2725 -0.2788  0.1511
 4136SOL    HW123867   2.018   1.123  11.530  1.9325  0.5171 -2.1348
 4136SOL    HW223868   1.981   1.265  11.496  0.0105 -0.1752 -0.3059
 4137SOL     OW23869   2.878   2.802   5.773  0.2051 -0.4530 -0.7279
 4137SOL    HW123870   2.826   2.745   5.716 -1.7245 -2.1236  2.6640
 4137SOL    HW223871   2.952   2.825   5.718  2.1395 -0.8093  1.7252
 4138SOL     OW23872   3.846   4.327   2.958 -0.6341  0.1216  0.2580
 4138SOL    HW123873   3.788   4.391   2.916 -1.0372 -0.1261  0.4352
 4138SOL    HW223874   3.853   4.349   3.051 -0.1272 -2.1663  0.7775
 4139SOL     OW23875   4.194   2.844   7.687  0.1709  0.0190 -0.6466
 4139SOL    HW123876   4.239   2.790   7.752  0.8334  1.7408  0.3280
 4139SOL    HW223877   4.141   2.779   7.641 -0.0107  0.5138 -1.1327
 4140SOL     OW23878   1.092   2.734   6.374  0.4630 -0.1681  0.5156
 4140SOL    HW123879   1.071   2.818   6.333  0.6747 -0.5618 -0.3984
 4140SOL    HW223880   1.025   2.725   6.441 -1.6713  1.6594 -1.3456
 4141SOL     OW23881   1.309   1.377  17.479 -0.2083  0.0835 -0.3953
 4141SOL    HW123882   1.359   1.444  17.527  0.5612 -0.9100  0.1987
 4141SOL    HW223883   1.221   1.413  17.470  0.5406  2.1763  0.6799
 4142SOL     OW23884   4.428   4.276  11.287  0.0682 -0.3877  0.5570
 4142SOL    HW123885   4.343   4.289  11.244  0.4222 -0.1058 -0.0617
 4142SOL    HW223886   4.485   4.321  11.224 -0.0448 -0.2426  0.5566
 4143SOL     OW23887   2.327   3.348   6.860  0.1722  0.1711  0.1127
 4143SOL    HW123888   2.408   3.305   6.885 -0.0504  2.1517  4.1097
 4143SOL    HW223889   2.350   3.425   6.808  0.8926 -0.6358 -0.7782
 4144SOL     OW23890   2.827   4.170  13.529 -0.9204  0.9604 -0.6462
 4144SOL    HW123891   2.805   4.197  13.439 -1.7575  1.4742 -0.2856
 4144SOL    HW223892   2.920   4.148  13.528 -0.5903  2.2368  1.9858
 4145SOL     OW23893   3.011   4.275   8.449  0.0751  0.4581 -0.2247
 4145SOL    HW123894   3.050   4.193   8.419  1.3221  1.0003 -0.0734
 4145SOL    HW223895   2.943   4.252   8.512  1.5009  0.0322  1.1469
 4146SOL     OW23896   0.689   1.969  12.821  0.3754  0.2087  0.2837
 4146SOL    HW123897   0.666   2.057  12.849 -0.0121  0.4751 -0.8857
 4146SOL    HW223898   0.615   1.943  12.766 -0.3327  0.6851  1.0134
 4147SOL     OW23899   4.458   0.816   6.462  0.3427 -0.5582  0.8658
 4147SOL    HW123900   4.551   0.812   6.442 -0.0065  0.5798 -0.9059
 4147SOL    HW223901   4.454   0.838   6.555 -0.8972 -0.3041  0.7553
 4148SOL     OW23902   0.113   2.642   6.235  0.1902  0.6550  0.1844
 4148SOL    HW123903   0.040   2.583   6.251  1.0706 -1.1683 -2.4567
 4148SOL    HW223904   0.165   2.630   6.315 -1.4371 -0.6811  1.0339
 4149SOL     OW23905   1.455   2.579  15.558 -0.2009  0.4299  0.5474
 4149SOL    HW123906   1.427   2.611  15.644 -0.9544  0.7913  0.1680
 4149SOL    HW223907   1.439   2.484  15.561 -3.1497  0.8427 -1.7383
 4150SOL     OW23908   0.854   3.598   5.293  0.0823 -0.3147 -0.3978
 4150SOL    HW123909   0.811   3.605   5.378  1.7666 -1.2391  0.5308
 4150SOL    HW223910   0.807   3.523   5.257 -1.2229 -0.4233  1.5497
 4151SOL     OW23911   0.467   0.313   1.854 -0.4450  0.0517  0.0524
 4151SOL    HW123912   0.523   0.270   1.918  1.6343 -0.0167 -1.7791
 4151SOL    HW223913   0.504   0.401   1.845  0.0988 -0.0006  1.8389
 4152SOL     OW23914   0.955   0.474   3.486  0.3174  0.0687 -0.3349
 4152SOL    HW123915   0.932   0.403   3.426  0.6083 -0.0943 -0.2546
 4152SOL    HW223916   0.977   0.545   3.425 -1.0371  0.9177  0.1799
 4153SOL     OW23917   4.069   0.063   9.116  0.3578 -0.5501  0.6636
 4153SOL    HW123918   4.155   0.022   9.111  2.2130  3.4326 -0.3972
 4153SOL    HW223919   4.024   0.013   9.184 -1.3256  0.6480  0.4406
 4154SOL     OW23920   1.512   1.462  15.037  0.2622 -0.2215  0.4172
 4154SOL    HW123921   1.554   1.399  15.096 -0.8527 -0.6719  0.7268
 4154SOL    HW223922   1.560   1.538  15.069 -1.3922  0.7780  0.5458
 4155SOL     OW23923   1.216   3.168   6.928 -0.9792 -0.4250  0.2513
 4155SOL    HW123924   1.155   3.168   6.854  0.3727  1.1636 -0.8479
 4155SOL    HW223925   1.172   3.126   7.002  0.0373 -0.2117  0.9787
 4156SOL     OW23926   3.008   0.964  16.089 -0.1140  0.2714  0.3547
 4156SOL    HW123927   3.028   0.984  16.181 -1.6999 -1.0445  0.9786
 4156SOL    HW223928   2.913   0.950  16.096  0.2352 -3.4622 -2.8389
 4157SOL     OW23929   0.470   2.397   2.756 -0.3182  0.4353  0.0795
 4157SOL    HW123930   0.550   2.351   2.778  0.4151  0.7056 -2.0096
 4157SOL    HW223931   0.479   2.428   2.665 -1.5888  0.4559 -0.0330
 4158SOL     OW23932   0.278   4.345   6.539 -0.6930  0.1085  0.5817
 4158SOL    HW123933   0.221   4.304   6.605 -0.9590 -1.0984 -0.3930
 4158SOL    HW223934   0.239   4.430   6.519 -0.1469  0.9375  2.9668
 4159SOL     OW23935   2.932   0.396   9.124  0.4767  0.1970  0.1594
 4159SOL    HW123936   2.860   0.354   9.076  0.8080 -1.1664  0.8449
 4159SOL    HW223937   2.938   0.332   9.196  1.4627 -0.1159 -0.2130
 4160SOL     OW23938   4.300   0.093   3.408 -0.4001 -0.4049  0.7300
 4160SOL    HW123939   4.220   0.111   3.357  0.2384 -0.3275 -0.2404
 4160SOL    HW223940   4.357   0.067   3.336 -0.7903 -1.4115  0.7941
 4161SOL     OW23941   3.023   3.294   2.127  0.3853 -0.1901 -0.1224
 4161SOL    HW123942   2.943   3.272   2.078 -1.2932 -0.8360  2.8618
 4161SOL    HW223943   3.094   3.253   2.078 -0.0631  0.7786 -1.6122
 4162SOL     OW23944   2.764   4.046   3.325 -0.3355 -0.2901  0.5613
 4162SOL    HW123945   2.768   4.052   3.229 -1.8433 -0.9688  0.4621
 4162SOL    HW223946   2.805   4.129   3.350  1.2128 -1.5858  2.3044
 4163SOL     OW23947   0.203   0.484  17.437 -0.7197  0.1634  0.0498
 4163SOL    HW123948   0.243   0.484  17.350  1.4542 -0.0660  1.0441
 4163SOL    HW223949   0.187   0.578  17.451  0.5881  0.7116 -2.1050
 4164SOL     OW23950   3.925   2.993  15.556 -0.0156 -0.0676  0.2901
 4164SOL    HW123951   3.929   3.079  15.514  0.2153  0.4622  1.3779
 4164SOL    HW223952   3.839   2.962  15.527  1.2326 -0.9426 -2.4873
 4165SOL     OW23953   3.308   4.662   1.367 -0.6837  0.3656 -0.6458
 4165SOL    HW123954   3.268   4.590   1.416  2.7243  0.2915  2.0884
 4165SOL    HW223955   3.401   4.638   1.377 -0.2083  1.6763 -1.9612
 4166SOL     OW23956   0.418   0.468   3.754  0.1434  0.1148  0.0790
 4166SOL    HW123957   0.391   0.554   3.787 -0.0298 -0.4224  1.3427
 4166SOL    HW223958   0.511   0.492   3.746  0.3064 -0.7206 -0.5291
 4167SOL     OW23959   2.039   0.686   4.124 -0.2710 -0.1802  0.2455
 4167SOL    HW123960   2.065   0.747   4.193 -0.3739  0.0435  0.0861
 4167SOL    HW223961   1.968   0.742   4.093 -0.5561  0.7064  2.4561
 4168SOL     OW23962   4.320   1.116   0.894 -0.1278  0.0846  0.2967
 4168SOL    HW123963   4.258   1.043   0.905  0.2334 -0.0385  1.4932
 4168SOL    HW223964   4.300   1.169   0.971 -1.2439  1.4717 -0.9621
 4169SOL     OW23965   2.923   2.368   7.877 -0.4055  0.4425  0.2189
 4169SOL    HW123966   2.866   2.322   7.938 -1.3434  1.2342 -0.0678
 4169SOL    HW223967   2.872   2.445   7.852 -1.7011 -1.0762 -1.8532
 4170SOL     OW23968   1.178   3.733  15.515  0.1327 -0.3534 -0.2545
 4170SOL    HW123969   1.099   3.739  15.569  0.9571 -0.6178  0.9773
 4170SOL    HW223970   1.136   3.718  15.431 -0.8619  0.8415  0.0289
 4171SOL     OW23971   2.610   3.106  16.891  0.2840 -0.0358 -0.4157
 4171SOL    HW123972   2.601   3.014  16.864  0.5917 -0.2524  0.2299
 4171SOL    HW223973   2.644   3.145  16.810  2.1705  1.0146  0.8741
 4172SOL     OW23974   0.654   4.723   4.227  0.0175 -0.3710  0.1970
 4172SOL    HW123975   0.635   0.069   4.166 -0.1789  0.3592  1.1034
 4172SOL    HW223976   0.698   4.667   4.163 -1.5671  0.3073 -1.5055
 4173SOL     OW23977   0.591   2.301   1.712  0.2645  1.1393 -0.1839
 4173SOL    HW123978   0.528   2.277   1.644  1.5503 -0.2040 -0.9025
 4173SOL    HW223979   0.552   2.386   1.735 -0.4463  0.5085  0.9449
 4174SOL     OW23980   3.977   3.643   2.341 -0.3438  0.4233 -0.1079
 4174SOL    HW123981   3.944   3.555   2.360 -0.9027  0.8267  0.7935
 4174SOL    HW223982   3.901   3.700   2.332 -0.5770  0.3190  1.1189
 4175SOL     OW23983   2.729   0.557   4.187 -0.0971 -0.3506 -0.3536
 4175SOL    HW123984   2.644   0.529   4.222 -0.6254  1.1440 -0.4637
 4175SOL    HW223985   2.754   0.476   4.142 -2.1205 -1.3549  0.3205
 4176SOL     OW23986   4.457   2.419   3.099  0.5368 -0.1429 -0.2489
 4176SOL    HW123987   4.364   2.400   3.110  0.7761 -1.6867 -0.8521
 4176SOL    HW223988   4.453   2.411   3.004 -0.0252 -0.7106 -0.1738
 4177SOL     OW23989   1.224   2.055   8.951 -0.5266  0.4152 -0.5871
 4177SOL    HW123990   1.314   2.055   8.982 -0.1750  0.0745 -1.6092
 4177SOL    HW223991   1.188   2.094   9.030 -1.4092 -1.5957  0.0137
 4178SOL     OW23992   0.223   4.345   8.717  0.5184  0.3969 -0.0653
 4178SOL    HW123993   0.294   4.386   8.667  1.6614  1.2951  2.2448
 4178SOL    HW223994   0.275   4.271   8.749  0.5499 -0.2572 -1.6513
 4179SOL     OW23995   0.752   4.179   8.102  0.2892 -0.0431 -0.3216
 4179SOL    HW123996   0.715   4.245   8.161 -1.1135 -1.0092 -0.1166
 4179SOL    HW223997   0.823   4.229   8.063 -0.2624  1.4364  0.5825
 4180SOL     OW23998   4.438   0.902   1.367 -0.5127 -0.9139 -0.7293
 4180SOL    HW123999   4.431   0.992   1.336  0.2289 -0.5489  0.1873
 4180SOL    HW224000   4.347   0.888   1.393 -0.2763 -1.6293 -0.2770
 4181SOL     OW24001   4.049   2.287  11.543  0.4236  0.0468  0.0777
 4181SOL    HW124002   4.054   2.215  11.481 -0.9221  0.1288 -0.1335
 4181SOL    HW224003   4.121   2.343  11.514 -0.6052  0.9274 -0.7722
 4182SOL     OW24004   3.870   4.520   8.162 -0.0048  0.0605  0.4363
 4182SOL    HW124005   3.792   4.473   8.132  1.9532 -2.9507  0.0282
 4182SOL    HW224006   3.838   4.606   8.189 -0.5723  0.8117 -2.6403
 4183SOL     OW24007   0.528   3.079   2.126 -0.5973  0.0403  0.3321
 4183SOL    HW124008   0.566   3.148   2.072  0.2960 -0.7141 -0.0017
 4183SOL    HW224009   0.488   3.023   2.060 -1.9328  2.1947 -0.6718
 4184SOL     OW24010   4.570   0.985  17.664 -0.1492 -0.4026  0.2206
 4184SOL    HW124011   4.509   1.057  17.677 -1.1440 -1.0961 -0.6596
 4184SOL    HW224012   4.627   0.985   0.038 -1.7949  2.0736  1.4197
 4185SOL     OW24013   0.053   2.103  16.899  0.3418 -0.0037 -0.0437
 4185SOL    HW124014   4.715   2.032  16.913  0.9779 -0.6568 -0.4185
 4185SOL    HW224015   0.026   2.174  16.957  2.8365  0.0351  1.0553
 4186SOL     OW24016   2.447   1.936  17.012  1.4379 -0.0027  0.3163
 4186SOL    HW124017   2.515   1.986  17.057  1.8660 -0.6135  0.3455
 4186SOL    HW224018   2.492   1.856  16.986  1.7597  0.0583  0.6684
 4187SOL     OW24019   0.229   2.297   4.171 -0.1883  0.4863  0.2062
 4187SOL    HW124020   0.172   2.314   4.246 -1.3437 -3.6720  0.2731
 4187SOL    HW224021   0.169   2.251   4.112 -0.8297 -0.1917  1.3966
 4188SOL     OW24022   1.062   1.046  10.181 -0.2905  0.0116  0.0099
 4188SOL    HW124023   1.081   1.140  10.172 -0.4470  0.3306  3.0120
 4188SOL    HW224024   0.979   1.057  10.227 -0.9072 -2.5261 -0.4964
 4189SOL     OW24025   1.093   3.220   8.295  0.2329  0.3160 -0.3276
 4189SOL    HW124026   1.043   3.292   8.257  2.1393  1.4101 -0.7610
 4189SOL    HW224027   1.169   3.213   8.237  0.0067  3.5012 -1.0151
 4190SOL     OW24028   0.398   1.597  16.000  0.6367  0.0945  0.2042
 4190SOL    HW124029   0.491   1.613  15.979  1.1627 -3.4489 -0.1636
 4190SOL    HW224030   0.401   1.505  16.027 -1.4063 -1.2687 -4.2564
 4191SOL     OW24031   1.421   1.672   2.850 -0.4334 -0.2041  0.0737
 4191SOL    HW124032   1.422   1.733   2.776  0.0225  0.0481  0.2855
 4191SOL    HW224033   1.477   1.727   2.905  2.6169 -3.4018  0.1725
 4192SOL     OW24034   0.491   2.442   5.353 -0.7498 -0.0112  0.1312
 4192SOL    HW124035   0.417   2.500   5.368 -0.7536  0.4724 -1.7689
 4192SOL    HW224036   0.473   2.381   5.281  1.2279 -0.6532  0.1812
 4193SOL     OW24037   3.883   1.809   3.694 -0.3108 -0.6178  0.1527
 4193SOL    HW124038   3.888   1.823   3.599  0.7829  2.3189  0.6440
 4193SOL    HW224039   3.977   1.809   3.710 -0.0062  0.2871 -1.6298
 4194SOL     OW24040   1.842   1.379   0.849  0.0725 -0.3047  0.0511
 4194SOL    HW124041   1.771   1.410   0.905 -0.5764  0.4952 -1.2192
 4194SOL    HW224042   1.828   1.435   0.772 -0.3902  1.0368  1.1236
 4195SOL     OW24043   4.293   2.278   7.375  0.0137  0.5145  0.5793
 4195SOL    HW124044   4.321   2.189   7.394 -0.9367  0.0273 -0.3221
 4195SOL    HW224045   4.360   2.307   7.313  0.0970  1.7930  1.2782
 4196SOL     OW24046   2.046   3.936   2.925  0.0266 -0.6622 -0.4245
 4196SOL    HW124047   2.121   3.957   2.981  1.0749  0.7293 -2.3480
 4196SOL    HW224048   2.011   4.025   2.916 -1.1428 -1.1206 -0.4151
 4197SOL     OW24049   1.444   4.721   3.209  0.1244  0.3016  0.2970
 4197SOL    HW124050   1.464   0.003   3.116  0.6344  2.3577  0.5947
 4197SOL    HW224051   1.534   0.011   3.236  0.5387  2.2350 -2.2290
 4198SOL     OW24052   3.243   3.714  15.301 -0.3212 -0.3527  0.8852
 4198SOL    HW124053   3.176   3.724  15.368  0.9616 -0.0526  2.1029
 4198SOL    HW224054   3.239   3.802  15.265 -1.5267 -0.5768  0.4475
 4199SOL     OW24055   1.328   2.654   7.153 -0.0765  0.0227  0.1699
 4199SOL    HW124056   1.324   2.659   7.248  1.3213 -0.1048  0.2403
 4199SOL    HW224057   1.258   2.714   7.127 -0.8540 -1.4766 -1.1834
 4200SOL     OW24058   3.154   3.815   9.346 -0.0304 -0.7694 -0.0568
 4200SOL    HW124059   3.182   3.899   9.309 -0.4968  0.0545  1.4681
 4200SOL    HW224060   3.150   3.836   9.439  0.6596 -1.3675  0.1111
 4201SOL     OW24061   0.304   1.624   2.813  0.0657 -0.4572  0.0164
 4201SOL    HW124062   0.247   1.686   2.857  1.7534 -0.0564  1.6336
 4201SOL    HW224063   0.301   1.550   2.873 -1.4592 -0.9004 -0.6016
 4202SOL     OW24064   1.052   2.020   0.699 -0.0956  0.0392 -0.1833
 4202SOL    HW124065   0.997   2.073   0.641 -2.0251 -2.0562 -0.2514
 4202SOL    HW224066   0.997   2.018   0.778  2.9451 -2.0337  1.9167
 4203SOL     OW24067   3.636   3.535   7.386  0.7368 -0.1731  0.4030
 4203SOL    HW124068   3.555   3.562   7.342  0.5956  1.0972  1.4519
 4203SOL    HW224069   3.618   3.572   7.473  0.7864 -0.0712  0.3690
 4204SOL     OW24070   3.146   0.262   7.784  0.1958 -0.0340 -0.1674
 4204SOL    HW124071   3.123   0.177   7.748 -0.2076 -0.5634  1.3424
 4204SOL    HW224072   3.074   0.273   7.847 -0.7720 -1.2081 -1.0743
 4205SOL     OW24073   4.283   3.752   5.375  0.1357 -0.6476 -0.3774
 4205SOL    HW124074   4.198   3.748   5.418  0.1479 -0.6581 -0.3539
 4205SOL    HW224075   4.297   3.658   5.361  1.5054 -0.0920 -2.7559
 4206SOL     OW24076   0.047   2.584   4.556  0.1397  0.1109 -0.1457
 4206SOL    HW124077   0.038   2.674   4.588 -2.6711 -0.4133  0.5469
 4206SOL    HW224078   0.102   2.603   4.480 -1.4307  0.2842 -1.2511
 4207SOL     OW24079   2.660   4.314   8.203  0.2151 -0.3117  0.1843
 4207SOL    HW124080   2.615   4.338   8.285 -1.9020  0.0122 -1.0648
 4207SOL    HW224081   2.670   4.219   8.211  3.5134  0.1940  2.1374
 4208SOL     OW24082   2.212   2.843  11.443  0.2635 -0.1113  0.4202
 4208SOL    HW124083   2.281   2.831  11.378 -0.0608  0.7872 -0.0897
 4208SOL    HW224084   2.200   2.933  11.412  0.3248 -0.1014  0.4242
 4209SOL     OW24085   3.339   0.010   1.696 -0.0940 -0.5200  0.6492
 4209SOL    HW124086   3.419   0.001   1.643 -0.9949 -0.1372 -0.7669
 4209SOL    HW224087   3.289   4.666   1.654  2.0749 -1.0014 -1.1527
 4210SOL     OW24088   2.258   3.827   1.787  0.4409  0.0764 -0.5916
 4210SOL    HW124089   2.166   3.815   1.765  0.4921 -2.3072  0.5456
 4210SOL    HW224090   2.278   3.734   1.775  1.5741  0.2348  0.0712
 4211SOL     OW24091   0.315   2.042   9.520 -0.1551  0.0360  0.3526
 4211SOL    HW124092   0.252   1.970   9.514  0.0111 -0.0579 -0.2899
 4211SOL    HW224093   0.395   1.996   9.494 -0.8553  0.1525 -2.0142
 4212SOL     OW24094   3.179   2.309   2.288  0.1314  0.4631  1.1051
 4212SOL    HW124095   3.211   2.264   2.209  0.6542  2.6346  0.0919
 4212SOL    HW224096   3.172   2.397   2.253 -0.9337  0.3551  1.0335
 4213SOL     OW24097   2.889   3.212   7.633  0.6443 -0.2140  0.1888
 4213SOL    HW124098   2.851   3.293   7.667  1.1047 -0.7846  2.0769
 4213SOL    HW224099   2.940   3.242   7.558  1.0783 -0.6475  0.3133
 4214SOL     OW24100   2.611   3.482   7.567 -0.0839 -0.1162 -1.0213
 4214SOL    HW124101   2.574   3.534   7.495  0.7954  0.4434 -1.0720
 4214SOL    HW224102   2.538   3.448   7.619  0.2060 -0.1397 -0.6367
 4215SOL     OW24103   0.815   1.010   6.688 -0.1382 -0.1322 -0.1923
 4215SOL    HW124104   0.894   1.042   6.645  0.8327  0.0306  1.7067
 4215SOL    HW224105   0.783   1.090   6.729 -0.4022 -1.1728  1.6783
 4216SOL     OW24106   2.247   0.053  10.090 -0.1161 -0.6272 -0.6500
 4216SOL    HW124107   2.322   0.090  10.043 -0.4806  0.5681 -0.2802
 4216SOL    HW224108   2.234   0.135  10.137  0.6793 -0.9499  0.1433
 4217SOL     OW24109   2.274   3.607   5.436 -0.4963  0.2845 -0.4141
 4217SOL    HW124110   2.352   3.557   5.460  0.1233  0.2548 -2.5329
 4217SOL    HW224111   2.232   3.620   5.522 -0.3960 -1.8943 -0.0484
 4218SOL     OW24112   3.030   2.759   3.391 -0.3120  0.1356  0.5744
 4218SOL    HW124113   2.936   2.741   3.395 -0.3033  0.0703  0.4884
 4218SOL    HW224114   3.031   2.827   3.323 -0.4122 -0.8156 -0.3782
 4219SOL     OW24115   0.388   0.309   8.523  0.0446 -0.1152 -0.2413
 4219SOL    HW124116   0.464   0.362   8.497  0.1427  0.3751  1.0394
 4219SOL    HW224117   0.318   0.374   8.512 -0.4079 -0.7891 -1.3066
 4220SOL     OW24118   4.395   3.129  16.975  0.2657  0.1829 -0.0662
 4220SOL    HW124119   4.330   3.060  16.988 -0.1850  0.3015 -1.6113
 4220SOL    HW224120   4.394   3.166  17.063 -4.2615  0.0759 -0.0881
 4221SOL     OW24121   1.701   2.491  15.262  0.0863 -0.5415  0.4912
 4221SOL    HW124122   1.606   2.492  15.271  0.4017 -0.0360  4.0645
 4221SOL    HW224123   1.712   2.552  15.189 -1.1030 -0.9709 -0.0340
 4222SOL     OW24124   4.401   1.672   3.008 -0.6537  0.9708 -0.0074
 4222SOL    HW124125   4.355   1.740   3.056 -0.6496  1.3389 -0.5261
 4222SOL    HW224126   4.376   1.688   2.917 -2.1114  0.1342  0.2452
 4223SOL     OW24127   2.468   3.543   0.818 -0.5160 -0.0734 -0.4329
 4223SOL    HW124128   2.464   3.502   0.904  1.4130 -2.2014 -1.3882
 4223SOL    HW224129   2.391   3.600   0.825 -1.1357 -0.8954 -0.5870
 4224SOL     OW24130   1.104   1.039   4.696 -0.3452 -0.4468 -0.0509
 4224SOL    HW124131   1.175   1.080   4.646  0.2345 -0.9192  0.3816
 4224SOL    HW224132   1.124   0.948   4.675 -2.5988 -1.3009  1.5461
 4225SOL     OW24133   1.302   4.422   4.362 -1.0441  0.1851  0.0717
 4225SOL    HW124134   1.258   4.419   4.447 -1.5090  0.6334 -0.1534
 4225SOL    HW224135   1.313   4.516   4.345  0.1779 -0.0567 -0.4378
 4226SOL     OW24136   1.844   4.554   1.336 -0.4191 -0.0002 -0.2549
 4226SOL    HW124137   1.796   4.626   1.378 -0.4911  0.4556 -1.1178
 4226SOL    HW224138   1.812   4.566   1.247  2.6641  0.1352 -1.3309
 4227SOL     OW24139   2.700   4.540   4.103 -0.0485  0.3096 -0.0680
 4227SOL    HW124140   2.747   4.495   4.173  1.5822  0.4770 -1.0439
 4227SOL    HW224141   2.740   4.496   4.028 -0.5617  2.0398 -1.3685
 4228SOL     OW24142   2.903   2.413   4.783 -0.6438 -0.1368  0.4460
 4228SOL    HW124143   2.994   2.438   4.793  0.1677 -1.7310 -3.0019
 4228SOL    HW224144   2.906   2.319   4.763 -0.7258 -0.2702  1.0614
 4229SOL     OW24145   0.888   4.202   9.064 -0.0234 -0.0781 -0.1451
 4229SOL    HW124146   0.903   4.125   9.009  2.7035 -0.6589  1.4360
 4229SOL    HW224147   0.802   4.183   9.103  0.2490 -0.4726  0.2638
 4230SOL     OW24148   0.090   2.179   1.053  0.0098  0.2254  0.0984
 4230SOL    HW124149   0.140   2.187   1.134  1.0896 -0.6280 -0.4823
 4230SOL    HW224150   0.156   2.150   0.990 -0.1045 -0.6877  0.3924
 4231SOL     OW24151   4.089   0.550   7.409 -0.0192  0.0685 -0.3203
 4231SOL    HW124152   4.002   0.570   7.375  0.3620 -0.0915 -1.3927
 4231SOL    HW224153   4.064   0.517   7.495 -0.3474 -0.5432 -0.6498
 4232SOL     OW24154   0.442   3.730   3.373  0.0172  0.5961  0.0981
 4232SOL    HW124155   0.461   3.817   3.337  0.1535  0.0608 -1.1382
 4232SOL    HW224156   0.521   3.676   3.362 -1.6289 -1.6600 -0.7978
 4233SOL     OW24157   3.258   1.924   5.556  0.4924 -0.6795  0.0337
 4233SOL    HW124158   3.182   1.887   5.601  1.0623 -1.1495  0.6227
 4233SOL    HW224159   3.261   1.873   5.475 -0.4195 -1.9362  0.7894
 4234SOL     OW24160   2.293   1.887   4.661  0.0707 -0.0583 -0.1764
 4234SOL    HW124161   2.293   1.866   4.755  0.2565 -0.4062 -0.2548
 4234SOL    HW224162   2.376   1.935   4.652 -0.5825  1.1368  0.2302
 4235SOL     OW24163   2.650   4.555   2.661 -0.0726  0.0435  0.5287
 4235SOL    HW124164   2.659   4.572   2.755 -0.5403  0.8160  0.4408
 4235SOL    HW224165   2.622   4.464   2.652 -2.5912  0.7322  1.2726
 4236SOL     OW24166   4.725   3.486   4.032 -0.2232  0.3918 -0.1967
 4236SOL    HW124167   4.687   3.410   3.988 -0.4797 -0.3720  1.3367
 4236SOL    HW224168   0.043   3.536   3.964  0.1411 -2.6835 -2.2198
 4237SOL     OW24169   1.928   2.150  15.359  0.3132 -0.3471 -0.2688
 4237SOL    HW124170   1.993   2.181  15.297 -1.9557 -1.0295 -3.0179
 4237SOL    HW224171   1.901   2.072  15.310  0.8771  0.8177 -2.4596
 4238SOL     OW24172   2.156   0.709   8.534 -0.1795 -0.1342 -0.5035
 4238SOL    HW124173   2.077   0.761   8.520 -0.5249 -0.9671 -1.7328
 4238SOL    HW224174   2.183   0.719   8.625 -0.8732 -2.0889 -0.0940
 4239SOL     OW24175   3.289   4.302   6.971 -0.0345  0.5417  0.3848
 4239SOL    HW124176   3.344   4.224   6.957  0.9646  1.4336 -0.6474
 4239SOL    HW224177   3.219   4.253   7.015 -0.5577 -0.7566 -1.8857
 4240SOL     OW24178   2.423   4.354   7.697  0.0560 -0.2507 -0.2608
 4240SOL    HW124179   2.465   4.294   7.758  1.6048  0.9344 -0.1640
 4240SOL    HW224180   2.379   4.415   7.757 -0.7096 -2.7731  1.7178
 4241SOL     OW24181   4.015   1.765  15.845 -0.0675  0.2946 -0.3691
 4241SOL    HW124182   3.944   1.783  15.782 -0.1553 -2.1003 -0.9712
 4241SOL    HW224183   4.035   1.858  15.855  0.0656  0.1771  0.4860
 4242SOL     OW24184   0.119   3.801  15.858 -0.0222 -0.6100  0.7057
 4242SOL    HW124185   0.034   3.844  15.848  0.3868 -0.0949 -0.5156
 4242SOL    HW224186   0.167   3.845  15.788 -0.2272  0.7410  1.4295
 4243SOL     OW24187   0.592   0.420  13.352  0.3342 -0.3199 -0.1197
 4243SOL    HW124188   0.627   0.392  13.437 -0.9538  0.7570  0.7786
 4243SOL    HW224189   0.516   0.362  13.350 -0.4731  0.6691  1.3563
 4244SOL     OW24190   2.944   0.505   6.109 -0.1765  0.4311 -0.0479
 4244SOL    HW124191   2.881   0.505   6.038 -1.0588  1.0190  0.7377
 4244SOL    HW224192   2.964   0.414   6.130 -0.7446  1.0065  3.0926
 4245SOL     OW24193   4.619   0.435   8.702  0.2922  0.3092 -0.0228
 4245SOL    HW124194   4.539   0.482   8.725 -0.6280 -0.4647 -1.6390
 4245SOL    HW224195   4.668   0.505   8.658  0.4171 -0.7320 -1.5677
 4246SOL     OW24196   3.383   0.022  14.605  0.1807  0.5459 -0.4288
 4246SOL    HW124197   3.453   4.703  14.558 -1.1411 -0.8511 -1.0708
 4246SOL    HW224198   3.316   4.680  14.597  0.5061  0.4276 -2.2479
 4247SOL     OW24199   0.701   2.783   2.616 -0.3442 -0.2200 -0.6778
 4247SOL    HW124200   0.645   2.798   2.540  0.4286 -0.9113 -1.3958
 4247SOL    HW224201   0.789   2.799   2.581 -0.6816 -2.8126 -2.7626
 4248SOL     OW24202   3.320   4.228   5.486  0.0999  0.6074  0.0090
 4248SOL    HW124203   3.380   4.200   5.556  0.3392  0.4362 -0.2665
 4248SOL    HW224204   3.318   4.319   5.517 -0.9809  0.7867 -0.6095
 4249SOL     OW24205   1.283   2.981  15.125  0.7207  0.3839 -0.3405
 4249SOL    HW124206   1.349   3.049  15.109 -0.1659  1.5186  0.8573
 4249SOL    HW224207   1.260   2.989  15.217 -2.3229  0.1138 -1.0719
 4250SOL     OW24208   4.087   1.189  15.428 -0.2890  0.3514  0.4657
 4250SOL    HW124209   4.069   1.264  15.484  0.6038 -0.0787  1.3224
 4250SOL    HW224210   4.102   1.234  15.345  1.6307  0.2591  0.7700
 4251SOL     OW24211   0.289   0.798   0.832  0.5178 -0.0727 -0.3932
 4251SOL    HW124212   0.217   0.841   0.787 -2.4724 -0.9233  3.5910
 4251SOL    HW224213   0.239   0.746   0.895  0.9020  0.0372  0.0087
 4252SOL     OW24214   0.606   4.547   3.649  0.3895  0.2944 -0.3456
 4252SOL    HW124215   0.645   4.632   3.667  2.0263 -0.5782  0.2457
 4252SOL    HW224216   0.682   4.492   3.670  1.7988  1.6390 -1.8910
 4253SOL     OW24217   4.139   3.490   3.665 -0.2716 -0.5252 -0.0009
 4253SOL    HW124218   4.067   3.527   3.614  1.3006  0.3556 -1.5928
 4253SOL    HW224219   4.172   3.567   3.710 -0.0172 -0.5691 -0.1060
 4254SOL     OW24220   1.967   0.503   2.152 -0.5753 -0.1181  0.4497
 4254SOL    HW124221   1.955   0.409   2.146  0.1516 -0.1388 -0.7083
 4254SOL    HW224222   1.926   0.529   2.234 -0.0432 -0.7693  0.9150
 4255SOL     OW24223   2.077   4.710   9.572 -0.3925  0.0454  0.2251
 4255SOL    HW124224   2.088   4.634   9.514 -1.8597 -1.0356  1.3640
 4255SOL    HW224225   2.119   4.676   9.651 -0.4237  0.4968  0.4334
 4256SOL     OW24226   2.723   4.473   4.370  0.1294  0.7442  0.3335
 4256SOL    HW124227   2.696   4.387   4.403  1.3326 -0.0307 -0.7229
 4256SOL    HW224228   2.657   4.532   4.407 -0.0062  1.1582 -0.5909
 4257SOL     OW24229   1.835   3.937   2.360  0.2021  0.4194 -0.4332
 4257SOL    HW124230   1.847   3.872   2.429  0.7292  2.1416  1.0921
 4257SOL    HW224231   1.777   3.897   2.294  0.3989  0.4643 -0.6323
 4258SOL     OW24232   1.750   3.759   4.401 -0.1831 -0.4926  0.4190
 4258SOL    HW124233   1.704   3.753   4.318  1.7566  0.0199 -0.6950
 4258SOL    HW224234   1.829   3.708   4.382  0.4627  0.8098 -0.4278
 4259SOL     OW24235   1.856   3.924   8.367  0.3583  0.3543 -0.0596
 4259SOL    HW124236   1.816   3.931   8.280 -0.2379 -0.9808  0.1068
 4259SOL    HW224237   1.810   3.852   8.409  1.7143 -0.0138  0.7800
 4260SOL     OW24238   3.308   2.505   4.322 -0.0782 -1.0938  0.2209
 4260SOL    HW124239   3.329   2.490   4.414  1.5455  0.2456  0.0830
 4260SOL    HW224240   3.224   2.547   4.339  0.6669  0.1332  0.8626
 4261SOL     OW24241   2.402   0.048  13.351 -0.1531  0.0157  0.2558
 4261SOL    HW124242   2.371   0.138  13.341 -2.0236 -0.6407  0.0650
 4261SOL    HW224243   2.408   0.034  13.445 -0.7096 -0.7187  0.1865
 4262SOL     OW24244   3.847   0.289   5.409  0.0845  0.3467 -0.2556
 4262SOL    HW124245   3.923   0.299   5.353  0.0804 -2.6254 -0.7497
 4262SOL    HW224246   3.880   0.328   5.490  2.3096 -1.2660 -0.3984
 4263SOL     OW24247   3.691   3.953   7.089 -0.3403  0.4061  0.1876
 4263SOL    HW124248   3.679   3.990   7.176 -0.2177 -0.0728  0.4111
 4263SOL    HW224249   3.728   3.870   7.118 -0.9299  0.3221  0.7201
 4264SOL     OW24250   1.230   3.127   9.031  0.1112  0.3717 -0.2497
 4264SOL    HW124251   1.144   3.088   9.044  0.1350 -0.1646 -1.6453
 4264SOL    HW224252   1.263   3.136   9.120 -0.1886  1.6713 -0.2699
 4265SOL     OW24253   4.090   0.420   5.424 -0.0315  0.3860 -0.3779
 4265SOL    HW124254   4.064   0.466   5.344 -0.5901  2.1096  0.8128
 4265SOL    HW224255   4.151   0.474   5.473  0.6125 -0.8988  0.2498
 4266SOL     OW24256   4.419   1.024  16.831  0.3336 -0.2883 -0.5631
 4266SOL    HW124257   4.407   1.061  16.919  2.7929 -1.2207  0.1818
 4266SOL    HW224258   4.353   1.072  16.782  0.9040 -0.5292 -1.5733
 4267SOL     OW24259   2.386   3.251   9.179  0.4685  0.1186 -0.1653
 4267SOL    HW124260   2.319   3.194   9.143 -1.1517  2.1391 -0.3442
 4267SOL    HW224261   2.456   3.215   9.124  1.6503  2.4243 -0.1999
 4268SOL     OW24262   1.273   4.112   0.525  0.3473 -0.3364  0.4879
 4268SOL    HW124263   1.235   4.028   0.500  1.2860 -0.4409 -0.6062
 4268SOL    HW224264   1.197   4.167   0.546  1.9861  2.0797  0.0804
 4269SOL     OW24265   0.502   4.496   2.425 -0.3781 -0.8339  0.5536
 4269SOL    HW124266   0.422   4.462   2.384 -1.5700  1.1076  1.2997
 4269SOL    HW224267   0.469   4.557   2.490  0.9541  0.5563 -0.0727
 4270SOL     OW24268   2.101   0.024   6.170 -0.6254 -0.3587  0.0896
 4270SOL    HW124269   2.031   4.721   6.230 -0.7541 -0.5356 -0.1439
 4270SOL    HW224270   2.061   0.104   6.135  2.1847  0.1732 -1.8541
 4271SOL     OW24271   2.757   1.777   9.444 -0.4994 -0.1674  0.2107
 4271SOL    HW124272   2.685   1.736   9.491 -1.8654  1.0024 -0.9027
 4271SOL    HW224273   2.761   1.855   9.499 -2.0051  0.2990 -0.3554
 4272SOL     OW24274   0.310   3.437   2.134 -0.5475 -0.6088  0.5084
 4272SOL    HW124275   0.385   3.478   2.178 -2.0022 -0.0387  2.4449
 4272SOL    HW224276   0.349   3.447   2.047  1.2313 -0.0790  1.3647
 4273SOL     OW24277   2.071   4.569   7.843 -0.1848 -0.3148 -0.1713
 4273SOL    HW124278   2.100   4.652   7.804 -0.7708  0.4223  0.9586
 4273SOL    HW224279   2.058   4.511   7.768 -0.8544  1.2340 -1.2690
 4274SOL     OW24280   4.038   1.685   6.659 -0.0742 -0.4949  0.8542
 4274SOL    HW124281   4.031   1.739   6.738 -1.5952  0.2955  0.1922
 4274SOL    HW224282   4.104   1.627   6.697  0.5626 -0.5669 -0.3591
 4275SOL     OW24283   3.118   0.831  13.269  0.0463 -0.2512 -0.6877
 4275SOL    HW124284   3.079   0.852  13.184  0.1479  2.5931 -0.0300
 4275SOL    HW224285   3.202   0.875  13.256  0.5731 -0.9416  0.4007
 4276SOL     OW24286   2.364   0.243  17.542  0.1331  0.0338  0.1623
 4276SOL    HW124287   2.441   0.296  17.561  0.3331 -0.1607 -0.1082
 4276SOL    HW224288   2.405   0.157  17.542  0.6825  0.2908 -0.5311
 4277SOL     OW24289   4.377   2.952   8.005  0.7059 -0.0117 -0.2731
 4277SOL    HW124290   4.289   2.990   8.008  0.6976 -0.1321  1.1585
 4277SOL    HW224291   4.404   2.972   8.094  1.2997 -0.4722 -0.3477
 4278SOL     OW24292   0.463   0.132   9.564 -0.1854  0.3868  0.2945
 4278SOL    HW124293   0.410   0.146   9.486  0.7431  1.6917 -0.1112
 4278SOL    HW224294   0.469   0.037   9.562 -1.2096  0.2966  1.2026
 4279SOL     OW24295   0.002   2.702   1.651  0.4599 -0.0442 -0.0544
 4279SOL    HW124296   0.016   2.723   1.558  0.0976  1.7621  0.2916
 4279SOL    HW224297   0.017   2.790   1.686  0.6501  0.2232 -0.8161
 4280SOL     OW24298   0.995   0.942   5.405 -0.2478  0.1649 -0.0131
 4280SOL    HW124299   1.046   0.861   5.409 -1.5492 -0.6582  0.0143
 4280SOL    HW224300   1.003   0.968   5.496 -3.6576  0.2478  0.2771
 4281SOL     OW24301   3.273   3.827  16.537  0.3226 -0.2160 -0.1770
 4281SOL    HW124302   3.282   3.738  16.504 -1.8223  0.5772 -2.8792
 4281SOL    HW224303   3.275   3.819  16.633  2.3604  0.1088 -0.1969
 4282SOL     OW24304   0.977   4.225  12.626 -0.0530 -0.5850 -0.0269
 4282SOL    HW124305   0.958   4.132  12.639  0.6138 -1.1098 -2.8531
 4282SOL    HW224306   1.067   4.224  12.659  0.0884  0.8151 -0.3394
 4283SOL     OW24307   3.050   4.033   5.362  0.0712  0.2514  0.5542
 4283SOL    HW124308   3.033   4.127   5.363 -0.8487  0.0650  2.3768
 4283SOL    HW224309   3.016   4.002   5.446  0.0683 -0.2187  0.3788
 4284SOL     OW24310   1.440   2.503   3.603  0.1835  0.0182  0.4819
 4284SOL    HW124311   1.357   2.545   3.627 -1.5145 -2.9496 -0.0802
 4284SOL    HW224312   1.401   2.419   3.630  0.0154  0.1715  0.7173
 4285SOL     OW24313   4.273   0.943   4.697 -0.0844 -0.2828  0.0001
 4285SOL    HW124314   4.336   0.924   4.767 -2.2745  0.2468  2.0849
 4285SOL    HW224315   4.306   0.894   4.621 -0.1445  0.0511 -0.2397
 4286SOL     OW24316   1.572   2.082   7.593 -0.1035 -0.6500 -0.4112
 4286SOL    HW124317   1.478   2.089   7.574 -0.3900  0.2798  1.4252
 4286SOL    HW224318   1.578   1.989   7.614 -0.5935 -0.6768 -0.3942
 4287SOL     OW24319   3.383   3.603   8.310 -0.0907  0.8567  0.1149
 4287SOL    HW124320   3.453   3.648   8.358  1.2254 -0.8649 -0.1905
 4287SOL    HW224321   3.331   3.613   8.390  0.5304  0.6353  0.5436
 4288SOL     OW24322   0.640   3.681   4.970 -0.1027 -0.4876  0.4387
 4288SOL    HW124323   0.552   3.711   4.994  1.0133  2.6429  0.6582
 4288SOL    HW224324   0.692   3.758   4.992  0.1299 -0.7755  0.8963
 4289SOL     OW24325   2.618   0.493   3.850 -0.0869  0.2122  0.3175
 4289SOL    HW124326   2.531   0.470   3.882 -0.3793  0.5781 -0.2146
 4289SOL    HW224327   2.661   0.517   3.932 -2.0490  0.8451  1.1551
 4290SOL     OW24328   3.787   2.081   7.976 -0.0391 -0.0044  0.0666
 4290SOL    HW124329   3.860   2.141   7.964  0.0755 -0.7888 -3.1963
 4290SOL    HW224330   3.746   2.133   8.046 -0.6941 -0.2499 -0.1302
 4291SOL     OW24331   0.833   2.041   7.087  0.2845  0.5694  0.3172
 4291SOL    HW124332   0.895   2.096   7.136  1.1226 -0.2279  0.1476
 4291SOL    HW224333   0.867   1.954   7.107  1.1381 -0.0829 -4.0962
 4292SOL     OW24334   4.631   1.726   2.725  0.3406  0.7057  0.2982
 4292SOL    HW124335   4.553   1.765   2.684 -0.1427  1.4605  1.9340
 4292SOL    HW224336   4.638   1.656   2.660 -2.3680  0.1949  0.5502
 4293SOL     OW24337   2.194   3.936   2.315 -0.3392 -0.1955  0.7721
 4293SOL    HW124338   2.126   3.995   2.280 -0.1565  0.0272  0.7932
 4293SOL    HW224339   2.227   3.889   2.238  0.8925 -1.2142  1.9345
 4294SOL     OW24340   3.843   1.188   9.369 -0.5751  0.3992  0.1944
 4294SOL    HW124341   3.892   1.229   9.298 -4.8378  2.3985 -1.6026
 4294SOL    HW224342   3.780   1.259   9.377 -0.3859  0.5969 -0.0836
 4295SOL     OW24343   0.839   3.460   2.081  0.4542  0.8147  0.0587
 4295SOL    HW124344   0.883   3.475   2.165 -0.2910  0.2365  0.5476
 4295SOL    HW224345   0.896   3.515   2.027  1.6595 -0.8617 -0.3650
 4296SOL     OW24346   1.134   1.762   3.797  0.7487  0.2281 -0.8101
 4296SOL    HW124347   1.149   1.676   3.837  0.0527  1.3250  1.7602
 4296SOL    HW224348   1.060   1.790   3.850  1.8651 -2.3797  2.1273
 4297SOL     OW24349   0.050   1.428  11.339  0.6878  0.2747 -0.5134
 4297SOL    HW124350   0.136   1.420  11.379 -0.1778 -3.4865  0.5437
 4297SOL    HW224351   0.077   1.476  11.260  0.6677  1.8990  0.4770
 4298SOL     OW24352   3.977   0.561   0.040  0.1967 -0.1081  0.3243
 4298SOL    HW124353   3.947   0.632   0.096 -1.9574  0.2951 -1.3262
 4298SOL    HW224354   4.033   0.515   0.102 -1.1048  0.6022  2.0322
 4299SOL     OW24355   3.337   1.975  10.369 -0.0155  0.2824  0.4609
 4299SOL    HW124356   3.395   1.941  10.436  0.0237 -0.8946 -0.1752
 4299SOL    HW224357   3.316   1.897  10.318 -0.3627  0.8407 -0.2651
 4300SOL     OW24358   2.991   0.325  11.932 -0.8011  0.4642 -0.6398
 4300SOL    HW124359   2.973   0.359  11.844  1.3729 -0.2781 -1.3859
 4300SOL    HW224360   3.085   0.307  11.924 -0.5038  1.4821  0.6110
 4301SOL     OW24361   4.214   3.958   8.656 -0.1221 -0.5249 -0.0371
 4301SOL    HW124362   4.297   4.005   8.669  1.7205 -2.8628 -3.4906
 4301SOL    HW224363   4.156   4.029   8.629  0.6767 -0.5249 -1.7940
 4302SOL     OW24364   3.069   2.043   5.767 -0.6414 -0.0919 -0.5103
 4302SOL    HW124365   2.998   2.092   5.726  1.4370  1.4801 -2.2517
 4302SOL    HW224366   3.045   1.955   5.739 -0.2767  0.3922 -2.3463
 4303SOL     OW24367   0.486   0.913  12.082 -0.2453 -0.6661  0.2360
 4303SOL    HW124368   0.502   0.830  12.128 -0.0066 -0.1702  1.0451
 4303SOL    HW224369   0.455   0.879  11.998  1.6621 -3.3057  0.5899
 4304SOL     OW24370   0.670   1.950   8.499  0.0188 -0.1454 -0.1065
 4304SOL    HW124371   0.579   1.920   8.505 -0.1270  0.3242  0.0947
 4304SOL    HW224372   0.723   1.876   8.528  3.1603  1.9727 -0.3929
 4305SOL     OW24373   1.050   1.543   7.913 -0.3161 -0.7495  0.1020
 4305SOL    HW124374   1.062   1.557   8.007 -0.4745  1.9428 -0.2901
 4305SOL    HW224375   1.090   1.458   7.896  1.0223  0.2218 -1.5335
 4306SOL     OW24376   0.256   2.440   1.837 -0.3795  0.0927  0.1748
 4306SOL    HW124377   0.343   2.455   1.802 -0.5602  0.4969 -0.0928
 4306SOL    HW224378   0.231   2.358   1.794  0.1957 -0.0387  0.0882
 4307SOL     OW24379   3.280   2.143   2.079  0.5575 -0.3034 -0.6202
 4307SOL    HW124380   3.217   2.084   2.122  1.9120 -2.6845 -1.9327
 4307SOL    HW224381   3.361   2.125   2.127  0.2300  1.3981  0.5621
 4308SOL     OW24382   0.810   4.153   2.908  0.1994  0.5893  0.2482
 4308SOL    HW124383   0.735   4.201   2.873 -0.0570  0.4579  0.6309
 4308SOL    HW224384   0.771   4.078   2.952  1.2767 -0.0867  0.0597
 4309SOL     OW24385   2.578   2.277  13.549  0.0654  0.2085 -0.7334
 4309SOL    HW124386   2.589   2.192  13.507 -1.5805 -0.0567 -0.6227
 4309SOL    HW224387   2.487   2.262  13.576 -0.0198 -0.3809 -1.3721
 4310SOL     OW24388   3.758   1.753   2.217 -0.4669  0.4805  0.2498
 4310SOL    HW124389   3.821   1.802   2.270 -1.1755  1.0975  0.5207
 4310SOL    HW224390   3.799   1.779   2.135 -0.2634  0.2758  0.2885
 4311SOL     OW24391   4.229   2.309  10.274  0.3488 -0.1550  0.6723
 4311SOL    HW124392   4.250   2.319  10.367 -1.2406  0.3383  0.9742
 4311SOL    HW224393   4.177   2.390  10.268 -0.5563 -0.7494  0.5731
 4312SOL     OW24394   4.016   2.266   6.372  0.0080 -0.2302  0.2773
 4312SOL    HW124395   3.947   2.303   6.427 -0.1840 -1.3474  0.7868
 4312SOL    HW224396   3.980   2.179   6.359 -3.6913  1.4026 -0.4846
 4313SOL     OW24397   1.504   2.433  12.085 -0.3222 -0.9116  0.2651
 4313SOL    HW124398   1.560   2.362  12.055  0.8339 -0.3292  1.0560
 4313SOL    HW224399   1.532   2.459  12.173  0.2310  0.2145 -0.2342
 4314SOL     OW24400   3.042   0.967  16.361  0.1171 -0.2312 -0.1277
 4314SOL    HW124401   2.981   0.945  16.431  1.8006 -2.4701  0.6603
 4314SOL    HW224402   3.122   0.922  16.389 -1.3344 -2.4216  0.5324
 4315SOL     OW24403   2.464   3.449  17.290 -0.2031  0.6162  0.3736
 4315SOL    HW124404   2.513   3.447  17.208  0.9702 -0.2565  1.0962
 4315SOL    HW224405   2.506   3.519  17.340  1.0296 -0.6005  1.0392
 4316SOL     OW24406   3.381   3.888  17.301 -0.2955  0.0219  0.0531
 4316SOL    HW124407   3.469   3.860  17.327 -0.0230  1.0476  0.2067
 4316SOL    HW224408   3.362   3.942  17.377 -1.6387  0.1280 -0.3541
 4317SOL     OW24409   3.596   1.609  15.822  0.4203 -0.1184  0.5780
 4317SOL    HW124410   3.526   1.558  15.782  1.4178 -0.6338 -0.5190
 4317SOL    HW224411   3.545   1.653  15.889 -0.4154 -0.9994  0.5229
 4318SOL     OW24412   2.541   4.275   7.933  0.0518 -0.3050 -0.0234
 4318SOL    HW124413   2.604   4.235   7.993 -0.6297 -1.5757 -0.1726
 4318SOL    HW224414   2.465   4.260   7.989 -0.7523  1.4621 -0.6373
 4319SOL     OW24415   2.071   1.922   7.805 -0.0855 -0.4134  0.6710
 4319SOL    HW124416   2.159   1.955   7.790 -0.3512  0.4097  0.9154
 4319SOL    HW224417   2.015   1.972   7.746  1.3154  0.3452 -0.0113
 4320SOL     OW24418   4.527   1.606   9.446 -0.5623 -0.2520 -0.0567
 4320SOL    HW124419   4.550   1.697   9.464  1.4497 -0.4361 -1.7234
 4320SOL    HW224420   4.466   1.596   9.519  0.0279  0.2248  0.5076
 4321SOL     OW24421   1.299   0.557   7.497  0.2516  0.3373  0.1838
 4321SOL    HW124422   1.300   0.599   7.583  0.4936 -1.1734  0.9196
 4321SOL    HW224423   1.323   0.469   7.524 -0.8079  0.2852  0.9564
 4322SOL     OW24424   0.316   3.635   3.022  0.5037 -0.2642 -0.3481
 4322SOL    HW124425   0.255   3.614   3.092 -0.8219  0.5301 -1.2512
 4322SOL    HW224426   0.264   3.641   2.942 -1.1580  1.5478  0.8823
 4323SOL     OW24427   0.761   4.722   5.581  0.3752 -0.1930  0.6623
 4323SOL    HW124428   0.687   0.057   5.589  1.0928  0.5577  1.7249
 4323SOL    HW224429   0.762   4.674   5.664  1.4967  1.7819  1.8128
 4324SOL     OW24430   3.107   3.575   8.114  0.2468 -0.6296 -0.0303
 4324SOL    HW124431   3.013   3.560   8.112  0.0523  0.4014  1.8559
 4324SOL    HW224432   3.100   3.644   8.180 -1.6217 -2.2523  1.4588
 4325SOL     OW24433   1.888   2.682   8.396  0.1190 -0.2486  0.0556
 4325SOL    HW124434   1.862   2.684   8.488 -0.8576 -1.5522 -0.1962
 4325SOL    HW224435   1.908   2.589   8.397  1.3972  0.0092 -1.1152
 4326SOL     OW24436   0.942   1.105   7.170 -0.4708  0.1656  0.3388
 4326SOL    HW124437   0.861   1.078   7.129  0.4867 -2.0720 -0.0791
 4326SOL    HW224438   0.931   1.044   7.243 -0.8053  0.3246  0.4219
 4327SOL     OW24439   0.740   0.978   2.674  0.1998  0.0378  0.3875
 4327SOL    HW124440   0.742   0.883   2.685 -1.1531  0.0395  0.6946
 4327SOL    HW224441   0.778   0.985   2.587  0.9146  1.3418  0.8025
 4328SOL     OW24442   0.815   1.466   2.095 -0.1415 -0.3488 -0.0926
 4328SOL    HW124443   0.818   1.461   1.999 -1.8378 -1.7052 -0.0638
 4328SOL    HW224444   0.733   1.420   2.111 -0.6382 -0.4193 -2.8199
 4329SOL     OW24445   1.903   1.120   1.587 -0.0252 -0.2413  0.2078
 4329SOL    HW124446   1.959   1.047   1.614  1.5214  0.6863 -0.4710
 4329SOL    HW224447   1.970   1.184   1.612 -0.6125  0.5154 -0.1320
 4330SOL     OW24448   0.614   3.674  13.561 -0.2132 -0.4778  0.3927
 4330SOL    HW124449   0.688   3.734  13.573 -0.5977  0.4205 -1.8346
 4330SOL    HW224450   0.660   3.591  13.547 -2.9187 -1.9015 -0.0498
 4331SOL     OW24451   4.119   4.551   4.978  0.7219  0.0661 -0.0047
 4331SOL    HW124452   4.192   4.604   4.948  2.1254 -1.5935  0.5344
 4331SOL    HW224453   4.088   4.534   4.889  0.1454  1.1415 -0.0226
 4332SOL     OW24454   1.274   3.816   2.621  0.0400 -0.3701 -0.2998
 4332SOL    HW124455   1.294   3.906   2.597 -1.9144  0.2423  0.4103
 4332SOL    HW224456   1.178   3.811   2.621  0.1254 -2.3227 -1.5723
 4333SOL     OW24457   2.521   3.268   2.800  0.1492 -0.1619 -0.6762
 4333SOL    HW124458   2.473   3.305   2.874  0.8874  1.0393 -0.7975
 4333SOL    HW224459   2.493   3.327   2.730 -0.1337  0.1519 -0.3001
 4334SOL     OW24460   3.513   3.638  15.272  0.3917 -0.0191  0.0382
 4334SOL    HW124461   3.423   3.668  15.278  0.7569  0.6889  2.0780
 4334SOL    HW224462   3.555   3.675  15.350 -1.4841  0.9660  0.5746
 4335SOL     OW24463   2.482   1.274   5.028  0.5280  0.4792  0.0474
 4335SOL    HW124464   2.427   1.211   5.074  0.1565  1.0771  0.4189
 4335SOL    HW224465   2.545   1.294   5.098 -0.1566  1.1896  0.4585
 4336SOL     OW24466   2.500   1.693   7.747  0.7343  0.3336 -0.0546
 4336SOL    HW124467   2.546   1.611   7.731 -0.7300 -0.5794  0.3503
 4336SOL    HW224468   2.428   1.668   7.806  1.7436 -0.5798  0.7930
 4337SOL     OW24469   0.503   1.702   8.153  0.1249  0.3181 -0.4851
 4337SOL    HW124470   0.489   1.795   8.135 -0.5533  0.6865  1.9173
 4337SOL    HW224471   0.493   1.650   8.073 -1.2466 -0.8695  0.4447
 4338SOL     OW24472   4.022   4.563   6.668  0.5054  0.3034 -0.9590
 4338SOL    HW124473   4.080   4.508   6.722  1.2570  2.3105  0.2557
 4338SOL    HW224474   4.011   4.642   6.721 -2.2900  0.9648 -2.5393
 4339SOL     OW24475   2.944   3.304  17.349 -0.1237 -0.1489  0.7954
 4339SOL    HW124476   2.898   3.244  17.408  0.4720 -2.8911 -1.4752
 4339SOL    HW224477   2.999   3.350  17.412 -0.3177  1.0309  0.0863
 4340SOL     OW24478   4.522   4.044   0.663  0.2533  0.3543 -0.3271
 4340SOL    HW124479   4.440   3.994   0.666  1.4691 -1.7133 -1.4597
 4340SOL    HW224480   4.572   3.975   0.706 -0.2095 -0.0254 -0.4059
 4341SOL     OW24481   0.654   2.140   5.786  0.2098 -0.2995  0.3492
 4341SOL    HW124482   0.630   2.221   5.742 -0.1072  0.8691  2.6589
 4341SOL    HW224483   0.745   2.126   5.762 -0.4261 -1.3106 -1.4861
 4342SOL     OW24484   3.217   2.276   5.695 -0.7428 -0.1248  0.6030
 4342SOL    HW124485   3.162   2.353   5.711 -2.1624 -0.9461 -0.3800
 4342SOL    HW224486   3.167   2.208   5.742 -2.7974  2.8548  2.7521
 4343SOL     OW24487   1.604   0.423  15.029 -0.1711 -0.1745 -0.1895
 4343SOL    HW124488   1.558   0.365  14.968 -3.0015  0.3756  1.4302
 4343SOL    HW224489   1.688   0.427  14.983  2.5443  1.3933  4.8630
 4344SOL     OW24490   2.090   1.669  11.078  0.3300 -0.1094 -0.0797
 4344SOL    HW124491   2.085   1.713  11.163  1.7790  1.6193 -0.9039
 4344SOL    HW224492   2.139   1.737  11.032 -1.1859  0.3598 -1.0011
 4345SOL     OW24493   1.614   0.376   5.142 -0.1001  0.0684 -0.1054
 4345SOL    HW124494   1.578   0.308   5.085 -1.2117 -0.5117  1.2845
 4345SOL    HW224495   1.699   0.407   5.112  0.3258 -1.0511 -0.0427
 4346SOL     OW24496   3.951   0.200  14.919  0.0628 -0.1422 -0.5003
 4346SOL    HW124497   3.980   0.282  14.879 -0.6058  0.4046  0.1216
 4346SOL    HW224498   3.861   0.205  14.886 -0.8991 -1.2868  1.9387
 4347SOL     OW24499   4.646   3.212   8.121 -0.1061 -0.2619 -0.1838
 4347SOL    HW124500   4.654   3.304   8.144 -0.4907 -0.3560  0.3352
 4347SOL    HW224501   4.584   3.204   8.049 -0.2082 -1.4673  0.0291
 4348SOL     OW24502   1.717   0.718   4.646  0.0527  0.3438  0.0288
 4348SOL    HW124503   1.661   0.651   4.606  0.0221  0.8390 -0.7535
 4348SOL    HW224504   1.776   0.667   4.702 -1.4083 -1.5325 -0.1449
 4349SOL     OW24505   3.218   1.664   2.778  0.1062 -0.0269  0.9197
 4349SOL    HW124506   3.217   1.626   2.691 -1.5190  0.6444  0.6438
 4349SOL    HW224507   3.191   1.754   2.757  0.6971 -0.4865 -1.7472
 4350SOL     OW24508   4.464   2.313   6.514 -0.4132  0.1978  0.2077
 4350SOL    HW124509   4.378   2.339   6.482 -0.5433  2.0085  2.0630
 4350SOL    HW224510   4.496   2.398   6.544  2.0425 -0.9607  0.8610
 4351SOL     OW24511   1.819   3.598   2.529  0.3326  0.2908  0.6022
 4351SOL    HW124512   1.906   3.638   2.529  1.5870 -2.3865 -2.3826
 4351SOL    HW224513   1.789   3.593   2.619  1.2961 -2.2857  0.7751
 4352SOL     OW24514   3.194   3.443   1.818 -0.4954 -0.1210  0.5065
 4352SOL    HW124515   3.102   3.466   1.818 -0.7667 -1.1990 -0.2430
 4352SOL    HW224516   3.224   3.452   1.908 -1.4347 -1.1155  0.9104
 4353SOL     OW24517   3.582   2.933   6.502 -0.7095 -0.2887 -0.0220
 4353SOL    HW124518   3.523   2.862   6.529 -1.9855  0.3603 -1.0760
 4353SOL    HW224519   3.666   2.887   6.507 -0.4405  0.0850 -0.9985
 4354SOL     OW24520   3.234   0.689   0.013 -0.0773 -0.5162 -0.9447
 4354SOL    HW124521   3.301   0.645  17.665 -0.5719 -1.1542 -1.0493
 4354SOL    HW224522   3.256   0.679   0.105 -1.7769  1.9159 -0.2703
 4355SOL     OW24523   2.060   3.492   4.440  0.0854  0.1946  0.3450
 4355SOL    HW124524   2.081   3.447   4.358 -0.3179 -1.1104  0.9562
 4355SOL    HW224525   2.062   3.419   4.502 -0.6857 -0.6342 -0.6031
 4356SOL     OW24526   4.187   0.365  16.096 -0.0171  0.0769  0.1398
 4356SOL    HW124527   4.249   0.362  16.023 -0.4877 -0.4697 -0.2393
 4356SOL    HW224528   4.162   0.457  16.087  0.2192  0.2015  0.7877
 4357SOL     OW24529   3.034   3.467   9.502  0.1322 -0.1196 -0.5158
 4357SOL    HW124530   2.965   3.401   9.511  0.4456 -0.2722  0.8082
 4357SOL    HW224531   3.086   3.423   9.435  1.9847  0.1815  0.7298
 4358SOL     OW24532   1.445   4.259   2.500 -0.2825  0.8301 -0.0055
 4358SOL    HW124533   1.470   4.319   2.570 -1.2620  0.5601  0.5713
 4358SOL    HW224534   1.498   4.298   2.430  0.7861 -1.3873 -0.4233
 4359SOL     OW24535   3.723   4.259   2.490  0.2472 -0.4618  0.0672
 4359SOL    HW124536   3.634   4.228   2.474  0.2205 -0.1593 -0.3869
 4359SOL    HW224537   3.699   4.345   2.527  2.6321  0.3762 -0.3240
 4360SOL     OW24538   0.835   3.081  11.883  0.9093 -0.1892  0.0807
 4360SOL    HW124539   0.812   3.043  11.798  1.7332  0.6496 -0.5246
 4360SOL    HW224540   0.853   3.004  11.937  1.2603 -1.6424 -2.0750
 4361SOL     OW24541   3.455   1.417  16.317 -0.1688  0.4840  0.2721
 4361SOL    HW124542   3.511   1.358  16.367  0.8049  2.0387  1.0183
 4361SOL    HW224543   3.367   1.399  16.349  1.1591 -0.4138  3.3909
 4362SOL     OW24544   2.646   3.096   8.626 -0.3904 -0.0844  0.0066
 4362SOL    HW124545   2.624   3.097   8.533 -0.4213 -0.7456  0.0016
 4362SOL    HW224546   2.640   3.190   8.639 -0.7537 -0.0154 -0.6827
 4363SOL     OW24547   4.523   0.649   8.191 -0.2808 -0.1451  0.0132
 4363SOL    HW124548   4.473   0.572   8.215 -1.9638  0.3995 -1.7819
 4363SOL    HW224549   4.449   0.710   8.184 -1.0889 -0.9586  1.5016
 4364SOL     OW24550   0.671   0.040   0.344  0.5379  0.6164 -0.0528
 4364SOL    HW124551   0.722   4.692   0.310 -0.7682 -0.2720 -0.0803
 4364SOL    HW224552   0.696   0.035   0.436 -0.1464  0.0376  0.0984
 4365SOL     OW24553   4.276   4.227  13.371 -0.2448 -0.0910  0.7586
 4365SOL    HW124554   4.252   4.159  13.435  1.8036 -0.5648  1.0365
 4365SOL    HW224555   4.223   4.293  13.415  0.9309  0.2310  1.6831
 4366SOL     OW24556   4.592   1.214   0.816 -0.5338 -0.2717 -0.0062
 4366SOL    HW124557   4.594   1.309   0.823 -2.0233 -0.3617  1.8502
 4366SOL    HW224558   4.506   1.186   0.848 -0.4910 -0.8979 -0.4413
 4367SOL     OW24559   4.612   4.548   4.121  0.6924  0.1270  0.4350
 4367SOL    HW124560   4.679   4.487   4.089  1.3577  1.3411 -0.5073
 4367SOL    HW224561   4.553   4.545   4.045  2.3908 -0.7512 -0.8714
 4368SOL     OW24562   3.545   1.260   9.727 -0.2167 -0.2625 -0.4010
 4368SOL    HW124563   3.561   1.291   9.638  2.2923 -0.9132 -0.1774
 4368SOL    HW224564   3.581   1.171   9.719  2.4248  0.7986 -0.1786
 4369SOL     OW24565   2.150   3.641   6.423  0.3825  0.2153 -0.4267
 4369SOL    HW124566   2.157   3.647   6.328 -2.5621  0.1090 -0.6496
 4369SOL    HW224567   2.065   3.682   6.440 -0.0966 -1.0477  0.2351
 4370SOL     OW24568   3.120   2.684  14.968 -0.3256  0.3189  0.1211
 4370SOL    HW124569   3.214   2.697  14.986 -0.3120  1.7769 -0.9502
 4370SOL    HW224570   3.122   2.621  14.896  0.7766  0.1238  0.3099
 4371SOL     OW24571   3.571   3.981   2.491  0.0538  0.3482 -0.5558
 4371SOL    HW124572   3.512   4.018   2.557  0.5684  1.8054 -0.9186
 4371SOL    HW224573   3.547   4.024   2.409  1.0391 -0.4816 -1.2821
 4372SOL     OW24574   1.105   1.293   5.094 -0.7504  0.2164  0.0619
 4372SOL    HW124575   1.185   1.340   5.069  0.2174 -0.1982  2.3638
 4372SOL    HW224576   1.046   1.364   5.120 -1.4328 -1.0745  1.9936
 4373SOL     OW24577   2.907   2.766   4.783  0.6126  0.1983 -0.1349
 4373SOL    HW124578   2.902   2.711   4.861  0.0261 -0.2740 -0.4987
 4373SOL    HW224579   2.959   2.844   4.802 -0.5833  1.6237 -2.7350
 4374SOL     OW24580   1.298   2.581   6.053 -0.6898  0.2273  0.0793
 4374SOL    HW124581   1.233   2.510   6.053 -0.5865  0.1324  0.5387
 4374SOL    HW224582   1.369   2.545   6.106  1.1350 -0.2975 -2.7216
 4375SOL     OW24583   0.919   1.735   6.263 -0.1522 -0.1634 -0.2610
 4375SOL    HW124584   0.840   1.741   6.317  1.0268 -3.2278  1.8071
 4375SOL    HW224585   0.866   1.763   6.188  1.9701  0.1952 -1.6237
 4376SOL     OW24586   4.030   4.000   6.339  0.7528 -0.4390  0.0392
 4376SOL    HW124587   4.100   3.944   6.372  1.5333  0.1032 -0.6901
 4376SOL    HW224588   4.001   4.036   6.422 -0.7263 -1.8084  0.1248
 4377SOL     OW24589   2.655   0.549   0.459 -0.0808  0.0800  0.0517
 4377SOL    HW124590   2.680   0.460   0.484 -2.1295 -0.0019  1.8278
 4377SOL    HW224591   2.743   0.578   0.438 -0.7166  1.3385 -0.9017
 4378SOL     OW24592   4.057   2.839  13.054 -0.2289  0.5328 -0.4004
 4378SOL    HW124593   4.117   2.772  13.089 -0.5990 -0.5414 -1.8424
 4378SOL    HW224594   4.115   2.915  13.059  1.5482 -0.7988 -1.1024
 4379SOL     OW24595   0.467   4.296   8.031  0.1178 -0.0579  0.0789
 4379SOL    HW124596   0.467   4.216   7.979  0.5742 -0.2964  0.4510
 4379SOL    HW224597   0.372   4.312   8.034 -0.2601 -2.2049  0.0791
 4380SOL     OW24598   2.688   3.851  14.155  0.6374 -0.7265 -0.3106
 4380SOL    HW124599   2.705   3.812  14.069  0.4159 -0.9619 -0.2480
 4380SOL    HW224600   2.635   3.929  14.140  4.5401  2.0098  0.0405
 4381SOL     OW24601   4.722   4.172   8.829  0.1407  0.1369 -0.1740
 4381SOL    HW124602   0.049   4.101   8.793  0.2332  0.8421 -1.4429
 4381SOL    HW224603   0.061   4.235   8.798 -0.3177 -0.6844 -2.7455
 4382SOL     OW24604   3.325   0.031   8.857  0.4768 -0.1742 -0.0619
 4382SOL    HW124605   3.238   0.023   8.818  0.4515  1.7323 -0.4138
 4382SOL    HW224606   3.309   0.013   8.950  1.8301 -1.4045 -0.0704
 4383SOL     OW24607   0.500   3.092   6.378  0.3451  0.2179  0.1959
 4383SOL    HW124608   0.438   3.144   6.326  0.1888 -2.1797 -1.9679
 4383SOL    HW224609   0.445   3.020   6.408  1.1763 -0.1018  0.9367
 4384SOL     OW24610   4.358   2.204   7.725 -0.3524 -0.2450  0.5866
 4384SOL    HW124611   4.307   2.176   7.648  2.1960  0.9941 -1.5342
 4384SOL    HW224612   4.365   2.124   7.776  2.6111  0.8323  1.8307
 4385SOL     OW24613   1.069   4.304   7.592 -0.5956 -0.4385  0.6032
 4385SOL    HW124614   1.031   4.218   7.575 -0.9646 -0.3688  1.0482
 4385SOL    HW224615   1.157   4.290   7.559 -0.4123  0.2022  0.8131
 4386SOL     OW24616   0.431   3.941   8.726  0.0269  0.9526 -0.1458
 4386SOL    HW124617   0.403   3.895   8.805 -0.3831 -0.4617 -1.1149
 4386SOL    HW224618   0.353   3.939   8.671  1.4902 -1.0915 -2.1225
 4387SOL     OW24619   2.232   2.331   1.831 -0.6571  0.2329  0.2738
 4387SOL    HW124620   2.268   2.257   1.781  0.3920  0.5780  0.5047
 4387SOL    HW224621   2.279   2.318   1.914 -1.8722 -0.1378  0.9053
 4388SOL     OW24622   1.483   4.236   6.889  0.2546  0.5909  0.1054
 4388SOL    HW124623   1.460   4.323   6.855 -0.6892 -0.5944 -2.2189
 4388SOL    HW224624   1.402   4.184   6.887  1.3727 -1.1295 -0.0462
 4389SOL     OW24625   4.133   4.600   9.629  1.0027 -0.0651 -0.2514
 4389SOL    HW124626   4.065   4.611   9.695  1.2836 -0.7215  0.1493
 4389SOL    HW224627   4.138   4.687   9.591  2.4381 -0.1746 -0.3458
 4390SOL     OW24628   1.186   1.562   2.733 -0.0752  0.1532  0.2050
 4390SOL    HW124629   1.146   1.639   2.775  0.0008 -0.2036  0.9270
 4390SOL    HW224630   1.278   1.566   2.759  0.8719  2.6203 -3.5011
 4391SOL     OW24631   2.618   3.087   7.121 -0.5289 -0.0339 -0.0924
 4391SOL    HW124632   2.679   3.019   7.148 -1.5499 -0.0149  2.2300
 4391SOL    HW224633   2.633   3.138   7.200 -1.2409  0.6266 -0.3848
 4392SOL     OW24634   1.560   2.503   3.017  0.2165  0.1708 -0.5258
 4392SOL    HW124635   1.596   2.424   3.058  0.8608  0.6418 -0.1861
 4392SOL    HW224636   1.637   2.552   2.987 -0.0259  0.5033 -0.6047
 4393SOL     OW24637   4.513   3.386   6.801  0.0795  0.1553  0.0344
 4393SOL    HW124638   4.443   3.335   6.843  1.7148 -2.0964 -0.0183
 4393SOL    HW224639   4.591   3.343   6.836 -0.7032 -0.3786  1.1169
 4394SOL     OW24640   0.533   0.722  11.583 -0.4320  0.2536 -0.2163
 4394SOL    HW124641   0.558   0.664  11.511  2.0773  1.7202 -0.5315
 4394SOL    HW224642   0.554   0.809  11.550 -1.4267  0.2107 -0.9549
 4395SOL     OW24643   0.491   3.117   3.556 -0.0731 -0.1588 -0.0966
 4395SOL    HW124644   0.433   3.170   3.611  0.6505  0.1186  0.3994
 4395SOL    HW224645   0.456   3.028   3.550 -1.3381  0.3058  0.2251
 4396SOL     OW24646   3.361   3.991   0.881  0.4904  0.3901  0.3373
 4396SOL    HW124647   3.326   3.929   0.817  0.6488 -0.8182  1.4233
 4396SOL    HW224648   3.285   4.044   0.906 -1.0191 -2.2591  1.3080
 4397SOL     OW24649   4.665   0.019   3.602  0.0654 -0.6939  0.5144
 4397SOL    HW124650   4.706   0.034   3.517  1.0974 -1.3889  0.8980
 4397SOL    HW224651   4.706   4.662   3.627  0.9225  0.0216  1.4486
 4398SOL     OW24652   1.236   0.740   7.276 -0.1232  0.1101 -0.3543
 4398SOL    HW124653   1.153   0.723   7.232 -0.0641 -1.8120  0.2847
 4398SOL    HW224654   1.249   0.665   7.333  1.0897 -0.2833 -1.1412
 4399SOL     OW24655   2.759   3.624   7.187 -0.3724  0.0430  0.1221
 4399SOL    HW124656   2.789   3.564   7.255  0.2648 -0.4897 -0.6297
 4399SOL    HW224657   2.666   3.600   7.185 -0.6766  1.1693  0.4130
 4400SOL     OW24658   1.598   2.274  16.536 -0.2793 -0.1017  0.1109
 4400SOL    HW124659   1.617   2.319  16.454  1.5124 -0.7109  0.1946
 4400SOL    HW224660   1.502   2.282  16.537 -0.2005  0.4726  1.8252
 4401SOL     OW24661   3.918   4.648   1.733  0.1598  0.2142 -0.8279
 4401SOL    HW124662   3.839   4.598   1.713  0.8710 -1.6859  1.0715
 4401SOL    HW224663   3.922   4.686   1.646  0.4403  0.9630 -0.4867
 4402SOL     OW24664   3.389   2.667   4.914  0.1368 -0.3515 -0.9132
 4402SOL    HW124665   3.455   2.601   4.934  1.3720  0.7408 -1.4077
 4402SOL    HW224666   3.445   2.743   4.901 -1.7715  1.1003 -0.6577
 4403SOL     OW24667   3.468   2.319  13.690  0.5460 -0.1571  0.6764
 4403SOL    HW124668   3.520   2.397  13.671  0.7300 -0.1418  1.2255
 4403SOL    HW224669   3.512   2.293  13.771  0.6426  1.4015  1.1311
 4404SOL     OW24670   3.257   3.782  16.217 -0.0065  0.1267  0.7125
 4404SOL    HW124671   3.269   3.783  16.122  2.4302 -0.2345  1.0211
 4404SOL    HW224672   3.302   3.859  16.249 -1.1821 -0.1242  3.0173
 4405SOL     OW24673   2.425   0.521   8.211  0.2679 -1.0639 -0.0973
 4405SOL    HW124674   2.342   0.546   8.169  1.2532  1.3117 -0.6690
 4405SOL    HW224675   2.483   0.561   8.145  0.5115 -1.2039  0.0362
 4406SOL     OW24676   0.405   1.999   1.583 -0.3143 -0.2522 -0.3283
 4406SOL    HW124677   0.357   1.916   1.588  1.0786 -1.2059 -2.4323
 4406SOL    HW224678   0.451   1.977   1.664 -0.9782 -0.1853  0.0640
 4407SOL     OW24679   1.594   0.860  11.708  0.0744  0.4715 -0.5657
 4407SOL    HW124680   1.660   0.929  11.703 -1.2888  1.8533  0.3301
 4407SOL    HW224681   1.578   0.844  11.615 -1.2203 -0.3306 -0.2049
 4408SOL     OW24682   4.280   4.168   5.862  0.4172 -0.4847  0.1108
 4408SOL    HW124683   4.275   4.086   5.812 -1.0983 -0.2403 -0.1547
 4408SOL    HW224684   4.344   4.214   5.808 -3.0410  1.5303 -2.2838
 4409SOL     OW24685   3.958   0.047   3.623  0.6629  0.5289 -0.6852
 4409SOL    HW124686   3.880   0.075   3.671  1.0675  2.0245 -0.9216
 4409SOL    HW224687   3.930   0.019   3.536  2.9316 -0.6693 -1.0328
 4410SOL     OW24688   2.834   1.805   9.892 -0.2878  0.0403  0.1889
 4410SOL    HW124689   2.819   1.734   9.954  0.1249 -1.5159 -1.4820
 4410SOL    HW224690   2.909   1.767   9.847  0.0065  0.3366  0.4340
 4411SOL     OW24691   0.466   3.236   6.637 -0.0800  0.2594  0.5818
 4411SOL    HW124692   0.482   3.197   6.551  2.3753  1.5306  0.4440
 4411SOL    HW224693   0.428   3.320   6.609 -0.0679 -0.4193 -1.5023
 4412SOL     OW24694   3.621   0.772   8.736 -0.1285 -0.0310  0.0474
 4412SOL    HW124695   3.556   0.708   8.707  0.8734 -0.8067 -0.4633
 4412SOL    HW224696   3.584   0.858   8.716 -0.7256 -0.2816  0.0852
 4413SOL     OW24697   2.685   3.550   4.487  0.0418  0.3457 -0.0942
 4413SOL    HW124698   2.700   3.595   4.570  1.3836  1.6426 -1.0436
 4413SOL    HW224699   2.724   3.465   4.508 -0.8684  0.2797  1.2762
 4414SOL     OW24700   4.525   1.067   6.752  0.0946  0.5724  0.3774
 4414SOL    HW124701   4.507   0.975   6.771  0.6444  0.0999 -1.3519
 4414SOL    HW224702   4.454   1.110   6.800  1.5535  1.5738  1.6353
 4415SOL     OW24703   4.188   4.023   3.963 -0.2554 -0.4039 -0.2929
 4415SOL    HW124704   4.186   3.933   3.994  0.1352 -0.6193 -0.8895
 4415SOL    HW224705   4.236   4.018   3.880  1.3465 -0.7401  0.6417
 4416SOL     OW24706   1.855   1.938   8.293  0.0742  0.4623 -0.1096
 4416SOL    HW124707   1.913   1.885   8.348  0.9676  1.4629 -0.0840
 4416SOL    HW224708   1.889   1.917   8.206  1.9566  0.3634  0.6417
 4417SOL     OW24709   1.967   4.645   3.281 -0.3642 -0.0732 -0.0500
 4417SOL    HW124710   2.035   4.690   3.331 -1.2281  0.2754  0.8154
 4417SOL    HW224711   1.964   4.563   3.331 -1.0228 -1.5647 -2.5176
 4418SOL     OW24712   0.563   3.627   0.449 -0.1299  0.1717 -0.2276
 4418SOL    HW124713   0.630   3.594   0.389  0.5142  1.6582 -0.3041
 4418SOL    HW224714   0.509   3.548   0.458  1.6017 -0.8735  0.9471
 4419SOL     OW24715   3.715   0.767   4.446  0.2096 -0.4497  0.4324
 4419SOL    HW124716   3.715   0.692   4.505 -1.6274  0.1025  1.1527
 4419SOL    HW224717   3.663   0.832   4.494  1.2892 -0.2344  1.3186
 4420SOL     OW24718   0.253   1.303   2.113 -0.0921  0.2175 -0.4225
 4420SOL    HW124719   0.224   1.338   2.028 -0.5178  0.1887 -0.2922
 4420SOL    HW224720   0.287   1.218   2.086  2.5467  0.7380  1.2581
 4421SOL     OW24721   1.204   2.394   0.995  0.5566 -0.0440 -0.3247
 4421SOL    HW124722   1.133   2.369   0.935  0.2719 -0.2588  0.0981
 4421SOL    HW224723   1.252   2.461   0.946  1.4462 -0.8342 -0.5344
 4422SOL     OW24724   3.136   2.540   5.678 -0.6355  0.3343  0.0126
 4422SOL    HW124725   3.113   2.632   5.691 -0.6502  0.4789 -1.0602
 4422SOL    HW224726   3.229   2.557   5.668 -1.0537  2.6802  0.1206
 4423SOL     OW24727   3.751   1.471  10.834  0.2022  0.0171  0.1796
 4423SOL    HW124728   3.812   1.526  10.882  0.0038  0.0984  0.3352
 4423SOL    HW224729   3.799   1.452  10.753  0.8209 -1.5981  0.9240
 4424SOL     OW24730   1.402   3.184   3.271  0.7267  0.2833 -0.0222
 4424SOL    HW124731   1.314   3.145   3.263 -0.5108  2.8256  1.1698
 4424SOL    HW224732   1.400   3.280   3.268  2.0567  0.2683 -1.2819
 4425SOL     OW24733   0.453   0.724   5.443 -0.0451  0.3353  0.2230
 4425SOL    HW124734   0.539   0.741   5.405 -0.9109  1.9779 -0.9905
 4425SOL    HW224735   0.459   0.738   5.538 -1.1406  1.0310  0.1843
 4426SOL     OW24736   0.172   0.478   8.463 -0.2133 -0.0368 -0.6581
 4426SOL    HW124737   0.136   0.550   8.515  0.6562 -1.9300  2.5959
 4426SOL    HW224738   0.155   0.509   8.375  2.0843  0.2830 -0.9861
 4427SOL     OW24739   0.278   4.719   1.822  0.1905  0.2292  0.2181
 4427SOL    HW124740   0.190   4.686   1.840  0.8163 -0.3527  2.2167
 4427SOL    HW224741   0.337   4.654   1.860  1.5982  0.8476 -0.9069
 4428SOL     OW24742   2.199   0.594   6.337 -0.1835 -0.1151  0.1759
 4428SOL    HW124743   2.254   0.671   6.321  0.8452 -0.6694  1.1423
 4428SOL    HW224744   2.220   0.573   6.428 -0.8607 -0.7026  0.2005
 4429SOL     OW24745   1.033   1.939   2.438  0.1410 -0.0963  0.2015
 4429SOL    HW124746   1.119   1.959   2.402  0.2319 -0.9471 -0.0657
 4429SOL    HW224747   1.033   1.843   2.441 -2.2635 -0.1169 -0.3065
 4430SOL     OW24748   0.885   2.999  10.670  0.0232 -0.3041  0.1755
 4430SOL    HW124749   0.928   2.966  10.750  0.2472 -0.0158  0.1747
 4430SOL    HW224750   0.901   3.093  10.674  0.1578 -0.3147 -0.0823
 4431SOL     OW24751   0.993   0.554   2.742 -0.0971  0.3168  0.6060
 4431SOL    HW124752   0.927   0.484   2.744  0.2384 -0.0183 -0.0826
 4431SOL    HW224753   1.012   0.569   2.649 -0.7029  0.9976  0.5978
 4432SOL     OW24754   4.535   1.805   0.212 -0.3638  0.4847 -0.0142
 4432SOL    HW124755   4.487   1.823   0.292  0.0128  0.7351  0.1533
 4432SOL    HW224756   4.622   1.838   0.235  0.6556  1.4932 -5.2979
 4433SOL     OW24757   2.524   2.052   4.369 -0.1308  0.0034  0.2319
 4433SOL    HW124758   2.539   2.146   4.381  1.8320 -0.3922  0.8940
 4433SOL    HW224759   2.527   2.054   4.274  2.3686  0.7916  0.3328
 4434SOL     OW24760   0.584   3.580   8.902  0.0970 -0.0610 -0.9893
 4434SOL    HW124761   0.672   3.617   8.908  0.3419 -0.6656 -0.8792
 4434SOL    HW224762   0.598   3.542   8.816  0.0206  0.6076 -1.2983
 4435SOL     OW24763   3.449   0.999   8.627  0.0529 -0.4726  0.1865
 4435SOL    HW124764   3.375   0.974   8.682  0.3599 -2.1013 -0.1454
 4435SOL    HW224765   3.430   0.963   8.540  3.2292 -0.3184 -0.5635
 4436SOL     OW24766   2.944   3.948   0.024 -0.4875  0.1298  0.1301
 4436SOL    HW124767   2.936   3.930   0.118  3.6271 -3.0649 -0.1197
 4436SOL    HW224768   2.983   4.035   0.029 -1.7265  0.7179 -0.5614
 4437SOL     OW24769   4.523   1.232   8.915  0.1961  0.1719 -0.0273
 4437SOL    HW124770   4.485   1.182   8.842 -2.8283  3.4692 -0.6709
 4437SOL    HW224771   4.445   1.276   8.947  0.3707  0.5630 -0.1413
 4438SOL     OW24772   3.062   3.378   8.556 -0.0835 -0.0687  0.4916
 4438SOL    HW124773   3.007   3.301   8.561  0.5854 -0.5280  0.7948
 4438SOL    HW224774   3.133   3.346   8.612  0.2786 -3.8468 -2.1505
 4439SOL     OW24775   3.958   2.844   3.722 -0.0532 -0.1835  0.1142
 4439SOL    HW124776   3.952   2.759   3.766 -1.4105  0.6487  1.5207
 4439SOL    HW224777   4.017   2.830   3.647 -1.9718 -0.4022 -1.3593
 4440SOL     OW24778   0.343   3.188   7.604 -0.0655  0.3725 -0.0611
 4440SOL    HW124779   0.338   3.093   7.614  2.4256  0.6542  4.0400
 4440SOL    HW224780   0.423   3.198   7.553  0.7048  0.4265  1.1676
 4441SOL     OW24781   1.108   3.899  11.163 -0.1911 -0.2238  0.1196
 4441SOL    HW124782   1.090   3.820  11.213  0.3378 -0.2236  0.3071
 4441SOL    HW224783   1.091   3.868  11.074  2.3389 -0.7335 -0.1792
 4442SOL     OW24784   0.869   0.318   4.324 -0.2987 -0.1758  0.1337
 4442SOL    HW124785   0.928   0.297   4.252 -3.0896  1.4587 -2.6168
 4442SOL    HW224786   0.877   0.412   4.310  0.0451  0.0838  2.0937
 4443SOL     OW24787   0.802   4.635  11.011 -0.1360  0.3925 -0.5412
 4443SOL    HW124788   0.758   4.552  11.030  0.0363  0.4942  0.2883
 4443SOL    HW224789   0.891   4.616  10.980 -0.8384 -2.8827 -0.5357
 4444SOL     OW24790   3.152   2.028   3.628  0.0069 -0.2149  0.3486
 4444SOL    HW124791   3.146   1.937   3.655 -2.4324 -0.5579 -1.3388
 4444SOL    HW224792   3.180   2.021   3.537  0.1269 -0.7173  0.4264
 4445SOL     OW24793   4.155   0.614  16.524  0.1557 -0.3930  0.1259
 4445SOL    HW124794   4.176   0.708  16.527 -0.0576 -0.3394 -0.0765
 4445SOL    HW224795   4.232   0.581  16.478  0.2209  1.8418 -1.3945
 4446SOL     OW24796   1.443   1.792   4.647 -0.2117  0.0165 -0.4609
 4446SOL    HW124797   1.379   1.761   4.582 -0.3186  0.8751 -0.7710
 4446SOL    HW224798   1.441   1.887   4.639 -0.0855  0.2698  2.5867
 4447SOL     OW24799   2.560   2.977  11.992  0.1846 -0.3026  0.0819
 4447SOL    HW124800   2.610   3.058  11.981  0.1787 -0.5163 -1.4773
 4447SOL    HW224801   2.567   2.978  12.088  0.1689 -1.0540  0.0911
 4448SOL     OW24802   4.455   3.810   2.362  0.3606  0.6266 -0.2593
 4448SOL    HW124803   4.404   3.821   2.442  3.0826  0.6027  1.5053
 4448SOL    HW224804   4.390   3.781   2.299  1.6911 -0.8911 -0.9373
 4449SOL     OW24805   2.389   1.110  16.642  0.5113 -0.2795  0.0539
 4449SOL    HW124806   2.365   1.059  16.720 -1.4254 -0.5931 -0.7588
 4449SOL    HW224807   2.323   1.179  16.643 -0.7277 -1.4825  1.7046
 4450SOL     OW24808   3.352   1.351  17.239 -0.1171  0.5726  0.2482
 4450SOL    HW124809   3.416   1.386  17.301 -2.2057  0.3660  2.5204
 4450SOL    HW224810   3.275   1.385  17.285  0.5660  0.4162  1.5072
 4451SOL     OW24811   4.550   1.383   3.575 -0.0172 -0.2931  0.1830
 4451SOL    HW124812   4.458   1.410   3.567  0.6466  1.9018 -0.1646
 4451SOL    HW224813   4.589   1.406   3.491  1.5111 -1.2817  0.6331
 4452SOL     OW24814   0.811   4.107  17.478 -0.2015  0.3005  0.1158
 4452SOL    HW124815   0.721   4.140  17.484 -0.4564 -0.5339  0.9724
 4452SOL    HW224816   0.826   4.102  17.384 -0.0276 -0.6145  0.1846
 4453SOL     OW24817   4.716   4.648   8.266  0.1823 -0.1591 -0.5151
 4453SOL    HW124818   4.690   4.603   8.186 -2.5664  0.8794 -0.1912
 4453SOL    HW224819   4.632   4.684   8.292  1.4710  1.4226  1.4814
 4454SOL     OW24820   0.534   1.157  15.847 -0.5927  0.6336 -0.4236
 4454SOL    HW124821   0.473   1.145  15.919 -1.8134 -0.2884 -1.6136
 4454SOL    HW224822   0.605   1.103  15.883  0.5101  0.6159 -2.6148
 4455SOL     OW24823   0.406   3.206   0.759  0.1362 -0.5109  0.1684
 4455SOL    HW124824   0.426   3.201   0.852 -0.1123  0.7868  0.2864
 4455SOL    HW224825   0.351   3.128   0.746  0.7913 -1.1649  1.3308
 4456SOL     OW24826   0.284   1.840   3.816  0.4959  0.2792 -0.3014
 4456SOL    HW124827   0.276   1.899   3.741  0.0405  1.6501  0.8026
 4456SOL    HW224828   0.210   1.863   3.872 -0.4462 -1.3731 -0.9052
 4457SOL     OW24829   1.591   3.020   5.653  0.1593  0.5652  0.1417
 4457SOL    HW124830   1.534   2.973   5.592  0.8564 -0.0303 -0.0404
 4457SOL    HW224831   1.539   3.100   5.661  1.0750  1.0838  0.8491
 4458SOL     OW24832   3.203   0.919  15.390 -0.2489  0.0851  0.2359
 4458SOL    HW124833   3.131   0.857  15.400  0.8440 -1.3723 -0.8431
 4458SOL    HW224834   3.263   0.888  15.458  2.5162  0.6841 -1.9047
 4459SOL     OW24835   3.475   3.895  13.166 -0.4335 -0.2888  0.5437
 4459SOL    HW124836   3.538   3.825  13.179 -0.0082  0.3166  1.7839
 4459SOL    HW224837   3.478   3.904  13.071 -1.3483 -0.5023  0.4873
 4460SOL     OW24838   2.316   1.936   2.726 -0.2864  0.1252 -0.0661
 4460SOL    HW124839   2.394   1.913   2.777  1.3776 -1.0351 -3.1235
 4460SOL    HW224840   2.251   1.887   2.777  0.0764 -0.7012 -0.4000
 4461SOL     OW24841   1.817   2.532   1.689  0.0153 -0.0871  0.1538
 4461SOL    HW124842   1.810   2.532   1.594 -0.5398 -2.0865  0.1855
 4461SOL    HW224843   1.765   2.603   1.726 -0.3298 -0.4537  0.3822
 4462SOL     OW24844   2.102   2.856   5.072 -0.2611  0.1096  0.4413
 4462SOL    HW124845   2.116   2.948   5.091 -0.0936 -0.0211  0.9681
 4462SOL    HW224846   2.044   2.851   4.996  2.5836  2.4742 -1.8218
 4463SOL     OW24847   0.655   1.291   8.949  0.2414 -0.1307 -0.0313
 4463SOL    HW124848   0.619   1.206   8.973 -1.4800  0.1654 -1.5986
 4463SOL    HW224849   0.591   1.339   8.897 -1.3620 -0.7999  1.3408
 4464SOL     OW24850   1.674   0.317  15.256 -0.0775 -0.3533  0.3069
 4464SOL    HW124851   1.655   0.355  15.171 -1.8224  0.7705  1.2009
 4464SOL    HW224852   1.587   0.293  15.290  0.6705 -2.7554  0.5274
 4465SOL     OW24853   2.850   0.704   5.622 -0.3768  0.6824  0.8235
 4465SOL    HW124854   2.940   0.695   5.593 -1.1703  0.0875 -1.4663
 4465SOL    HW224855   2.816   0.625   5.579  1.7663  0.2838 -0.1253
 4466SOL     OW24856   0.807   4.561   5.796  0.4621 -0.2165  0.0282
 4466SOL    HW124857   0.861   4.606   5.862  1.7056  0.0862 -1.1917
 4466SOL    HW224858   0.874   4.515   5.745 -1.6077 -1.9913 -1.0831
 4467SOL     OW24859   0.419   2.812  10.471  0.7014  0.4173  0.4987
 4467SOL    HW124860   0.499   2.809  10.418 -0.4152 -0.0675 -1.1552
 4467SOL    HW224861   0.370   2.883  10.429  2.3948  1.5967  0.5115
 4468SOL     OW24862   4.545   0.035   7.909  0.1572 -0.0284  0.3064
 4468SOL    HW124863   4.477   0.049   7.843  0.9617  0.1472 -0.4763
 4468SOL    HW224864   4.513   4.681   7.952  2.7283 -0.3486  1.6192
 4469SOL     OW24865   1.883   1.218   2.421  0.5332  0.2378  0.1986
 4469SOL    HW124866   1.911   1.128   2.406 -0.4872  0.2312 -1.6485
 4469SOL    HW224867   1.788   1.219   2.405  0.3022 -0.9817  1.5081
 4470SOL     OW24868   2.314   3.412   5.088 -0.0829  0.6911  0.2467
 4470SOL    HW124869   2.314   3.498   5.046  2.0411 -0.0281 -1.2387
 4470SOL    HW224870   2.224   3.413   5.120 -0.6311 -1.0945 -1.2366
 4471SOL     OW24871   1.244   3.885   9.536 -0.6029 -0.5635  0.0508
 4471SOL    HW124872   1.272   3.803   9.578 -3.1884 -0.1412  2.5174
 4471SOL    HW224873   1.153   3.883   9.564  0.4812 -2.1512  3.4592
 4472SOL     OW24874   0.092   3.038   4.058  0.1257  0.2413  0.2727
 4472SOL    HW124875   0.183   3.056   4.034  0.1289  0.0830  0.1646
 4472SOL    HW224876   0.102   3.004   4.146  2.5644  0.2112 -0.0360
 4473SOL     OW24877   2.088   1.154   7.645 -0.2943 -0.0654  0.0806
 4473SOL    HW124878   2.036   1.152   7.564  3.1254 -0.0378 -2.1321
 4473SOL    HW224879   2.032   1.099   7.700 -1.2330  2.6928  1.8709
 4474SOL     OW24880   2.178   0.502   3.650 -0.5416  0.5870 -0.2168
 4474SOL    HW124881   2.183   0.463   3.563 -1.2921 -1.3027  0.5843
 4474SOL    HW224882   2.177   0.596   3.633 -0.3633  1.0615  2.3949
 4475SOL     OW24883   4.284   3.368   6.157 -0.0445  0.8324  0.0846
 4475SOL    HW124884   4.331   3.285   6.158  0.9786  1.4186  1.8333
 4475SOL    HW224885   4.325   3.411   6.082  0.2157 -1.7146 -1.2353
 4476SOL     OW24886   0.335   1.579   7.335  0.1099  0.1769 -0.7180
 4476SOL    HW124887   0.312   1.645   7.270 -0.6192  0.3344 -0.2918
 4476SOL    HW224888   0.345   1.504   7.275 -2.7397 -1.3267  0.7087
 4477SOL     OW24889   2.187   4.624  14.804 -0.5286 -0.0842 -0.2976
 4477SOL    HW124890   2.275   4.651  14.780  0.4930 -2.6770  0.4864
 4477SOL    HW224891   2.138   4.636  14.722 -0.4637  0.8609 -0.1961
 4478SOL     OW24892   2.089   4.207   7.821 -0.0208 -0.0216 -0.3758
 4478SOL    HW124893   2.128   4.170   7.742  1.3439 -0.1973  0.3877
 4478SOL    HW224894   2.132   4.156   7.889 -1.9534 -0.0030  0.8501
 4479SOL     OW24895   2.632   0.518   2.996 -0.1442 -0.2485 -0.0209
 4479SOL    HW124896   2.648   0.579   2.924 -0.9545  0.0965  0.0961
 4479SOL    HW224897   2.680   0.442   2.962 -1.3212 -0.7082 -0.6305
 4480SOL     OW24898   4.201   2.024   2.459  0.2721  0.0210 -0.3260
 4480SOL    HW124899   4.204   2.066   2.373 -1.5331 -0.9998 -0.8819
 4480SOL    HW224900   4.118   2.055   2.496  0.4411 -1.8089  1.5626
 4481SOL     OW24901   3.570   3.201   4.752  0.1941  0.1284  0.1673
 4481SOL    HW124902   3.577   3.253   4.832 -0.0232  0.5568 -0.0986
 4481SOL    HW224903   3.512   3.134   4.788 -0.2749  0.4304 -0.0285
 4482SOL     OW24904   2.877   1.729   4.765  0.3611 -0.0651 -0.3997
 4482SOL    HW124905   2.893   1.638   4.740  1.8789  0.2546 -0.5813
 4482SOL    HW224906   2.901   1.763   4.679  1.0044 -1.2742 -0.6975
 4483SOL     OW24907   3.836   1.645  16.487 -0.2138  0.4146  0.3720
 4483SOL    HW124908   3.861   1.556  16.512 -0.5558  0.6518  1.5582
 4483SOL    HW224909   3.784   1.679  16.560 -1.1199  0.7637 -0.4306
 4484SOL     OW24910   0.596   4.362   8.852  0.0140 -0.1949  0.5395
 4484SOL    HW124911   0.683   4.325   8.862 -0.0220 -0.5428 -0.5037
 4484SOL    HW224912   0.579   4.376   8.759 -0.0680  1.5996  0.8220
 4485SOL     OW24913   0.309   3.121   8.763 -0.7009 -0.7174 -0.3113
 4485SOL    HW124914   0.301   3.179   8.838  0.5928 -0.8210 -0.0995
 4485SOL    HW224915   0.280   3.036   8.797 -0.1392 -0.7302  0.1287
 4486SOL     OW24916   1.623   3.158   0.670 -0.3766 -0.1928  0.0979
 4486SOL    HW124917   1.584   3.111   0.744  1.4831 -0.2217  1.0489
 4486SOL    HW224918   1.544   3.183   0.621 -0.3861  0.2183  0.3286
 4487SOL     OW24919   0.880   1.652   4.033 -0.5477 -0.0236 -0.2553
 4487SOL    HW124920   0.957   1.610   4.071 -0.4099  0.2372 -0.2499
 4487SOL    HW224921   0.812   1.608   4.084 -0.8906 -1.7570 -2.2096
 4488SOL     OW24922   0.404   4.113  14.750  0.0734 -0.9434 -0.5282
 4488SOL    HW124923   0.425   4.022  14.771 -0.1693 -0.7619  0.5163
 4488SOL    HW224924   0.311   4.104  14.731  0.2371 -0.6086 -1.4846
 4489SOL     OW24925   4.401   1.915   2.640 -0.1207  0.7192 -0.1802
 4489SOL    HW124926   4.422   1.998   2.682 -0.0242  0.4181  0.3671
 4489SOL    HW224927   4.324   1.936   2.587 -0.3294 -1.3463 -0.7062
 4490SOL     OW24928   3.608   0.696   2.274 -0.1039 -0.3286 -0.5293
 4490SOL    HW124929   3.513   0.683   2.283 -0.0218 -1.3083 -1.0944
 4490SOL    HW224930   3.613   0.675   2.181  0.7823  0.7999 -0.7383
 4491SOL     OW24931   0.153   3.620   4.620 -0.0115  0.3562 -0.3913
 4491SOL    HW124932   0.126   3.548   4.563  1.4623 -1.9422  1.8297
 4491SOL    HW224933   0.066   3.659   4.628 -1.2281 -2.6807  0.9806
 4492SOL     OW24934   3.335   1.796   6.293  0.1767  0.5308  0.0999
 4492SOL    HW124935   3.265   1.800   6.357  0.0098 -2.0265  0.0563
 4492SOL    HW224936   3.407   1.784   6.355  1.0191  0.2125 -0.9325
 4493SOL     OW24937   0.825   1.111  12.944  0.0124  0.7152 -0.4950
 4493SOL    HW124938   0.796   1.135  13.032 -0.3944 -1.0353 -0.1606
 4493SOL    HW224939   0.860   1.027  12.973  0.2438  0.3863 -1.7672
 4494SOL     OW24940   0.142   4.427   2.087  0.0397 -0.0298 -0.1291
 4494SOL    HW124941   0.233   4.416   2.058 -0.4551 -0.0294 -1.6921
 4494SOL    HW224942   0.091   4.359   2.044 -0.9946 -0.1010  1.2392
 4495SOL     OW24943   2.369   0.914   8.485 -0.0562  0.0689 -0.6149
 4495SOL    HW124944   2.310   0.839   8.495  0.3652 -0.3425 -1.1715
 4495SOL    HW224945   2.408   0.902   8.398 -1.0755  1.0264 -1.2046
 4496SOL     OW24946   4.587   0.782  11.025  0.3889  0.1817 -0.1023
 4496SOL    HW124947   4.503   0.828  11.022  0.4031  0.1938 -0.3070
 4496SOL    HW224948   4.568   0.733  10.945 -1.9506 -0.4502  0.8381
 4497SOL     OW24949   1.168   0.145   4.257 -0.2756 -0.2781 -0.2765
 4497SOL    HW124950   1.135   0.058   4.236 -0.4774  0.2729 -2.3279
 4497SOL    HW224951   1.262   0.130   4.258 -0.7477 -3.0829 -0.2205
 4498SOL     OW24952   4.599   0.866   4.615  0.4250  0.0783 -0.3039
 4498SOL    HW124953   4.684   0.836   4.583 -0.4877 -0.3805 -2.2492
 4498SOL    HW224954   4.533   0.825   4.560  0.7291 -0.7651 -0.0338
 4499SOL     OW24955   2.787   1.741   9.188  0.0316 -0.5030  0.4208
 4499SOL    HW124956   2.785   1.764   9.281 -0.7704 -0.3622  0.3669
 4499SOL    HW224957   2.807   1.824   9.145  1.4595 -1.2631 -0.3896
 4500SOL     OW24958   2.462   3.972  17.307  0.6599 -0.2626  0.4464
 4500SOL    HW124959   2.467   3.925  17.391 -0.7759 -2.4828 -0.6820
 4500SOL    HW224960   2.372   3.944  17.287 -0.2013  3.0871 -0.3346
 4501SOL     OW24961   2.263   1.629  15.968  0.0267 -0.4407  0.7875
 4501SOL    HW124962   2.303   1.557  15.920 -1.0090  0.4447 -1.3755
 4501SOL    HW224963   2.244   1.691  15.897 -1.2973 -1.6119  0.1351
 4502SOL     OW24964   2.275   2.870  12.041  0.2500  0.5019  0.2866
 4502SOL    HW124965   2.295   2.842  12.131  0.7994 -0.9712 -0.2932
 4502SOL    HW224966   2.357   2.916  12.022  0.5919 -0.3589 -0.3489
 4503SOL     OW24967   2.902   1.295   4.823  0.0425  0.2569 -0.0932
 4503SOL    HW124968   2.975   1.279   4.764  1.2543  2.1035  0.9187
 4503SOL    HW224969   2.858   1.211   4.806  0.1806  0.4736 -1.5160
 4504SOL     OW24970   2.500   3.615   8.570  0.0891 -0.0673  0.0524
 4504SOL    HW124971   2.466   3.667   8.643 -0.3711  1.5082 -1.2861
 4504SOL    HW224972   2.426   3.616   8.509  0.4138  1.3262 -0.3160
 4505SOL     OW24973   1.531   3.893   6.062 -0.0867  0.0102  0.0634
 4505SOL    HW124974   1.523   3.982   6.027 -0.2128  0.1884  0.5501
 4505SOL    HW224975   1.593   3.912   6.132 -2.6016  0.4257  2.1470
 4506SOL     OW24976   4.214   3.326  12.659  0.4782  0.0099  0.0772
 4506SOL    HW124977   4.145   3.274  12.701 -0.4922  0.8300 -0.5164
 4506SOL    HW224978   4.180   3.413  12.681 -1.3572 -1.0256  1.3467
 4507SOL     OW24979   2.092   0.116   3.869 -0.0675  0.3526 -0.6410
 4507SOL    HW124980   2.030   0.044   3.860 -0.4649  0.5815  0.2751
 4507SOL    HW224981   2.044   0.184   3.820  0.8798 -0.4395 -2.6801
 4508SOL     OW24982   3.168   3.153   1.797 -0.0987  0.0456 -0.1300
 4508SOL    HW124983   3.183   3.247   1.784 -0.6338  0.2633  0.7835
 4508SOL    HW224984   3.085   3.134   1.753 -1.5467 -1.0880  3.1078
 4509SOL     OW24985   4.435   4.491   4.883  0.4373  0.4565  1.2703
 4509SOL    HW124986   4.412   4.584   4.880 -1.0146  0.0995  1.4040
 4509SOL    HW224987   4.474   4.476   4.797 -1.9095 -0.3518  0.3498
 4510SOL     OW24988   3.673   2.297   3.553  0.3980 -0.2350 -0.2663
 4510SOL    HW124989   3.758   2.311   3.513 -1.2080 -2.7239 -4.5238
 4510SOL    HW224990   3.688   2.233   3.623 -2.7922 -1.2467 -0.5118
 4511SOL     OW24991   2.457   2.447  17.097  0.2853  0.4611  0.5019
 4511SOL    HW124992   2.506   2.402  17.028 -1.0640 -0.7496  0.3406
 4511SOL    HW224993   2.424   2.375  17.152  0.1849  0.9841  1.1222
 4512SOL     OW24994   0.151   0.123   8.796 -0.2891  0.3446  0.2048
 4512SOL    HW124995   0.174   0.054   8.859  0.2737  1.0801  0.8050
 4512SOL    HW224996   0.126   0.070   8.721 -0.6448  2.0898 -0.8879
 4513SOL     OW24997   1.604   1.931  14.749 -0.1890 -0.1420  0.4007
 4513SOL    HW124998   1.514   1.929  14.716  0.1964 -0.4015 -0.6358
 4513SOL    HW224999   1.630   1.839  14.757 -0.0652 -0.3344 -2.2485
 4514SOL     OW25000   2.167   3.828   5.598 -0.0232 -0.5158 -0.0806
 4514SOL    HW125001   2.258   3.860   5.602 -0.8500  1.9096 -0.9652
 4514SOL    HW225002   2.142   3.873   5.517  0.3436  2.6978  1.6029
 4515SOL     OW25003   4.355   4.231   0.744  0.1176  0.0428  0.6269
 4515SOL    HW125004   4.415   4.175   0.696 -1.5855  0.1374 -1.6381
 4515SOL    HW225005   4.276   4.200   0.700 -0.0727  1.9595 -0.4193
 4516SOL     OW25006   0.197   2.086  17.683  0.2967 -0.2061  0.0250
 4516SOL    HW125007   0.206   2.026  17.609  1.4968 -1.2399  0.9996
 4516SOL    HW225008   0.110   2.114  17.655  1.6620  0.6618 -3.3319
 4517SOL     OW25009   4.642   3.291   8.834  0.5814  0.0389 -0.1248
 4517SOL    HW125010   4.643   3.291   8.929  1.6139  2.3014 -0.1286
 4517SOL    HW225011   4.587   3.214   8.818 -0.8444  0.9471  0.4249
 4518SOL     OW25012   3.920   1.999  13.110  0.0426  0.0623  0.3440
 4518SOL    HW125013   3.995   2.058  13.118 -0.3409  0.3884  1.4763
 4518SOL    HW225014   3.959   1.919  13.146  0.2949  0.5555  1.1581
 4519SOL     OW25015   4.506   2.187   8.139 -0.1587  0.3024 -0.9315
 4519SOL    HW125016   4.560   2.183   8.218 -2.6562  2.7120  0.9265
 4519SOL    HW225017   4.575   2.218   8.081  1.9852  0.3827  1.6322
 4520SOL     OW25018   3.951   0.754   9.832  0.1770  0.2366  0.3205
 4520SOL    HW125019   3.982   0.788   9.748 -2.0318  2.3352  0.3265
 4520SOL    HW225020   3.885   0.822   9.850 -2.0147 -2.3421  2.0523
 4521SOL     OW25021   3.393   2.827   7.907 -0.4463 -0.0427 -0.1413
 4521SOL    HW125022   3.332   2.758   7.933 -1.7010  0.9141 -0.5516
 4521SOL    HW225023   3.337   2.903   7.921 -0.4379 -0.3468  1.5357
 4522SOL     OW25024   1.018   4.237   0.385 -0.4333  0.5708  0.9446
 4522SOL    HW125025   1.061   4.322   0.395 -0.5161  0.7373 -0.0987
 4522SOL    HW225026   1.019   4.218   0.291 -1.1147 -0.7937  1.2178
 4523SOL     OW25027   4.163   1.460  12.516  0.4418  0.1549 -0.1324
 4523SOL    HW125028   4.140   1.544  12.555 -2.3650 -0.4487 -0.4657
 4523SOL    HW225029   4.256   1.465  12.491 -0.0015  1.3698 -1.5461
 4524SOL     OW25030   2.101   0.470   6.893 -0.6391 -0.3302 -0.8160
 4524SOL    HW125031   2.154   0.408   6.944 -1.8081 -0.8531 -0.2243
 4524SOL    HW225032   2.113   0.434   6.805 -0.3333  0.4750 -1.0984
 4525SOL     OW25033   2.168   0.387   2.869 -0.6534  0.2746 -0.2451
 4525SOL    HW125034   2.228   0.381   2.944  0.1645  2.7101 -0.6847
 4525SOL    HW225035   2.125   0.471   2.886  0.4320  0.7159  0.3449
 4526SOL     OW25036   1.023   2.917   4.829  0.0969  0.4581  0.1438
 4526SOL    HW125037   1.109   2.960   4.826  0.9826 -1.3361 -0.2720
 4526SOL    HW225038   0.977   2.979   4.886 -0.6444  0.9952 -1.0572
 4527SOL     OW25039   1.398   1.831   9.507 -0.0102  0.1760 -0.1032
 4527SOL    HW125040   1.350   1.768   9.453 -0.5357 -0.7048  1.3918
 4527SOL    HW225041   1.355   1.806   9.589 -1.0736  1.3185 -0.3340
 4528SOL     OW25042   3.528   1.257   8.763 -0.8072  0.0128  0.5653
 4528SOL    HW125043   3.474   1.185   8.732  0.5662 -0.4431 -0.7618
 4528SOL    HW225044   3.527   1.318   8.689  1.2581 -2.4861 -1.5089
 4529SOL     OW25045   0.880   2.332   5.149 -0.3079 -0.0117 -0.8541
 4529SOL    HW125046   0.916   2.304   5.233  0.0085 -1.9844 -1.6361
 4529SOL    HW225047   0.828   2.409   5.171 -1.5992 -1.4818  1.2624
 4530SOL     OW25048   0.289   0.299  10.594 -0.2391 -0.6532 -0.3486
 4530SOL    HW125049   0.338   0.291  10.676  1.0043 -0.0071 -1.0390
 4530SOL    HW225050   0.197   0.276  10.609  0.5658 -3.0524  0.7971
 4531SOL     OW25051   3.174   0.566   2.989 -0.3114  0.5775  0.6285
 4531SOL    HW125052   3.170   0.623   3.066  2.5435  0.2126  1.0444
 4531SOL    HW225053   3.107   0.602   2.931 -1.0960 -1.2427  0.4072
 4532SOL     OW25054   0.255   2.728   8.103 -0.3905 -0.3966  0.2790
 4532SOL    HW125055   0.313   2.749   8.176  0.9673  0.4725 -1.0666
 4532SOL    HW225056   0.186   2.793   8.120 -1.0992 -1.5403  1.7457
 4533SOL     OW25057   1.650   0.168   5.307 -0.0289  0.2520  0.6128
 4533SOL    HW125058   1.653   0.257   5.273 -1.4523  0.0086 -0.1749
 4533SOL    HW225059   1.566   0.167   5.352 -0.5548 -0.1617 -0.3805
 4534SOL     OW25060   1.428   0.466   2.227 -0.6697  0.4722  0.1892
 4534SOL    HW125061   1.495   0.469   2.295 -1.5672  0.7746  1.0545
 4534SOL    HW225062   1.414   0.372   2.216  1.8123  0.2664 -1.2566
 4535SOL     OW25063   3.621   1.389  14.880 -0.9737 -0.0354  0.3506
 4535SOL    HW125064   3.698   1.446  14.874  1.1372 -2.8390  0.5332
 4535SOL    HW225065   3.571   1.442  14.941 -0.9399  0.4842 -0.0738
 4536SOL     OW25066   2.095   2.298  10.225  0.0521 -0.2618  0.1985
 4536SOL    HW125067   2.122   2.299  10.317 -0.3590  1.3486  0.3132
 4536SOL    HW225068   2.047   2.217  10.237  1.3630 -1.1720 -0.6817
 4537SOL     OW25069   3.043   3.509   4.388  0.3127  0.6250 -0.0855
 4537SOL    HW125070   3.090   3.448   4.445 -0.1310  1.3479  1.0262
 4537SOL    HW225071   3.002   3.568   4.450  0.5066 -0.9668  1.5512
 4538SOL     OW25072   3.020   3.558   2.001  0.6351 -0.4300  0.5897
 4538SOL    HW125073   3.077   3.497   2.048  1.4066  0.0701  0.2904
 4538SOL    HW225074   2.972   3.500   1.942 -0.1362  1.0035 -0.1829
 4539SOL     OW25075   0.170   3.259   5.014  0.1841 -0.1394  0.0155
 4539SOL    HW125076   0.139   3.242   5.103 -1.2911 -1.5672 -0.7669
 4539SOL    HW225077   0.255   3.215   5.009  0.4206  0.4747 -1.3648
 4540SOL     OW25078   2.217   2.416   6.105 -0.0533  0.0406 -0.4894
 4540SOL    HW125079   2.288   2.352   6.099 -1.2999 -1.2704 -1.4208
 4540SOL    HW225080   2.149   2.381   6.047  0.4953 -1.7385 -0.0719
 4541SOL     OW25081   3.769   1.241   6.005 -0.6025 -0.8273  0.0841
 4541SOL    HW125082   3.786   1.296   6.081  1.0469 -2.6566  1.0222
 4541SOL    HW225083   3.790   1.298   5.932  0.1236 -2.4518 -0.9665
 4542SOL     OW25084   4.412   0.660   3.669  0.2489  0.3827 -0.1259
 4542SOL    HW125085   4.399   0.709   3.750 -0.5580 -0.9349  0.5647
 4542SOL    HW225086   4.505   0.643   3.659  0.0980  0.2881 -1.3750
 4543SOL     OW25087   3.294   0.971   1.722 -0.3590 -0.4913  0.1705
 4543SOL    HW125088   3.374   0.962   1.773  0.6512  1.0599 -1.1334
 4543SOL    HW225089   3.301   0.894   1.666 -0.0297  0.3510 -0.9479
 4544SOL     OW25090   4.550   1.756  13.658  0.5541  0.3947  0.0836
 4544SOL    HW125091   4.480   1.734  13.719  0.5849 -1.0816 -0.4244
 4544SOL    HW225092   4.497   1.787  13.585  0.7065  2.6225  0.8974
 4545SOL     OW25093   3.090   1.644   3.911 -0.3303  0.0668 -0.2218
 4545SOL    HW125094   3.108   1.737   3.905 -0.7480  0.0404 -1.7062
 4545SOL    HW225095   3.092   1.623   3.818 -0.6534  1.3735 -0.5208
 4546SOL     OW25096   3.193   3.156  10.776 -0.1349  0.1519  0.3948
 4546SOL    HW125097   3.195   3.080  10.835 -0.1022  1.3448  1.9462
 4546SOL    HW225098   3.114   3.198  10.810  1.2040  2.5885  0.5015
 4547SOL     OW25099   1.954   0.880   7.141  0.1757  0.2077  0.3278
 4547SOL    HW125100   1.996   0.938   7.078 -0.6179 -0.5857 -0.9307
 4547SOL    HW225101   1.928   0.809   7.083 -0.5347  2.6862 -2.4319
 4548SOL     OW25102   4.643   2.889   7.213  0.1732 -0.0560  0.0825
 4548SOL    HW125103   4.643   2.979   7.178 -0.4670  0.1487  0.6220
 4548SOL    HW225104   4.551   2.864   7.208  0.5127 -1.1184 -0.9530
 4549SOL     OW25105   0.063   3.379   4.501  0.3115 -0.0600  0.4551
 4549SOL    HW125106   0.108   3.295   4.495  2.6667  1.1377  1.4244
 4549SOL    HW225107   0.059   3.417   4.413  0.2977 -0.7262  0.1694
 4550SOL     OW25108   2.653   4.245  14.406 -0.0316 -0.5157 -0.5331
 4550SOL    HW125109   2.594   4.199  14.465  0.1045 -0.0508 -0.0358
 4550SOL    HW225110   2.645   4.192  14.327  0.4527  0.5921 -1.3293
 4551SOL     OW25111   2.391   3.026   9.924  0.0506  0.1927 -0.4870
 4551SOL    HW125112   2.315   2.978   9.892 -1.0306  1.1223  0.7118
 4551SOL    HW225113   2.460   2.993   9.866  0.6032  0.4005  0.0449
 4552SOL     OW25114   2.908   0.677   3.915  0.1575 -0.0852 -0.2929
 4552SOL    HW125115   2.833   0.733   3.894  0.7966 -0.1366 -2.7338
 4552SOL    HW225116   2.939   0.703   4.001  0.7088 -1.5291 -0.0484
 4553SOL     OW25117   1.565   1.141  12.330  0.6365  0.2552 -0.0723
 4553SOL    HW125118   1.555   1.236  12.324 -1.2249  0.0209 -0.6267
 4553SOL    HW225119   1.581   1.130  12.424  0.8226  4.0720  0.3546
 4554SOL     OW25120   1.332   1.568   6.973  0.2402 -0.0794  0.3718
 4554SOL    HW125121   1.358   1.504   7.040  0.4107  0.7052  1.0483
 4554SOL    HW225122   1.413   1.607   6.943  0.3490 -1.6736 -1.4242
 4555SOL     OW25123   3.878   1.535   2.017 -0.5829  0.3856  0.4674
 4555SOL    HW125124   3.891   1.508   2.109  0.9734 -2.6073 -0.6114
 4555SOL    HW225125   3.786   1.511   2.018  0.0275 -1.8796  1.8306
 4556SOL     OW25126   3.635   0.333   6.875 -0.3890  0.3563 -0.4663
 4556SOL    HW125127   3.554   0.282   6.867  0.1357 -0.3387 -1.3250
 4556SOL    HW225128   3.682   0.297   6.800 -1.9071  0.0767 -1.2786
 4557SOL     OW25129   2.418   4.487   7.442  0.5333  0.4242 -0.3638
 4557SOL    HW125130   2.498   4.534   7.467  0.0285  0.7061  0.7495
 4557SOL    HW225131   2.389   4.438   7.520  2.9747 -1.4528 -0.6280
 4558SOL     OW25132   3.007   3.368   4.031 -0.0419  0.2329  0.2347
 4558SOL    HW125133   3.038   3.428   3.964  0.5445 -1.5576 -1.0886
 4558SOL    HW225134   3.039   3.283   4.000 -1.8256 -0.4781  0.3002
 4559SOL     OW25135   2.705   1.126   5.616  0.1392 -0.1695  0.0763
 4559SOL    HW125136   2.612   1.107   5.609  0.2439 -1.2812  1.7807
 4559SOL    HW225137   2.741   1.078   5.542 -2.6213 -0.4506 -1.0757
 4560SOL     OW25138   2.823   3.142   6.836 -0.2339 -0.0700 -0.1140
 4560SOL    HW125139   2.836   3.126   6.929 -0.0792  1.9050  0.2107
 4560SOL    HW225140   2.908   3.174   6.805  1.0805 -1.5394  2.0280
 4561SOL     OW25141   4.347   1.553  12.295 -0.0238 -0.0652 -0.3141
 4561SOL    HW125142   4.344   1.528  12.202 -0.0028 -0.6057 -0.1725
 4561SOL    HW225143   4.437   1.523  12.311 -1.1557 -2.8177  0.8779
 4562SOL     OW25144   2.315   0.177   5.962 -0.0350  0.1966  0.2387
 4562SOL    HW125145   2.247   0.128   6.009  0.9249  0.5785  2.0369
 4562SOL    HW225146   2.340   0.237   6.032  1.6747  0.1217 -0.3101
 4563SOL     OW25147   1.883   3.602  14.071  0.3498  0.4590 -0.1356
 4563SOL    HW125148   1.841   3.516  14.076 -0.5609  0.9513  0.7155
 4563SOL    HW225149   1.872   3.626  14.163 -0.3394  0.7324 -0.2918
 4564SOL     OW25150   0.351   2.889   5.075 -0.1995 -0.0053 -0.0159
 4564SOL    HW125151   0.324   2.834   5.002  2.0812  1.2158 -1.7676
 4564SOL    HW225152   0.377   2.974   5.041  0.4307  1.0052  2.9641
 4565SOL     OW25153   2.112   1.669  12.249  0.6654 -0.8851 -0.2588
 4565SOL    HW125154   2.068   1.670  12.333  1.4936 -0.3547  0.1738
 4565SOL    HW225155   2.160   1.752  12.259 -1.6416  0.4696 -0.4583
 4566SOL     OW25156   1.131   3.756  14.399 -0.0530 -0.6703  0.0137
 4566SOL    HW125157   1.193   3.764  14.470  0.4215  1.0505 -0.5945
 4566SOL    HW225158   1.161   3.670  14.371  0.2486 -0.4743 -0.2682
 4567SOL     OW25159   3.301   0.534   1.930 -0.1887 -0.0656  0.3559
 4567SOL    HW125160   3.394   0.555   1.919 -0.4295  0.7740 -0.0970
 4567SOL    HW225161   3.295   0.454   1.877 -2.1097 -1.5899  2.9127
 4568SOL     OW25162   2.645   1.452   2.003  0.0274 -0.5042 -0.4131
 4568SOL    HW125163   2.688   1.366   1.997  0.3694 -0.3074 -0.7359
 4568SOL    HW225164   2.587   1.455   1.927  0.9468 -2.1423 -1.1668
 4569SOL     OW25165   0.919   2.146   9.322 -0.2802 -0.3356  0.3643
 4569SOL    HW125166   0.966   2.172   9.401 -1.0355  0.1630  0.6489
 4569SOL    HW225167   0.829   2.172   9.343 -0.9574 -1.3156 -1.2913
 4570SOL     OW25168   2.505   2.061  11.571 -0.0981 -0.1604  0.1015
 4570SOL    HW125169   2.449   2.139  11.576 -0.0235 -0.2594  2.5114
 4570SOL    HW225170   2.562   2.077  11.496  1.8282  2.6488  2.1298
 4571SOL     OW25171   2.892   3.112   8.441  0.1163 -0.2426  0.5868
 4571SOL    HW125172   2.856   3.064   8.515  2.4352 -1.1375  1.1343
 4571SOL    HW225173   2.959   3.047   8.418  0.4602  0.6379 -0.9471
 4572SOL     OW25174   4.088   2.105   3.927 -0.0924  0.0862  0.2557
 4572SOL    HW125175   4.069   2.026   3.876 -0.6709  0.5871 -0.2893
 4572SOL    HW225176   4.122   2.156   3.854  0.3151 -0.8920 -0.2451
 4573SOL     OW25177   4.497   0.269   8.090  0.2972 -0.5505  0.1917
 4573SOL    HW125178   4.437   0.233   8.155 -0.1933 -0.9951 -0.5175
 4573SOL    HW225179   4.503   0.201   8.024 -1.0856 -0.3899 -0.0832
 4574SOL     OW25180   1.233   2.413   8.026 -0.1218  0.2039  0.5677
 4574SOL    HW125181   1.250   2.340   8.085  0.2532 -0.1285  0.0596
 4574SOL    HW225182   1.308   2.469   8.047 -0.3637  0.4482  0.7720
 4575SOL     OW25183   3.241   2.762   2.639 -0.0949 -0.2889  0.1143
 4575SOL    HW125184   3.195   2.733   2.717  0.2358 -0.0471  0.4010
 4575SOL    HW225185   3.206   2.720   2.560 -0.3091  3.1239 -1.5990
 4576SOL     OW25186   4.666   4.354   7.410 -0.2565  0.4269 -0.9533
 4576SOL    HW125187   4.597   4.303   7.366  0.6771 -2.1918  0.6765
 4576SOL    HW225188   4.615   4.430   7.438 -0.0876 -0.9228  2.9625
 4577SOL     OW25189   0.634   4.555  13.992 -0.0964  0.1015 -0.4893
 4577SOL    HW125190   0.559   4.519  13.946 -0.9172  1.8455 -0.4988
 4577SOL    HW225191   0.691   4.478  14.001  0.9871  1.1927  2.1421
 4578SOL     OW25192   2.674   3.443   3.179  0.0172 -0.1135  0.1319
 4578SOL    HW125193   2.694   3.350   3.179 -1.4347 -0.4223  1.5780
 4578SOL    HW225194   2.733   3.472   3.109 -0.2913 -0.5701 -0.3165
 4579SOL     OW25195   0.539   2.490   2.039 -0.6416  0.1633 -0.3024
 4579SOL    HW125196   0.446   2.506   2.053 -0.7892 -1.6536  0.6710
 4579SOL    HW225197   0.580   2.566   2.081 -0.5622 -0.5745  0.9548
 4580SOL     OW25198   4.477   0.889   6.153 -0.2812  0.1288  0.3116
 4580SOL    HW125199   4.545   0.893   6.220 -1.4213 -1.7181  1.5880
 4580SOL    HW225200   4.487   0.979   6.120 -1.3998 -0.4900 -1.7302
 4581SOL     OW25201   2.142   2.734  10.891 -0.4296  0.5729  0.1294
 4581SOL    HW125202   2.076   2.803  10.899 -0.7799  0.2805 -0.2734
 4581SOL    HW225203   2.171   2.763  10.804 -2.1752  0.5134 -0.4711
 4582SOL     OW25204   2.671   3.008   6.184  0.0532  0.6094 -0.1527
 4582SOL    HW125205   2.757   2.973   6.159 -1.2225 -2.2838 -0.4608
 4582SOL    HW225206   2.602   2.968   6.131 -0.5902  0.0916  1.0830
 4583SOL     OW25207   2.895   2.212   2.443 -0.0830 -0.5105 -0.0691
 4583SOL    HW125208   2.815   2.212   2.496 -0.5696  3.7355 -0.7638
 4583SOL    HW225209   2.867   2.181   2.357 -1.7496  0.8494 -0.0058
 4584SOL     OW25210   1.903   4.166   8.512  0.0835 -0.0586  0.2768
 4584SOL    HW125211   1.992   4.171   8.546  0.3638  1.9216 -0.7800
 4584SOL    HW225212   1.912   4.088   8.457  1.2382 -0.0250  0.4176
 4585SOL     OW25213   0.858   4.609   3.930  0.2376 -0.3305 -0.0906
 4585SOL    HW125214   0.807   4.530   3.948  0.0253 -0.2337 -0.2712
 4585SOL    HW225215   0.823   4.634   3.844 -1.0672 -0.0535  0.5294
 4586SOL     OW25216   3.540   0.849   1.159  0.0896  0.0780 -0.1849
 4586SOL    HW125217   3.588   0.927   1.186  3.2526 -1.1804 -2.2010
 4586SOL    HW225218   3.614   0.796   1.130 -0.2638 -0.8305  0.5698
 4587SOL     OW25219   1.722   1.766   7.751 -0.2122  0.1901  0.3079
 4587SOL    HW125220   1.759   1.704   7.688  1.9322  0.1304  1.6303
 4587SOL    HW225221   1.787   1.771   7.821 -2.0815  0.4728  2.0232
 4588SOL     OW25222   0.106   2.205   1.400  0.5397  0.0482  0.1352
 4588SOL    HW125223   0.042   2.134   1.394  0.5699  0.0256  0.0800
 4588SOL    HW225224   0.177   2.142   1.413  0.2771 -0.5693 -1.3882
 4589SOL     OW25225   0.925   4.614   3.446 -1.3100 -0.2334 -0.1538
 4589SOL    HW125226   1.003   4.617   3.391 -0.4906  0.3753  1.0574
 4589SOL    HW225227   0.970   4.614   3.530 -1.0002 -0.0964 -0.3200
 4590SOL     OW25228   3.245   2.727   4.650  0.5136 -0.6837 -0.2994
 4590SOL    HW125229   3.195   2.807   4.635  1.7385  0.2661  0.6815
 4590SOL    HW225230   3.298   2.748   4.727 -0.6754 -1.7010  0.7893
 4591SOL     OW25231   2.123   1.383   3.472 -0.3803  0.1761  0.4701
 4591SOL    HW125232   2.086   1.464   3.438 -1.2932 -0.6359 -0.4330
 4591SOL    HW225233   2.218   1.388   3.462 -0.5270 -0.4427 -1.1638
 4592SOL     OW25234   3.047   4.305  17.432 -0.2069 -0.2952 -0.2302
 4592SOL    HW125235   3.101   4.237  17.473 -1.3692 -2.0524 -1.5902
 4592SOL    HW225236   3.074   4.382  17.481 -0.1239 -0.0950 -0.5912
 4593SOL     OW25237   3.735   3.151  10.715  0.4869 -0.2672  0.3103
 4593SOL    HW125238   3.796   3.086  10.681 -3.4475 -2.6470 -2.0849
 4593SOL    HW225239   3.648   3.121  10.689  0.1798  1.0088 -0.1295
 4594SOL     OW25240   4.685   4.284  10.378  0.4975  0.0599  0.3672
 4594SOL    HW125241   0.042   4.247  10.408 -1.0226 -2.4256  1.4114
 4594SOL    HW225242   4.693   4.259  10.286  1.1555 -1.9924  0.9918
 4595SOL     OW25243   2.559   2.015   6.418  0.3461 -0.2804 -0.0768
 4595SOL    HW125244   2.640   2.042   6.461  2.1758 -0.0566 -3.6025
 4595SOL    HW225245   2.558   1.923   6.443  0.1458 -0.3652 -0.3865
 4596SOL     OW25246   3.485   1.998  13.326  0.4788 -0.4543 -0.1471
 4596SOL    HW125247   3.549   2.012  13.256  1.5301 -1.0938  0.6945
 4596SOL    HW225248   3.448   2.085  13.310  2.1051  0.6549  2.1400
 4597SOL     OW25249   2.986   1.729   8.752 -0.3095  0.6969 -1.0733
 4597SOL    HW125250   3.039   1.678   8.691 -1.7875  0.7070 -2.3578
 4597SOL    HW225251   3.049   1.777   8.806  1.3366  0.7231 -3.0356
 4598SOL     OW25252   4.716   4.007   4.744  0.7064  0.1271 -0.2956
 4598SOL    HW125253   4.650   4.025   4.812  0.4169 -0.7803 -0.3419
 4598SOL    HW225254   4.674   4.037   4.663  0.1305  0.8447  0.2616
 4599SOL     OW25255   2.148   2.621   1.689  0.1014  0.2053 -0.4640
 4599SOL    HW125256   2.200   2.691   1.728 -0.4861  1.0126 -1.1320
 4599SOL    HW225257   2.177   2.622   1.598  0.7108  1.7564 -0.2434
 4600SOL     OW25258   2.934   1.337   2.823  0.2596  0.2425  0.5047
 4600SOL    HW125259   2.912   1.366   2.912  2.3974 -0.6603  1.3423
 4600SOL    HW225260   2.854   1.348   2.771 -0.1784 -0.7305  0.9897
 4601SOL     OW25261   4.643   1.694  15.915  0.3292  0.6854  0.3317
 4601SOL    HW125262   4.646   1.630  15.986 -3.3513  1.3959  1.1386
 4601SOL    HW225263   4.705   1.754  15.955  0.8075  0.8490 -0.6510
 4602SOL     OW25264   0.867   0.522  14.707 -0.0698 -0.3047 -0.2910
 4602SOL    HW125265   0.856   0.613  14.682  1.8852  0.9598  3.3301
 4602SOL    HW225266   0.849   0.534  14.800  1.7130 -0.4310  0.0796
 4603SOL     OW25267   3.160   1.115   6.738  0.0930 -0.6443  0.4107
 4603SOL    HW125268   3.237   1.145   6.786  1.3013 -0.3571 -1.7172
 4603SOL    HW225269   3.204   1.092   6.657 -1.1882 -2.0798  0.1287
 4604SOL     OW25270   0.286   0.407  10.098 -0.4156 -0.0093 -0.0622
 4604SOL    HW125271   0.270   0.313  10.087  0.4360 -0.2727  0.8799
 4604SOL    HW225272   0.379   0.404  10.123 -0.0028 -0.2029 -1.6194
 4605SOL     OW25273   1.982   1.986   6.924  0.1975 -1.2142  0.8494
 4605SOL    HW125274   1.924   2.004   6.998  0.9797 -0.2149  1.2248
 4605SOL    HW225275   1.937   1.910   6.886 -1.5839 -0.5234  1.5840
 4606SOL     OW25276   2.563   4.705   3.448 -0.2007  0.1080  0.0577
 4606SOL    HW125277   2.594   4.635   3.506  0.7374  1.0556  0.7023
 4606SOL    HW225278   2.645   0.026   3.435 -0.0190 -0.7617 -1.8453
 4607SOL     OW25279   2.173   4.095   8.371  0.4014 -0.2341  0.0061
 4607SOL    HW125280   2.230   4.171   8.356 -1.0231  0.1990 -3.1588
 4607SOL    HW225281   2.169   4.101   8.467 -0.9362  1.8685 -0.1868
 4608SOL     OW25282   0.402   4.390   3.767  0.5597 -0.1177  0.5076
 4608SOL    HW125283   0.464   4.418   3.701 -0.1848  1.5077  0.5142
 4608SOL    HW225284   0.390   4.477   3.804 -2.8954 -0.0902 -0.6931
 4609SOL     OW25285   1.809   1.700   6.184  0.6342 -0.2899 -0.4117
 4609SOL    HW125286   1.859   1.618   6.192  1.7365  0.3771 -0.4468
 4609SOL    HW225287   1.756   1.684   6.262 -0.3227 -2.5596 -1.5013
 4610SOL     OW25288   3.183   1.442  16.416 -0.0219 -0.4655  0.0804
 4610SOL    HW125289   3.150   1.377  16.478  0.8383 -2.1616 -1.2683
 4610SOL    HW225290   3.122   1.423  16.345  0.1370 -1.6290  0.2623
 4611SOL     OW25291   4.049   0.972  15.872  0.3582  0.0433 -0.3771
 4611SOL    HW125292   4.040   1.056  15.827 -2.3619 -0.9217 -1.6612
 4611SOL    HW225293   4.124   0.934  15.827  0.3684  0.7487 -0.9468
 4612SOL     OW25294   0.699   0.156   4.828 -0.6661 -0.0412  0.2816
 4612SOL    HW125295   0.704   0.251   4.838 -0.4993 -0.1026  0.7644
 4612SOL    HW225296   0.780   0.123   4.867 -1.5658 -1.1696  1.1941
 4613SOL     OW25297   3.782   2.425  10.209  0.0862 -0.2015 -0.1238
 4613SOL    HW125298   3.746   2.338  10.228  1.5725 -0.4848  1.4216
 4613SOL    HW225299   3.849   2.431  10.277 -0.5129  1.8216  0.2849
 4614SOL     OW25300   0.605   3.610  12.704 -0.1824 -0.0827 -0.3255
 4614SOL    HW125301   0.621   3.699  12.675  2.1620 -0.8571 -1.3562
 4614SOL    HW225302   0.575   3.576  12.620 -0.8648  1.7304 -0.8028
 4615SOL     OW25303   2.395   1.005   6.893 -0.2198 -0.7347 -0.3557
 4615SOL    HW125304   2.359   0.925   6.932  0.4736 -1.1029 -0.4612
 4615SOL    HW225305   2.433   1.054   6.966 -3.1072  0.0856  0.5840
 4616SOL     OW25306   4.511   0.698   9.289  0.5033  0.6203 -0.0359
 4616SOL    HW125307   4.584   0.672   9.344  0.2055  3.9439  1.9007
 4616SOL    HW225308   4.501   0.789   9.317 -0.6934 -0.0588  1.7450
 4617SOL     OW25309   1.164   3.159   4.239 -0.1207 -0.5935  0.3397
 4617SOL    HW125310   1.087   3.106   4.259 -0.7054 -0.0393 -0.4369
 4617SOL    HW225311   1.234   3.105   4.277 -0.2780 -1.7128 -0.9700
 4618SOL     OW25312   1.029   2.332  16.805 -0.1804  0.3966  0.2184
 4618SOL    HW125313   1.078   2.250  16.815  0.1574  0.6486  0.6378
 4618SOL    HW225314   1.084   2.397  16.761  0.7551  0.9145  2.1616
 4619SOL     OW25315   3.363   1.181   1.566  0.7963  0.1756 -0.7308
 4619SOL    HW125316   3.295   1.217   1.509  0.1474 -0.6584 -0.4923
 4619SOL    HW225317   3.318   1.106   1.607  1.3812  1.1546  1.7106
 4620SOL     OW25318   1.950   1.393   5.074  0.3955 -0.3034 -0.1314
 4620SOL    HW125319   1.865   1.363   5.043 -0.4918  1.0724  0.9689
 4620SOL    HW225320   1.929   1.480   5.108 -2.1563 -0.3464 -1.6261
 4621SOL     OW25321   1.525   0.191   2.415 -0.1845  0.3110  0.7169
 4621SOL    HW125322   1.460   0.246   2.459 -1.8067 -1.8557  1.0076
 4621SOL    HW225323   1.600   0.195   2.475  0.0567  0.7055  0.3925
 4622SOL     OW25324   2.314   2.137   6.797  0.7491  0.4043 -0.2598
 4622SOL    HW125325   2.243   2.200   6.801 -0.4417 -1.0015  0.4621
 4622SOL    HW225326   2.303   2.092   6.713  1.2458  1.3695 -0.8491
 4623SOL     OW25327   1.031   1.269  17.051  0.2492  0.5796  0.1920
 4623SOL    HW125328   1.111   1.278  17.103  0.1699 -1.8875  0.7328
 4623SOL    HW225329   1.007   1.178  17.066 -0.9470  0.8467 -0.0822
 4624SOL     OW25330   3.390   4.674   8.283 -0.5649 -0.6208  0.0787
 4624SOL    HW125331   3.357   4.627   8.207  2.0799 -0.1823 -1.3485
 4624SOL    HW225332   3.318   4.658   8.344 -0.0345 -1.7690  0.4101
 4625SOL     OW25333   3.119   1.563  10.501  0.9726 -0.4395 -0.1466
 4625SOL    HW125334   3.050   1.520  10.551  1.1179 -0.1302  0.3170
 4625SOL    HW225335   3.124   1.518  10.417  0.9296  1.5129 -1.1935
 4626SOL     OW25336   3.685   3.160   9.237  0.1068  0.4534 -0.0675
 4626SOL    HW125337   3.760   3.204   9.197 -1.2021  1.1512 -1.7731
 4626SOL    HW225338   3.678   3.076   9.192  1.2599  0.4023 -0.1495
 4627SOL     OW25339   0.572   1.161   1.481 -0.7672  0.3287  0.0224
 4627SOL    HW125340   0.502   1.172   1.545 -0.6762  1.8830 -0.1420
 4627SOL    HW225341   0.621   1.238   1.511 -0.4681  0.2897 -0.3612
 4628SOL     OW25342   0.630   0.317  13.906 -0.8414 -0.2808 -0.4185
 4628SOL    HW125343   0.667   0.236  13.940 -0.5556 -0.7110 -1.7682
 4628SOL    HW225344   0.682   0.376  13.961  1.5356  0.4850 -3.4917
 4629SOL     OW25345   0.443   0.206   5.003  0.3582  0.2997  0.4054
 4629SOL    HW125346   0.499   0.142   4.958 -0.2270  0.2968 -0.3169
 4629SOL    HW225347   0.419   0.145   5.072 -2.2041  0.8086 -0.0323
 4630SOL     OW25348   4.709   2.570   3.139  0.2172 -0.2370  0.7357
 4630SOL    HW125349   4.640   2.636   3.133 -0.2378 -0.7627  0.1897
 4630SOL    HW225350   4.653   2.495   3.120  0.0364  0.0733  0.0693
 4631SOL     OW25351   3.257   1.817  13.365  0.5350 -0.4068 -0.2447
 4631SOL    HW125352   3.169   1.848  13.344  1.4402  1.9179 -0.6390
 4631SOL    HW225353   3.253   1.721  13.364  0.0199 -0.3890  0.8907
 4632SOL     OW25354   1.540   1.710   6.874 -0.1979  0.1072  0.3036
 4632SOL    HW125355   1.552   1.706   6.779  0.6694 -0.2127  0.4285
 4632SOL    HW225356   1.554   1.804   6.889 -0.5574 -0.1073  2.0557
 4633SOL     OW25357   3.050   3.413   5.192 -0.5714 -0.1713  0.3207
 4633SOL    HW125358   2.956   3.405   5.178 -0.3144  1.4299 -2.4049
 4633SOL    HW225359   3.050   3.507   5.173 -2.7331 -0.1199  0.6409
 4634SOL     OW25360   3.905   4.685  11.227  0.0344  0.1649  0.0375
 4634SOL    HW125361   3.955   0.041  11.222 -0.3564  0.3453 -1.0467
 4634SOL    HW225362   3.965   4.621  11.189 -0.6991 -0.7198  0.3659
 4635SOL     OW25363   0.385   4.095   2.510 -0.0788  0.1460 -0.2660
 4635SOL    HW125364   0.290   4.087   2.518  0.0623  0.0262  1.3234
 4635SOL    HW225365   0.397   4.048   2.427  1.5087  0.2043 -0.0693
 4636SOL     OW25366   0.269   2.694   1.975 -0.0523  0.4525  0.1602
 4636SOL    HW125367   0.199   2.658   2.030  1.1037 -0.7215  0.8754
 4636SOL    HW225368   0.262   2.623   1.910  0.8771  1.2007 -0.7483
 4637SOL     OW25369   2.917   2.217  13.908 -0.6524  0.2576 -0.1297
 4637SOL    HW125370   2.924   2.133  13.862 -0.4805  0.6969 -0.9017
 4637SOL    HW225371   2.992   2.224  13.967 -0.5047  1.7744 -0.4926
 4638SOL     OW25372   1.846   0.282  13.176  0.6244  0.3360 -0.6358
 4638SOL    HW125373   1.886   0.312  13.094 -0.0594 -0.4897 -1.2603
 4638SOL    HW225374   1.926   0.246  13.213  0.1325 -0.5875 -0.4790
 4639SOL     OW25375   3.471   4.180  13.387 -0.2555 -0.0088 -0.1430
 4639SOL    HW125376   3.401   4.216  13.442  2.7659  0.4836  3.3196
 4639SOL    HW225377   3.424   4.103  13.354 -1.7535  0.7936  0.0983
 4640SOL     OW25378   4.450   2.656   4.449 -0.0252 -0.0867  0.1157
 4640SOL    HW125379   4.358   2.629   4.444  0.0231 -0.0936 -0.6692
 4640SOL    HW225380   4.455   2.687   4.539  1.5136 -3.3238  1.1782
 4641SOL     OW25381   0.474   1.769   4.079  0.5522  0.5248  0.4457
 4641SOL    HW125382   0.405   1.835   4.074  0.5936  0.2607 -3.6424
 4641SOL    HW225383   0.542   1.818   4.126 -0.2205 -0.0944  2.2276
 4642SOL     OW25384   2.082   0.388   3.360 -0.1680  0.4869  0.1005
 4642SOL    HW125385   2.079   0.335   3.280  1.4717 -0.5377  0.7330
 4642SOL    HW225386   2.027   0.344   3.425 -0.4664  0.6377 -0.0522
 4643SOL     OW25387   2.189   3.066   4.456  0.3408 -0.5241  0.1385
 4643SOL    HW125388   2.229   2.984   4.428 -1.2508 -0.7388 -1.5167
 4643SOL    HW225389   2.138   3.093   4.379 -0.7975 -0.3815  0.9465
 4644SOL     OW25390   2.774   3.736   4.976  0.0619 -0.0138 -0.5380
 4644SOL    HW125391   2.732   3.706   5.057  0.6916  0.7979  0.0799
 4644SOL    HW225392   2.778   3.831   4.986 -0.2433  0.1629 -2.1238
 4645SOL     OW25393   0.573   3.106   1.489  0.0858 -0.1599 -0.0720
 4645SOL    HW125394   0.600   3.148   1.570  1.0168  1.3440 -1.1548
 4645SOL    HW225395   0.624   3.170   1.439  0.9306 -0.5730  0.2673
 4646SOL     OW25396   3.630   3.013  15.209  0.2808  0.4553  0.0139
 4646SOL    HW125397   3.654   2.921  15.218  0.7481  0.6380  0.6325
 4646SOL    HW225398   3.645   3.024  15.115 -0.0478  1.7697  0.1176
 4647SOL     OW25399   4.557   2.582   1.961 -0.3375 -0.1999 -0.2335
 4647SOL    HW125400   4.530   2.670   1.935 -2.5307 -0.7749  0.1128
 4647SOL    HW225401   4.618   2.603   2.032  0.7023 -2.0092 -0.5894
 4648SOL     OW25402   1.238   4.561   5.732  0.0989 -0.3111 -0.5800
 4648SOL    HW125403   1.246   4.575   5.637  4.0291 -1.9245 -0.5216
 4648SOL    HW225404   1.195   4.475   5.725 -0.4261 -0.1233  0.4087
 4649SOL     OW25405   0.307   2.195   4.725  0.1339 -0.2595  0.7187
 4649SOL    HW125406   0.234   2.217   4.782  1.1370  1.9614  1.1850
 4649SOL    HW225407   0.264   2.134   4.666  3.3767 -1.0007 -0.9244
 4650SOL     OW25408   1.240   2.658   0.752  0.5194  0.2882 -0.4434
 4650SOL    HW125409   1.216   2.728   0.813 -1.9827 -0.2346 -0.8240
 4650SOL    HW225410   1.331   2.680   0.733  0.0196 -1.2931 -4.6922
 4651SOL     OW25411   2.697   3.532   3.920 -0.2315 -0.6430 -0.0789
 4651SOL    HW125412   2.717   3.439   3.935  3.9968  0.5216  1.3045
 4651SOL    HW225413   2.671   3.552   4.010 -2.4641 -1.2170 -0.5698
 4652SOL     OW25414   4.446   4.294  12.854 -0.0664 -0.6259  0.1804
 4652SOL    HW125415   4.522   4.237  12.869  1.4490  1.0468 -1.0276
 4652SOL    HW225416   4.398   4.284  12.935 -2.7871 -1.1719 -1.5070
 4653SOL     OW25417   3.751   2.068   3.693 -0.2599 -0.1413 -0.2434
 4653SOL    HW125418   3.831   2.045   3.646  0.6094 -1.1375  1.7377
 4653SOL    HW225419   3.685   2.001   3.674 -1.1183  1.0406 -1.4767
 4654SOL     OW25420   3.421   2.498   5.687 -0.1447  0.4627  0.7608
 4654SOL    HW125421   3.384   2.410   5.687  0.3100  0.2911 -1.3560
 4654SOL    HW225422   3.490   2.488   5.753 -0.6004  1.3112  1.3637
 4655SOL     OW25423   4.167   4.560   1.561 -0.1098 -0.2972 -0.2559
 4655SOL    HW125424   4.169   4.562   1.657 -0.8560 -0.6545 -0.2382
 4655SOL    HW225425   4.095   4.620   1.542 -0.8429 -1.5357 -1.3285
 4656SOL     OW25426   1.477   2.099   2.032 -0.0163 -0.1102  0.6053
 4656SOL    HW125427   1.460   2.149   2.113 -3.9805 -1.0549  0.3613
 4656SOL    HW225428   1.418   2.024   2.028 -0.2259  0.1478 -0.8622
 4657SOL     OW25429   1.796   2.527  15.820  0.1961 -0.0364 -0.6278
 4657SOL    HW125430   1.826   2.604  15.869 -1.6137 -0.0436  0.4820
 4657SOL    HW225431   1.766   2.556  15.735  0.7769 -0.5620 -1.0142
 4658SOL     OW25432   4.511   2.062   5.903 -0.2775 -0.1237  0.1482
 4658SOL    HW125433   4.422   2.080   5.934 -0.3139  3.5471 -2.0998
 4658SOL    HW225434   4.521   1.970   5.928 -1.0328 -0.1720  0.2575
 4659SOL     OW25435   2.686   2.702   3.890 -0.8643  0.0818 -0.4016
 4659SOL    HW125436   2.620   2.758   3.849  1.5986  1.0197 -3.0614
 4659SOL    HW225437   2.677   2.616   3.848  0.5033 -1.7727  3.0811
 4660SOL     OW25438   1.887   2.954   8.419 -0.1339 -0.1833 -0.3320
 4660SOL    HW125439   1.923   2.866   8.411 -0.8837 -0.5532  0.3929
 4660SOL    HW225440   1.966   3.007   8.431 -1.9229  1.9816  1.9114
 4661SOL     OW25441   4.650   1.834  11.815 -0.2268  0.1939  0.6533
 4661SOL    HW125442   4.715   1.808  11.750  0.0159  1.1486  0.5203
 4661SOL    HW225443   4.674   1.780  11.890 -0.8799 -1.5432 -0.3871
 4662SOL     OW25444   1.298   4.212   9.237 -0.2649 -0.2981  0.3246
 4662SOL    HW125445   1.339   4.190   9.321 -2.1162 -3.7274  0.3224
 4662SOL    HW225446   1.219   4.158   9.238 -0.3147 -0.2126  1.1458
 4663SOL     OW25447   3.319   3.330   2.361  0.3476  0.0500 -0.0294
 4663SOL    HW125448   3.414   3.318   2.357  0.3407 -0.6828  1.9711
 4663SOL    HW225449   3.285   3.241   2.363  0.2087  0.1087  0.2821
 4664SOL     OW25450   3.215   3.609   5.630 -0.0150 -0.1467 -0.0422
 4664SOL    HW125451   3.291   3.581   5.579  1.1514  0.8385  1.1609
 4664SOL    HW225452   3.232   3.702   5.648  1.9120 -0.1871 -1.5942
 4665SOL     OW25453   2.120   1.231   8.082  0.6918 -0.0056  0.3383
 4665SOL    HW125454   2.054   1.298   8.100  1.7174  1.2345 -0.5010
 4665SOL    HW225455   2.060   1.159   8.060 -0.9797  1.5215 -0.0718
 4666SOL     OW25456   0.457   1.626  17.425 -0.4631 -0.5936  0.0315
 4666SOL    HW125457   0.494   1.702  17.380 -1.8954  0.4191  0.5800
 4666SOL    HW225458   0.485   1.656  17.512 -1.6069 -1.9705  0.8814
 4667SOL     OW25459   1.818   3.996   9.434  0.3226  0.0488 -0.2146
 4667SOL    HW125460   1.821   3.964   9.344  1.9592 -1.7753  0.4882
 4667SOL    HW225461   1.805   4.090   9.422  0.1496  0.1323  0.6134
 4668SOL     OW25462   2.027   0.535   1.629  0.4153  0.6622  0.0007
 4668SOL    HW125463   2.118   0.532   1.599  0.6301  0.8056  0.6433
 4668SOL    HW225464   2.037   0.513   1.722  2.0004 -0.7987 -0.5051
 4669SOL     OW25465   1.410   4.345  12.315  0.0831 -0.0264  0.0429
 4669SOL    HW125466   1.484   4.341  12.255  1.5133  1.6614  1.6872
 4669SOL    HW225467   1.418   4.438  12.335  0.7347 -0.5131  2.0044
 4670SOL     OW25468   3.451   1.927  10.080 -0.0441  0.2614  0.3094
 4670SOL    HW125469   3.401   1.864  10.028  0.0670 -1.8061  2.7697
 4670SOL    HW225470   3.531   1.943  10.029  1.4990 -2.0106  2.0301
 4671SOL     OW25471   0.017   2.311   4.365  0.5342  0.0480 -0.7896
 4671SOL    HW125472   4.723   2.366   4.290 -2.4242 -0.9058 -0.7196
 4671SOL    HW225473   4.721   2.225   4.329 -0.7177  0.1525 -0.2896
 4672SOL     OW25474   0.736   4.336   0.824  0.2830 -0.2381  0.2987
 4672SOL    HW125475   0.647   4.329   0.789 -0.3066  0.0004  1.7504
 4672SOL    HW225476   0.787   4.310   0.747 -1.3092 -1.4387 -0.3496
 4673SOL     OW25477   1.934   2.699   5.197  0.1527 -0.2841 -0.3293
 4673SOL    HW125478   1.898   2.660   5.117  1.8130 -0.8372 -0.8058
 4673SOL    HW225479   2.004   2.751   5.157 -0.9522  1.3365 -0.1781
 4674SOL     OW25480   1.577   1.405   7.587 -0.2344 -0.3264  0.3089
 4674SOL    HW125481   1.626   1.366   7.659  0.2277  1.7930  1.1557
 4674SOL    HW225482   1.500   1.440   7.632  0.5466 -1.1617  2.2620
 4675SOL     OW25483   1.667   3.671   8.122 -0.0271 -0.2524 -0.3721
 4675SOL    HW125484   1.613   3.674   8.201  1.5674 -1.0810  0.7645
 4675SOL    HW225485   1.675   3.765   8.104  1.4830 -0.1515  0.8779
 4676SOL     OW25486   1.812   0.588   5.646 -0.0526  0.2905  0.7667
 4676SOL    HW125487   1.768   0.573   5.562 -1.0864  0.2477  1.3073
 4676SOL    HW225488   1.807   0.683   5.660 -0.0195  0.8423 -2.9262
 4677SOL     OW25489   3.163   1.631   9.030  0.3298  1.2728 -0.0178
 4677SOL    HW125490   3.134   1.710   8.984 -1.2486  1.2889  1.0010
 4677SOL    HW225491   3.245   1.618   8.984 -0.5324 -2.0449 -0.6134
 4678SOL     OW25492   2.581   4.519   0.839 -0.4856 -0.6058 -0.1169
 4678SOL    HW125493   2.642   4.454   0.874  1.1347  0.6450 -0.6339
 4678SOL    HW225494   2.551   4.557   0.922  0.4892 -1.1786  0.4947
 4679SOL     OW25495   1.259   0.407   9.937 -0.2836 -0.1932 -0.0494
 4679SOL    HW125496   1.353   0.395   9.951 -0.8133 -2.3263  1.5916
 4679SOL    HW225497   1.261   0.485   9.881 -1.2356  0.8882  1.4074
 4680SOL     OW25498   4.349   2.651   4.732  0.3179 -0.2998 -0.6743
 4680SOL    HW125499   4.374   2.599   4.808 -1.6044 -1.6715 -0.9725
 4680SOL    HW225500   4.393   2.735   4.746 -0.2326 -0.3904  1.5538
 4681SOL     OW25501   2.138   3.485   7.946  0.0040 -0.0763 -0.1714
 4681SOL    HW125502   2.132   3.395   7.979  0.8417 -0.5002 -1.1709
 4681SOL    HW225503   2.055   3.520   7.977  0.0816  1.3753 -1.6347
 4682SOL     OW25504   0.002   1.822  13.464 -0.5189 -0.0079 -0.1187
 4682SOL    HW125505   4.669   1.850  13.393  0.9192 -1.5558 -1.9298
 4682SOL    HW225506   4.667   1.824  13.538  0.0687 -2.1184  0.4205
 4683SOL     OW25507   3.113   1.739   7.535 -0.5215  0.6421 -0.2202
 4683SOL    HW125508   3.082   1.681   7.465  0.6761 -1.8399  1.3206
 4683SOL    HW225509   3.144   1.674   7.598  1.3155  1.6986 -0.0498
 4684SOL     OW25510   1.758   4.289   8.224 -0.6988 -0.3510 -0.1559
 4684SOL    HW125511   1.778   4.295   8.318 -2.2321  1.8639  0.0472
 4684SOL    HW225512   1.833   4.249   8.181  0.5202 -0.6729  2.2379
 4685SOL     OW25513   2.916   4.044  14.069 -0.3964 -0.2933  0.0234
 4685SOL    HW125514   2.949   4.047  13.979 -0.1576  1.9775  0.1750
 4685SOL    HW225515   2.826   4.075  14.058 -0.7243 -1.6560 -1.1166
 4686SOL     OW25516   0.731   3.119  17.230  0.1249 -0.0994 -0.3272
 4686SOL    HW125517   0.760   3.113  17.321  2.0325 -1.6200 -1.0380
 4686SOL    HW225518   0.786   3.057  17.182  0.8568  0.1470  0.1855
 4687SOL     OW25519   2.333   4.344   5.184  0.1076  0.6137 -0.7596
 4687SOL    HW125520   2.239   4.340   5.203  0.4418 -0.1870  0.6820
 4687SOL    HW225521   2.341   4.273   5.121  0.3220 -1.4826  1.6346
 4688SOL     OW25522   0.884   3.378   2.577  0.0541  0.6995 -0.4193
 4688SOL    HW125523   0.869   3.315   2.648  0.6335  0.2845 -0.6717
 4688SOL    HW225524   0.975   3.397   2.601  0.6871 -0.6954 -1.7376
 4689SOL     OW25525   3.487   0.099  17.671  0.6999 -0.1063 -0.1479
 4689SOL    HW125526   3.399   0.136  17.664 -0.0185 -1.9058 -0.6866
 4689SOL    HW225527   3.539   0.170   0.005 -2.1655  1.3195  1.2270
 4690SOL     OW25528   4.184   0.939  14.703 -0.0534  0.0271 -0.5338
 4690SOL    HW125529   4.208   1.020  14.747 -0.1624 -0.1273 -0.1913
 4690SOL    HW225530   4.184   0.879  14.778  0.6714  0.3698 -0.2576
 4691SOL     OW25531   3.743   2.980   9.001 -0.0740 -0.0144 -0.0284
 4691SOL    HW125532   3.712   3.051   8.946 -1.4764 -0.3025  0.3968
 4691SOL    HW225533   3.662   2.944   9.036 -0.7483 -0.0082 -1.5982
 4692SOL     OW25534   2.241   0.776   8.822  0.0307  0.6254  0.0004
 4692SOL    HW125535   2.331   0.746   8.809 -0.4553 -0.0595 -1.8194
 4692SOL    HW225536   2.257   0.870   8.815  1.7296  0.2136 -1.5514
 4693SOL     OW25537   4.472   3.420  13.879 -0.0285 -0.5808  0.4768
 4693SOL    HW125538   4.521   3.503  13.876  0.8881 -1.1005  1.2491
 4693SOL    HW225539   4.528   3.356  13.835 -0.3835 -2.6065  2.9908
 4694SOL     OW25540   2.999   1.442   5.053 -0.5607  0.4051 -0.2135
 4694SOL    HW125541   2.927   1.396   5.010 -0.9517  0.7926  0.0192
 4694SOL    HW225542   3.060   1.449   4.980  0.0781  1.5388  0.4376
 4695SOL     OW25543   1.481   1.048   4.378  0.4198  0.0190  0.4196
 4695SOL    HW125544   1.553   1.094   4.420  0.7306 -1.7067  1.7976
 4695SOL    HW225545   1.501   0.957   4.400 -1.4631 -0.9893 -2.0228
 4696SOL     OW25546   2.966   1.175  10.679 -0.6680  0.4121 -0.3842
 4696SOL    HW125547   3.009   1.259  10.694  0.8517 -0.4567  0.0986
 4696SOL    HW225548   3.001   1.113  10.744 -2.3282 -0.6943 -0.5465
 4697SOL     OW25549   3.230   3.337   9.282 -0.5764 -0.2841  0.7445
 4697SOL    HW125550   3.234   3.422   9.239 -1.9661 -1.0280 -0.8507
 4697SOL    HW225551   3.300   3.284   9.243  0.6895  0.7773  1.6024
 4698SOL     OW25552   0.190   3.166   2.786 -0.0445  0.1829  0.1709
 4698SOL    HW125553   0.224   3.142   2.700 -1.2041 -1.1461  0.0937
 4698SOL    HW225554   0.106   3.204   2.762  0.6692  0.6160 -1.6736
 4699SOL     OW25555   4.079   3.857   7.452  0.7841  0.4101 -0.3929
 4699SOL    HW125556   4.034   3.810   7.522  0.4309  1.6313  0.2043
 4699SOL    HW225557   4.136   3.784   7.426  0.5113 -0.4925  1.5525
 4700SOL     OW25558   1.914   1.941   1.479 -0.3125  0.1528  0.5939
 4700SOL    HW125559   1.937   1.932   1.572  3.0604 -0.7293 -0.3276
 4700SOL    HW225560   1.991   1.974   1.434 -0.2961  0.4180  0.8177
 4701SOL     OW25561   1.055   2.155  10.355 -0.4487 -0.0826  0.1758
 4701SOL    HW125562   1.128   2.202  10.314 -0.7228 -0.1217 -0.3666
 4701SOL    HW225563   1.017   2.109  10.280 -1.3431 -0.2935  0.7593
 4702SOL     OW25564   0.296   1.220   5.159 -0.0194  0.6189  0.4852
 4702SOL    HW125565   0.339   1.236   5.243 -0.2568 -0.2752  0.7723
 4702SOL    HW225566   0.212   1.253   5.193 -0.9699 -0.8302 -0.4780
 4703SOL     OW25567   1.493   1.719   5.434 -0.2775 -0.7286 -0.7911
 4703SOL    HW125568   1.487   1.777   5.510  0.7045 -1.2003 -0.3562
 4703SOL    HW225569   1.445   1.773   5.371 -0.7083 -2.1581 -1.6964
 4704SOL     OW25570   2.538   1.264   8.330  0.2405 -0.0009 -0.0744
 4704SOL    HW125571   2.529   1.192   8.268 -0.8866  1.4770 -1.6211
 4704SOL    HW225572   2.634   1.262   8.335  0.4114  2.8435 -2.5131
 4705SOL     OW25573   3.985   2.760  13.587  0.1642 -0.0086 -0.5187
 4705SOL    HW125574   4.045   2.756  13.661 -1.7821 -1.1213  0.9981
 4705SOL    HW225575   3.901   2.789  13.621 -0.6717 -0.6902 -1.9915
 4706SOL     OW25576   1.377   1.016  10.673  0.3740  0.4856 -0.0413
 4706SOL    HW125577   1.413   1.065  10.599 -1.9399  3.9012  1.1252
 4706SOL    HW225578   1.365   0.926  10.640  0.2191  0.8240 -0.9222
 4707SOL     OW25579   2.784   0.434   6.730 -0.0514 -0.6561 -0.2152
 4707SOL    HW125580   2.818   0.463   6.646 -0.8367 -0.5465 -0.4954
 4707SOL    HW225581   2.831   0.355   6.757  1.9198  0.7839  0.5669
 4708SOL     OW25582   1.553   2.647   6.976  0.0287  0.6155  0.1730
 4708SOL    HW125583   1.499   2.659   7.054 -1.5633 -0.0421 -0.8224
 4708SOL    HW225584   1.631   2.655   7.030  0.3619  0.3922 -0.2755
 4709SOL     OW25585   4.287   4.462  12.130 -0.4266 -0.1175 -0.6011
 4709SOL    HW125586   4.368   4.489  12.172 -0.7650  0.9596 -0.6219
 4709SOL    HW225587   4.265   4.377  12.169  0.2741 -0.7405 -1.5658
 4710SOL     OW25588   2.521   1.712   4.671  0.2046 -0.7883  0.3925
 4710SOL    HW125589   2.436   1.685   4.635 -0.3722 -0.0219  1.1622
 4710SOL    HW225590   2.582   1.651   4.631 -0.8533 -1.5213 -0.1146
 4711SOL     OW25591   3.650   0.334   3.356  0.3280  0.7450  0.5670
 4711SOL    HW125592   3.596   0.279   3.299  1.3083 -0.2331  0.5756
 4711SOL    HW225593   3.665   0.405   3.294 -0.1966  1.1606  0.9206
 4712SOL     OW25594   1.771   0.922   6.219  0.0639 -0.2052  0.3925
 4712SOL    HW125595   1.687   0.930   6.174  0.2464  1.9841  0.4562
 4712SOL    HW225596   1.828   0.966   6.156 -1.9437  2.0047  0.1130
 4713SOL     OW25597   3.071   2.444   5.439 -0.2507 -0.3705 -0.0228
 4713SOL    HW125598   2.981   2.461   5.410 -0.1780 -1.8689 -1.1267
 4713SOL    HW225599   3.088   2.482   5.526 -1.8257 -1.1829  0.6299
 4714SOL     OW25600   0.033   3.817  11.976 -0.0757 -0.1055 -0.1875
 4714SOL    HW125601   4.665   3.828  11.956 -0.0185  0.7045  0.0009
 4714SOL    HW225602   0.068   3.906  11.984 -2.6636  1.0105 -1.0206
 4715SOL     OW25603   4.348   0.276   0.078 -0.5781  0.0977 -0.0030
 4715SOL    HW125604   4.426   0.323   0.106 -0.8438 -1.5989  3.5415
 4715SOL    HW225605   4.377   0.228   0.000  3.7281  0.0700  1.6402
 4716SOL     OW25606   2.722   0.309   3.464  0.2225 -0.3560  0.4424
 4716SOL    HW125607   2.688   0.276   3.381 -0.0763  0.2187  0.3332
 4716SOL    HW225608   2.815   0.294   3.448  0.2724  1.7442 -1.2046
 4717SOL     OW25609   1.473   2.087  17.447 -0.3123  0.0957  0.0275
 4717SOL    HW125610   1.522   2.019  17.399  0.9918  1.4643 -0.5721
 4717SOL    HW225611   1.464   2.147  17.373 -0.4625  1.4449  1.1523
 4718SOL     OW25612   4.686   4.630   2.715  0.5099 -0.2786 -0.3257
 4718SOL    HW125613   4.689   4.623   2.810 -1.2333  3.0121 -0.0384
 4718SOL    HW225614   0.035   4.574   2.692  1.2585 -0.1383  1.7901
 4719SOL     OW25615   0.600   1.631   3.513  0.3051  0.1219 -0.1320
 4719SOL    HW125616   0.682   1.584   3.499  0.6709 -0.0629  2.5903
 4719SOL    HW225617   0.533   1.580   3.468  0.3693 -0.0788  0.0018
 4720SOL     OW25618   2.486   0.344   7.387  0.0020  0.8460  0.4223
 4720SOL    HW125619   2.435   0.396   7.325  0.6939  0.3471 -0.5706
 4720SOL    HW225620   2.476   0.256   7.350 -2.8135  0.9637  0.8800
 4721SOL     OW25621   2.261   0.898   5.902 -0.3287  0.1606 -0.1088
 4721SOL    HW125622   2.253   0.989   5.873 -3.2394  0.0105  0.2622
 4721SOL    HW225623   2.266   0.905   5.997 -0.3292  2.2461 -0.2748
 4722SOL     OW25624   2.316   3.162   2.557 -0.3563 -0.0116  0.2040
 4722SOL    HW125625   2.335   3.255   2.567 -0.9804  0.2135 -0.6883
 4722SOL    HW225626   2.402   3.121   2.565 -0.0366  0.7400  0.6184
 4723SOL     OW25627   3.836   2.952   7.067  0.0778  0.1630 -0.0327
 4723SOL    HW125628   3.855   2.952   6.973  0.8755  2.0350  0.1377
 4723SOL    HW225629   3.789   2.869   7.070  0.1246  0.0433 -2.2960
 4724SOL     OW25630   1.132   4.133   1.078  0.6045 -0.1916  0.0051
 4724SOL    HW125631   1.146   4.118   0.984 -1.7312  0.8563 -0.5118
 4724SOL    HW225632   1.214   4.094   1.108  0.1549 -1.4914 -0.4215
 4725SOL     OW25633   0.657   3.015   2.357 -0.5286  0.3576  0.1634
 4725SOL    HW125634   0.727   2.950   2.350 -1.0868 -0.4184  2.1263
 4725SOL    HW225635   0.627   3.032   2.267 -2.7933  0.0162  0.8651
 4726SOL     OW25636   0.432   4.669   2.628  0.2412  0.0358 -0.6461
 4726SOL    HW125637   0.366   0.010   2.607  0.4545  0.2872 -0.5289
 4726SOL    HW225638   0.424   4.662   2.723 -0.5257  0.8437 -0.6532
 4727SOL     OW25639   1.303   0.813   2.926  0.4540  0.0652  0.2374
 4727SOL    HW125640   1.216   0.818   2.887  0.6369 -0.2514 -0.2117
 4727SOL    HW225641   1.350   0.885   2.884 -0.4736  0.8268  0.5195
 4728SOL     OW25642   0.896   3.239   8.480  0.1556  0.2156 -0.0576
 4728SOL    HW125643   0.969   3.204   8.429  0.5461 -1.4547  1.6055
 4728SOL    HW225644   0.868   3.302   8.414 -3.1975  0.1652  1.3330
 4729SOL     OW25645   0.558   2.314   5.598 -0.2726 -0.0910 -0.2651
 4729SOL    HW125646   0.507   2.367   5.537 -2.5495 -1.5293  0.3885
 4729SOL    HW225647   0.647   2.322   5.563 -0.7027  1.6658 -0.9528
 4730SOL     OW25648   3.385   3.898   2.125 -0.2903  0.4052 -0.3204
 4730SOL    HW125649   3.329   3.961   2.171 -3.4447 -2.7152  0.0791
 4730SOL    HW225650   3.324   3.830   2.097  0.8188 -1.4825  1.7946
 4731SOL     OW25651   1.646   0.420  10.840  0.1657  0.6190 -0.0754
 4731SOL    HW125652   1.615   0.369  10.915  0.0620  0.3781 -0.2841
 4731SOL    HW225653   1.579   0.424  10.772  1.2171 -1.9685 -1.2510
 4732SOL     OW25654   4.051   0.985   5.043 -0.5009  0.0444  0.5968
 4732SOL    HW125655   4.045   0.904   4.992 -1.3605  0.9505 -0.7473
 4732SOL    HW225656   3.972   0.998   5.095 -0.9974 -2.0662  0.3838
 4733SOL     OW25657   4.453   3.062   2.580 -0.5466  0.3057  0.1702
 4733SOL    HW125658   4.475   2.970   2.569 -0.3668  0.7262 -2.8712
 4733SOL    HW225659   4.520   3.102   2.524 -1.2767  1.1313 -0.1151
 4734SOL     OW25660   4.277   4.343   6.582  0.1468  0.2811 -0.2393
 4734SOL    HW125661   4.321   4.259   6.597  0.4001  0.3072 -0.8269
 4734SOL    HW225662   4.258   4.330   6.489 -0.3241  1.6079 -0.3245
 4735SOL     OW25663   2.425   2.936   6.009  0.0271  0.2752 -0.7941
 4735SOL    HW125664   2.347   2.889   6.039 -0.1716 -0.9946 -3.2775
 4735SOL    HW225665   2.389   2.981   5.932  0.9293  1.8704 -0.2809
 4736SOL     OW25666   3.865   3.311   5.018  0.3255 -0.1152  0.5995
 4736SOL    HW125667   3.829   3.283   5.102  1.5106  0.1734  1.1939
 4736SOL    HW225668   3.879   3.227   4.974 -1.5212 -0.2455  0.2396
 4737SOL     OW25669   1.049   3.451   3.551  0.3088 -0.3769  0.0499
 4737SOL    HW125670   0.980   3.513   3.573 -1.8109 -3.1392  1.1593
 4737SOL    HW225671   0.992   3.394   3.500  1.1296  1.4919 -3.0076
 4738SOL     OW25672   2.964   0.658   0.254  0.1095  0.4050 -0.0944
 4738SOL    HW125673   2.931   0.746   0.234 -2.0005  0.1011  2.0610
 4738SOL    HW225674   3.003   0.663   0.341 -1.9779  1.4865  0.7697
 4739SOL     OW25675   2.620   1.550   3.167  0.1490 -0.0704  1.0980
 4739SOL    HW125676   2.533   1.555   3.126  0.6169  1.3203  0.2671
 4739SOL    HW225677   2.633   1.643   3.184  0.8715  0.1437 -0.6473
 4740SOL     OW25678   0.514   2.735   7.054  0.4801  0.4110  0.6672
 4740SOL    HW125679   0.456   2.747   7.130  1.5225 -1.0252  1.6964
 4740SOL    HW225680   0.454   2.693   6.992  2.1267 -1.1922  0.1548
 4741SOL     OW25681   4.650   4.157   7.102  0.0336  0.6200 -0.2386
 4741SOL    HW125682   0.002   4.202   7.071  0.5056  0.6327  0.9390
 4741SOL    HW225683   4.615   4.232   7.151  0.6387  0.8072 -0.0938
 4742SOL     OW25684   0.537   4.322   8.601 -0.4504  0.4245 -0.3918
 4742SOL    HW125685   0.568   4.382   8.533 -2.3731 -0.1352 -1.7787
 4742SOL    HW225686   0.577   4.235   8.593  0.5512  0.7088  1.6368
 4743SOL     OW25687   1.880   0.444   8.211 -0.5051 -0.1464 -0.6207
 4743SOL    HW125688   1.951   0.468   8.270 -0.6676  1.9011 -1.2593
 4743SOL    HW225689   1.914   0.380   8.148 -1.0790 -0.3296 -0.7450
 4744SOL     OW25690   3.903   3.941   5.110 -0.4356  0.3691  0.0560
 4744SOL    HW125691   3.942   3.855   5.091 -2.9221 -0.7527  0.0685
 4744SOL    HW225692   3.965   3.971   5.176 -0.2251 -1.1324  0.5529
 4745SOL     OW25693   0.492   1.975   5.437 -0.6761 -1.3511  0.1673
 4745SOL    HW125694   0.549   2.044   5.473 -1.9238  1.1936 -2.7434
 4745SOL    HW225695   0.497   1.909   5.506 -1.4554 -0.3953  1.1197
 4746SOL     OW25696   2.354   1.299   8.570  0.0670  0.1929  0.1997
 4746SOL    HW125697   2.401   1.301   8.487  0.4477  2.3052  0.4504
 4746SOL    HW225698   2.420   1.256   8.625  0.8724  0.2241 -0.7547
 4747SOL     OW25699   3.839   2.685   7.746  0.6591 -0.2657 -0.1730
 4747SOL    HW125700   3.793   2.740   7.682 -2.1870 -1.6005  0.6926
 4747SOL    HW225701   3.921   2.673   7.698  0.9971  1.3510 -0.0199
 4748SOL     OW25702   4.564   1.897   3.021  0.0181 -0.4426 -0.2654
 4748SOL    HW125703   4.536   1.958   2.953  0.4352 -0.9201 -0.8555
 4748SOL    HW225704   4.556   1.810   2.982  1.5639 -0.0109 -1.5240
 4749SOL     OW25705   3.707   3.451   8.119 -0.8824 -0.2823  0.3030
 4749SOL    HW125706   3.750   3.433   8.035 -2.3381 -0.8230 -0.3267
 4749SOL    HW225707   3.759   3.521   8.159  0.5934 -1.5927  0.6573
 4750SOL     OW25708   0.112   1.393   7.767  0.3293  0.3712 -0.2873
 4750SOL    HW125709   0.128   1.299   7.753 -0.1471  0.4047 -1.0672
 4750SOL    HW225710   0.039   1.406   7.707 -0.8843  0.6208  1.2592
 4751SOL     OW25711   2.201   4.263   5.610  0.5245  0.8755 -0.5519
 4751SOL    HW125712   2.115   4.299   5.593 -0.2708  0.0063  1.6281
 4751SOL    HW225713   2.203   4.240   5.703  0.6378  3.2462  0.0158
 4752SOL     OW25714   0.077   0.437   0.588 -0.8591 -0.6214  0.4841
 4752SOL    HW125715   0.143   0.449   0.656  0.5217 -0.9748 -0.7857
 4752SOL    HW225716   0.024   0.513   0.613  2.4997  1.3367  1.5705
 4753SOL     OW25717   3.359   1.121  13.023  0.5768  0.0205  0.1531
 4753SOL    HW125718   3.353   1.089  13.113  1.3749  1.1783  0.6186
 4753SOL    HW225719   3.269   1.124  12.991  0.3113 -1.0972  0.7716
 4754SOL     OW25720   0.257   0.347  15.519  0.1193 -0.3705  0.1659
 4754SOL    HW125721   0.283   0.438  15.503 -0.8581 -0.0268  0.5380
 4754SOL    HW225722   0.342   0.303  15.509 -0.4773 -1.0906 -1.7471
 4755SOL     OW25723   0.200   0.544  16.758  0.2514  0.5167 -0.6627
 4755SOL    HW125724   0.217   0.638  16.747  1.7101  0.4742  1.1909
 4755SOL    HW225725   0.188   0.509  16.670  0.8373 -2.0160  0.2781
 4756SOL     OW25726   2.811   3.445   7.743 -0.2025  0.1374 -0.1761
 4756SOL    HW125727   2.729   3.489   7.721 -0.6033  0.3895  1.7910
 4756SOL    HW225728   2.795   3.428   7.836 -0.1554  1.5895  0.1027
 4757SOL     OW25729   0.932   0.507   9.934 -0.3400  0.1184 -0.0780
 4757SOL    HW125730   0.947   0.420   9.972  1.0152 -0.0739 -1.0685
 4757SOL    HW225731   0.975   0.558  10.003  0.5867 -1.6641  0.6620
 4758SOL     OW25732   3.219   3.196   4.237  0.0423  0.2860 -0.2230
 4758SOL    HW125733   3.147   3.185   4.299  0.5850 -1.0618  0.1625
 4758SOL    HW225734   3.288   3.160   4.293 -0.6153 -0.8753 -0.1566
 4759SOL     OW25735   1.093   1.757   6.654 -0.1022  0.1384  0.7949
 4759SOL    HW125736   1.081   1.803   6.737  0.1077 -2.7041  2.3976
 4759SOL    HW225737   1.019   1.696   6.650 -0.6558  0.7703  1.4672
 4760SOL     OW25738   3.065   4.292  15.846 -0.8093  0.4419  0.6568
 4760SOL    HW125739   3.027   4.212  15.882 -0.7871 -0.9533 -2.3494
 4760SOL    HW225740   2.988   4.328  15.801 -0.4724  0.8024  0.3666
 4761SOL     OW25741   3.293   3.624  11.984  0.1258 -0.6030 -0.6857
 4761SOL    HW125742   3.318   3.713  12.006 -1.6775 -0.6503  1.5661
 4761SOL    HW225743   3.304   3.625  11.889 -2.6754  1.4384 -0.9726
 4762SOL     OW25744   3.737   3.438   8.510 -0.6205 -0.2405 -0.3531
 4762SOL    HW125745   3.656   3.393   8.485 -1.5284  0.6589  0.9715
 4762SOL    HW225746   3.749   3.399   8.596  2.1393 -0.3306 -0.7984
 4763SOL     OW25747   2.059   4.685   6.606 -0.2359  0.0663 -0.1834
 4763SOL    HW125748   1.974   4.710   6.643  0.2211  1.6733 -0.2427
 4763SOL    HW225749   2.043   4.602   6.560  1.5695 -0.6310  0.4639
 4764SOL     OW25750   2.601   4.564   7.230 -0.0143  0.5055  0.0771
 4764SOL    HW125751   2.511   4.532   7.230  0.5744 -1.1611  0.3574
 4764SOL    HW225752   2.596   4.643   7.177 -0.1889  1.4449  1.4958
 4765SOL     OW25753   4.208   2.006   8.938 -0.2523  0.2892  0.0564
 4765SOL    HW125754   4.119   1.972   8.932 -0.3756  0.3077  1.6583
 4765SOL    HW225755   4.248   1.948   9.004 -2.4225 -0.0491  1.0762
 4766SOL     OW25756   2.565   0.635   6.638 -0.9122  0.3118  0.0567
 4766SOL    HW125757   2.575   0.725   6.667 -1.2022 -0.4194  2.3866
 4766SOL    HW225758   2.597   0.580   6.709  2.8695 -0.4407 -2.2143
 4767SOL     OW25759   2.196   1.857   5.957  0.2502  0.3138  0.0808
 4767SOL    HW125760   2.159   1.769   5.952 -0.6493  0.6668  0.6340
 4767SOL    HW225761   2.150   1.916   5.897  2.0707  1.2601 -0.4184
 4768SOL     OW25762   3.097   2.903   1.625  1.0254 -0.3082  0.0400
 4768SOL    HW125763   3.078   2.887   1.533 -0.7339  0.2655  0.3152
 4768SOL    HW225764   3.023   2.959   1.647  1.6673  0.4142  0.3745
 4769SOL     OW25765   4.654   1.504  14.376 -0.5654 -0.6153 -0.1869
 4769SOL    HW125766   0.020   1.508  14.346 -0.4994  0.6782  0.1729
 4769SOL    HW225767   4.676   1.480  14.466 -1.7322  1.0808  0.5384
 4770SOL     OW25768   2.089   4.201   6.474  0.4699  0.0509  0.1820
 4770SOL    HW125769   2.085   4.157   6.559 -2.3556 -0.1797 -0.0596
 4770SOL    HW225770   1.997   4.193   6.446  0.0068  2.2285  1.0652
 4771SOL     OW25771   4.274   0.328   7.723  0.0956  0.2692  0.2656
 4771SOL    HW125772   4.184   0.336   7.691 -0.0553  0.7033  0.8013
 4771SOL    HW225773   4.297   0.237   7.703 -0.9397  0.1924 -0.5773
 4772SOL     OW25774   4.421   3.804   6.942  0.2391  0.2630 -0.3099
 4772SOL    HW125775   4.448   3.895   6.956  0.4515  0.3286 -1.1947
 4772SOL    HW225776   4.354   3.815   6.875  1.6203 -2.3536 -2.1102
 4773SOL     OW25777   3.535   1.997   5.608  0.0341 -0.2122  0.0733
 4773SOL    HW125778   3.573   2.030   5.526 -0.8813 -0.8619 -0.6162
 4773SOL    HW225779   3.442   2.017   5.595  0.0798 -0.1886 -0.2339
 4774SOL     OW25780   1.385   1.055   5.355  0.6426  0.6002  0.3111
 4774SOL    HW125781   1.315   1.018   5.301  1.1431 -0.8971  0.6952
 4774SOL    HW225782   1.380   1.021   5.444 -3.7043 -2.9669 -1.3179
 4775SOL     OW25783   1.779   2.906   1.028  0.6009 -0.3630  0.3490
 4775SOL    HW125784   1.797   2.959   0.951 -1.3642 -0.1701  0.0220
 4775SOL    HW225785   1.714   2.960   1.073  0.0803  0.0452 -0.8981
 4776SOL     OW25786   3.179   0.306   9.461 -0.3717  0.1320  0.0841
 4776SOL    HW125787   3.264   0.328   9.498 -0.8311 -1.1492  1.9001
 4776SOL    HW225788   3.184   0.293   9.367 -0.3657  0.3472  0.0549
 4777SOL     OW25789   0.473   3.727   2.386 -0.5065 -0.3944  0.4242
 4777SOL    HW125790   0.476   3.643   2.431  2.4364 -1.5716 -1.9650
 4777SOL    HW225791   0.386   3.756   2.415 -0.9009 -0.9022 -0.2480
 4778SOL     OW25792   1.181   1.126   1.509 -0.2949 -0.0913 -0.1530
 4778SOL    HW125793   1.276   1.126   1.498 -0.5779  0.7862 -2.6196
 4778SOL    HW225794   1.153   1.144   1.419 -0.3463  1.8241  0.2339
 4779SOL     OW25795   2.849   0.011   8.359  0.3047  0.4149  0.6877
 4779SOL    HW125796   2.867   4.643   8.349  0.6087  0.5254  0.1946
 4779SOL    HW225797   2.848   4.723   8.454 -1.1309 -1.9130  0.3398
 4780SOL     OW25798   2.703   3.363   8.657 -0.0415 -0.7273  0.2484
 4780SOL    HW125799   2.784   3.407   8.682 -0.2048 -1.1224  1.4938
 4780SOL    HW225800   2.649   3.437   8.631  1.2728 -0.2534 -1.0913
 4781SOL     OW25801   4.215   0.125   2.224  0.3267 -0.1798  0.1354
 4781SOL    HW125802   4.225   0.081   2.309  0.7873 -1.2202 -0.4516
 4781SOL    HW225803   4.128   0.163   2.237  1.5778  2.4514  0.8709
 4782SOL     OW25804   2.057   2.478   2.450  0.0099 -0.0961 -0.3065
 4782SOL    HW125805   2.004   2.535   2.506 -0.7745  0.1616 -1.3099
 4782SOL    HW225806   2.066   2.397   2.499  0.6717 -0.5250 -1.1293
 4783SOL     OW25807   2.403   0.461   6.526  0.1041 -0.5219  0.2636
 4783SOL    HW125808   2.473   0.437   6.466 -1.3416  0.6901 -1.8979
 4783SOL    HW225809   2.445   0.522   6.587  1.0925 -1.6992  0.7558
 4784SOL     OW25810   4.001   2.333   9.185 -0.2002  0.2440  0.2654
 4784SOL    HW125811   3.927   2.380   9.145  1.3549  0.3660 -2.5194
 4784SOL    HW225812   4.036   2.408   9.233 -1.5533  1.2818 -0.3671
 4785SOL     OW25813   4.501   0.609  12.368  0.0510 -0.7908  0.6245
 4785SOL    HW125814   4.509   0.581  12.278 -0.7934 -0.4397  0.4360
 4785SOL    HW225815   4.429   0.672  12.367  0.5428 -0.1953  1.6921
 4786SOL     OW25816   2.787   3.414   8.014 -0.0238 -0.4345  0.5588
 4786SOL    HW125817   2.796   3.368   8.097 -1.1605 -0.9712  0.3808
 4786SOL    HW225818   2.768   3.502   8.047  3.2217 -0.0388  1.4019
 4787SOL     OW25819   0.889   3.379   0.583 -0.2393 -0.6315  0.5753
 4787SOL    HW125820   0.806   3.331   0.584  0.2488 -1.4470  2.1098
 4787SOL    HW225821   0.959   3.321   0.554  1.4806  2.2181 -0.9887
 4788SOL     OW25822   4.334   0.749   7.602  0.1484  0.1064  0.1515
 4788SOL    HW125823   4.269   0.720   7.666  1.4824 -0.0937  1.4015
 4788SOL    HW225824   4.381   0.666   7.595  0.2650  0.3434 -1.9230
 4789SOL     OW25825   2.125   4.426  11.978  0.1991 -0.2222 -0.1070
 4789SOL    HW125826   2.133   4.395  11.888 -0.4739  0.1040 -0.2817
 4789SOL    HW225827   2.142   4.520  11.967  0.4839 -0.2497  0.1148
 4790SOL     OW25828   2.703   2.475  11.257  0.1932  0.3403  0.1922
 4790SOL    HW125829   2.732   2.435  11.175  1.1570  0.7846  0.3066
 4790SOL    HW225830   2.706   2.570  11.244  2.0616 -0.0178 -2.0067
 4791SOL     OW25831   0.254   0.616   9.923 -0.3319 -0.2415  0.0829
 4791SOL    HW125832   0.253   0.536   9.976 -4.0113  0.0555  0.4676
 4791SOL    HW225833   0.281   0.680   9.988 -0.7398 -2.0294  2.0451
 4792SOL     OW25834   3.735   1.790  17.138  0.0894 -0.2198  1.0139
 4792SOL    HW125835   3.796   1.750  17.199  0.8205 -0.6895 -0.0145
 4792SOL    HW225836   3.650   1.749  17.153 -1.3969  2.6100  0.3348
 4793SOL     OW25837   1.308   4.397  13.848  0.2772  0.5944  0.2343
 4793SOL    HW125838   1.218   4.428  13.837  0.6116  0.7202 -2.2114
 4793SOL    HW225839   1.296   4.303  13.841 -0.6184  0.7651 -0.5026
 4794SOL     OW25840   3.341   4.683   6.661  0.0837  0.2058 -0.0391
 4794SOL    HW125841   3.398   4.668   6.736 -1.8064 -0.0677  1.3383
 4794SOL    HW225842   3.343   4.595   6.623 -1.9873  0.6669 -1.2201
 4795SOL     OW25843   3.869   3.916  15.080 -0.0511 -0.1206  0.0719
 4795SOL    HW125844   3.792   3.971  15.067  1.2069  1.8274  0.8680
 4795SOL    HW225845   3.846   3.833  15.040 -1.3040  2.0434 -3.6963
 4796SOL     OW25846   0.927   1.623   4.599 -0.2558  0.4138 -0.1352
 4796SOL    HW125847   0.976   1.649   4.677  0.2546 -0.4169 -0.1834
 4796SOL    HW225848   0.863   1.558   4.628 -1.1469  1.5199  0.3589
 4797SOL     OW25849   1.450   4.287   1.743  0.3541  0.2942  0.6428
 4797SOL    HW125850   1.389   4.344   1.697  0.3888 -0.8498 -0.8296
 4797SOL    HW225851   1.533   4.329   1.721  0.9172  0.4571  3.0547
 4798SOL     OW25852   0.411   4.303   2.674 -0.5657  0.1575 -0.6719
 4798SOL    HW125853   0.338   4.355   2.641 -1.9319 -1.4648 -0.2466
 4798SOL    HW225854   0.392   4.224   2.622 -2.3701  0.8520 -1.0753
 4799SOL     OW25855   1.749   3.658   2.816 -0.1837  0.5200  0.4369
 4799SOL    HW125856   1.709   3.745   2.816 -0.7016  0.2909  1.8211
 4799SOL    HW225857   1.677   3.597   2.801  0.3301  0.1485 -0.5326
 4800SOL     OW25858   0.638   3.200   0.602 -0.0111  0.8064 -0.0174
 4800SOL    HW125859   0.597   3.267   0.547  1.1436 -0.5606 -2.5789
 4800SOL    HW225860   0.579   3.190   0.677 -0.1530 -0.0185 -0.2347
 4801SOL     OW25861   3.669   0.959   1.667 -0.5148 -0.0535  0.1986
 4801SOL    HW125862   3.650   0.958   1.761  0.4956  0.2248  0.4109
 4801SOL    HW225863   3.754   1.004   1.669  0.4373 -1.6891 -3.3340
 4802SOL     OW25864   0.007   1.755  12.084 -0.2980  0.1385  0.1054
 4802SOL    HW125865   4.698   1.803  12.159 -0.6403  2.4600 -1.5154
 4802SOL    HW225866   0.088   1.807  12.076  0.5262 -0.8984  1.7544
 4803SOL     OW25867   1.609   1.299   9.096 -0.1029 -0.4290  0.2972
 4803SOL    HW125868   1.524   1.273   9.060 -0.2777 -0.9146  1.0694
 4803SOL    HW225869   1.573   1.322   9.182  0.2665 -0.8578  0.5605
 4804SOL     OW25870   0.145   3.138   4.535  0.4321 -0.0112 -0.1274
 4804SOL    HW125871   0.228   3.098   4.563 -0.2253 -0.9070  0.5127
 4804SOL    HW225872   0.091   3.142   4.614  0.4099  0.0948 -0.1480
 4805SOL     OW25873   1.119   2.966   3.308  0.3365 -0.3467 -0.2530
 4805SOL    HW125874   1.167   2.933   3.384 -0.1688 -1.5168 -0.4338
 4805SOL    HW225875   1.118   2.891   3.249  2.7892 -0.1794 -0.5102
 4806SOL     OW25876   0.069   2.774  12.963 -0.0680  0.2236  0.1790
 4806SOL    HW125877   0.115   2.845  12.919  1.8717 -0.8875  0.4083
 4806SOL    HW225878   4.720   2.822  12.998 -0.8528  0.5590 -1.9439
 4807SOL     OW25879   1.907   0.452   6.582 -0.1900 -0.5109  0.1485
 4807SOL    HW125880   2.002   0.457   6.588 -0.3330  2.5052 -0.0032
 4807SOL    HW225881   1.874   0.369   6.548  1.1765 -0.4959 -1.2233
 4808SOL     OW25882   4.180   3.546  15.509 -0.3790 -0.6266  0.3264
 4808SOL    HW125883   4.100   3.496  15.488 -0.8341 -0.0203  0.6085
 4808SOL    HW225884   4.249   3.502  15.460 -0.0311  1.5658 -1.1496
 4809SOL     OW25885   4.191   1.355   7.883  0.3768  0.1739 -0.6572
 4809SOL    HW125886   4.282   1.355   7.854  0.4958  2.0507 -0.2405
 4809SOL    HW225887   4.193   1.277   7.938  0.6509  0.0068 -0.9006
 4810SOL     OW25888   2.496   4.005  14.463 -0.3927 -0.0159 -0.1240
 4810SOL    HW125889   2.423   3.944  14.476  0.6506 -0.9720  1.2189
 4810SOL    HW225890   2.524   4.015  14.554 -1.0563 -0.1066  0.0927
 4811SOL     OW25891   3.026   3.623   3.397  0.1202 -0.2286 -0.3320
 4811SOL    HW125892   3.028   3.585   3.485 -1.0001 -0.4344 -0.3933
 4811SOL    HW225893   2.950   3.680   3.405 -0.3575 -1.0236  0.8071
 4812SOL     OW25894   4.716   1.229   9.139  0.5121  0.2056 -0.1544
 4812SOL    HW125895   4.651   1.243   9.207  2.4737  1.3522  1.4960
 4812SOL    HW225896   4.655   1.232   9.066  0.0343  0.5499  0.2576
 4813SOL     OW25897   0.338   0.035   9.054  0.2556  0.0410 -0.5324
 4813SOL    HW125898   0.414   0.004   9.004 -0.7307 -1.7456 -0.9143
 4813SOL    HW225899   0.371   0.119   9.086  0.1398  0.0511 -0.4398
 4814SOL     OW25900   2.984   3.187   8.771 -0.3742  0.2697  0.0536
 4814SOL    HW125901   3.049   3.133   8.726  0.3945  1.8180 -0.7281
 4814SOL    HW225902   2.916   3.124   8.793  0.1191 -0.3362 -0.1801
 4815SOL     OW25903   1.740   1.067   8.942  0.1691  0.1661 -0.2587
 4815SOL    HW125904   1.732   1.140   8.880  0.3142  0.8081  0.4849
 4815SOL    HW225905   1.722   1.113   9.024 -1.1446 -2.7859  1.1210
 4816SOL     OW25906   3.101   4.475   2.203  0.1448  0.0552 -0.0500
 4816SOL    HW125907   3.019   4.490   2.250  0.7152  2.2140  0.2771
 4816SOL    HW225908   3.080   4.518   2.120  0.7335  0.2052 -0.1212
 4817SOL     OW25909   3.799   4.570   9.593  0.3797  0.6042 -0.2612
 4817SOL    HW125910   3.831   4.612   9.673  0.0990 -0.6154  0.4848
 4817SOL    HW225911   3.708   4.547   9.613  0.5211 -0.4929 -0.9187
 4818SOL     OW25912   1.259   3.151   6.494 -0.0915 -0.8296  0.2063
 4818SOL    HW125913   1.219   3.212   6.555  2.9596  0.7092  0.7038
 4818SOL    HW225914   1.203   3.161   6.417 -0.8475 -0.4774  0.8098
 4819SOL     OW25915   1.440   1.477   4.829 -0.1367 -0.5418  0.0483
 4819SOL    HW125916   1.421   1.461   4.737 -2.0904 -1.0551  0.5391
 4819SOL    HW225917   1.439   1.573   4.826 -1.7552 -0.5461  0.2723
 4820SOL     OW25918   0.431   1.064  16.094  0.4617 -0.1139  0.1183
 4820SOL    HW125919   0.366   0.995  16.104  0.8819 -0.5536 -0.2224
 4820SOL    HW225920   0.475   1.060  16.179  1.7536 -1.2371 -0.5987
 4821SOL     OW25921   1.009   3.170   6.734  0.3777  0.1672  0.3565
 4821SOL    HW125922   0.988   3.096   6.676 -2.3006  0.5558  0.8121
 4821SOL    HW225923   0.964   3.237   6.681 -0.6952 -0.2005  0.7926
 4822SOL     OW25924   4.180   1.305   7.360  0.2451 -0.1870  0.2903
 4822SOL    HW125925   4.256   1.329   7.307  0.1187  0.9966  0.6587
 4822SOL    HW225926   4.221   1.301   7.446  0.3968 -1.6576  0.1608
 4823SOL     OW25927   3.968   4.408   4.347  0.2559 -0.2970  0.0711
 4823SOL    HW125928   4.058   4.379   4.331  0.5432  0.1750  0.8574
 4823SOL    HW225929   3.970   4.398   4.442  0.7610 -1.9111 -0.1049
 4824SOL     OW25930   0.977   0.879   6.936 -0.3909 -0.2846 -0.5550
 4824SOL    HW125931   1.013   0.833   7.012 -0.2917 -1.7462 -1.5010
 4824SOL    HW225932   0.916   0.817   6.897 -0.0508 -1.0634  0.1513
 4825SOL     OW25933   2.197   1.587  12.547  0.0407  0.3618  0.1451
 4825SOL    HW125934   2.283   1.588  12.589  0.4464  0.4338 -0.6732
 4825SOL    HW225935   2.212   1.526  12.475  0.6361  0.8593 -0.1626
 4826SOL     OW25936   3.262   2.176   9.770  0.0260  0.7875 -0.4081
 4826SOL    HW125937   3.318   2.178   9.848 -1.1995  0.3966  0.4814
 4826SOL    HW225938   3.244   2.270   9.761 -3.8010 -0.1403 -2.1176
 4827SOL     OW25939   1.101   2.647   8.325  0.5033  0.5802 -0.2617
 4827SOL    HW125940   1.112   2.691   8.409  2.3404 -0.1061 -0.1552
 4827SOL    HW225941   1.180   2.594   8.314  0.0313 -0.0619 -0.5414
 4828SOL     OW25942   3.510   4.429   2.630 -0.0126 -0.0362 -0.3024
 4828SOL    HW125943   3.461   4.491   2.576 -0.0357  0.3687  0.1737
 4828SOL    HW225944   3.567   4.489   2.679 -2.2614  1.0387  0.9901
 4829SOL     OW25945   4.432   3.529   8.830  0.1311  0.5789  0.5091
 4829SOL    HW125946   4.504   3.503   8.773 -2.1255 -0.9469 -1.6390
 4829SOL    HW225947   4.434   3.624   8.823  0.1014  0.5705  0.3929
 4830SOL     OW25948   1.453   1.808   7.832 -0.0280  0.7083 -0.4512
 4830SOL    HW125949   1.465   1.714   7.848  3.3084  1.3617  0.9557
 4830SOL    HW225950   1.544   1.822   7.805  0.5043  1.3656  1.6782
 4831SOL     OW25951   0.372   1.529  15.107 -0.1131  0.2138  0.3373
 4831SOL    HW125952   0.370   1.620  15.077 -2.2399  0.4442  1.2566
 4831SOL    HW225953   0.460   1.507  15.140  0.8428 -0.1487 -2.4011
 4832SOL     OW25954   0.518   2.039   6.482 -0.2494  0.6501  0.1333
 4832SOL    HW125955   0.519   2.069   6.391  2.4192 -0.0027 -0.0347
 4832SOL    HW225956   0.522   1.945   6.468  1.8389  0.9695 -1.3163
 4833SOL     OW25957   2.886   4.706   3.459  0.0477 -0.3145 -0.2472
 4833SOL    HW125958   2.962   4.648   3.457  1.2922  1.2484  1.1408
 4833SOL    HW225959   2.847   4.693   3.373 -0.6186  1.1583 -0.1606
 4834SOL     OW25960   1.421   2.740   1.639 -0.2544 -0.0992  0.3023
 4834SOL    HW125961   1.415   2.702   1.551 -0.0987 -1.2924  0.8167
 4834SOL    HW225962   1.349   2.692   1.680  0.2757 -0.9412  0.2395
 4835SOL     OW25963   1.850   2.183   2.424 -0.2749  0.0916 -0.0212
 4835SOL    HW125964   1.802   2.264   2.443 -1.2370 -0.3041 -0.7805
 4835SOL    HW225965   1.924   2.207   2.480  1.6993 -3.6742 -1.0353
 4836SOL     OW25966   4.183   3.048   1.759  0.5831 -0.1289  0.5690
 4836SOL    HW125967   4.107   2.996   1.731  0.9561 -0.5332  0.3169
 4836SOL    HW225968   4.217   3.090   1.680  0.0229 -1.0504 -0.1647
 4837SOL     OW25969   0.665   1.402   1.530 -0.5570  0.1676 -0.1336
 4837SOL    HW125970   0.598   1.447   1.581 -1.5330 -2.2792  0.7548
 4837SOL    HW225971   0.731   1.471   1.532 -1.4697  1.1040 -3.1625
 4838SOL     OW25972   4.659   3.227   1.197 -0.0521  0.1492  0.4599
 4838SOL    HW125973   0.008   3.224   1.258  0.7826 -0.4641 -0.5850
 4838SOL    HW225974   4.614   3.307   1.224 -1.2666 -1.0598  2.0123
 4839SOL     OW25975   4.462   2.329   5.405  0.1957 -0.4639 -0.4602
 4839SOL    HW125976   4.433   2.256   5.459  0.1137  1.6348  2.3321
 4839SOL    HW225977   4.553   2.331   5.436 -0.6195  0.5621  1.8885
 4840SOL     OW25978   1.285   1.539  12.416  0.0991  0.3207  0.1596
 4840SOL    HW125979   1.271   1.578  12.329 -0.7262  1.0564  0.6256
 4840SOL    HW225980   1.197   1.512  12.441  0.0419  0.4065  0.0493
 4841SOL     OW25981   3.292   0.621   0.270 -0.0903 -0.0509  0.1169
 4841SOL    HW125982   3.298   0.697   0.328 -1.6897 -0.1212  0.3493
 4841SOL    HW225983   3.374   0.578   0.294 -0.0393 -0.8492 -1.4538
 4842SOL     OW25984   0.159   1.777   9.630  0.0209  0.3574 -0.6301
 4842SOL    HW125985   0.121   1.839   9.691 -0.4088 -0.4483 -0.0734
 4842SOL    HW225986   0.218   1.716   9.676 -0.2227 -1.2486 -2.4339
 4843SOL     OW25987   2.580   1.018   7.198 -0.7295  0.2065 -0.5821
 4843SOL    HW125988   2.526   1.095   7.215  0.0098  0.3361  1.0713
 4843SOL    HW225989   2.629   1.007   7.279  0.4613 -1.0250 -1.4740
 4844SOL     OW25990   3.617   3.626   3.125  0.3739 -1.1100 -0.0813
 4844SOL    HW125991   3.602   3.548   3.179 -0.0603 -1.3152 -0.4941
 4844SOL    HW225992   3.670   3.590   3.054  0.1391 -0.4965 -0.5744
 4845SOL     OW25993   3.159   4.086  14.797  0.2426  0.0176  0.2554
 4845SOL    HW125994   3.173   4.173  14.836 -1.8716  1.1689 -1.5722
 4845SOL    HW225995   3.094   4.055  14.860 -0.3238 -1.7828 -1.2327
 4846SOL     OW25996   1.838   2.857   9.850 -1.3739 -0.1069  0.5653
 4846SOL    HW125997   1.874   2.773   9.821 -0.3937  0.8401 -1.0109
 4846SOL    HW225998   1.837   2.848   9.945  0.0077  0.2187  0.6177
 4847SOL     OW25999   4.087   2.756   2.747  0.3654 -0.4885 -0.1436
 4847SOL    HW126000   4.166   2.714   2.779 -0.5236 -1.0854  1.2601
 4847SOL    HW226001   4.051   2.681   2.700  0.5785 -1.7306  1.6669
 4848SOL     OW26002   0.078   0.357   7.349 -0.0292  0.4223 -0.1436
 4848SOL    HW126003   4.709   0.341   7.352  0.4043 -1.9661  0.4607
 4848SOL    HW226004   0.108   0.331   7.436  0.2342  0.2925 -0.2745
 4849SOL     OW26005   1.739   1.531   7.383  0.0988 -0.2817  0.3698
 4849SOL    HW126006   1.680   1.481   7.439 -0.0687  0.2209  0.6474
 4849SOL    HW226007   1.685   1.570   7.314 -0.5241  0.7261  1.4437
 4850SOL     OW26008   1.466   2.552  14.614  0.2513 -0.0732 -0.6826
 4850SOL    HW126009   1.411   2.629  14.628  1.0306  0.0947  1.4326
 4850SOL    HW226010   1.403   2.484  14.593  0.5290 -0.4418 -0.3202
 4851SOL     OW26011   2.674   0.802   8.619 -0.2304 -0.6481  0.3590
 4851SOL    HW126012   2.685   0.896   8.630 -1.4345 -0.5245  0.4415
 4851SOL    HW226013   2.603   0.786   8.681 -0.8431  1.2489  0.1548
 4852SOL     OW26014   2.869   3.809   3.056  0.2827  0.0555  0.2439
 4852SOL    HW126015   2.836   3.880   3.001  0.5029 -1.9847 -2.5266
 4852SOL    HW226016   2.840   3.726   3.017 -0.4018  1.9042 -3.1309
 4853SOL     OW26017   2.493   0.915   6.509 -0.1411  0.3610 -0.3785
 4853SOL    HW126018   2.573   0.945   6.466 -0.0399  1.2873  0.4795
 4853SOL    HW226019   2.443   0.884   6.434 -1.3922  0.2473  0.5093
 4854SOL     OW26020   0.869   2.257   7.436 -0.2814  0.2140  0.5375
 4854SOL    HW126021   0.929   2.223   7.502 -1.5697 -0.7783  1.1844
 4854SOL    HW226022   0.908   2.342   7.413 -0.2334 -0.6632 -2.6880
 4855SOL     OW26023   0.549   4.173  15.076 -0.3378 -0.1284 -0.4251
 4855SOL    HW126024   0.493   4.149  15.002 -0.9843 -0.8822  0.3188
 4855SOL    HW226025   0.633   4.134  15.051  0.4697  0.3529  1.5557
 4856SOL     OW26026   0.141   3.586   3.831 -0.2738 -0.1537 -0.1680
 4856SOL    HW126027   0.198   3.510   3.838  0.0018  0.2968  2.3140
 4856SOL    HW226028   0.169   3.617   3.745 -2.1324 -0.0874 -0.7566
 4857SOL     OW26029   3.974   3.810   6.612 -0.2627  0.4286  0.0645
 4857SOL    HW126030   3.906   3.759   6.568  0.7296 -2.4943  1.9348
 4857SOL    HW226031   3.925   3.848   6.686  1.0287 -1.1106  1.7123
 4858SOL     OW26032   1.023   3.707   7.050 -0.3034 -0.0864 -0.0481
 4858SOL    HW126033   0.962   3.713   6.977  0.6478 -0.7093 -0.8803
 4858SOL    HW226034   0.972   3.728   7.128 -0.5003 -0.1871 -0.1506
 4859SOL     OW26035   0.303   4.592  15.253  0.1687 -0.1120  0.4002
 4859SOL    HW126036   0.277   4.564  15.341  1.6553 -2.7832 -0.0181
 4859SOL    HW226037   0.339   4.676  15.281  2.5150 -0.8938 -0.2976
 4860SOL     OW26038   1.008   4.331   6.347 -0.0892  0.3300  1.0246
 4860SOL    HW126039   1.058   4.296   6.274 -1.1678  0.6399  0.1397
 4860SOL    HW226040   0.979   4.410   6.302 -1.9058 -0.0315  1.5520
 4861SOL     OW26041   4.212   0.493   0.158  0.0553 -0.4671 -0.8725
 4861SOL    HW126042   4.261   0.415   0.131  2.7020  0.7023  0.5473
 4861SOL    HW226043   4.263   0.564   0.119  0.3853  0.5170  1.3744
 4862SOL     OW26044   2.794   4.223   2.693 -0.1507 -0.2124  0.2285
 4862SOL    HW126045   2.705   4.243   2.720 -0.1219  1.4010 -0.9146
 4862SOL    HW226046   2.776   4.167   2.618 -0.3197  1.5257 -1.0264
 4863SOL     OW26047   3.600   4.695   4.882 -0.3891  0.3128  0.1097
 4863SOL    HW126048   3.596   4.622   4.819 -0.3238  0.6103 -0.2402
 4863SOL    HW226049   3.540   4.661   4.948 -0.9734  1.2614  0.0619
 4864SOL     OW26050   0.022   2.162   0.724 -0.2921 -0.0511 -0.0514
 4864SOL    HW126051   0.029   2.241   0.670  1.0208 -0.0728  0.0782
 4864SOL    HW226052   0.108   2.141   0.759  0.4719 -1.9385 -3.0532
 4865SOL     OW26053   1.289   4.411   4.962  1.3420 -0.2124 -0.0181
 4865SOL    HW126054   1.212   4.357   4.983  1.8664 -0.7923  0.4094
 4865SOL    HW226055   1.337   4.345   4.911  1.8307 -0.0308  0.2203
 4866SOL     OW26056   0.995   4.060   7.542 -0.6670  0.0733  0.2082
 4866SOL    HW126057   1.075   4.010   7.562 -0.8043 -0.2451 -0.0377
 4866SOL    HW226058   0.974   4.017   7.459  0.0947 -0.9464  0.5380
 4867SOL     OW26059   2.203   0.921   7.467  0.2520 -0.0271  0.5085
 4867SOL    HW126060   2.242   0.992   7.518  0.3484  0.0239  0.3649
 4867SOL    HW226061   2.128   0.887   7.516  0.1244 -1.3147 -0.5620
 4868SOL     OW26062   2.710   4.506  14.312 -0.0636 -0.0940 -0.4848
 4868SOL    HW126063   2.795   4.529  14.350 -0.8623 -1.8500  2.3402
 4868SOL    HW226064   2.705   4.413  14.334  1.3373 -0.0557 -0.0549
 4869SOL     OW26065   3.541   1.019   7.705  0.4081  0.7170 -0.7091
 4869SOL    HW126066   3.562   1.041   7.615 -1.5335  1.7837 -0.9033
 4869SOL    HW226067   3.481   1.092   7.720  0.0350  0.3254 -0.3046
 4870SOL     OW26068   1.268   3.597   2.899  0.2084 -0.1392 -0.3421
 4870SOL    HW126069   1.290   3.690   2.889  3.4716 -0.8101  0.4437
 4870SOL    HW226070   1.355   3.561   2.915  0.8009  0.8077 -1.4327
 4871SOL     OW26071   4.557   1.229  15.316 -0.1802  0.3810 -0.0899
 4871SOL    HW126072   4.619   1.259  15.249  1.8105 -0.9094  1.1687
 4871SOL    HW226073   4.503   1.167  15.266  2.1205 -0.6249 -1.3293
 4872SOL     OW26074   0.243   1.751   5.654 -0.0001  0.1692 -0.1628
 4872SOL    HW126075   0.199   1.789   5.578 -1.1599 -0.2937  0.2726
 4872SOL    HW226076   0.178   1.776   5.720 -0.7397  0.1608 -0.8967
 4873SOL     OW26077   0.487   1.462   6.070 -0.3111  0.1315  0.8293
 4873SOL    HW126078   0.555   1.463   6.003 -1.3400 -0.4390 -0.2342
 4873SOL    HW226079   0.469   1.368   6.068 -0.2510  0.1508 -1.0863
 4874SOL     OW26080   3.925   3.182  15.209  0.0789  0.0666 -0.3402
 4874SOL    HW126081   3.948   3.194  15.301 -2.1402  1.3151  0.0591
 4874SOL    HW226082   4.007   3.203  15.165  0.9171 -0.2944  1.0494
 4875SOL     OW26083   2.622   2.321   3.172 -0.2107 -0.9545 -0.2276
 4875SOL    HW126084   2.598   2.284   3.088 -0.8035  1.4645 -1.1211
 4875SOL    HW226085   2.714   2.340   3.150 -0.4132  2.0297  1.4181
 4876SOL     OW26086   2.363   2.908   4.275 -0.0525  0.1310  0.1622
 4876SOL    HW126087   2.374   2.826   4.228 -0.6338  0.8226 -1.1778
 4876SOL    HW226088   2.452   2.940   4.255  0.4779 -1.2875  0.2926
 4877SOL     OW26089   0.077   0.129   3.383  0.2840  0.3920 -0.1143
 4877SOL    HW126090   0.071   0.190   3.309 -2.4968  0.2253 -0.0299
 4877SOL    HW226091   0.109   0.048   3.344  0.5883  0.8811 -0.8775
 4878SOL     OW26092   2.174   1.036   3.045 -0.2243 -0.2471 -0.8555
 4878SOL    HW126093   2.267   1.029   3.067 -0.9224 -1.3485  1.7227
 4878SOL    HW226094   2.135   1.073   3.124  1.4197 -1.6136  0.6056
 4879SOL     OW26095   0.928   1.966   3.075 -0.1338 -0.2445  0.0099
 4879SOL    HW126096   0.976   1.989   3.155  0.7265 -0.3466 -0.4743
 4879SOL    HW226097   0.961   1.877   3.070 -0.9049 -0.4433 -1.6028
 4880SOL     OW26098   2.669   1.152   8.966  0.9948  0.4298  0.3134
 4880SOL    HW126099   2.636   1.103   9.041  1.7251  1.1523  1.1154
 4880SOL    HW226100   2.684   1.238   9.007  2.0788 -0.0741  0.9911
 4881SOL     OW26101   4.135   0.063   4.167  0.0662  0.0207  0.5566
 4881SOL    HW126102   4.061   0.070   4.105  0.7142  0.6704 -0.1445
 4881SOL    HW226103   4.091   0.100   4.243  0.3552  0.4306  0.5283
 4882SOL     OW26104   3.961   0.477   6.960  0.0336 -0.0461  0.2910
 4882SOL    HW126105   3.878   0.489   7.005 -0.5851  0.4132 -0.9773
 4882SOL    HW226106   4.014   0.512   7.032 -1.1746  2.8695 -0.2156
 4883SOL     OW26107   1.864   2.426  10.309  0.0950 -0.4506  0.1840
 4883SOL    HW126108   1.905   2.341  10.288 -0.0804  0.1666 -2.7019
 4883SOL    HW226109   1.837   2.414  10.400 -0.9464  1.5413  0.1304
 4884SOL     OW26110   4.033   3.961   2.766 -0.2186 -0.2202 -0.2740
 4884SOL    HW126111   4.076   3.911   2.697 -0.6327  0.4408 -1.0103
 4884SOL    HW226112   3.955   3.976   2.713  2.6294  1.3848 -4.0399
 4885SOL     OW26113   1.452   0.976   2.056 -0.4098  0.3215  0.5775
 4885SOL    HW126114   1.417   1.026   2.129  1.8689 -0.1547  1.9855
 4885SOL    HW226115   1.373   0.989   2.003 -0.8542 -0.7543  0.9766
 4886SOL     OW26116   0.906   3.140   9.393 -0.2231  0.2952  0.3533
 4886SOL    HW126117   0.891   3.161   9.486 -0.0500  0.6366  0.3048
 4886SOL    HW226118   0.856   3.211   9.354 -1.1951 -0.7253 -0.2383
 4887SOL     OW26119   0.079   2.144  12.750 -0.3621 -0.1597 -0.3159
 4887SOL    HW126120   0.039   2.173  12.833 -1.5473  0.7517 -1.2012
 4887SOL    HW226121   0.021   2.183  12.684  0.2386 -1.8311 -1.8129
 4888SOL     OW26122   1.559   4.008  10.067 -0.4525 -0.5403 -0.1100
 4888SOL    HW126123   1.597   3.938  10.121  0.8660  1.8011  2.0551
 4888SOL    HW226124   1.505   3.957  10.008 -1.1815  0.2941 -0.1517
 4889SOL     OW26125   3.000   0.209   7.495  0.3124 -0.3463 -0.4492
 4889SOL    HW126126   2.944   0.200   7.572  0.8597  0.6902  0.0707
 4889SOL    HW226127   3.021   0.116   7.481 -1.3080 -0.7865  0.1045
 4890SOL     OW26128   1.198   1.235   8.423  0.3470 -0.0172  0.7169
 4890SOL    HW126129   1.243   1.244   8.507  0.9984  1.2268  0.2371
 4890SOL    HW226130   1.251   1.310   8.394 -0.0545 -0.3491 -0.8684
 4891SOL     OW26131   4.524   2.782   6.122 -0.1510  0.0800  0.0156
 4891SOL    HW126132   4.517   2.765   6.028 -0.8573  2.2523 -0.3256
 4891SOL    HW226133   4.488   2.699   6.153 -0.7575  0.6466  0.8267
 4892SOL     OW26134   0.872   4.593   4.857 -0.1704  0.3140  0.3297
 4892SOL    HW126135   0.901   4.581   4.947 -0.5920 -0.9369  0.2949
 4892SOL    HW226136   0.903   4.682   4.840 -0.0128  0.2358  0.2081
 4893SOL     OW26137   3.089   3.621   4.141 -0.0176  0.1396  0.4891
 4893SOL    HW126138   3.040   3.593   4.218  0.6676 -0.4210  0.7175
 4893SOL    HW226139   3.078   3.540   4.091  1.1138  0.6910 -0.6607
 4894SOL     OW26140   4.419   4.137   6.645 -0.2255  0.0038 -0.3316
 4894SOL    HW126141   4.405   4.126   6.740 -0.1511  2.5573 -0.0181
 4894SOL    HW226142   4.482   4.067   6.628 -0.0044  0.6860 -2.2626
 4895SOL     OW26143   1.999   4.301  14.683 -0.4282  0.5876 -0.2369
 4895SOL    HW126144   2.030   4.325  14.771 -2.9124 -0.3265  0.8725
 4895SOL    HW226145   2.079   4.311  14.630 -0.5173  0.9502 -0.3030
 4896SOL     OW26146   0.932   0.698   2.133 -0.5264 -0.5373  0.1802
 4896SOL    HW126147   0.921   0.793   2.125  0.4493 -0.2243  2.6034
 4896SOL    HW226148   0.877   0.673   2.059 -2.9021  1.8849  1.1590
 4897SOL     OW26149   2.973   1.961   3.282 -0.1379  0.3817 -0.2916
 4897SOL    HW126150   2.977   1.894   3.350  1.1413  1.5100  0.7376
 4897SOL    HW226151   3.063   1.992   3.276  0.3393 -0.5273  2.4830
 4898SOL     OW26152   1.862   2.623   9.204 -0.1242 -0.3553  0.9402
 4898SOL    HW126153   1.888   2.531   9.196 -2.4010 -0.8441 -0.8982
 4898SOL    HW226154   1.948   2.653   9.233 -1.2258  1.8243  1.9333
 4899SOL     OW26155   2.014   2.693   3.632 -0.2951  0.3806  0.1365
 4899SOL    HW126156   2.005   2.704   3.537  0.1651  1.9130  0.2580
 4899SOL    HW226157   2.035   2.600   3.633  0.6140  0.6081  2.5384
 4900SOL     OW26158   0.496   3.859   6.547  0.0257  0.0490  0.4780
 4900SOL    HW126159   0.402   3.846   6.539  0.1096  0.0161 -0.4690
 4900SOL    HW226160   0.508   3.817   6.632  2.9370 -1.5439 -0.6925
 4901SOL     OW26161   2.686   1.761   5.413 -0.3254  0.1652  0.3037
 4901SOL    HW126162   2.762   1.804   5.373  2.4661 -1.0666  4.2642
 4901SOL    HW226163   2.643   1.736   5.332 -0.3445 -2.5003  1.1338
 4902SOL     OW26164   4.556   2.291   1.149  0.6753 -0.3480  0.0967
 4902SOL    HW126165   4.636   2.246   1.120 -0.7142 -3.1085  0.5452
 4902SOL    HW226166   4.494   2.273   1.078 -0.0174 -2.6289  1.2844
 4903SOL     OW26167   1.480   3.193  11.935  0.4571 -0.4790 -0.2740
 4903SOL    HW126168   1.484   3.207  12.029  0.6222 -0.2183 -0.3163
 4903SOL    HW226169   1.445   3.107  11.914  0.0747  0.1324 -2.1406
 4904SOL     OW26170   0.371   3.278  10.310 -0.6147 -0.5943 -1.0089
 4904SOL    HW126171   0.284   3.318  10.300 -0.3918 -0.9390 -4.1912
 4904SOL    HW226172   0.431   3.336  10.262 -0.9785  0.7465  0.1409
 4905SOL     OW26173   2.560   2.477   4.430  0.2413  0.5914 -0.2216
 4905SOL    HW126174   2.479   2.429   4.443  1.7073 -1.7532  0.1961
 4905SOL    HW226175   2.600   2.501   4.513  0.3542 -1.0936  0.2088
 4906SOL     OW26176   2.326   2.820  12.338 -0.0874 -0.1124  0.0658
 4906SOL    HW126177   2.333   2.724  12.330  1.3106 -0.0332  0.3213
 4906SOL    HW226178   2.233   2.833  12.355 -0.7262 -1.2670 -2.4781
 4907SOL     OW26179   2.489   4.300   2.611 -0.0123 -0.4257  0.2249
 4907SOL    HW126180   2.440   4.366   2.660  2.1886  1.0129  0.5006
 4907SOL    HW226181   2.447   4.216   2.630 -0.0231 -0.5855 -0.5263
 4908SOL     OW26182   3.652   2.703   5.377  0.8248 -0.3352 -0.1294
 4908SOL    HW126183   3.664   2.712   5.283 -1.1556  1.3369 -0.2329
 4908SOL    HW226184   3.727   2.751   5.412  1.0653 -0.1254 -0.9329
 4909SOL     OW26185   1.915   0.912   4.779 -0.6455 -0.7581 -0.8089
 4909SOL    HW126186   1.961   0.962   4.846 -0.4897 -1.3066 -0.5087
 4909SOL    HW226187   1.971   0.897   4.703 -1.3996  0.3749 -1.5811
 4910SOL     OW26188   4.233   3.187   5.393  0.3864 -0.5118  0.0385
 4910SOL    HW126189   4.160   3.173   5.333 -0.9720 -1.0358  1.7952
 4910SOL    HW226190   4.260   3.100   5.422  1.3720 -0.0401  0.5385
 4911SOL     OW26191   3.119   2.063   9.515  0.4816  0.0368  0.4533
 4911SOL    HW126192   3.164   2.104   9.589  0.5210  0.4433  0.2042
 4911SOL    HW226193   3.126   1.969   9.533 -2.6253 -0.1224  0.7927
 4912SOL     OW26194   2.406   1.017   3.988  0.9210  0.3644  0.2829
 4912SOL    HW126195   2.317   1.047   4.006  1.5247  2.1754  0.1944
 4912SOL    HW226196   2.447   1.096   3.953  2.4336  0.2022  1.6862
 4913SOL     OW26197   0.174   0.617  10.280 -0.1594  0.0520 -0.1486
 4913SOL    HW126198   0.171   0.563  10.202  1.2209 -1.2099  0.6857
 4913SOL    HW226199   0.183   0.702  10.236  0.6352 -0.4480 -0.9240
 4914SOL     OW26200   1.220   4.382  10.879  0.3071 -0.5946  0.3636
 4914SOL    HW126201   1.315   4.386  10.894  0.0142  0.9711  1.8432
 4914SOL    HW226202   1.196   4.304  10.929  0.4611 -2.6375 -2.7323
 4915SOL     OW26203   1.246   3.567   0.258 -0.0900  0.2066  0.5216
 4915SOL    HW126204   1.204   3.650   0.236  2.7033  1.6653  0.6929
 4915SOL    HW226205   1.328   3.607   0.286 -1.1517  2.3246  0.6272
 4916SOL     OW26206   4.100   1.341   3.428 -0.2193  0.3124 -0.4802
 4916SOL    HW126207   4.020   1.317   3.381 -2.1621  0.0526  2.9509
 4916SOL    HW226208   4.154   1.269   3.397  1.1913  1.4765 -0.7298
 4917SOL     OW26209   3.516   3.130   5.744  0.7908  1.0015  0.2610
 4917SOL    HW126210   3.525   3.181   5.825  2.3127  1.0900  0.0216
 4917SOL    HW226211   3.444   3.069   5.761  1.9959  0.0975  2.0273
 4918SOL     OW26212   2.869   2.471   2.951  0.1975  0.2314 -0.3529
 4918SOL    HW126213   2.850   2.435   3.038  1.2232  1.0139  0.1913
 4918SOL    HW226214   2.922   2.398   2.918 -1.8174 -0.4483 -2.0427
 4919SOL     OW26215   3.972   3.408   8.383  0.1739 -0.6176 -0.0082
 4919SOL    HW126216   3.955   3.486   8.329 -2.7701 -0.6592  0.8770
 4919SOL    HW226217   3.897   3.423   8.439 -0.1765 -1.9336 -0.1281
 4920SOL     OW26218   1.139   4.308   4.163 -0.3454 -0.3427  0.0056
 4920SOL    HW126219   1.054   4.276   4.192  0.5196 -2.3786  0.2911
 4920SOL    HW226220   1.172   4.360   4.237 -2.6908  1.0484  0.0747
 4921SOL     OW26221   4.345   0.535  16.332  0.3485  0.8725  0.5737
 4921SOL    HW126222   4.417   0.471  16.342 -2.1375 -2.6084 -3.7337
 4921SOL    HW226223   4.377   0.574  16.251 -1.5366  1.1959  0.0035
 4922SOL     OW26224   0.887   2.514   8.475 -0.0123 -0.2161  0.6729
 4922SOL    HW126225   0.868   2.437   8.421  1.1417 -0.2882  0.3573
 4922SOL    HW226226   0.939   2.564   8.412  1.3868  0.4508  2.3567
 4923SOL     OW26227   4.119   2.536   1.275  0.7830 -0.3873 -0.1215
 4923SOL    HW126228   4.060   2.495   1.339 -2.2695  1.2565 -1.9144
 4923SOL    HW226229   4.189   2.566   1.333  0.9890 -1.4298  0.1735
 4924SOL     OW26230   4.685   1.624   6.535 -0.4086  0.1295  0.1094
 4924SOL    HW126231   4.707   1.547   6.587 -0.0286 -0.6130 -1.1825
 4924SOL    HW226232   0.008   1.595   6.458  1.9996  0.2711  1.5674
 4925SOL     OW26233   4.512   3.794   0.762  0.2771 -0.3321 -0.0616
 4925SOL    HW126234   4.550   3.729   0.822  1.4732 -0.2801 -0.7558
 4925SOL    HW226235   4.522   3.743   0.681 -1.5007  2.0985 -1.8056
 4926SOL     OW26236   4.096   3.169   2.815 -0.1067 -0.1402 -0.0908
 4926SOL    HW126237   4.005   3.151   2.836 -0.3509  0.8452 -0.3032
 4926SOL    HW226238   4.104   3.259   2.848  0.4220 -0.6638  1.1979
 4927SOL     OW26239   0.239   3.154  12.310 -0.1688 -0.3384  0.5362
 4927SOL    HW126240   0.330   3.164  12.339  0.1856 -1.5337 -0.1924
 4927SOL    HW226241   0.220   3.070  12.353 -0.2152  0.5768  2.3267
 4928SOL     OW26242   1.188   0.060   9.338  0.1464  0.1661 -0.3481
 4928SOL    HW126243   1.195   0.149   9.306 -1.1265 -0.6068 -2.7513
 4928SOL    HW226244   1.166   0.076   9.430  2.4931  0.3232  0.1982
 4929SOL     OW26245   0.693   0.907   8.121 -0.6833  0.3739 -0.1400
 4929SOL    HW126246   0.754   0.834   8.135  0.0270  0.9831 -0.0496
 4929SOL    HW226247   0.719   0.967   8.191  0.5388  0.1653 -0.4063
 4930SOL     OW26248   0.350   1.430   9.266  0.0748  0.4438  0.2984
 4930SOL    HW126249   0.326   1.386   9.185 -0.2774  1.7258 -0.2838
 4930SOL    HW226250   0.279   1.491   9.284 -0.4003 -0.1966  0.5816
 4931SOL     OW26251   0.402   2.116   5.885 -0.0692  0.2272 -0.1365
 4931SOL    HW126252   0.365   2.029   5.872  0.0914  0.0221  0.7470
 4931SOL    HW226253   0.494   2.100   5.863 -0.9412  0.2395 -3.7905
 4932SOL     OW26254   4.270   0.561   4.959  0.7305 -0.1291  0.1076
 4932SOL    HW126255   4.337   0.564   5.028  0.8780 -0.3742 -0.0254
 4932SOL    HW226256   4.238   0.471   4.964  0.7562 -0.1409  0.0528
 4933SOL     OW26257   2.498   0.491   0.239  0.2160  0.1500  0.2402
 4933SOL    HW126258   2.539   0.535   0.314  0.5907 -0.5368  0.4349
 4933SOL    HW226259   2.501   0.569   0.183 -1.1620 -0.0994 -0.1961
 4934SOL     OW26260   2.680   1.829   2.440  0.9001  0.1110 -0.1933
 4934SOL    HW126261   2.627   1.749   2.432  0.3963  0.5959 -1.6268
 4934SOL    HW226262   2.735   1.803   2.513 -0.3695 -1.7962  0.1059
 4935SOL     OW26263   0.048   3.785   1.798  0.2583  0.0604  0.1515
 4935SOL    HW126264   4.711   3.810   1.730 -0.1962 -2.0659 -0.2382
 4935SOL    HW226265   4.721   3.755   1.873 -0.5521  1.4352  0.1278
 4936SOL     OW26266   2.416   0.303   0.435  0.1237  0.6100 -0.4806
 4936SOL    HW126267   2.427   0.368   0.366 -1.3387  1.1821 -0.1792
 4936SOL    HW226268   2.499   0.260   0.453 -0.0765 -0.7379 -2.7489
 4937SOL     OW26269   2.670   4.202   0.621  0.4542 -0.4231 -0.1395
 4937SOL    HW126270   2.703   4.163   0.702  1.4834  0.9330  0.1060
 4937SOL    HW226271   2.576   4.188   0.621  0.4587 -0.4436 -0.4005
 4938SOL     OW26272   4.600   1.275   5.665  0.0882 -0.5827 -0.0174
 4938SOL    HW126273   4.531   1.231   5.715  0.5610  1.3512  2.2991
 4938SOL    HW226274   4.543   1.306   5.595  0.6516 -1.7520 -0.9810
 4939SOL     OW26275   2.662   3.739   3.755  0.1156  0.1957 -0.4998
 4939SOL    HW126276   2.658   3.657   3.805  1.0394 -0.0636 -0.8393
 4939SOL    HW226277   2.735   3.780   3.802  0.0216  1.0252 -1.0887
 4940SOL     OW26278   2.087   2.191   0.571 -1.0190  0.0815  0.8898
 4940SOL    HW126279   2.016   2.185   0.507 -0.9331  2.0248  0.6388
 4940SOL    HW226280   2.037   2.251   0.625 -2.0825 -0.0086  0.0085
 4941SOL     OW26281   0.498   3.693   2.721  0.4513  0.8506 -0.3364
 4941SOL    HW126282   0.525   3.627   2.784  1.0237  1.4724  0.0622
 4941SOL    HW226283   0.407   3.666   2.705  0.6069 -0.3502  0.8361
 4942SOL     OW26284   2.997   1.437   9.180 -0.6239  0.3783  0.0684
 4942SOL    HW126285   3.048   1.497   9.124  0.6568  1.3389  2.2810
 4942SOL    HW226286   3.066   1.372   9.186 -0.0333  1.0534  0.5134
 4943SOL     OW26287   3.754   1.943   3.289  0.0261 -0.0216 -0.1689
 4943SOL    HW126288   3.732   2.032   3.264 -1.8343 -0.2764  0.5642
 4943SOL    HW226289   3.715   1.906   3.210 -2.0080 -2.4243  1.9532
 4944SOL     OW26290   1.198   0.889  11.536  0.5031  0.7014 -0.0909
 4944SOL    HW126291   1.206   0.852  11.448 -0.8838 -0.2676  0.1922
 4944SOL    HW226292   1.198   0.983  11.520 -2.8699  1.2088  2.8505
 4945SOL     OW26293   3.669   2.418   5.458  0.2849  0.1139  0.1844
 4945SOL    HW126294   3.651   2.505   5.493 -1.8381 -0.0374 -0.5452
 4945SOL    HW226295   3.584   2.394   5.422  0.0698  1.9734 -0.5481
 4946SOL     OW26296   3.246   2.216   8.742  0.1393  0.0113  0.1630
 4946SOL    HW126297   3.298   2.294   8.719 -0.3522  1.3429  3.5986
 4946SOL    HW226298   3.301   2.164   8.799  0.4273 -1.6373 -1.6203
 4947SOL     OW26299   1.347   4.447  12.618 -0.5809 -0.6501  0.3040
 4947SOL    HW126300   1.374   4.475  12.530  0.8011 -0.3028  0.8328
 4947SOL    HW226301   1.264   4.494  12.623 -0.0905  0.5529 -2.4672
 4948SOL     OW26302   1.200   1.934   9.960  0.3485  0.6592 -0.6235
 4948SOL    HW126303   1.283   1.947  10.006  1.0180  2.1724 -2.2687
 4948SOL    HW226304   1.144   1.945  10.037  1.7168  0.1952  0.4371
 4949SOL     OW26305   4.101   0.929  15.495 -0.0282  0.4425 -0.2150
 4949SOL    HW126306   4.076   1.020  15.480  1.8085  0.9357 -0.3055
 4949SOL    HW226307   4.159   0.925  15.418  0.9634 -2.7107  0.6774
 4950SOL     OW26308   3.208   4.672   4.784 -0.0684  0.3397 -0.3268
 4950SOL    HW126309   3.220   0.030   4.739 -1.2482  0.2820 -0.7489
 4950SOL    HW226310   3.283   4.623   4.750 -1.9975 -0.8152 -2.9736
 4951SOL     OW26311   0.630   2.843   8.638 -0.2297 -0.0370  0.1292
 4951SOL    HW126312   0.699   2.784   8.668  1.1595  0.6778 -1.6577
 4951SOL    HW226313   0.626   2.908   8.709  2.4330 -1.4644  1.6049
 4952SOL     OW26314   2.734   1.089   4.107  0.0344 -0.0061  0.4041
 4952SOL    HW126315   2.826   1.094   4.130 -0.4426 -1.4522  2.6964
 4952SOL    HW226316   2.716   0.995   4.121  2.2394 -0.3171  1.0524
 4953SOL     OW26317   2.539   1.181   1.497 -0.1002  0.1323 -0.2228
 4953SOL    HW126318   2.458   1.188   1.547  0.0088  1.4338 -0.2237
 4953SOL    HW226319   2.526   1.268   1.461 -0.1225  0.5443  0.7824
 4954SOL     OW26320   3.079   0.473   5.093  0.0932  0.1460  0.2367
 4954SOL    HW126321   3.033   0.439   5.016 -1.7144  0.3585  1.2138
 4954SOL    HW226322   3.130   0.545   5.057  0.6113 -0.5002 -0.3235
 4955SOL     OW26323   0.673   1.642   2.873  0.0042 -0.3087  0.7032
 4955SOL    HW126324   0.582   1.631   2.898 -0.9296  2.8640 -1.3862
 4955SOL    HW226325   0.677   1.732   2.842 -1.7551 -0.1418  0.9951
 4956SOL     OW26326   3.044   2.461   3.400  0.2700  0.2363 -0.2061
 4956SOL    HW126327   3.028   2.368   3.409 -1.9786  0.8228  1.7454
 4956SOL    HW226328   2.963   2.496   3.436 -0.4741 -1.3275 -0.3986
 4957SOL     OW26329   1.036   4.430   9.077 -0.5314 -0.3213 -0.8388
 4957SOL    HW126330   1.006   4.489   9.146 -0.3235  0.1153 -1.1235
 4957SOL    HW226331   0.988   4.349   9.094  0.8874 -0.5051  2.2905
 4958SOL     OW26332   0.490   1.011   7.941 -0.4236 -0.0524  0.1296
 4958SOL    HW126333   0.540   0.993   8.021 -1.6817  0.5285  1.0452
 4958SOL    HW226334   0.516   1.103   7.937  0.6867 -0.3756 -0.2654
 4959SOL     OW26335   0.313   1.869   5.984  0.4770  0.8345  0.1363
 4959SOL    HW126336   0.217   1.878   5.982  0.2508 -1.8062 -0.2305
 4959SOL    HW226337   0.328   1.808   5.912  0.3482  0.8487  0.0968
 4960SOL     OW26338   0.996   3.785   5.783 -0.3188  0.2104  0.3868
 4960SOL    HW126339   0.930   3.785   5.714 -0.0043 -0.1589  0.0869
 4960SOL    HW226340   0.964   3.709   5.831 -0.0905 -0.3978 -0.4093
 4961SOL     OW26341   2.599   1.012  16.925 -0.4620  0.3913  0.1240
 4961SOL    HW126342   2.587   0.978  17.014  1.9073  2.2144  1.1423
 4961SOL    HW226343   2.508   1.021  16.899 -0.4258 -1.2477 -0.5707
 4962SOL     OW26344   2.328   1.787   1.374  0.2120  0.5252  0.7341
 4962SOL    HW126345   2.375   1.704   1.373  0.1393  0.5121 -1.4548
 4962SOL    HW226346   2.247   1.754   1.337  0.8027  0.2762 -0.3397
 4963SOL     OW26347   3.466   2.253   9.254 -0.6679  0.1866  0.3402
 4963SOL    HW126348   3.430   2.330   9.209 -0.0342 -0.1964 -0.8016
 4963SOL    HW226349   3.550   2.293   9.277 -0.6798  0.6340 -0.3793
 4964SOL     OW26350   4.322   2.643   1.457 -0.4094 -0.0620 -0.3017
 4964SOL    HW126351   4.341   2.659   1.549 -0.7254 -1.1557 -0.0515
 4964SOL    HW226352   4.394   2.585   1.435  0.3717  0.8418 -0.1267
 4965SOL     OW26353   3.490   0.743   3.112  0.0607  0.0855  0.3597
 4965SOL    HW126354   3.506   0.711   3.201 -1.5396 -1.9104 -0.0640
 4965SOL    HW226355   3.488   0.664   3.058  0.4773 -0.7761  1.5850
 4966SOL     OW26356   0.418   2.913   1.946  0.1713  0.3042  0.2894
 4966SOL    HW126357   0.386   2.823   1.954  0.1674  0.0390 -2.8473
 4966SOL    HW226358   0.423   2.931   1.852 -1.0000 -3.1990 -0.4558
 4967SOL     OW26359   4.349   3.138  12.183 -0.1655  0.0819  0.1961
 4967SOL    HW126360   4.285   3.181  12.240  0.2515 -1.4256  1.7830
 4967SOL    HW226361   4.428   3.150  12.237  1.4063  1.6737 -2.4808
 4968SOL     OW26362   3.311   1.143   6.002 -0.4239  0.0388 -0.2889
 4968SOL    HW126363   3.375   1.209   5.973  0.3898 -0.8325 -0.4656
 4968SOL    HW226364   3.359   1.062   5.985  0.9869  0.6615  0.7134
 4969SOL     OW26365   3.945   4.014   7.236 -0.2484  0.5491  0.5839
 4969SOL    HW126366   3.976   3.926   7.257 -1.7659 -0.7524 -2.5184
 4969SOL    HW226367   3.877   4.029   7.301  1.0412  0.3946  1.9496
 4970SOL     OW26368   3.580   2.502   8.008  0.3032  0.3101 -0.4657
 4970SOL    HW126369   3.541   2.524   7.923  0.1972  0.6809 -0.3218
 4970SOL    HW226370   3.672   2.507   7.984  0.6058 -2.3093  0.2208
 4971SOL     OW26371   3.644   1.938   7.491 -0.4450 -0.3555  0.1564
 4971SOL    HW126372   3.630   1.997   7.565  0.1367 -0.0851  0.0545
 4971SOL    HW226373   3.688   1.870   7.542 -2.5484 -1.3062  0.7116
 4972SOL     OW26374   0.773   1.549   0.442 -0.5031 -0.8432 -0.2788
 4972SOL    HW126375   0.794   1.505   0.360 -0.3949 -1.6842  0.2060
 4972SOL    HW226376   0.689   1.504   0.456 -2.3319  2.5109 -0.4308
 4973SOL     OW26377   4.180   1.069   5.292 -0.4621 -0.4941 -0.5681
 4973SOL    HW126378   4.135   1.152   5.279 -0.7721 -0.7790 -1.3278
 4973SOL    HW226379   4.184   1.032   5.204  1.7086  1.0360 -1.1022
 4974SOL     OW26380   1.874   3.229  13.477 -0.2654 -0.0343 -0.0103
 4974SOL    HW126381   1.842   3.261  13.562 -1.2090  0.1444 -0.4440
 4974SOL    HW226382   1.937   3.167  13.514  0.2680  0.1706 -0.5765
 4975SOL     OW26383   4.167   4.090  11.559  0.0056 -0.1884 -0.0115
 4975SOL    HW126384   4.258   4.114  11.540  0.2168  0.1510  1.4719
 4975SOL    HW226385   4.140   4.168  11.607  0.3490 -0.2958  0.3526
 4976SOL     OW26386   1.025   1.461   7.390  0.2970 -0.1452 -0.4260
 4976SOL    HW126387   0.966   1.442   7.317  0.0799  1.3489 -0.6348
 4976SOL    HW226388   1.091   1.393   7.373 -0.4427 -0.6869 -1.1392
 4977SOL     OW26389   3.260   1.765   2.498 -0.8056  0.4093 -0.1814
 4977SOL    HW126390   3.305   1.834   2.450 -0.9993 -0.0826 -1.0710
 4977SOL    HW226391   3.175   1.767   2.455 -1.4791 -2.5081  0.9875
 4978SOL     OW26392   0.503   1.764  13.079 -0.8662  0.5736  0.3294
 4978SOL    HW126393   0.594   1.735  13.087 -0.1983  2.0455 -1.8846
 4978SOL    HW226394   0.461   1.709  13.145  2.0496 -0.6966  1.1188
 4979SOL     OW26395   1.868   2.934   3.677  0.0060  0.3844 -0.0712
 4979SOL    HW126396   1.902   2.959   3.591  0.5874 -0.5785 -0.1123
 4979SOL    HW226397   1.920   2.856   3.694 -1.0117 -0.1342  0.6621
 4980SOL     OW26398   2.687   1.050   5.181 -0.5529 -0.5316 -0.1977
 4980SOL    HW126399   2.769   1.005   5.165  0.0781 -0.2299  2.1049
 4980SOL    HW226400   2.627   1.020   5.113 -0.0261  0.2550 -1.0082
 4981SOL     OW26401   4.107   1.492   3.053  0.2313  0.1792 -0.2528
 4981SOL    HW126402   4.064   1.505   2.968 -1.1962 -0.7092  0.3250
 4981SOL    HW226403   4.171   1.430   3.019  1.8869  0.3438  2.5804
 4982SOL     OW26404   1.928   0.917   2.482 -0.2971  0.5877  0.0865
 4982SOL    HW126405   1.980   0.845   2.518  1.3849  1.3725 -0.7447
 4982SOL    HW226406   1.975   0.922   2.399 -1.3379 -0.4249 -0.5471
 4983SOL     OW26407   1.352   3.597   2.476  0.0052 -0.3184 -0.0333
 4983SOL    HW126408   1.337   3.674   2.530  0.7367 -1.0723  1.2364
 4983SOL    HW226409   1.443   3.612   2.450 -0.7384 -0.3820 -2.7480
 4984SOL     OW26410   0.442   0.727   2.104  0.4035 -0.1888 -0.3064
 4984SOL    HW126411   0.477   0.641   2.125 -0.3780 -0.1069  1.3140
 4984SOL    HW226412   0.397   0.707   2.023 -1.9995  1.7314  0.5643
 4985SOL     OW26413   1.741   4.014   7.664  0.4353 -0.3062 -0.5387
 4985SOL    HW126414   1.647   4.005   7.681  0.2061 -0.3347 -1.7652
 4985SOL    HW226415   1.773   4.035   7.751 -0.8658 -1.9174  0.3143
 4986SOL     OW26416   1.882   2.878  10.143  0.0126  0.6294 -0.7062
 4986SOL    HW126417   1.973   2.863  10.171 -0.1949  1.5668  0.4270
 4986SOL    HW226418   1.859   2.961  10.184 -1.7408 -0.0025 -0.4227
 4987SOL     OW26419   1.215   4.454   3.921  0.1539  0.2397  0.0997
 4987SOL    HW126420   1.171   4.403   3.988  1.1431 -1.6260 -0.6831
 4987SOL    HW226421   1.277   4.387   3.892  0.1575  0.3740 -0.1990
 4988SOL     OW26422   1.275   3.687   4.973 -0.5023 -0.5060 -0.2852
 4988SOL    HW126423   1.215   3.620   5.005 -1.0451  0.7798  1.3937
 4988SOL    HW226424   1.243   3.716   4.888 -0.5637 -0.9110 -0.3997
 4989SOL     OW26425   0.016   1.268   8.751 -0.1367 -0.8601  0.0368
 4989SOL    HW126426   4.659   1.274   8.800 -0.7438 -1.1767 -0.9286
 4989SOL    HW226427   0.041   1.177   8.768 -0.4534 -0.7002  1.3801
 4990SOL     OW26428   1.736   4.087  11.883 -0.8057  0.1685  0.0114
 4990SOL    HW126429   1.757   4.119  11.796  3.3909 -1.1348  0.5565
 4990SOL    HW226430   1.680   4.014  11.855  1.8883 -2.6190  1.8349
 4991SOL     OW26431   1.675   4.158  11.097 -0.2352 -0.0011 -0.4958
 4991SOL    HW126432   1.606   4.219  11.073  0.8138  0.2228 -2.9148
 4991SOL    HW226433   1.685   4.107  11.016  1.0874 -1.5067  0.5971
 4992SOL     OW26434   1.445   3.483   9.076 -0.4394 -0.0890  0.3993
 4992SOL    HW126435   1.387   3.551   9.043 -0.3590  0.5100  1.5062
 4992SOL    HW226436   1.524   3.536   9.061 -0.2514 -0.5603 -0.2597
 4993SOL     OW26437   1.178   3.281  11.577  0.3150 -0.1471 -0.3353
 4993SOL    HW126438   1.234   3.215  11.536  1.1182 -0.7275  1.6728
 4993SOL    HW226439   1.150   3.225  11.650  0.5347 -0.1626 -0.2616
 4994SOL     OW26440   3.100   0.030   6.166  0.4548 -0.0873 -0.2686
 4994SOL    HW126441   3.097   4.666   6.132 -3.3000  0.4038 -1.2946
 4994SOL    HW226442   3.167   0.017   6.232  1.7572  2.0918 -1.1703
 4995SOL     OW26443   2.319   2.732  13.806 -0.0645 -0.1992 -0.0783
 4995SOL    HW126444   2.273   2.816  13.806 -2.3677 -1.4430  0.9033
 4995SOL    HW226445   2.361   2.738  13.720  0.0212  2.2330  0.1407
 4996SOL     OW26446   0.202   1.193   2.558 -0.1748  0.0720  0.2272
 4996SOL    HW126447   0.256   1.246   2.616 -1.1656  0.0254  1.1711
 4996SOL    HW226448   0.228   1.236   2.476  1.0606 -1.8389 -0.3920
 4997SOL     OW26449   2.029   0.283   0.405 -0.1543 -0.2588  0.5928
 4997SOL    HW126450   1.981   0.253   0.328  1.1914 -1.7950  0.3461
 4997SOL    HW226451   2.105   0.327   0.366  0.8652 -1.5428  1.1329
 4998SOL     OW26452   4.595   2.253  11.773 -0.2331 -0.0828 -0.2227
 4998SOL    HW126453   4.620   2.345  11.770  0.5081 -0.1557  3.5212
 4998SOL    HW226454   4.665   2.203  11.730 -0.9189 -2.4311  1.3912
 4999SOL     OW26455   4.041   0.255   8.921 -0.2595  0.4927  0.2513
 4999SOL    HW126456   3.953   0.275   8.952 -0.9443  0.2261 -1.5478
 4999SOL    HW226457   4.059   0.176   8.971  0.3200 -1.0028 -2.3087
 5000SOL     OW26458   1.974   4.332   5.851  0.1351 -0.4127  0.3403
 5000SOL    HW126459   2.015   4.245   5.853 -2.3501 -1.6147 -0.6809
 5000SOL    HW226460   1.944   4.333   5.760  0.8418  0.4973  0.1268
 5001SOL     OW26461   2.666   3.912   4.043 -0.0279  0.4587  0.5587
 5001SOL    HW126462   2.685   3.957   4.126  2.1811 -0.6218  0.6387
 5001SOL    HW226463   2.580   3.874   4.060 -0.1103  1.1741  1.8312
 5002SOL     OW26464   0.336   4.614   6.087  0.0666 -0.3257  0.0690
 5002SOL    HW126465   0.349   4.615   6.182  0.6729 -3.8444  0.0190
 5002SOL    HW226466   0.426   4.602   6.059  0.5658  0.4000  1.3530
 5003SOL     OW26467   0.866   4.183   5.787 -0.3659 -0.3784 -0.1711
 5003SOL    HW126468   0.815   4.103   5.774  0.0048 -1.2075  3.4845
 5003SOL    HW226469   0.803   4.229   5.841  1.1810  3.1757 -1.3738
 5004SOL     OW26470   1.535   0.103   3.915  0.5543  0.4517 -0.2984
 5004SOL    HW126471   1.562   0.020   3.952 -1.2127  0.3112  0.7006
 5004SOL    HW226472   1.615   0.155   3.904  0.1134  1.0420 -0.7454
 5005SOL     OW26473   1.633   0.835   8.509  0.1499 -0.0306 -0.2756
 5005SOL    HW126474   1.616   0.884   8.589 -0.4124 -1.2238  0.3406
 5005SOL    HW226475   1.707   0.885   8.474 -0.0520  0.6173  0.2261
 5006SOL     OW26476   2.366   4.221   8.909  0.1505 -0.2488  0.1515
 5006SOL    HW126477   2.358   4.126   8.903  1.5450 -0.2792 -1.2492
 5006SOL    HW226478   2.394   4.238   8.999  0.2025  0.0198  0.0837
 5007SOL     OW26479   1.930   3.032   3.994  0.3727  0.1994  0.0332
 5007SOL    HW126480   2.019   3.018   3.964 -0.7582 -1.2663 -2.6926
 5007SOL    HW226481   1.876   2.982   3.932  0.5079 -0.5782  0.5501
 5008SOL     OW26482   2.409   1.195   7.391  0.1993 -0.0588  0.2044
 5008SOL    HW126483   2.367   1.279   7.411  0.8220  0.3877 -0.3788
 5008SOL    HW226484   2.501   1.210   7.412  0.3814  1.2313 -1.5413
 5009SOL     OW26485   4.401   2.170  10.125  0.1093  0.0256  0.1466
 5009SOL    HW126486   4.352   2.232  10.179  1.1190  0.4796  0.5338
 5009SOL    HW226487   4.423   2.114  10.199  0.4765  1.5256  1.1673
 5010SOL     OW26488   0.198   2.435   3.218  0.2209  0.3538  0.1649
 5010SOL    HW126489   0.206   2.408   3.126  2.0926 -2.9681  1.3058
 5010SOL    HW226490   0.128   2.498   3.204 -0.2546  0.0694  1.3127
 5011SOL     OW26491   3.183   2.683   7.987 -0.4465 -0.2957  0.1712
 5011SOL    HW126492   3.186   2.607   7.928 -2.0558  0.9752 -1.5244
 5011SOL    HW226493   3.104   2.728   7.960 -0.2644  1.0324  1.8461
 5012SOL     OW26494   4.320   2.455   8.314 -0.0726  1.0467 -0.0564
 5012SOL    HW126495   4.305   2.377   8.262  2.0675  0.7580 -0.2539
 5012SOL    HW226496   4.230   2.455   8.345 -1.3325  0.1262 -3.6720
 5013SOL     OW26497   3.445   2.855   2.260  0.3033 -0.3510  0.1436
 5013SOL    HW126498   3.519   2.916   2.257 -1.8972  2.4011  1.0815
 5013SOL    HW226499   3.478   2.785   2.316  1.6552  1.1212  1.2019
 5014SOL     OW26500   1.799   1.504   4.207  0.2530  0.5444 -0.0534
 5014SOL    HW126501   1.707   1.510   4.229  0.6488  1.8913  1.1927
 5014SOL    HW226502   1.788   1.490   4.113  1.8748 -2.1851  0.1476
 5015SOL     OW26503   1.238   0.285   5.910 -0.6547  0.1221 -0.2032
 5015SOL    HW126504   1.191   0.216   5.864  1.2874 -0.3053 -1.5610
 5015SOL    HW226505   1.311   0.270   5.850 -0.2806  0.4382  0.1764
 5016SOL     OW26506   1.531   0.047   5.962 -0.2984  0.3105 -0.3265
 5016SOL    HW126507   1.559   0.139   5.957 -0.7457  0.4360 -0.4793
 5016SOL    HW226508   1.510   0.017   5.874 -0.8667  1.4124 -0.5618
 5017SOL     OW26509   2.495   0.313   2.474  0.5871 -0.3081  0.1275
 5017SOL    HW126510   2.528   0.225   2.464 -0.1643 -0.6574  0.6534
 5017SOL    HW226511   2.436   0.308   2.550  0.2911  0.6438 -0.0389
 5018SOL     OW26512   1.299   1.918  14.691 -0.2690  0.1990  0.2079
 5018SOL    HW126513   1.239   1.988  14.717  0.3560  0.6869  0.3355
 5018SOL    HW226514   1.260   1.906  14.605 -1.1367 -0.9637  0.7646
 5019SOL     OW26515   1.531   0.642  15.543  0.0642 -0.1631 -1.0950
 5019SOL    HW126516   1.536   0.703  15.617  0.2394 -0.2086 -1.0690
 5019SOL    HW226517   1.598   0.675  15.482  0.2832 -0.4189 -0.9918
 5020SOL     OW26518   1.838   2.918   5.767 -0.8569 -0.0640 -0.4631
 5020SOL    HW126519   1.834   2.823   5.779  2.0036 -0.2841 -1.0807
 5020SOL    HW226520   1.747   2.941   5.748 -0.3560 -0.0459 -2.8102
 5021SOL     OW26521   0.032   0.493  14.382 -0.0051 -0.0034  0.9697
 5021SOL    HW126522   0.082   0.470  14.460 -1.6774 -0.3207  1.9637
 5021SOL    HW226523   0.017   0.408  14.341  0.1856 -0.7488  2.4443
 5022SOL     OW26524   2.157   0.697   2.222  0.3117  0.1170 -0.6746
 5022SOL    HW126525   2.100   0.771   2.202 -0.6072  0.2070  2.3141
 5022SOL    HW226526   2.098   0.630   2.188  0.7956  0.8628 -3.0258
 5023SOL     OW26527   0.260   1.341   3.007 -0.6382  0.4702  0.4198
 5023SOL    HW126528   0.335   1.291   2.974 -0.6998  1.3153 -1.0305
 5023SOL    HW226529   0.193   1.279   2.979  0.9560 -0.0704 -2.2182
 5024SOL     OW26530   1.345   2.571   7.410 -0.3329  0.2562 -0.3416
 5024SOL    HW126531   1.397   2.513   7.465 -0.5655  1.8056  1.5295
 5024SOL    HW226532   1.293   2.622   7.472 -0.9250 -2.8868  1.7431
 5025SOL     OW26533   0.163   2.578   5.373  0.2564 -0.1134 -0.6939
 5025SOL    HW126534   0.193   2.659   5.414 -2.7021  1.3021 -1.3832
 5025SOL    HW226535   0.152   2.519   5.448 -0.5889  2.3509  1.1169
 5026SOL     OW26536   1.578   4.577   8.339 -0.5225  0.1825  0.1989
 5026SOL    HW126537   1.666   4.541   8.354 -0.7439 -0.4770 -0.0940
 5026SOL    HW226538   1.565   4.551   8.248  1.4313  3.6152 -1.0630
 5027SOL     OW26539   2.408   4.333  15.714  0.4787 -0.0867 -0.3668
 5027SOL    HW126540   2.432   4.356  15.803 -2.5086 -1.9913  0.9290
 5027SOL    HW226541   2.325   4.380  15.707  0.9117  0.5573 -1.2876
 5028SOL     OW26542   3.830   4.544   2.387 -0.0602 -0.5822 -0.0906
 5028SOL    HW126543   3.840   4.526   2.293 -1.8490  0.2388 -0.4395
 5028SOL    HW226544   3.895   4.478   2.412 -0.6842 -0.5910  1.4797
 5029SOL     OW26545   3.326   0.433   7.665  0.0197  0.0644 -0.3542
 5029SOL    HW126546   3.256   0.389   7.712  0.0448 -1.0985 -1.3992
 5029SOL    HW226547   3.336   0.514   7.715  0.0509  0.9853 -1.8457
 5030SOL     OW26548   2.987   3.764   3.679  0.7656 -0.5369 -0.5227
 5030SOL    HW126549   3.050   3.834   3.659  0.1397  0.2718  0.3130
 5030SOL    HW226550   2.945   3.810   3.752  1.5580 -0.3145 -0.2035
 5031SOL     OW26551   3.372   2.885   8.523  0.6703 -0.5477 -0.1739
 5031SOL    HW126552   3.461   2.920   8.528  1.1958 -1.2736 -4.2852
 5031SOL    HW226553   3.383   2.832   8.444  1.2665 -0.0619 -0.4111
 5032SOL     OW26554   1.187   0.792   6.052  0.1565  0.2290 -0.2287
 5032SOL    HW126555   1.254   0.808   5.986  0.3362 -1.5377 -0.4692
 5032SOL    HW226556   1.146   0.879   6.045 -1.6471 -0.5903  0.1230
 5033SOL     OW26557   0.808   0.599   6.829 -0.5642  0.0410  0.4352
 5033SOL    HW126558   0.755   0.647   6.766 -0.4556  1.5608  1.4865
 5033SOL    HW226559   0.869   0.544   6.780 -0.0390  1.1128 -0.1129
 5034SOL     OW26560   0.825   1.587   2.662  0.4285 -0.6581 -0.2031
 5034SOL    HW126561   0.765   1.514   2.644 -0.1489  0.1419 -1.5020
 5034SOL    HW226562   0.789   1.609   2.748 -0.3775 -0.2061 -0.6590
 5035SOL     OW26563   2.097   3.812   8.405  0.4558  0.2610  0.0343
 5035SOL    HW126564   2.010   3.852   8.405  1.0210  1.4584 -1.3381
 5035SOL    HW226565   2.145   3.892   8.385  1.0717  0.0407  0.6769
 5036SOL     OW26566   2.521   2.433   8.378 -0.5279  0.3307  0.3530
 5036SOL    HW126567   2.558   2.483   8.450  0.8299 -0.6043  0.2987
 5036SOL    HW226568   2.596   2.450   8.321  0.4553 -0.9830  1.2467
 5037SOL     OW26569   0.189   0.059  13.726  0.0149  0.5158  0.1521
 5037SOL    HW126570   0.135   0.113  13.668  0.6981 -0.6313 -1.5410
 5037SOL    HW226571   0.262   0.118  13.744  0.2366 -0.0838  1.2700
 5038SOL     OW26572   3.147   3.293   8.231 -0.3301 -0.7103 -0.1037
 5038SOL    HW126573   3.171   3.362   8.292  2.2632 -0.0147 -1.8892
 5038SOL    HW226574   3.160   3.338   8.147 -0.5719  0.7552  0.6492
 5039SOL     OW26575   1.497   3.743   6.453 -0.2440 -0.0051 -0.4828
 5039SOL    HW126576   1.413   3.698   6.460  0.7643 -1.6221  1.1290
 5039SOL    HW226577   1.553   3.675   6.490 -0.4468 -0.4745 -1.0377
 5040SOL     OW26578   1.952   4.236  13.600  0.0681  0.2560  0.5875
 5040SOL    HW126579   1.950   4.226  13.695  0.5397 -2.8128  0.2765
 5040SOL    HW226580   2.016   4.306  13.586  0.4032 -0.3587 -1.0554
 5041SOL     OW26581   1.504   1.315   5.828  0.3428 -0.1776  0.4526
 5041SOL    HW126582   1.532   1.389   5.775 -1.5048 -1.3099 -2.1177
 5041SOL    HW226583   1.412   1.335   5.815  0.4640  1.8606  2.8641
 5042SOL     OW26584   2.211   4.614   7.266  0.1616  0.1349  0.3653
 5042SOL    HW126585   2.126   4.629   7.308  0.5911  1.2425  0.8242
 5042SOL    HW226586   2.242   4.544   7.323  0.7814 -0.1356 -0.3031
 5043SOL     OW26587   4.509   2.353   6.871 -0.5750  0.5093  0.4269
 5043SOL    HW126588   4.418   2.380   6.861 -0.5382  0.3921 -0.2799
 5043SOL    HW226589   4.532   2.412   6.942  0.3747  1.0328 -0.3141
 5044SOL     OW26590   4.461   0.538   5.157 -0.4493 -0.3212  0.2376
 5044SOL    HW126591   4.499   0.485   5.227 -2.2222  0.5821  1.8605
 5044SOL    HW226592   4.538   0.586   5.125  0.3460 -0.6401  1.6751
 5045SOL     OW26593   1.449   0.894  12.269 -0.0290  0.1990 -0.1079
 5045SOL    HW126594   1.489   0.976  12.298 -3.2344  2.0034 -0.6771
 5045SOL    HW226595   1.492   0.875  12.186 -1.0798 -0.4406 -0.5141
 5046SOL     OW26596   1.921   1.359   3.196  0.4535 -0.2445  0.3400
 5046SOL    HW126597   1.974   1.283   3.219 -0.8484 -1.4717 -0.6498
 5046SOL    HW226598   1.830   1.327   3.197 -0.6180  2.6951 -2.0473
 5047SOL     OW26599   0.590   1.318  11.663  0.1837 -0.2905 -0.1648
 5047SOL    HW126600   0.514   1.374  11.681  1.9090  2.1404 -0.3665
 5047SOL    HW226601   0.605   1.277  11.749 -1.2549  0.0740  0.2589
 5048SOL     OW26602   2.168   3.648   0.241  0.7282  0.2558  0.5336
 5048SOL    HW126603   2.205   3.647   0.153 -2.0514  0.0285 -0.6155
 5048SOL    HW226604   2.086   3.601   0.226  0.6415  0.1658  1.2690
 5049SOL     OW26605   3.629   2.061   7.750  0.1050  0.2886  0.6774
 5049SOL    HW126606   3.585   2.145   7.746  2.2318  1.3170 -1.2190
 5049SOL    HW226607   3.678   2.064   7.832 -0.0877  0.8675  0.7691
 5050SOL     OW26608   0.115   0.666  13.092  0.1994  0.1130  0.1081
 5050SOL    HW126609   0.028   0.657  13.054 -0.6233 -1.5982  2.4068
 5050SOL    HW226610   0.144   0.735  13.033  1.6716 -1.8657 -1.4967
 5051SOL     OW26611   3.106   0.672   7.169  0.3740 -0.0331 -0.4687
 5051SOL    HW126612   3.138   0.590   7.209  0.9673 -0.3533 -1.5997
 5051SOL    HW226613   3.101   0.660   7.074 -0.4082  1.1923 -0.5765
 5052SOL     OW26614   0.001   0.784   7.595  0.4385 -0.1820 -0.0381
 5052SOL    HW126615   4.650   0.841   7.584  0.5138  0.3490  2.1470
 5052SOL    HW226616   4.715   0.755   7.685 -0.2713 -0.3271 -0.1723
 5053SOL     OW26617   3.581   2.697  13.469  0.3736 -0.2537  0.4053
 5053SOL    HW126618   3.644   2.687  13.398 -3.8473 -3.0703 -2.8629
 5053SOL    HW226619   3.497   2.687  13.425  0.6037 -2.5027  0.4818
 5054SOL     OW26620   4.475   2.044  10.649  0.1496 -0.1943  0.4191
 5054SOL    HW126621   4.449   2.011  10.735 -1.2314  0.3548  0.2037
 5054SOL    HW226622   4.536   2.115  10.671  0.5053 -0.6600  0.9481
 5055SOL     OW26623   0.087   1.138   6.757  0.3266 -0.0398  0.2156
 5055SOL    HW126624   0.006   1.087   6.761  1.8142 -2.4346 -0.5371
 5055SOL    HW226625   0.085   1.172   6.846  0.2590  0.6453 -0.0462
 5056SOL     OW26626   3.672   0.463   2.628 -0.2808  0.0804 -0.1363
 5056SOL    HW126627   3.755   0.427   2.596 -0.0211  0.1073  0.5081
 5056SOL    HW226628   3.682   0.550   2.590  3.2491  0.4430  1.6883
 5057SOL     OW26629   2.070   1.610  12.819 -0.3048  0.4219 -0.6236
 5057SOL    HW126630   2.009   1.670  12.863 -0.6988  0.3774 -1.0952
 5057SOL    HW226631   2.005   1.545  12.792 -1.7021  1.7518 -0.5454
 5058SOL     OW26632   1.234   3.396   0.471 -0.1461  0.6576  0.0228
 5058SOL    HW126633   1.165   3.330   0.462 -0.0723  0.6294 -0.3403
 5058SOL    HW226634   1.198   3.453   0.403 -1.6272 -1.3891 -0.9131
 5059SOL     OW26635   1.206   2.916   7.314  0.0804  0.3080  0.4214
 5059SOL    HW126636   1.282   2.952   7.269  2.6175 -0.8683  3.7882
 5059SOL    HW226637   1.217   2.955   7.401 -0.2836  0.9733  0.1690
 5060SOL     OW26638   1.096   1.714   4.770  0.0893  0.0914 -0.2644
 5060SOL    HW126639   1.123   1.791   4.719  1.8786  0.1320  0.7252
 5060SOL    HW226640   1.139   1.726   4.855  0.5988  3.3827 -0.9677
 5061SOL     OW26641   3.577   2.238  13.910  0.4186  0.3761  0.1065
 5061SOL    HW126642   3.556   2.225  14.003  1.7123  1.2143  0.5114
 5061SOL    HW226643   3.623   2.154  13.902  0.6850  0.4150  1.2191
 5062SOL     OW26644   3.177   4.155   8.688 -0.3142  0.0487 -0.7812
 5062SOL    HW126645   3.225   4.086   8.643  2.7793  1.3686  0.4205
 5062SOL    HW226646   3.116   4.100   8.737  2.6497 -2.1959  0.3990
 5063SOL     OW26647   0.617   2.508   9.494  0.1649  0.1099 -0.3445
 5063SOL    HW126648   0.557   2.581   9.482 -0.5472  0.0673  2.9352
 5063SOL    HW226649   0.697   2.559   9.503  0.1445  0.2627 -1.0571
 5064SOL     OW26650   3.110   1.200  13.241 -0.6277  0.4915 -0.2844
 5064SOL    HW126651   3.075   1.150  13.167  1.5156  1.2580 -1.7992
 5064SOL    HW226652   3.191   1.149  13.250 -0.2570  1.3609  1.2576
 5065SOL     OW26653   3.141   4.026  13.882  0.2307  0.3413 -0.5070
 5065SOL    HW126654   3.216   3.987  13.838  0.7356 -0.0843  0.7090
 5065SOL    HW226655   3.103   4.088  13.820  0.0847  1.9616  1.2147
 5066SOL     OW26656   3.146   2.878   6.750 -0.8968 -0.1384  0.0138
 5066SOL    HW126657   3.200   2.817   6.800 -0.3915  1.9886  2.0998
 5066SOL    HW226658   3.152   2.838   6.664 -1.7961 -0.6095  0.1686
 5067SOL     OW26659   1.621   3.940   3.121 -0.3415 -0.1562 -0.0484
 5067SOL    HW126660   1.633   3.947   3.027 -2.5501 -0.9735 -0.3810
 5067SOL    HW226661   1.526   3.940   3.118 -0.2934 -1.2960 -1.0209
 5068SOL     OW26662   3.309   0.046   4.368  0.3053 -0.0796 -0.5456
 5068SOL    HW126663   3.294   4.706   4.300  0.3373 -0.9763  0.3021
 5068SOL    HW226664   3.399   0.023   4.389  0.7513  1.5636 -0.6139
 5069SOL     OW26665   0.310   1.300   8.586  0.2544  0.0273 -0.6757
 5069SOL    HW126666   0.270   1.218   8.614 -2.3386  0.3906 -3.3787
 5069SOL    HW226667   0.252   1.330   8.516  0.8545 -0.0219 -1.1946
 5070SOL     OW26668   0.055   1.120  12.770 -0.1061  0.0527 -0.3790
 5070SOL    HW126669   0.090   1.058  12.834  0.5715  1.2582  0.4320
 5070SOL    HW226670   0.132   1.133  12.715 -0.2080 -0.5765 -0.6663
 5071SOL     OW26671   0.733   2.828   7.751 -0.2663  0.1133  0.1988
 5071SOL    HW126672   0.694   2.824   7.664 -2.2560 -0.2505  1.1257
 5071SOL    HW226673   0.702   2.757   7.806  0.8364  0.6434  1.5273
 5072SOL     OW26674   4.214   3.150  16.291 -0.0358 -0.4150 -0.7200
 5072SOL    HW126675   4.142   3.140  16.229 -0.1941  0.8783 -0.7549
 5072SOL    HW226676   4.190   3.086  16.358  1.8477 -1.3094 -0.9148
 5073SOL     OW26677   1.817   2.182  14.785 -0.6511 -0.0066  0.5143
 5073SOL    HW126678   1.737   2.138  14.754 -0.0389  0.1583 -1.2794
 5073SOL    HW226679   1.871   2.144  14.716 -2.1400 -1.2789  0.0283
 5074SOL     OW26680   0.789   3.360  11.422  0.2073 -0.0502 -0.4903
 5074SOL    HW126681   0.757   3.282  11.467  1.0120 -0.3054 -0.3440
 5074SOL    HW226682   0.854   3.396  11.483 -0.4187 -1.4788  1.0248
 5075SOL     OW26683   2.394   0.533   1.851  0.2005 -0.0939 -0.1316
 5075SOL    HW126684   2.460   0.499   1.790  0.6636  0.1419  0.2312
 5075SOL    HW226685   2.447   0.560   1.926  1.9042 -0.9207 -1.0071
 5076SOL     OW26686   1.151   1.240   7.477 -0.2832  0.1635 -0.5826
 5076SOL    HW126687   1.188   1.170   7.424 -1.6698 -3.2011  2.8491
 5076SOL    HW226688   1.125   1.182   7.549 -1.2696  0.9803 -0.2820
 5077SOL     OW26689   0.987   2.403   8.827  0.1784 -0.5424  0.0211
 5077SOL    HW126690   0.949   2.426   8.912 -2.5426  0.1722 -1.3730
 5077SOL    HW226691   1.078   2.432   8.834 -0.1618  0.1926  1.4083
 5078SOL     OW26692   1.653   1.839   4.945  0.1018 -0.1318  0.0764
 5078SOL    HW126693   1.657   1.917   4.890 -1.5913 -0.7645 -0.9393
 5078SOL    HW226694   1.743   1.806   4.940  0.2664  0.7343 -3.0128
 5079SOL     OW26695   1.702   0.261   1.587  0.3598  0.5524  0.0048
 5079SOL    HW126696   1.738   0.324   1.524 -0.9515  1.6335  0.3481
 5079SOL    HW226697   1.610   0.287   1.593  0.4438  0.7045  0.6599
 5080SOL     OW26698   4.096   4.276   3.902 -0.2842  0.2978 -0.4843
 5080SOL    HW126699   4.050   4.293   3.820 -0.9104 -0.3054 -0.2594
 5080SOL    HW226700   4.108   4.181   3.915  0.1642  0.7127  2.2206
 5081SOL     OW26701   0.477   0.607   3.398 -0.0402  0.2517 -0.5133
 5081SOL    HW126702   0.452   0.516   3.415  0.4757  0.5568  1.8615
 5081SOL    HW226703   0.423   0.653   3.461  0.8060  1.0571 -0.3760
 5082SOL     OW26704   2.686   4.145   7.567  0.4953  0.1721  0.2231
 5082SOL    HW126705   2.742   4.223   7.566  0.9505 -0.1660 -0.1590
 5082SOL    HW226706   2.747   4.081   7.604  1.5160  2.3941  2.4121
 5083SOL     OW26707   4.469   2.026   9.305  0.0651  0.4108 -0.2498
 5083SOL    HW126708   4.446   1.956   9.244  0.7428  0.6709 -0.8018
 5083SOL    HW226709   4.383   2.063   9.324  0.3244  0.6178  0.5486
 5084SOL     OW26710   1.455   0.031   1.417 -0.0162 -0.1569  1.2320
 5084SOL    HW126711   1.451   0.109   1.362 -0.3626 -1.2120 -0.2352
 5084SOL    HW226712   1.434   4.688   1.353  1.7351  0.5936 -0.1617
 5085SOL     OW26713   0.880   0.154  14.462 -0.6820  0.2611 -0.8715
 5085SOL    HW126714   0.937   0.224  14.493  0.8063 -0.5224 -1.8239
 5085SOL    HW226715   0.796   0.196  14.478 -0.3301  0.6696 -0.0856
 5086SOL     OW26716   1.691   0.813   2.905 -0.2775 -0.4109  0.3728
 5086SOL    HW126717   1.690   0.726   2.866  0.6923 -0.4297  0.3708
 5086SOL    HW226718   1.722   0.863   2.829 -1.0940 -0.3731  0.0692
 5087SOL     OW26719   4.249   1.605   2.273 -0.0275  0.2141 -0.5654
 5087SOL    HW126720   4.234   1.588   2.180  0.7276 -1.6786 -0.3636
 5087SOL    HW226721   4.207   1.529   2.314 -0.2470 -1.5084 -3.9419
 5088SOL     OW26722   2.738   1.478   4.673  0.0750 -0.0812 -0.2940
 5088SOL    HW126723   2.653   1.445   4.702 -0.6410  2.6745  0.7574
 5088SOL    HW226724   2.784   1.396   4.692 -2.4130 -1.2144  0.9003
 5089SOL     OW26725   0.861   4.693   2.423  0.6230 -0.0348 -0.2373
 5089SOL    HW126726   0.936   0.001   2.473 -0.3328  0.9337  0.5421
 5089SOL    HW226727   0.845   0.053   2.381 -0.0250  0.2842  0.6666
 5090SOL     OW26728   4.130   1.737  13.942  0.1471  0.6139 -0.0399
 5090SOL    HW126729   4.051   1.691  13.968  1.1627 -0.7099  0.6871
 5090SOL    HW226730   4.126   1.818  13.993 -1.1185  0.1232  0.6420
 5091SOL     OW26731   1.820   1.714  16.248 -0.3689  0.1069 -0.1350
 5091SOL    HW126732   1.735   1.699  16.288 -0.2430 -2.2171 -0.7681
 5091SOL    HW226733   1.806   1.705  16.154 -0.3611 -1.0603 -0.0209
 5092SOL     OW26734   4.042   0.881   2.405 -0.1640 -0.4705 -0.0764
 5092SOL    HW126735   4.097   0.928   2.343 -1.4547  0.2033 -0.7256
 5092SOL    HW226736   3.970   0.943   2.416 -2.0063 -2.1470 -2.5201
 5093SOL     OW26737   2.418   3.886   7.005 -0.4894 -0.4557 -0.0841
 5093SOL    HW126738   2.372   3.947   6.946  0.5094  0.9691  0.6130
 5093SOL    HW226739   2.341   3.855   7.054 -0.4610 -1.4421 -0.6639
 5094SOL     OW26740   0.776   1.782   1.895 -0.7137 -0.3083 -0.3774
 5094SOL    HW126741   0.741   1.694   1.905  0.8800 -0.8005  0.8671
 5094SOL    HW226742   0.725   1.839   1.952 -1.6562 -1.9669  0.4424
 5095SOL     OW26743   1.662   3.970  16.887  0.0896 -0.2900  0.4036
 5095SOL    HW126744   1.589   3.908  16.886 -1.0587  1.0581  0.0436
 5095SOL    HW226745   1.683   3.985  16.795  1.7377  2.5680  1.2544
 5096SOL     OW26746   0.721   2.087   2.988  0.1392 -0.0567  0.1749
 5096SOL    HW126747   0.794   2.051   3.038  0.3308  0.6844  0.4210
 5096SOL    HW226748   0.681   2.135   3.060  1.2489 -0.8174  1.3047
 5097SOL     OW26749   4.578   1.678   4.263 -0.5552 -0.2015 -0.2617
 5097SOL    HW126750   4.489   1.709   4.246 -0.0025  0.8228 -1.2617
 5097SOL    HW226751   4.617   1.665   4.177  0.8848 -1.2205  0.5469
 5098SOL     OW26752   2.053   2.032   8.093  0.4713 -0.0506  0.2949
 5098SOL    HW126753   2.130   2.082   8.067 -0.2024 -0.1606 -1.8448
 5098SOL    HW226754   1.984   2.079   8.046  1.1269 -0.5934 -1.2039
 5099SOL     OW26755   3.697   2.155   4.192  0.0077 -0.0007  0.4895
 5099SOL    HW126756   3.628   2.216   4.218 -0.9306 -0.3266 -1.2073
 5099SOL    HW226757   3.664   2.098   4.122 -1.8221 -0.0866  1.4271
 5100SOL     OW26758   1.182   2.877  13.889 -0.7555 -0.1737  0.0527
 5100SOL    HW126759   1.137   2.926  13.820  0.2226  0.7175  0.0384
 5100SOL    HW226760   1.262   2.863  13.839  0.4709 -0.6984  2.1676
 5101SOL     OW26761   3.037   2.666  10.811  0.5876  0.0306 -0.1200
 5101SOL    HW126762   3.007   2.754  10.834  0.3307  0.8428 -3.5792
 5101SOL    HW226763   3.132   2.670  10.804  0.5346 -0.8254 -1.3403
 5102SOL     OW26764   1.541   0.942   1.712  0.0389  0.1886 -0.4602
 5102SOL    HW126765   1.580   1.008   1.769  0.7737  0.4884 -1.3209
 5102SOL    HW226766   1.454   0.931   1.751  0.8048  1.2512  1.5220
 5103SOL     OW26767   4.250   1.241   6.608 -0.2320  0.0273  0.1273
 5103SOL    HW126768   4.176   1.260   6.550 -0.3837  1.6505  0.8494
 5103SOL    HW226769   4.296   1.176   6.556  0.6423 -1.2707  2.4967
 5104SOL     OW26770   1.772   1.168   8.572 -0.0646  0.0535  0.2165
 5104SOL    HW126771   1.689   1.188   8.616 -0.4492  1.6482 -1.2435
 5104SOL    HW226772   1.841   1.199   8.630 -1.2858  1.2527  1.0392
 5105SOL     OW26773   0.696   2.783   6.359 -0.0176  0.3496 -0.1919
 5105SOL    HW126774   0.619   2.797   6.414  0.5049 -0.1411  0.6583
 5105SOL    HW226775   0.704   2.855   6.296  2.9955  0.4163  0.2829
 5106SOL     OW26776   3.243   1.731   9.267 -0.1493 -0.1097 -0.2867
 5106SOL    HW126777   3.335   1.752   9.251  0.1721 -0.8722  0.5308
 5106SOL    HW226778   3.212   1.681   9.191 -0.4316  0.0472 -0.2737
 5107SOL     OW26779   3.570   1.701   7.987  0.3706 -0.1195 -0.0481
 5107SOL    HW126780   3.623   1.762   8.038  1.5698 -0.6558 -0.6458
 5107SOL    HW226781   3.633   1.651   7.935 -0.8141 -0.4381 -1.1622
 5108SOL     OW26782   3.293   3.906   6.666 -0.0452  0.5063  0.1336
 5108SOL    HW126783   3.367   3.939   6.615  0.5002 -1.2049 -0.1982
 5108SOL    HW226784   3.263   3.992   6.693 -3.0633 -0.5264  0.0159
 5109SOL     OW26785   0.620   3.433  10.608  0.2861 -0.1892 -0.2060
 5109SOL    HW126786   0.557   3.459  10.676 -0.3177  0.0071 -0.8392
 5109SOL    HW226787   0.705   3.453  10.645  0.4340 -1.9444  0.4389
 5110SOL     OW26788   4.354   0.199  16.635 -0.0347  0.0255 -1.0259
 5110SOL    HW126789   4.353   0.133  16.565 -0.7915 -0.4832 -0.5327
 5110SOL    HW226790   4.299   0.263  16.591 -0.9508 -0.8209 -1.1179
 5111SOL     OW26791   2.678   4.555   2.933  0.3439 -0.4854  0.1241
 5111SOL    HW126792   2.603   4.571   2.990 -0.4612 -2.4844 -0.3619
 5111SOL    HW226793   2.743   4.584   2.997 -1.4254  1.4598  1.0041
 5112SOL     OW26794   2.690   2.981  17.301 -0.0253  0.3349 -0.1045
 5112SOL    HW126795   2.720   2.995  17.211  1.6016  0.7036  0.5035
 5112SOL    HW226796   2.598   2.970  17.278  0.1411 -0.2651 -0.4778
 5113SOL     OW26797   0.320   0.463   1.577 -0.0745  0.0093  0.8466
 5113SOL    HW126798   0.270   0.545   1.576 -1.1679 -0.6781 -2.1785
 5113SOL    HW226799   0.304   0.433   1.667  2.3909  0.6017  1.4702
 5114SOL     OW26800   2.068   2.893   7.335 -0.3725 -0.0642 -0.5068
 5114SOL    HW126801   2.104   2.898   7.423 -0.9115  3.1666 -0.4749
 5114SOL    HW226802   1.974   2.882   7.354  0.5176 -1.9330  2.8493
 5115SOL     OW26803   0.940   1.711   2.170  0.0259 -0.1897  0.1496
 5115SOL    HW126804   1.006   1.645   2.193 -0.0185 -0.2806  0.0163
 5115SOL    HW226805   0.858   1.664   2.159 -0.9113  1.4497  0.1730
 5116SOL     OW26806   1.050   2.104  15.273  0.4453 -0.1082  0.3644
 5116SOL    HW126807   0.993   2.144  15.339  1.3287  1.8960 -0.0759
 5116SOL    HW226808   1.065   2.019  15.314 -0.2800 -0.4805 -0.1372
 5117SOL     OW26809   3.615   1.877   3.065 -1.4512  0.3723  0.5443
 5117SOL    HW126810   3.592   1.970   3.064 -1.1192  0.4466 -0.2322
 5117SOL    HW226811   3.589   1.851   2.976 -2.3603  0.8750  0.6555
 5118SOL     OW26812   4.184   0.001   4.508 -0.6511 -0.4215  0.0106
 5118SOL    HW126813   4.144   4.691   4.587 -0.3493  0.0289  0.3656
 5118SOL    HW226814   4.113   0.059   4.480 -1.5568 -0.9241  1.2618
 5119SOL     OW26815   0.469   0.978   0.953 -0.2502  0.0364  0.0051
 5119SOL    HW126816   0.422   0.943   1.028  0.0191  2.1894  1.1860
 5119SOL    HW226817   0.416   0.944   0.881 -1.8061 -0.3589  1.3528
 5120SOL     OW26818   4.266   1.859   8.290  0.2662 -0.0717  0.1908
 5120SOL    HW126819   4.261   1.774   8.246  2.4539 -0.7092  1.1536
 5120SOL    HW226820   4.322   1.821   8.358  0.7650 -2.7167 -1.6749
 5121SOL     OW26821   1.622   2.251   9.209 -0.3473  0.1701  0.2313
 5121SOL    HW126822   1.688   2.242   9.277  0.2906 -2.1254 -0.6884
 5121SOL    HW226823   1.619   2.346   9.195 -1.2352  0.5925  3.3088
 5122SOL     OW26824   2.380   4.202   5.431  0.0600  0.2171 -0.5328
 5122SOL    HW126825   2.359   4.259   5.357 -0.6346 -2.2739 -2.2546
 5122SOL    HW226826   2.292   4.195   5.469  0.2227 -2.2255 -0.6196
 5123SOL     OW26827   0.269   2.139   8.059 -0.0368 -0.4963 -0.2019
 5123SOL    HW126828   0.198   2.146   7.995 -2.1488 -3.2619  1.9053
 5123SOL    HW226829   0.263   2.226   8.099 -0.7337 -0.8489  0.4461
 5124SOL     OW26830   0.706   3.866  12.628  0.1101 -0.2005  0.1402
 5124SOL    HW126831   0.793   3.861  12.667  0.7570 -1.5526 -1.4495
 5124SOL    HW226832   0.732   3.907  12.545 -4.2644 -2.4821 -2.3989
 5125SOL     OW26833   1.610   0.110  10.795 -0.0226  0.3315 -0.3015
 5125SOL    HW126834   1.608   0.159  10.877  1.5074 -1.8169  1.0420
 5125SOL    HW226835   1.674   0.159  10.744 -0.7494  2.4843  0.8612
 5126SOL     OW26836   3.143   3.754  10.987  0.2175 -0.4214 -0.1270
 5126SOL    HW126837   3.173   3.765  11.078  0.5510 -0.1009 -0.2782
 5126SOL    HW226838   3.226   3.772  10.943  0.7947  0.0378  1.1404
 5127SOL     OW26839   4.314   1.041   6.436  0.0422 -0.3463 -0.6754
 5127SOL    HW126840   4.261   1.039   6.356  0.3362 -3.0787 -0.8291
 5127SOL    HW226841   4.354   0.955   6.419 -0.1110  0.0996 -3.3352
 5128SOL     OW26842   0.602   2.726   9.315  0.4798  0.5447  0.0922
 5128SOL    HW126843   0.634   2.720   9.225 -1.6602  2.6191 -0.8202
 5128SOL    HW226844   0.665   2.788   9.350  0.1540  0.6845  0.4292
 5129SOL     OW26845   4.340   2.514   8.016 -0.0405 -0.0113  0.0996
 5129SOL    HW126846   4.300   2.533   8.101 -1.4791 -0.8779 -0.3888
 5129SOL    HW226847   4.371   2.597   7.977 -1.3152  0.0198 -0.8565
 5130SOL     OW26848   0.531   1.714   3.131 -0.5302 -0.0098  0.8143
 5130SOL    HW126849   0.451   1.744   3.175  0.0369 -1.3699  2.7728
 5130SOL    HW226850   0.513   1.621   3.140 -0.1004 -0.0572  1.1685
 5131SOL     OW26851   3.707   3.930  12.255 -0.0731 -0.1770  0.1763
 5131SOL    HW126852   3.670   3.869  12.320  0.5805 -2.2656 -1.4262
 5131SOL    HW226853   3.627   3.983  12.250  0.5700  0.8602  0.7118
 5132SOL     OW26854   1.511   2.503   6.247  0.0577 -0.4903 -0.0544
 5132SOL    HW126855   1.449   2.527   6.316 -0.0999 -0.4139 -0.2227
 5132SOL    HW226856   1.590   2.542   6.283  1.0277 -2.0242 -0.5184
 5133SOL     OW26857   3.904   4.198  11.998 -0.1311  0.4744 -0.5072
 5133SOL    HW126858   3.986   4.248  12.004  0.2973 -0.2062 -0.6822
 5133SOL    HW226859   3.931   4.131  11.936 -0.6763  1.1352 -1.4534
 5134SOL     OW26860   1.213   1.140   1.924 -0.0069 -0.7827 -0.2115
 5134SOL    HW126861   1.259   1.075   1.871  1.0961 -0.1861  0.0064
 5134SOL    HW226862   1.145   1.171   1.865 -1.5615 -0.4645  1.7646
 5135SOL     OW26863   2.339   2.364   4.009 -0.2479  0.1577 -0.0780
 5135SOL    HW126864   2.271   2.413   4.055 -1.7641 -2.4457  0.4503
 5135SOL    HW226865   2.363   2.431   3.944 -0.1420 -1.8152 -2.0825
 5136SOL     OW26866   1.975   1.477   6.255  0.3839 -0.6540 -0.3400
 5136SOL    HW126867   2.002   1.420   6.183 -0.7367  0.1295 -1.3753
 5136SOL    HW226868   2.040   1.450   6.320  1.5444  2.7759 -0.0645
 5137SOL     OW26869   0.693   3.093   3.041 -0.1879 -0.1021 -0.0359
 5137SOL    HW126870   0.746   3.121   3.116 -1.8729 -1.1180  1.5321
 5137SOL    HW226871   0.696   2.998   3.053 -0.0797 -0.2681 -1.4339
 5138SOL     OW26872   0.499   2.186   0.730  0.0169 -0.0170  0.2955
 5138SOL    HW126873   0.555   2.120   0.688  0.1185  0.2067  0.0800
 5138SOL    HW226874   0.561   2.249   0.768  1.4723 -1.8234  0.9058
 5139SOL     OW26875   1.177   1.352   9.351  0.3549  0.4957  0.6978
 5139SOL    HW126876   1.140   1.318   9.433 -0.7991  0.0933  0.0020
 5139SOL    HW226877   1.098   1.361   9.299  1.7173  0.4670 -1.3941
 5140SOL     OW26878   4.414   0.624   4.257 -0.4472 -0.5859 -0.3422
 5140SOL    HW126879   4.433   0.611   4.164  0.4124  0.5659 -0.3237
 5140SOL    HW226880   4.440   0.540   4.295 -1.4374 -0.0465  1.5216
 5141SOL     OW26881   3.200   3.867  13.038 -0.1558 -0.1193  0.3864
 5141SOL    HW126882   3.207   3.791  13.097 -0.2802 -0.3883  0.0554
 5141SOL    HW226883   3.269   3.835  12.980 -0.6157  1.5033 -1.0304
 5142SOL     OW26884   1.853   3.255  16.564 -0.5174  0.3721 -0.1189
 5142SOL    HW126885   1.918   3.310  16.607 -0.3808  0.2532 -0.1739
 5142SOL    HW226886   1.843   3.297  16.479 -0.8507 -3.2713 -1.8843
 5143SOL     OW26887   4.096   1.764  16.846 -0.1771  0.4299  0.1284
 5143SOL    HW126888   4.045   1.710  16.907 -0.8642  0.7764 -0.1373
 5143SOL    HW226889   4.027   1.777  16.781 -0.7485 -2.3694  0.1543
 5144SOL     OW26890   1.779   3.564   5.733 -0.0711 -0.3488  0.0123
 5144SOL    HW126891   1.732   3.605   5.806  1.1955 -0.3592  0.8281
 5144SOL    HW226892   1.868   3.567   5.767  0.8093 -3.7585 -1.8713
 5145SOL     OW26893   3.389   0.930   5.640 -0.5284  0.3512  0.3145
 5145SOL    HW126894   3.471   0.952   5.684  0.0581  1.6325 -1.4118
 5145SOL    HW226895   3.371   0.844   5.678 -1.0536  0.7657  0.9894
 5146SOL     OW26896   0.426   3.365  11.006 -0.3908 -0.4371 -0.4803
 5146SOL    HW126897   0.438   3.458  10.992 -1.6994 -0.3150 -0.8389
 5146SOL    HW226898   0.496   3.350  11.069 -1.7566  0.8386  1.3419
 5147SOL     OW26899   4.115   4.440   8.707  0.0807 -0.2126  0.3949
 5147SOL    HW126900   4.056   4.454   8.781 -0.3418 -1.3444  0.2730
 5147SOL    HW226901   4.201   4.470   8.736  0.9162 -0.9055 -1.3302
 5148SOL     OW26902   0.012   0.852   5.791  0.5379 -0.2645  0.0573
 5148SOL    HW126903   0.048   0.908   5.723 -1.2338 -0.2475 -0.8666
 5148SOL    HW226904   4.645   0.860   5.768  0.1741 -1.2300  1.1880
 5149SOL     OW26905   2.109   0.211   3.137  0.1368 -0.0913 -0.1151
 5149SOL    HW126906   2.195   0.245   3.116  0.0773 -0.0923 -0.3532
 5149SOL    HW226907   2.115   0.116   3.124 -0.9700 -0.4631  2.0264
 5150SOL     OW26908   0.924   4.634   9.247 -0.6788  0.1717  1.4860
 5150SOL    HW126909   0.979   4.712   9.239  1.1739 -1.0089  2.8515
 5150SOL    HW226910   0.876   4.648   9.165  0.6769  0.7216  0.7722
 5151SOL     OW26911   4.717   0.693  16.149 -0.6744 -0.1646  0.4805
 5151SOL    HW126912   4.630   0.652  16.150  0.3558 -2.4045 -0.2612
 5151SOL    HW226913   0.037   0.630  16.092 -0.5710  0.1596  0.2063
 5152SOL     OW26914   2.861   0.422   2.766  0.2886  0.2785 -0.8006
 5152SOL    HW126915   2.798   0.494   2.779  0.7027  0.3615  0.7224
 5152SOL    HW226916   2.945   0.459   2.793  0.7382 -1.9967  0.8790
 5153SOL     OW26917   4.653   2.750   9.224 -0.0254 -0.4102 -0.0283
 5153SOL    HW126918   4.644   2.696   9.303  2.0859 -1.1849 -0.3126
 5153SOL    HW226919   4.642   2.683   9.157  0.1407  0.4582 -0.9163
 5154SOL     OW26920   1.862   0.657   8.610 -0.3298  0.4882  0.4610
 5154SOL    HW126921   1.928   0.648   8.678  1.2189  2.8743 -0.7431
 5154SOL    HW226922   1.867   0.747   8.579  1.5125  0.4561  0.7210
 5155SOL     OW26923   1.612   2.304   4.491  0.7257 -0.1091 -0.3198
 5155SOL    HW126924   1.576   2.381   4.447  3.1582 -0.2487 -2.5607
 5155SOL    HW226925   1.692   2.345   4.524  0.6382  0.0477 -0.3037
 5156SOL     OW26926   2.200   0.157   6.503 -0.2189 -0.1342 -0.3758
 5156SOL    HW126927   2.147   0.090   6.548  0.6269 -1.0914 -0.8100
 5156SOL    HW226928   2.284   0.112   6.514  0.3028  0.6645 -1.1424
 5157SOL     OW26929   1.531   1.759   9.122 -0.4624  0.4631  0.2437
 5157SOL    HW126930   1.490   1.683   9.081  1.9531 -1.6704  1.7675
 5157SOL    HW226931   1.602   1.715   9.169  0.2696  1.5981  0.2147
 5158SOL     OW26932   1.316   2.382   4.619 -0.1238 -0.8144 -0.5259
 5158SOL    HW126933   1.242   2.389   4.557 -1.0938  2.3722  0.9630
 5158SOL    HW226934   1.377   2.438   4.571  0.5499 -2.0162 -1.0628
 5159SOL     OW26935   1.387   1.504   6.340  0.4906 -0.7288 -0.1328
 5159SOL    HW126936   1.436   1.439   6.390 -0.0873  0.4017  1.9045
 5159SOL    HW226937   1.364   1.562   6.412 -1.0058 -0.5429 -0.7588
 5160SOL     OW26938   2.606   0.605   8.041 -0.4047 -0.5816  0.0901
 5160SOL    HW126939   2.689   0.567   8.010 -1.0299 -0.7193 -1.4146
 5160SOL    HW226940   2.565   0.618   7.955 -2.8402  1.5149  1.5871
 5161SOL     OW26941   0.839   2.875  12.102 -0.6860 -0.1672 -0.5190
 5161SOL    HW126942   0.917   2.820  12.104  0.1476  1.0319 -0.1331
 5161SOL    HW226943   0.787   2.830  12.035  0.0707 -2.1194  0.1969
 5162SOL     OW26944   1.277   2.968   5.802 -0.0692  0.6524  0.0387
 5162SOL    HW126945   1.219   2.895   5.782 -0.3211  1.0569 -0.7217
 5162SOL    HW226946   1.365   2.932   5.807 -0.5057 -0.5976 -1.3309
 5163SOL     OW26947   1.361   3.466   3.509  0.0884  0.2321  0.0772
 5163SOL    HW126948   1.363   3.522   3.587  0.5796  2.9986 -1.9282
 5163SOL    HW226949   1.330   3.523   3.439 -1.2439 -2.4549 -1.5123
 5164SOL     OW26950   3.640   1.105   7.456  0.4372 -0.3201  0.5698
 5164SOL    HW126951   3.616   1.064   7.373  0.1674  0.8030  0.0851
 5164SOL    HW226952   3.701   1.160   7.406 -1.8184  1.3054 -0.3876
 5165SOL     OW26953   3.728   0.539   4.604 -0.0154 -0.2857 -0.0895
 5165SOL    HW126954   3.809   0.513   4.560 -0.0365  1.2251 -1.0020
 5165SOL    HW226955   3.668   0.465   4.610  0.9660 -0.7266  4.2206
 5166SOL     OW26956   3.938   2.839   2.215 -0.1833  0.2447 -0.2138
 5166SOL    HW126957   3.917   2.779   2.287 -0.2092 -2.1306 -2.1580
 5166SOL    HW226958   3.893   2.788   2.148 -0.4601 -1.4612  1.2733
 5167SOL     OW26959   3.911   3.009   8.589 -0.2002 -0.0654 -0.2486
 5167SOL    HW126960   3.947   3.083   8.637  0.9544  0.6784 -2.2331
 5167SOL    HW226961   3.996   2.981   8.555  0.5433  2.0713 -0.1294
 5168SOL     OW26962   0.616   0.684   1.491  0.4128 -0.9718  0.3349
 5168SOL    HW126963   0.647   0.745   1.425 -0.4413  1.7262  2.4255
 5168SOL    HW226964   0.627   0.735   1.571  3.6504 -2.2394  0.7202
 5169SOL     OW26965   0.509   2.779   7.968 -0.0155  0.3422 -0.2947
 5169SOL    HW126966   0.422   2.761   8.003  0.6951  1.2661  1.9698
 5169SOL    HW226967   0.534   2.694   7.933 -1.0488 -0.7032  1.5205
 5170SOL     OW26968   1.894   3.172   0.915 -0.2672 -0.2581 -0.3034
 5170SOL    HW126969   1.839   3.181   0.838 -1.6912 -1.8680  0.5277
 5170SOL    HW226970   1.958   3.116   0.870 -1.1413  1.1528 -3.3402
 5171SOL     OW26971   1.505   1.385  12.854 -0.1861  0.0419  0.5565
 5171SOL    HW126972   1.572   1.445  12.887  1.4849 -0.6580 -1.5788
 5171SOL    HW226973   1.471   1.428  12.776 -1.3145 -0.3710  0.8166
 5172SOL     OW26974   3.216   0.369   2.602 -0.1859  0.2125  0.1339
 5172SOL    HW126975   3.309   0.371   2.579  0.5876  0.3466  3.1368
 5172SOL    HW226976   3.181   0.334   2.521  0.0269  0.2503  0.0253
 5173SOL     OW26977   1.278   0.696   2.144  0.1869  0.3082 -0.3929
 5173SOL    HW126978   1.289   0.677   2.051  1.4648  0.1156 -0.2049
 5173SOL    HW226979   1.336   0.628   2.180 -0.0148  1.9510  3.0395
 5174SOL     OW26980   4.352   2.790   7.397  0.2958  0.9070 -0.1558
 5174SOL    HW126981   4.373   2.733   7.471 -4.0850  1.9784  1.8993
 5174SOL    HW226982   4.287   2.732   7.356 -0.3980  1.0255  0.7851
 5175SOL     OW26983   0.168   4.446   8.283 -0.3273  0.3440  0.3177
 5175SOL    HW126984   0.183   4.378   8.348  1.8283  0.8360  0.3591
 5175SOL    HW226985   0.081   4.481   8.299  0.3552  1.5526  1.3991
 5176SOL     OW26986   3.434   3.984   3.119 -0.3161  0.0842  0.1454
 5176SOL    HW126987   3.416   3.917   3.185  1.5819  0.8618  1.4628
 5176SOL    HW226988   3.395   3.950   3.039  0.9067  1.3943 -1.0073
 5177SOL     OW26989   1.370   4.645   2.145  0.1753 -0.2653  0.1857
 5177SOL    HW126990   1.283   4.606   2.150 -0.1454  0.4654  0.3199
 5177SOL    HW226991   1.420   4.594   2.082 -1.4762 -1.3757 -0.2253
 5178SOL     OW26992   3.494   2.275   7.764  0.2901 -0.0139 -0.1274
 5178SOL    HW126993   3.400   2.290   7.773  0.2167 -1.4111  1.5210
 5178SOL    HW226994   3.526   2.363   7.748 -0.3893  0.4361  0.9313
 5179SOL     OW26995   3.161   3.083   8.555 -0.6663 -0.2069 -0.4249
 5179SOL    HW126996   3.201   3.002   8.585  0.0513 -0.5388 -2.2880
 5179SOL    HW226997   3.182   3.088   8.462 -0.9269  1.6872 -0.3920
 5180SOL     OW26998   0.054   2.923   8.118  0.3792 -0.1576  0.4157
 5180SOL    HW126999   0.104   2.941   8.038 -1.2668 -0.3536 -0.6547
 5180SOL    HW227000   0.060   2.993   8.183 -0.6364 -0.3589  0.7242
 5181SOL     OW27001   2.790   4.474   0.601 -0.3601 -0.6729  0.2738
 5181SOL    HW127002   2.841   4.423   0.664  0.6336 -1.5042 -1.2230
 5181SOL    HW227003   2.851   4.463   0.528 -1.6506  2.5012 -1.2831
 5182SOL     OW27004   2.546   0.929   6.070  0.5534 -0.2045 -0.3945
 5182SOL    HW127005   2.478   0.985   6.032  1.8972  2.0447  0.4822
 5182SOL    HW227006   2.548   0.852   6.014 -0.0335 -1.9092  1.9613
 5183SOL     OW27007   0.602   1.870   2.443  0.2218  0.2698  0.1261
 5183SOL    HW127008   0.581   1.947   2.390 -0.6729 -1.0600 -1.4207
 5183SOL    HW227009   0.624   1.910   2.528 -1.2822  0.9806  0.1682
 5184SOL     OW27010   0.335   2.891   5.903 -0.4271  0.6973  0.7965
 5184SOL    HW127011   0.426   2.888   5.871 -0.7107 -1.3738  0.2269
 5184SOL    HW227012   0.335   2.845   5.987 -0.1171 -0.3048  0.2397
 5185SOL     OW27013   1.344   0.735  16.034  0.4120  0.3817 -0.0383
 5185SOL    HW127014   1.366   0.826  16.019  0.9309  0.0484 -1.2841
 5185SOL    HW227015   1.256   0.745  16.072  0.6856  0.7253  0.4979
 5186SOL     OW27016   4.498   3.012   4.409  0.2277  0.2355  0.1990
 5186SOL    HW127017   4.482   3.069   4.484  0.6725  0.6452 -0.0236
 5186SOL    HW227018   4.458   3.062   4.338 -0.1592 -0.6765 -0.2276
 5187SOL     OW27019   2.675   1.277   6.694  0.4914 -0.6312 -0.1423
 5187SOL    HW127020   2.646   1.227   6.617 -0.2455 -1.5123  0.7027
 5187SOL    HW227021   2.754   1.320   6.662 -0.6485  1.2885 -0.3577
 5188SOL     OW27022   2.083   3.366   3.449  0.1586  0.3801 -0.5441
 5188SOL    HW127023   1.993   3.333   3.443  0.8589 -1.5250 -0.7645
 5188SOL    HW227024   2.103   3.402   3.363 -1.4566  0.5489 -0.8548
 5189SOL     OW27025   1.617   0.618  11.024 -0.3184  0.2799 -0.2293
 5189SOL    HW127026   1.685   0.682  11.004  0.1134 -0.6675 -1.7581
 5189SOL    HW227027   1.627   0.549  10.960  1.7568 -0.4453  0.8748
 5190SOL     OW27028   0.062   4.576  16.674  0.2034 -0.1139  0.3509
 5190SOL    HW127029   0.053   4.670  16.686  0.4196  0.2197 -2.0497
 5190SOL    HW227030   0.112   4.556  16.753 -1.0446 -4.9609 -0.0614
 5191SOL     OW27031   4.327   0.322  12.677  0.1452 -0.2814  0.2572
 5191SOL    HW127032   4.264   0.307  12.606 -1.0457 -1.1017  1.4799
 5191SOL    HW227033   4.320   0.238  12.722 -0.2076 -2.0306 -3.1030
 5192SOL     OW27034   2.473   0.369   7.066 -0.1433  0.0429 -0.3321
 5192SOL    HW127035   2.398   0.387   7.122  0.8485 -1.5165  1.5105
 5192SOL    HW227036   2.465   0.442   7.004  0.6173  2.0567  1.9438
 5193SOL     OW27037   2.195   2.229   7.753  0.1494  0.0204  0.0702
 5193SOL    HW127038   2.230   2.212   7.840  1.5166  0.6022 -0.3701
 5193SOL    HW227039   2.114   2.272   7.783  0.0990  0.5659 -0.8413
 5194SOL     OW27040   0.902   4.360   8.375  0.4684  0.1681 -0.1725
 5194SOL    HW127041   0.968   4.423   8.347  1.0758 -0.5820 -0.4317
 5194SOL    HW227042   0.828   4.371   8.316 -0.1303 -0.3929  0.4764
 5195SOL     OW27043   3.201   3.012   7.941  0.0509  0.3364 -0.1812
 5195SOL    HW127044   3.117   3.020   7.896 -0.3136  0.9271  0.6045
 5195SOL    HW227045   3.217   3.105   7.962  0.7896 -0.1792  1.6071
 5196SOL     OW27046   0.830   2.121   2.370 -0.3030  0.6808  0.3104
 5196SOL    HW127047   0.896   2.080   2.427  1.2819  0.3267 -1.7921
 5196SOL    HW227048   0.823   2.059   2.298  1.9750 -0.0133  0.6945
 5197SOL     OW27049   0.655   3.523  13.845  0.1849 -0.0424  0.2478
 5197SOL    HW127050   0.592   3.505  13.775 -0.5465  1.2980  0.5708
 5197SOL    HW227051   0.737   3.515  13.795  0.1911  0.1228  0.2313
 5198SOL     OW27052   2.685   4.557   8.086 -0.3891  0.0566  0.6274
 5198SOL    HW127053   2.767   4.583   8.127 -1.5955  1.8672  1.9230
 5198SOL    HW227054   2.683   4.467   8.117  0.1601  0.4433  1.7834
 5199SOL     OW27055   2.071   2.633   1.135  0.2529  0.1344 -0.4687
 5199SOL    HW127056   1.979   2.617   1.156  0.2668  1.9619  0.9534
 5199SOL    HW227057   2.078   2.729   1.132  2.4614  0.0164  0.4583
 5200SOL     OW27058   3.160   2.264   6.966  0.3849  0.3581 -0.0473
 5200SOL    HW127059   3.105   2.186   6.957 -1.5714  1.7417 -0.1133
 5200SOL    HW227060   3.135   2.311   7.046  0.8951  2.7188 -1.2657
 5201SOL     OW27061   2.802   3.026   0.047 -0.6332  0.0190 -0.2365
 5201SOL    HW127062   2.833   3.049   0.134  0.1878  1.7986 -1.0023
 5201SOL    HW227063   2.721   2.987   0.079 -0.9774 -1.9203 -3.4545
 5202SOL     OW27064   0.078   2.927   7.424 -0.1476  0.4609 -0.2520
 5202SOL    HW127065   0.041   2.895   7.342 -0.2739  0.9758 -0.3938
 5202SOL    HW227066   0.142   2.978   7.374 -1.9926  2.2062 -0.8411
 5203SOL     OW27067   0.144   2.050  13.821  0.0400 -0.4104  0.7594
 5203SOL    HW127068   0.085   1.977  13.804  0.6231 -0.8543  0.6607
 5203SOL    HW227069   0.232   2.027  13.791 -0.7191 -0.8386 -1.1338
 5204SOL     OW27070   2.460   1.589   6.813 -0.1807  0.2082 -0.2715
 5204SOL    HW127071   2.413   1.515   6.775 -1.7543  1.1926 -0.2529
 5204SOL    HW227072   2.534   1.543   6.854 -0.1390 -2.6228 -3.5115
 5205SOL     OW27073   2.015   0.161   6.990  0.5178  0.0472 -0.7153
 5205SOL    HW127074   1.955   0.145   7.062  1.0860  1.1060 -0.0136
 5205SOL    HW227075   2.003   0.255   6.985  2.4899  0.3666  0.6884
 5206SOL     OW27076   0.428   2.450   4.060  0.1243  0.2849 -0.2972
 5206SOL    HW127077   0.471   2.471   4.143  0.5386 -0.0753 -0.4212
 5206SOL    HW227078   0.343   2.413   4.083 -1.9045  4.8644 -0.4847
 5207SOL     OW27079   4.214   4.058   4.259  0.3158  0.8714 -0.0502
 5207SOL    HW127080   4.254   4.144   4.263 -0.1446  1.1338 -1.2704
 5207SOL    HW227081   4.152   4.074   4.188  0.5707  0.3372 -0.3960
 5208SOL     OW27082   0.975   0.791  15.799  0.1396  0.3397  0.2132
 5208SOL    HW127083   0.923   0.824  15.725 -1.2166  1.4818  1.6915
 5208SOL    HW227084   0.935   0.705  15.814  2.1395 -0.7749 -0.6731
 5209SOL     OW27085   2.158   3.619   4.027  1.0299  0.2894 -0.3242
 5209SOL    HW127086   2.187   3.671   4.102 -1.1212  3.6678 -1.8553
 5209SOL    HW227087   2.232   3.627   3.967  0.4830  0.4321 -0.9712
 5210SOL     OW27088   4.339   0.032   2.463  0.2506  0.0200 -0.0928
 5210SOL    HW127089   4.269   4.708   2.505  0.5514 -0.4282 -0.1236
 5210SOL    HW227090   4.425   4.724   2.489  0.2282  0.5213  0.6356
 5211SOL     OW27091   3.650   0.511   5.487  0.3311 -0.2306 -0.2202
 5211SOL    HW127092   3.709   0.488   5.415  2.4885 -0.0717  1.4896
 5211SOL    HW227093   3.675   0.603   5.496  1.7962 -0.5010 -1.6209
 5212SOL     OW27094   1.360   1.703   3.317 -0.3493 -0.6361  0.2610
 5212SOL    HW127095   1.298   1.671   3.383  0.5063 -1.4615  0.6656
 5212SOL    HW227096   1.343   1.636   3.251 -0.4626 -1.1890  0.8531
 5213SOL     OW27097   3.711   2.229   9.929 -0.4688  0.3808 -0.3319
 5213SOL    HW127098   3.746   2.317   9.913 -1.0944  0.8741  0.9908
 5213SOL    HW227099   3.625   2.246   9.968 -0.5795  0.2497 -0.5221
 5214SOL     OW27100   2.085   3.514   2.445  0.0356 -0.2202  0.4553
 5214SOL    HW127101   2.058   3.497   2.536 -0.2395 -0.6762  0.2911
 5214SOL    HW227102   2.022   3.464   2.393 -1.1535 -0.4650  2.1111
 5215SOL     OW27103   3.380   4.119   3.671  0.2051 -0.6439  0.3253
 5215SOL    HW127104   3.379   4.032   3.711 -1.0561 -2.3918 -3.4787
 5215SOL    HW227105   3.470   4.119   3.639 -0.5606 -0.6359 -1.8198
 5216SOL     OW27106   0.641   4.315   1.094 -0.1023 -0.2301  0.1465
 5216SOL    HW127107   0.725   4.302   1.137 -0.9186 -3.4583  0.7456
 5216SOL    HW227108   0.674   4.326   1.005  0.3417  1.0021  0.4488
 5217SOL     OW27109   2.911   3.473  16.781  0.2615  0.2967 -0.3052
 5217SOL    HW127110   2.934   3.389  16.821 -0.8480  1.3106  2.4756
 5217SOL    HW227111   2.987   3.468  16.723  1.5392  2.9411  1.1567
 5218SOL     OW27112   3.036   2.587   4.063  0.0448 -0.3918 -0.4249
 5218SOL    HW127113   3.109   2.527   4.081  1.2665  0.8539 -1.2785
 5218SOL    HW227114   2.969   2.552   4.122 -0.6352  1.3596 -0.1521
 5219SOL     OW27115   0.876   2.237  15.444 -0.4717  0.9642  0.4804
 5219SOL    HW127116   0.825   2.200  15.517  0.7614 -0.0497  0.8338
 5219SOL    HW227117   0.921   2.313  15.482  0.1712  0.9476 -0.2602
 5220SOL     OW27118   2.464   4.643   1.101 -0.0866 -1.1053  0.2014
 5220SOL    HW127119   2.447   4.714   1.039 -0.5218 -0.8992  0.5557
 5220SOL    HW227120   2.381   4.598   1.091 -0.4777 -0.2916 -0.2660
 5221SOL     OW27121   4.209   2.903  12.147  0.1074 -0.2337  0.3312
 5221SOL    HW127122   4.251   2.989  12.146 -1.0634  0.3400 -2.2379
 5221SOL    HW227123   4.246   2.866  12.226  0.1866 -0.2700  0.2765
 5222SOL     OW27124   1.434   1.757   2.221  0.3560 -0.1408 -0.2385
 5222SOL    HW127125   1.471   1.673   2.194 -1.7189 -1.5237  1.2705
 5222SOL    HW227126   1.477   1.778   2.304 -0.7481 -1.6922  0.7101
 5223SOL     OW27127   1.354   4.410   3.608  0.1958  0.2039 -0.2011
 5223SOL    HW127128   1.392   4.448   3.529 -3.2731  0.1698 -1.8841
 5223SOL    HW227129   1.436   4.380   3.648 -0.0622 -0.2823 -0.0395
 5224SOL     OW27130   1.926   1.621   2.626 -0.4181 -0.3979 -0.0957
 5224SOL    HW127131   1.871   1.562   2.574  0.4871 -2.0868  0.8665
 5224SOL    HW227132   1.867   1.626   2.701  0.1794  1.6636  0.2152
 5225SOL     OW27133   2.076   3.976   5.815 -0.6852  0.1633 -0.1049
 5225SOL    HW127134   2.166   4.007   5.830 -1.3246  0.4836  3.0558
 5225SOL    HW227135   2.095   3.943   5.727 -0.6779 -2.1844  0.7819
 5226SOL     OW27136   3.896   1.096  11.367 -0.2268 -0.1649 -0.0196
 5226SOL    HW127137   3.981   1.055  11.382  1.3366  3.9828  2.8196
 5226SOL    HW227138   3.930   1.181  11.396 -0.0504  0.1039 -1.0371
 5227SOL     OW27139   2.112   4.638   7.002  0.0964  0.1510  0.1177
 5227SOL    HW127140   2.091   0.006   7.008 -1.7151 -0.1374 -1.4940
 5227SOL    HW227141   2.145   4.632   7.091 -1.8248  2.9811  1.0146
 5228SOL     OW27142   1.686   0.092   3.572  0.3182  0.1864  0.1721
 5228SOL    HW127143   1.691   0.012   3.519 -0.6439  0.0978  0.2188
 5228SOL    HW227144   1.648   0.051   3.649 -0.6829  0.6156 -0.0918
 5229SOL     OW27145   2.863   4.501   2.379  0.1139 -0.2149 -0.1831
 5229SOL    HW127146   2.811   4.582   2.381 -0.4869 -0.6178  0.4441
 5229SOL    HW227147   2.809   4.434   2.337 -1.1999  0.6602  0.1220
 5230SOL     OW27148   3.615   2.409   3.293 -0.0366 -0.5076  0.1995
 5230SOL    HW127149   3.627   2.500   3.318  0.7091 -0.6822  0.4601
 5230SOL    HW227150   3.631   2.365   3.376  1.0789 -1.3551 -0.4616
 5231SOL     OW27151   3.293   3.951   5.525  0.3195  0.3607  0.1353
 5231SOL    HW127152   3.271   4.034   5.482 -0.1091 -0.8627 -1.9510
 5231SOL    HW227153   3.202   3.923   5.534 -0.0310  0.9985 -1.4158
 5232SOL     OW27154   1.074   1.967   4.158  0.3856 -0.0780 -0.2035
 5232SOL    HW127155   1.085   2.061   4.143  0.5214 -0.3448 -1.7754
 5232SOL    HW227156   1.000   1.949   4.100 -1.4517  0.6611  1.9189
 5233SOL     OW27157   0.459   3.980   8.259 -0.4282  0.0171 -0.2577
 5233SOL    HW127158   0.437   4.066   8.294 -2.2001 -0.4014 -0.3817
 5233SOL    HW227159   0.388   3.933   8.302  0.3872  0.1520  1.2733
 5234SOL     OW27160   2.837   1.391   8.112  0.4825  0.4347 -0.3405
 5234SOL    HW127161   2.840   1.486   8.104 -2.2311  0.4348 -1.3538
 5234SOL    HW227162   2.782   1.364   8.038 -0.9686 -2.3485  1.7676
 5235SOL     OW27163   3.004   1.205   3.107  0.3392  0.2572  0.1627
 5235SOL    HW127164   2.936   1.271   3.094 -0.4488 -0.6559 -0.4164
 5235SOL    HW227165   2.985   1.165   3.192  0.8054 -1.1410 -0.3851
 5236SOL     OW27166   4.177   3.564  17.536  0.1689  0.6404 -0.4482
 5236SOL    HW127167   4.184   3.542  17.629 -1.6459  0.1396 -0.4219
 5236SOL    HW227168   4.250   3.625  17.535  1.8336 -1.3437 -2.2349
 5237SOL     OW27169   3.313   4.268   4.799 -0.5775  0.4122  0.2451
 5237SOL    HW127170   3.373   4.208   4.844  1.1977 -0.3128 -3.0505
 5237SOL    HW227171   3.232   4.254   4.847 -1.3596  0.7848 -0.9698
 5238SOL     OW27172   0.916   2.830   3.583 -0.7794 -0.2778  0.3929
 5238SOL    HW127173   0.894   2.830   3.490  1.8598  1.1415 -0.2248
 5238SOL    HW227174   1.003   2.868   3.576 -0.9804  0.1916  0.4097
 5239SOL     OW27175   2.927   0.664   0.921  0.1904 -0.2064 -0.3495
 5239SOL    HW127176   2.861   0.605   0.885  2.1213 -1.5877 -1.6447
 5239SOL    HW227177   2.984   0.672   0.845 -0.6680  0.9528 -0.8711
 5240SOL     OW27178   1.807   3.789   5.454  0.3592  0.0037  0.4385
 5240SOL    HW127179   1.902   3.774   5.450  0.1891 -0.4959 -1.5377
 5240SOL    HW227180   1.782   3.732   5.381  0.5053 -0.6291  0.8846
 5241SOL     OW27181   2.794   0.159   7.014  0.1030 -0.3380  0.2214
 5241SOL    HW127182   2.879   0.124   7.039  0.5403  1.5373  1.3963
 5241SOL    HW227183   2.802   0.162   6.918  0.5986 -1.3776  0.2385
 5242SOL     OW27184   3.622   3.993   3.531  0.0941  0.0502  0.2346
 5242SOL    HW127185   3.615   3.947   3.448  0.5386  0.5802 -0.1010
 5242SOL    HW227186   3.628   3.921   3.594 -0.4030 -0.4277 -0.2719
 5243SOL     OW27187   0.298   3.908   7.500  0.2970 -0.4129  0.1314
 5243SOL    HW127188   0.292   3.996   7.536 -2.0114  0.5051 -2.5061
 5243SOL    HW227189   0.236   3.921   7.428 -0.2741 -1.6588  0.3953
 5244SOL     OW27190   3.694   4.582   2.934 -0.0391 -0.6840 -0.5575
 5244SOL    HW127191   3.707   4.632   2.854  0.9660 -0.3905 -0.2053
 5244SOL    HW227192   3.600   4.591   2.952  0.3299  1.0188  0.4148
 5245SOL     OW27193   0.287   3.909   5.960  0.2724 -0.6175 -0.0605
 5245SOL    HW127194   0.359   3.971   5.971 -1.1051  1.1880 -1.0554
 5245SOL    HW227195   0.206   3.961   5.959 -1.0513 -2.6129  1.7682
 5246SOL     OW27196   0.200   4.646   0.080  1.1163 -0.0491  0.6480
 5246SOL    HW127197   0.169   4.558   0.060 -0.1946  0.4197  0.5657
 5246SOL    HW227198   0.147   4.697   0.019 -2.1691 -1.8358  2.0159
 5247SOL     OW27199   2.948   3.273   9.061  0.2170  0.4396 -0.2545
 5247SOL    HW127200   2.886   3.201   9.074  1.5651 -1.1043 -2.4019
 5247SOL    HW227201   3.017   3.222   9.018 -1.2659 -0.2698 -1.7930
 5248SOL     OW27202   4.172   3.929   3.422 -0.1550  0.2617 -0.5987
 5248SOL    HW127203   4.099   3.964   3.473  1.0795 -1.8442  2.5816
 5248SOL    HW227204   4.173   3.981   3.342 -1.4889 -1.0504 -1.4884
 5249SOL     OW27205   2.168   3.215   7.785  0.2961 -0.2296 -0.2239
 5249SOL    HW127206   2.161   3.127   7.822  0.4719  0.0215  0.4044
 5249SOL    HW227207   2.079   3.244   7.804  0.3901  0.0428 -0.1971
 5250SOL     OW27208   2.592   3.911   8.383  0.0682  0.2710 -0.1924
 5250SOL    HW127209   2.525   3.880   8.323  1.6854 -0.5930 -1.5558
 5250SOL    HW227210   2.547   3.907   8.468 -1.2749 -0.1909 -0.9268
 5251SOL     OW27211   1.753   0.621   7.291  0.3101 -0.2688  0.0074
 5251SOL    HW127212   1.788   0.616   7.202  1.1798  3.0267  0.1673
 5251SOL    HW227213   1.746   0.715   7.312 -0.5670  0.3623 -3.0676
 5252SOL     OW27214   0.805   2.671   4.297 -0.4559  0.3153  0.6087
 5252SOL    HW127215   0.783   2.764   4.300 -1.1204  0.1676  0.2572
 5252SOL    HW227216   0.723   2.625   4.313 -0.5996  0.0687 -0.9020
 5253SOL     OW27217   4.613   4.395   1.490 -0.1440 -0.2805 -0.2424
 5253SOL    HW127218   4.653   4.321   1.443 -0.6709 -1.3450  0.9797
 5253SOL    HW227219   4.556   4.439   1.428  0.8097 -0.9788 -1.6020
 5254SOL     OW27220   0.455   3.183  16.074 -0.3101 -0.7685  0.2835
 5254SOL    HW127221   0.380   3.133  16.042 -1.7307  0.5288  1.6121
 5254SOL    HW227222   0.481   3.123  16.144  0.6308  0.3978  0.9212
 5255SOL     OW27223   3.851   2.539  13.925  0.0718  0.3918 -0.0269
 5255SOL    HW127224   3.798   2.606  13.969 -0.5572  0.5955 -1.1197
 5255SOL    HW227225   3.930   2.591  13.909 -0.8956  1.8995  0.0054
 5256SOL     OW27226   4.077   1.303  12.062  0.4392  0.2498  0.1555
 5256SOL    HW127227   4.076   1.208  12.053  2.0631  0.3711 -1.2816
 5256SOL    HW227228   4.084   1.298  12.158  2.3872 -0.5157 -0.0356
 5257SOL     OW27229   1.602   1.491   8.864  0.1790 -0.1914  0.2973
 5257SOL    HW127230   1.510   1.515   8.876 -0.2159 -1.3498 -0.3619
 5257SOL    HW227231   1.607   1.421   8.928 -1.7937 -0.9886 -0.4034
 5258SOL     OW27232   0.425   0.253   2.830 -1.3183 -0.2214 -0.3157
 5258SOL    HW127233   0.435   0.180   2.892 -0.8324 -0.3584 -0.5526
 5258SOL    HW227234   0.428   0.338   2.873  0.1782  0.6427 -2.1406
 5259SOL     OW27235   0.990   1.867   2.709  0.6724 -0.9162 -0.2185
 5259SOL    HW127236   0.928   1.795   2.709 -0.9470  0.4816 -1.1034
 5259SOL    HW227237   0.984   1.902   2.620  0.4468 -1.4112 -0.3978
 5260SOL     OW27238   1.185   4.456   3.115 -0.0153 -0.8439  0.3167
 5260SOL    HW127239   1.172   4.366   3.147 -0.4063 -0.3918  1.4298
 5260SOL    HW227240   1.210   4.437   3.025 -0.8496  0.3993 -0.1665
 5261SOL     OW27241   4.219   1.564   6.109  0.1661  0.1930  0.4801
 5261SOL    HW127242   4.236   1.533   6.198  0.5132 -0.5955  0.1350
 5261SOL    HW227243   4.236   1.656   6.131  2.5274 -0.2475  0.4881
 5262SOL     OW27244   0.999   0.399   8.938 -0.4056 -0.8762  0.0397
 5262SOL    HW127245   1.050   0.324   8.907  1.1017  0.0266  0.2790
 5262SOL    HW227246   1.043   0.460   8.878  0.2729 -0.1573  1.2528
 5263SOL     OW27247   3.739   0.101   3.798 -0.2570  0.1056 -0.1671
 5263SOL    HW127248   3.663   0.043   3.788 -0.3515  0.0404  1.0179
 5263SOL    HW227249   3.707   0.181   3.756 -0.4341 -0.8866 -1.9329
 5264SOL     OW27250   3.406   1.490   1.669 -0.3821  0.2215  0.0388
 5264SOL    HW127251   3.321   1.481   1.626  0.1188  0.9032 -1.1202
 5264SOL    HW227252   3.422   1.584   1.656 -2.5406  0.6175  0.2377
 5265SOL     OW27253   4.504   1.014   2.053  0.0787 -0.4415 -0.0387
 5265SOL    HW127254   4.592   1.046   2.035  0.5403 -1.5900  0.1374
 5265SOL    HW227255   4.520   0.919   2.055 -0.3353 -0.5002  0.4403
 5266SOL     OW27256   2.447   1.446   1.778 -0.2904 -0.5678 -0.0045
 5266SOL    HW127257   2.483   1.448   1.689 -0.7617  2.0279 -0.1175
 5266SOL    HW227258   2.403   1.360   1.775 -1.0531 -0.0931 -2.7148
 5267SOL     OW27259   2.408   2.897   6.990 -0.1244  0.3847  0.0413
 5267SOL    HW127260   2.339   2.930   7.047  1.4343 -0.5716  2.4771
 5267SOL    HW227261   2.480   2.946   7.029 -0.2285 -0.5879  1.4615
 5268SOL     OW27262   4.561   2.687   3.715  0.8528  0.5090  0.6298
 5268SOL    HW127263   4.565   2.634   3.794 -0.3617 -0.1004  0.2874
 5268SOL    HW227264   4.616   2.761   3.742 -0.2920  1.7640 -0.4535
 5269SOL     OW27265   4.446   1.924   5.616 -0.3903 -0.1709  0.3040
 5269SOL    HW127266   4.393   1.926   5.536  0.1909 -1.0262 -0.1128
 5269SOL    HW227267   4.382   1.915   5.686  2.8752 -0.7774  3.2299
 5270SOL     OW27268   1.438   0.417   6.311 -0.2581 -0.1361 -0.1574
 5270SOL    HW127269   1.392   0.466   6.242 -0.0876 -1.4513 -1.1922
 5270SOL    HW227270   1.457   0.493   6.367 -0.2647 -0.2068 -0.0607
 5271SOL     OW27271   2.813   4.706   8.618  0.0107 -0.3235 -0.3448
 5271SOL    HW127272   2.766   0.018   8.692  0.1926  0.4842 -0.6339
 5271SOL    HW227273   2.814   4.613   8.638 -1.1337 -0.5188 -1.1831
 5272SOL     OW27274   1.997   2.121   6.230  0.3219  0.5201 -0.0685
 5272SOL    HW127275   2.010   2.180   6.155  0.8195  0.0551 -0.3489
 5272SOL    HW227276   1.908   2.140   6.258  0.8369  4.8920 -1.3985
 5273SOL     OW27277   4.595   3.191   4.000  0.0595  0.1162 -0.1428
 5273SOL    HW127278   4.669   3.142   4.037  0.1362  0.4252  0.1109
 5273SOL    HW227279   4.542   3.201   4.079 -1.4237 -0.7267 -1.0385
 5274SOL     OW27280   2.539   3.942   4.789  0.3039 -0.0816 -0.2397
 5274SOL    HW127281   2.465   3.993   4.755  0.2760 -0.1481 -0.2788
 5274SOL    HW227282   2.559   3.991   4.868  0.0592 -0.6264  0.1612
 5275SOL     OW27283   4.428   4.298   3.286 -0.0791  0.2348  0.4917
 5275SOL    HW127284   4.485   4.371   3.311  1.2892 -0.0167 -1.9101
 5275SOL    HW227285   4.341   4.335   3.301 -0.7540 -1.0042 -0.4109
 5276SOL     OW27286   3.415   4.276   6.335 -0.3570 -0.0196 -0.0320
 5276SOL    HW127287   3.447   4.316   6.253  1.0123  1.9619  1.4624
 5276SOL    HW227288   3.355   4.210   6.301 -0.6290 -0.1672  0.7560
 5277SOL     OW27289   1.485   0.387   7.840  0.0905 -0.3140 -0.4293
 5277SOL    HW127290   1.410   0.390   7.899 -0.8434  0.1883 -1.6391
 5277SOL    HW227291   1.532   0.315   7.882 -1.3190 -1.4045 -0.7507
 5278SOL     OW27292   3.478   4.298  12.317  0.5786  0.3149 -0.3637
 5278SOL    HW127293   3.534   4.303  12.239  1.5282 -1.5604  0.2157
 5278SOL    HW227294   3.393   4.290  12.273  0.0728  0.6557  0.5498
 5279SOL     OW27295   2.858   0.079   7.680 -0.7248  0.3459  0.0802
 5279SOL    HW127296   2.938   0.031   7.698 -1.4267 -1.8534 -2.8047
 5279SOL    HW227297   2.838   0.124   7.762  0.4247  0.4641  0.2862
 5280SOL     OW27298   1.503   0.112   1.782  0.5507 -0.5828  0.0930
 5280SOL    HW127299   1.418   0.068   1.779  1.2929 -1.9181 -0.9903
 5280SOL    HW227300   1.496   0.165   1.702  0.2244  0.3574  0.7351
 5281SOL     OW27301   2.758   0.465  17.116  0.2627 -0.0520 -0.2298
 5281SOL    HW127302   2.837   0.432  17.158  1.2406  0.7238 -1.4578
 5281SOL    HW227303   2.696   0.392  17.125  0.4653 -0.0368  1.1710
 5282SOL     OW27304   1.627   0.768   5.217 -0.4938  1.2764 -0.4111
 5282SOL    HW127305   1.573   0.816   5.155 -1.5292  0.7379  0.0788
 5282SOL    HW227306   1.696   0.753   5.152  0.7846  1.3362  0.9320
 5283SOL     OW27307   4.242   2.884   1.364 -0.2976 -0.0809  0.3572
 5283SOL    HW127308   4.266   2.796   1.391 -2.8072 -0.7734  0.2906
 5283SOL    HW227309   4.190   2.914   1.438  0.1536  1.1941  0.1701
 5284SOL     OW27310   1.050   3.832   1.523  0.3698  0.1001 -0.0555
 5284SOL    HW127311   1.129   3.882   1.504 -0.4522  0.5319 -2.3638
 5284SOL    HW227312   1.095   3.763   1.573 -0.6615 -1.3096 -1.0645
 5285SOL     OW27313   2.557   4.472   6.600 -0.5642 -0.4705 -0.2088
 5285SOL    HW127314   2.573   4.462   6.694 -0.1349  1.4715 -0.0680
 5285SOL    HW227315   2.572   4.565   6.588 -0.3779 -0.9758 -3.7137
 5286SOL     OW27316   0.905   4.342   7.932  0.4733 -0.3758 -0.9298
 5286SOL    HW127317   0.954   4.425   7.930 -0.9635  0.4944 -0.0572
 5286SOL    HW227318   0.816   4.372   7.910  0.3061  0.8511  1.4053
 5287SOL     OW27319   4.444   4.117  10.454 -0.1104  0.2585  0.3957
 5287SOL    HW127320   4.476   4.207  10.464  0.3209  0.1654 -0.1185
 5287SOL    HW227321   4.521   4.086  10.406  0.4983 -2.7673  3.3028
 5288SOL     OW27322   3.811   3.509   4.132  0.1193  0.1805 -0.2940
 5288SOL    HW127323   3.792   3.432   4.078  0.1440 -0.9594  1.3001
 5288SOL    HW227324   3.721   3.538   4.144 -0.0445 -0.6763  0.5760
 5289SOL     OW27325   2.277   3.101   4.082  0.2763  0.1564 -0.2748
 5289SOL    HW127326   2.294   3.030   4.143  1.5785  1.5174  0.9664
 5289SOL    HW227327   2.295   3.176   4.139  0.3477  0.6928 -0.9951
 5290SOL     OW27328   0.544   4.514  12.149 -0.5962 -0.2651  0.6766
 5290SOL    HW127329   0.555   4.484  12.239 -0.9584 -1.3653  0.3557
 5290SOL    HW227330   0.501   4.597  12.170 -0.5468 -0.3129  0.9674
 5291SOL     OW27331   1.305   2.080   4.357 -0.2089 -0.0153 -0.3922
 5291SOL    HW127332   1.271   2.159   4.315 -0.4288 -0.6838 -1.4695
 5291SOL    HW227333   1.223   2.031   4.362 -0.3556  0.4149  1.2199
 5292SOL     OW27334   0.819   3.823   3.166 -0.0405 -0.2469  0.4384
 5292SOL    HW127335   0.860   3.755   3.114  1.0294 -0.6523  1.8323
 5292SOL    HW227336   0.727   3.810   3.142  0.5381 -3.2752 -0.1170
 5293SOL     OW27337   2.367   2.254  10.112  0.2124  0.2081 -0.4619
 5293SOL    HW127338   2.276   2.257  10.141  1.8379  0.3051  4.6476
 5293SOL    HW227339   2.420   2.212  10.180  1.2441  1.3874 -0.5488
 5294SOL     OW27340   1.334   1.632   6.587 -0.1002  0.0177  0.1181
 5294SOL    HW127341   1.254   1.683   6.603  0.4626  0.6868  0.8106
 5294SOL    HW227342   1.399   1.697   6.614  0.6410 -0.7398  0.1514
 5295SOL     OW27343   2.590   4.162   7.040  0.2612  0.8508 -0.3751
 5295SOL    HW127344   2.555   4.215   7.112 -0.4928 -0.4483  0.2221
 5295SOL    HW227345   2.573   4.070   7.064  3.4545  0.6120  1.0444
 5296SOL     OW27346   3.391   2.902   7.635 -0.4275  0.0718 -0.0844
 5296SOL    HW127347   3.430   2.982   7.672 -0.7523 -0.4561  1.4045
 5296SOL    HW227348   3.376   2.855   7.717 -1.0092 -1.7313 -1.2254
 5297SOL     OW27349   3.529   1.275   8.319 -0.0435 -0.0682 -0.2138
 5297SOL    HW127350   3.436   1.255   8.331  0.1770 -0.3239  1.0266
 5297SOL    HW227351   3.523   1.371   8.319  0.3574 -0.0472 -0.8792
 5298SOL     OW27352   0.625   1.924   2.055  0.3375 -0.2203 -0.2603
 5298SOL    HW127353   0.579   1.905   2.136 -0.1979 -0.2373 -0.5654
 5298SOL    HW227354   0.626   2.020   2.061  1.3193 -0.0161 -3.4058
 5299SOL     OW27355   0.844   0.096   8.058  0.0183  0.0739 -0.2104
 5299SOL    HW127356   0.871   0.083   8.149  2.6104 -1.1097 -1.1385
 5299SOL    HW227357   0.892   0.025   8.015  1.3616  0.4689  0.6394
 5300SOL     OW27358   3.391   3.161   9.164 -0.2176 -0.1216 -0.1301
 5300SOL    HW127359   3.389   3.128   9.254 -0.7385 -0.4286 -0.2536
 5300SOL    HW227360   3.486   3.167   9.157  0.0698 -2.0510  1.9337
 5301SOL     OW27361   2.135   2.656  14.666 -0.0657 -0.5276  0.3012
 5301SOL    HW127362   2.201   2.601  14.624 -0.7790  1.0461 -2.8430
 5301SOL    HW227363   2.145   2.738  14.618  0.0912 -0.5476  0.3010
 5302SOL     OW27364   0.559   1.290   5.633  0.6095 -0.0724  0.4692
 5302SOL    HW127365   0.522   1.286   5.545  1.5463  1.3615  0.0094
 5302SOL    HW227366   0.492   1.244   5.683 -0.0878  1.2007  0.7241
 5303SOL     OW27367   2.975   1.436   4.054  0.2529 -0.3733  0.2150
 5303SOL    HW127368   2.991   1.530   4.037 -0.4622 -0.0651  1.3080
 5303SOL    HW227369   3.008   1.395   3.974  1.2737 -0.9003  0.9064
 5304SOL     OW27370   0.885   0.719  10.760 -0.2549  0.0595  0.5076
 5304SOL    HW127371   0.979   0.705  10.756 -0.6258 -1.6508 -2.9779
 5304SOL    HW227372   0.856   0.645  10.813  0.0149 -1.0855 -0.9285
 5305SOL     OW27373   1.754   1.314   6.970 -0.0644  0.0241 -0.4461
 5305SOL    HW127374   1.847   1.299   6.987 -0.7209 -1.9031  1.4102
 5305SOL    HW227375   1.731   1.255   7.041  0.0083 -1.3224 -1.5533
 5306SOL     OW27376   4.523   2.032  11.993  0.1321 -0.5303  0.0545
 5306SOL    HW127377   4.479   2.001  12.073  0.1253  1.9391  1.0255
 5306SOL    HW227378   4.564   1.955  11.954  1.2913 -0.2450  0.7117
 5307SOL     OW27379   2.115   1.227   8.498 -0.6581 -0.7135  0.4571
 5307SOL    HW127380   2.079   1.272   8.574 -0.8095  1.0071 -0.6338
 5307SOL    HW227381   2.205   1.247   8.525  0.2506 -1.2544 -2.1402
 5308SOL     OW27382   0.867   0.655   2.421  0.0811  0.4469 -0.3023
 5308SOL    HW127383   0.853   0.749   2.413 -1.2277  0.3890  1.0948
 5308SOL    HW227384   0.890   0.621   2.335 -0.0350  0.2081 -0.2410
 5309SOL     OW27385   0.245   0.282   7.581 -0.6877 -0.0035  0.8639
 5309SOL    HW127386   0.266   0.208   7.524 -0.8977  2.3967 -2.3906
 5309SOL    HW227387   0.258   0.240   7.666 -3.5867  1.8919  2.2209
 5310SOL     OW27388   2.647   1.992   9.866  0.6353  0.0942  0.1100
 5310SOL    HW127389   2.592   1.914   9.865 -0.0977  0.5845  1.3220
 5310SOL    HW227390   2.732   1.949   9.859  0.4732 -0.5543  2.1060
 5311SOL     OW27391   0.995   2.439   9.392  0.3428  0.7725 -0.7897
 5311SOL    HW127392   0.924   2.496   9.422 -0.0960 -0.3525  0.3396
 5311SOL    HW227393   1.017   2.404   9.478  1.3907  0.6123 -1.1297
 5312SOL     OW27394   2.938   2.232   4.161  0.2173  0.0169 -0.1358
 5312SOL    HW127395   2.849   2.244   4.196  0.3669 -0.8147  0.5324
 5312SOL    HW227396   2.980   2.254   4.243 -0.2515 -1.7099  0.5673
 5313SOL     OW27397   0.252   4.285   6.177  0.1869  0.3653 -0.3871
 5313SOL    HW127398   0.181   4.295   6.114 -0.1898 -1.0770 -0.1996
 5313SOL    HW227399   0.251   4.367   6.227  2.2984 -0.7919  1.5412
 5314SOL     OW27400   4.580   3.533   1.807  0.2523  0.5524 -0.0409
 5314SOL    HW127401   4.530   3.473   1.752  2.1234  0.1398 -1.2983
 5314SOL    HW227402   4.664   3.487   1.808  0.6161  1.2987  2.9330
 5315SOL     OW27403   1.615   3.886   2.838 -0.2892  0.5955 -0.3809
 5315SOL    HW127404   1.522   3.882   2.814 -0.7031 -0.0444  1.3336
 5315SOL    HW227405   1.642   3.915   2.751  2.2446 -3.2343 -0.8496
 5316SOL     OW27406   1.706   3.575   6.906 -0.0176 -0.4871  0.1890
 5316SOL    HW127407   1.681   3.531   6.987 -0.5438 -0.0309  0.2779
 5316SOL    HW227408   1.766   3.510   6.870  0.4658 -1.0323  1.9958
 5317SOL     OW27409   3.200   0.246   9.185  0.4206 -0.5223 -0.0354
 5317SOL    HW127410   3.110   0.240   9.151  0.4968  0.0892 -0.3328
 5317SOL    HW227411   3.248   0.319   9.147  1.4216 -1.0358  0.2318
 5318SOL     OW27412   4.517   0.048   6.818 -0.9457  0.0664 -0.4605
 5318SOL    HW127413   4.582   0.066   6.886 -0.2447  0.2616 -1.1783
 5318SOL    HW227414   4.498   4.688   6.856 -0.8155  1.1656  2.1074
 5319SOL     OW27415   3.801   1.591   3.798 -0.3236 -0.5889 -0.4678
 5319SOL    HW127416   3.806   1.679   3.762 -1.6671 -0.2413  0.1685
 5319SOL    HW227417   3.707   1.574   3.795 -0.0265 -2.3393 -0.0400
 5320SOL     OW27418   1.335   1.825   2.647  0.0427 -0.0024  0.0855
 5320SOL    HW127419   1.346   1.906   2.696 -0.6233  0.3203 -0.2940
 5320SOL    HW227420   1.351   1.855   2.557  1.5238 -4.8252 -1.3083
 5321SOL     OW27421   3.721   2.905   3.609  0.1523  0.7336 -0.1835
 5321SOL    HW127422   3.808   2.876   3.635 -0.5325 -3.0144 -2.1586
 5321SOL    HW227423   3.733   2.885   3.516 -0.7739  1.0709 -0.3731
 5322SOL     OW27424   4.031   2.654   7.569 -0.1810 -0.0110  0.3289
 5322SOL    HW127425   4.107   2.596   7.575  0.1531  0.3826 -0.1340
 5322SOL    HW227426   3.992   2.622   7.488  0.4972  0.0372 -0.0125
 5323SOL     OW27427   2.646   4.376   2.077  0.7896 -0.0170  0.1605
 5323SOL    HW127428   2.574   4.356   2.137  0.2706  0.4394 -0.3026
 5323SOL    HW227429   2.606   4.377   1.990  0.3360  1.2413  0.3721
 5324SOL     OW27430   0.792   4.002  12.353  0.1369 -0.0546  0.0663
 5324SOL    HW127431   0.785   4.097  12.363  0.6196  0.1496 -1.5594
 5324SOL    HW227432   0.884   3.977  12.358 -0.1532 -1.1431  0.1286
 5325SOL     OW27433   2.656   2.189  10.069  0.4084  0.3147 -0.3855
 5325SOL    HW127434   2.640   2.119  10.005 -0.2436  0.0232  0.0950
 5325SOL    HW227435   2.675   2.133  10.144  0.1286 -1.2808 -1.4929
 5326SOL     OW27436   1.868   0.625   3.131 -0.3568 -0.2477 -0.6637
 5326SOL    HW127437   1.834   0.712   3.151 -3.2081 -0.9722 -2.3194
 5326SOL    HW227438   1.959   0.625   3.160  0.2143 -1.4657 -2.5117
 5327SOL     OW27439   2.383   0.787   6.282 -0.3180 -0.0252  0.0936
 5327SOL    HW127440   2.382   0.865   6.227 -2.6043  1.7380  2.6358
 5327SOL    HW227441   2.420   0.728   6.216 -0.3269 -0.7854  0.7627
 5328SOL     OW27442   4.502   1.279   2.301 -0.7592 -0.6394 -0.4525
 5328SOL    HW127443   4.579   1.246   2.348 -1.2668 -2.2661 -0.7699
 5328SOL    HW227444   4.535   1.308   2.216  2.3330  0.5656  1.1422
 5329SOL     OW27445   0.464   0.417   8.228 -0.0605  0.3915  0.3540
 5329SOL    HW127446   0.503   0.332   8.207  1.6613  1.4723 -0.7506
 5329SOL    HW227447   0.389   0.430   8.170 -1.4128  0.3254  2.0668
 5330SOL     OW27448   2.943   4.383   1.563  0.5552  0.5283  0.1084
 5330SOL    HW127449   2.858   4.410   1.529  0.1555 -0.5432  0.2566
 5330SOL    HW227450   2.922   4.404   1.654 -1.0937  0.4875 -0.2596
 5331SOL     OW27451   3.791   2.056   8.315  0.2087  0.2957  0.3568
 5331SOL    HW127452   3.765   2.094   8.399 -1.8952 -0.3805  0.0033
 5331SOL    HW227453   3.883   2.048   8.339 -0.0853 -0.1649  1.3736
 5332SOL     OW27454   1.275   2.885   5.205 -0.3906  0.1468 -0.2749
 5332SOL    HW127455   1.279   2.979   5.186 -0.3842 -0.1729 -1.8788
 5332SOL    HW227456   1.334   2.846   5.141 -1.2039 -1.7348  0.0933
 5333SOL     OW27457   0.967   1.852   7.967  0.1222 -0.0244 -0.6374
 5333SOL    HW127458   1.057   1.828   7.986 -0.1982 -2.0495 -1.6716
 5333SOL    HW227459   0.975   1.946   7.986  1.0843 -0.7578  2.5329
 5334SOL     OW27460   2.159   2.678   4.611 -0.1206  0.4246  0.0671
 5334SOL    HW127461   2.224   2.668   4.681 -0.4072 -1.0475  0.1214
 5334SOL    HW227462   2.122   2.766   4.617 -1.2090  0.0787 -1.5234
 5335SOL     OW27463   2.238   1.893  10.724  0.2888  0.3905 -0.0815
 5335SOL    HW127464   2.222   1.908  10.817 -1.2836  0.1585 -0.3080
 5335SOL    HW227465   2.289   1.812  10.727  0.6000  0.5766 -0.3424
 5336SOL     OW27466   0.556   1.820  16.882 -0.6607  0.0012  0.2546
 5336SOL    HW127467   0.476   1.782  16.919  0.0386 -1.1168  0.6219
 5336SOL    HW227468   0.621   1.792  16.946  1.9894  0.6963 -2.1270
 5337SOL     OW27469   0.632   3.831   7.664 -0.1381  0.0261  0.2536
 5337SOL    HW127470   0.693   3.757   7.658 -0.7797 -0.5763  1.1733
 5337SOL    HW227471   0.694   3.903   7.676  1.1917 -0.9597 -0.6940
 5338SOL     OW27472   1.132   3.283   7.677  0.2406  0.0249  0.4053
 5338SOL    HW127473   1.041   3.311   7.667 -0.4003 -2.2150  0.0204
 5338SOL    HW227474   1.130   3.240   7.762  0.7167  0.9956  0.9076
 5339SOL     OW27475   2.003   2.132   6.503  0.4674 -0.1314 -0.2012
 5339SOL    HW127476   2.002   2.122   6.408  2.2387 -2.0449 -0.0275
 5339SOL    HW227477   2.070   2.067   6.527 -0.2262 -0.6893  0.2167
 5340SOL     OW27478   4.681   2.374   3.713 -0.0844 -0.0961 -0.2227
 5340SOL    HW127479   0.000   2.446   3.667  0.2088  1.1369  2.0124
 5340SOL    HW227480   4.717   2.306   3.657  1.8132 -0.3779  1.3545
 5341SOL     OW27481   1.139   3.178   2.739  0.1266 -0.0552  0.2779
 5341SOL    HW127482   1.108   3.168   2.829  0.9037 -0.8104  0.4618
 5341SOL    HW227483   1.145   3.274   2.735 -2.3034  0.1690  2.1401
 5342SOL     OW27484   3.320   1.774  12.762  0.4178  0.5232 -0.2319
 5342SOL    HW127485   3.233   1.763  12.800  0.0849  1.3584 -0.7673
 5342SOL    HW227486   3.300   1.732  12.679 -2.7247  1.2180  0.1851
 5343SOL     OW27487   2.776   1.300   7.146  0.5533 -0.3563  0.0435
 5343SOL    HW127488   2.771   1.206   7.134  2.4129 -0.0011 -3.5558
 5343SOL    HW227489   2.870   1.305   7.164  0.1498  0.7854  1.8947
 5344SOL     OW27490   1.570   1.753   3.515 -0.2425  0.0323  0.3942
 5344SOL    HW127491   1.517   1.767   3.594 -0.3346  0.6402  0.2201
 5344SOL    HW227492   1.503   1.756   3.447 -0.8796 -3.7191  0.8367
 5345SOL     OW27493   3.848   2.379   2.639 -0.0134  0.3293 -0.0112
 5345SOL    HW127494   3.817   2.331   2.562  1.1743  0.1193 -0.3633
 5345SOL    HW227495   3.904   2.448   2.604 -0.1964  0.9039  0.8357
 5346SOL     OW27496   0.308   0.026   7.052  0.2082 -0.5116  0.2812
 5346SOL    HW127497   0.399   0.016   7.023  0.8604  0.9038  1.8489
 5346SOL    HW227498   0.310   0.104   7.107  0.1805  1.6284 -2.7943
 5347SOL     OW27499   2.850   3.450  17.604  0.1825 -0.4322 -0.1213
 5347SOL    HW127500   2.785   3.380  17.605 -1.4766  1.1179  1.2138
 5347SOL    HW227501   2.820   3.508  17.674 -0.5528  1.4133 -1.9203
 5348SOL     OW27502   4.111   0.468   6.401 -0.1152  0.1162  0.2802
 5348SOL    HW127503   4.038   0.442   6.344 -0.3199  0.4955  0.3701
 5348SOL    HW227504   4.133   0.553   6.363  2.3512  0.2630  2.0373
 5349SOL     OW27505   4.177   4.022   3.146  0.5825  0.1768  0.0892
 5349SOL    HW127506   4.268   4.025   3.114 -0.1652  4.9116 -1.7141
 5349SOL    HW227507   4.141   4.105   3.114  0.1743  0.1263  0.4154
 5350SOL     OW27508   1.624   0.255   8.701  0.3751  0.2625  0.2173
 5350SOL    HW127509   1.668   0.306   8.769  1.6515 -1.2870  0.5533
 5350SOL    HW227510   1.628   0.314   8.626 -1.7791 -1.0940 -0.9670
 5351SOL     OW27511   1.116   1.812   0.571 -0.3520 -0.0494  0.0377
 5351SOL    HW127512   1.092   1.890   0.622 -1.3971 -0.3242 -0.0340
 5351SOL    HW227513   1.154   1.750   0.633  0.5176 -0.6876 -1.1406
 5352SOL     OW27514   0.889   0.732  17.340 -0.2907 -0.1324 -0.0077
 5352SOL    HW127515   0.952   0.695  17.402  0.7192  1.7518  0.0894
 5352SOL    HW227516   0.811   0.693  17.380 -0.6644  0.1516 -0.4531
 5353SOL     OW27517   0.024   3.576   8.552 -0.4078 -0.2146 -0.1379
 5353SOL    HW127518   0.046   3.504   8.611 -0.7248 -0.9766 -0.9524
 5353SOL    HW227519   4.659   3.553   8.532 -0.0587 -1.8673  0.2018
 5354SOL     OW27520   1.922   1.418   8.065 -0.3207 -0.4770 -0.4505
 5354SOL    HW127521   1.940   1.506   8.097 -1.5687  0.4471 -2.3247
 5354SOL    HW227522   1.880   1.435   7.981 -0.6974  2.2959  0.3161
 5355SOL     OW27523   0.878   3.804  14.462 -0.7580  0.4271  0.0739
 5355SOL    HW127524   0.967   3.785  14.433 -0.3275 -0.8875  2.2966
 5355SOL    HW227525   0.835   3.758  14.390  2.1093  0.2858 -1.5491
 5356SOL     OW27526   3.063   3.891  15.443 -0.1986  0.3029 -0.0548
 5356SOL    HW127527   3.079   3.947  15.518 -1.6103  1.8329 -0.8945
 5356SOL    HW227528   3.076   3.960  15.377 -2.8039  1.0180  0.1787
 5357SOL     OW27529   1.544   1.533  11.630  0.0517  0.4450 -0.3242
 5357SOL    HW127530   1.518   1.452  11.587  0.6449  0.2074 -0.2296
 5357SOL    HW227531   1.613   1.510  11.692 -2.1450  0.1141  2.0135
 5358SOL     OW27532   3.778   1.750  10.737  0.4688 -0.1058  0.3697
 5358SOL    HW127533   3.861   1.717  10.770  1.9137  1.4093 -1.7963
 5358SOL    HW227534   3.790   1.737  10.643  2.2364  1.5818  0.3698
 5359SOL     OW27535   2.741   1.772  13.520 -0.2088  0.2205  0.0464
 5359SOL    HW127536   2.788   1.701  13.565  0.2093 -0.4536 -1.4476
 5359SOL    HW227537   2.651   1.749  13.543 -0.4003  1.8507  0.9686
 5360SOL     OW27538   3.433   4.249   3.123  0.4065 -0.2608  0.2765
 5360SOL    HW127539   3.437   4.154   3.118  2.3066 -0.3187  2.5112
 5360SOL    HW227540   3.365   4.269   3.059  0.3006  1.7465  0.9910
 5361SOL     OW27541   4.113   3.414   1.054  0.2273  0.1186  0.1049
 5361SOL    HW127542   4.044   3.475   1.030 -0.0166  0.6643  2.1908
 5361SOL    HW227543   4.172   3.453   0.989 -1.8958 -0.4221 -2.1394
 5362SOL     OW27544   2.014   3.327   2.030  0.4254 -0.4660  0.5015
 5362SOL    HW127545   2.047   3.340   1.941 -0.9255  0.8329  0.1765
 5362SOL    HW227546   1.934   3.376   2.011 -0.2959 -1.6926  0.3623
 5363SOL     OW27547   3.048   3.949  17.396 -0.5262  0.9070  0.2722
 5363SOL    HW127548   3.062   3.988  17.310  0.1967  1.5190  0.6646
 5363SOL    HW227549   3.084   4.020  17.450  1.5335  0.6980 -0.8314
 5364SOL     OW27550   2.906   3.950   6.339 -0.4947  1.0362 -0.2655
 5364SOL    HW127551   2.964   3.928   6.412  0.0863  1.3482 -0.6245
 5364SOL    HW227552   2.823   3.958   6.386 -0.4695 -0.5428  0.0420
 5365SOL     OW27553   2.726   0.418  17.500  0.0917  0.2766 -0.7266
 5365SOL    HW127554   2.799   0.418  17.439  0.2276 -0.4180 -0.5621
 5365SOL    HW227555   2.741   0.330  17.533  1.3768  0.0030 -2.0489
 5366SOL     OW27556   0.693   4.469   7.809  0.4603  0.6864  0.6057
 5366SOL    HW127557   0.669   4.551   7.766  0.1857 -0.4117 -1.3462
 5366SOL    HW227558   0.744   4.428   7.739 -0.3513  1.5214 -0.4764
 5367SOL     OW27559   3.835   0.409  12.126 -0.3582 -0.0507 -0.2595
 5367SOL    HW127560   3.925   0.431  12.150 -0.0707 -1.3821 -0.1387
 5367SOL    HW227561   3.812   0.355  12.201  0.8861 -2.4767 -1.6126
 5368SOL     OW27562   3.604   4.051  15.018 -0.2036  0.0105  0.6172
 5368SOL    HW127563   3.553   4.020  14.943  1.8384 -0.7779 -0.4297
 5368SOL    HW227564   3.555   4.130  15.043 -1.9414 -1.6690  2.5044
 5369SOL     OW27565   0.399   1.545   4.218 -0.3344 -0.7390 -0.1179
 5369SOL    HW127566   0.466   1.578   4.278 -1.0011 -1.1277  0.8418
 5369SOL    HW227567   0.397   1.614   4.151  0.0944 -1.7424 -1.1673
 5370SOL     OW27568   1.655   2.942  12.540  0.0731  0.4895 -0.1152
 5370SOL    HW127569   1.655   2.938  12.635 -1.1012  0.0362 -0.1326
 5370SOL    HW227570   1.597   2.866  12.534  1.2233 -0.4124  0.2012
 5371SOL     OW27571   2.654   4.680   2.428 -0.0936 -0.0838 -0.2183
 5371SOL    HW127572   2.652   4.640   2.515  1.9344  1.2061  0.4146
 5371SOL    HW227573   2.571   4.641   2.399 -1.1589  2.5365 -0.6913
 5372SOL     OW27574   4.020   1.189  11.109  0.0968  0.5646  0.2790
 5372SOL    HW127575   4.068   1.111  11.082 -0.2239  0.6653 -0.5672
 5372SOL    HW227576   4.091   1.250  11.130  1.9981 -0.6708 -2.5853
 5373SOL     OW27577   2.422   3.490   6.638  0.0027 -0.0350 -0.5743
 5373SOL    HW127578   2.447   3.556   6.574 -1.3685 -0.6264 -1.7217
 5373SOL    HW227579   2.501   3.468   6.687  0.9857 -0.0265 -2.1670
 5374SOL     OW27580   2.803   1.420  15.066 -0.2906  0.4957  0.6292
 5374SOL    HW127581   2.890   1.451  15.092  0.6498 -1.0083 -0.7497
 5374SOL    HW227582   2.810   1.411  14.971 -1.1410 -0.0757  0.6207
 5375SOL     OW27583   3.595   2.552   3.674 -0.2881 -0.3684 -0.0414
 5375SOL    HW127584   3.610   2.460   3.656  0.1988 -0.2551 -0.2326
 5375SOL    HW227585   3.541   2.539   3.752  1.5658  0.8227  1.4699
 5376SOL     OW27586   4.606   0.085   5.424 -0.0421  0.4002  0.4202
 5376SOL    HW127587   4.533   0.147   5.428 -1.7876 -1.7002  0.5542
 5376SOL    HW227588   4.649   0.125   5.500 -0.7617  0.4975  0.7724
 5377SOL     OW27589   1.116   4.606   4.154 -0.5254 -0.0820 -0.4324
 5377SOL    HW127590   1.103   4.511   4.162  0.2241  0.0069  1.6531
 5377SOL    HW227591   1.064   4.616   4.074  0.5118  0.0470 -1.0929
 5378SOL     OW27592   2.174   0.573   5.930  0.2888  0.7251  0.2625
 5378SOL    HW127593   2.170   0.544   6.021 -1.7639  2.2896  0.6591
 5378SOL    HW227594   2.119   0.650   5.916  1.1293  0.5153 -4.1608
 5379SOL     OW27595   0.121   0.204   2.845  0.5115 -0.6935 -0.0541
 5379SOL    HW127596   0.097   0.237   2.759 -2.1476 -4.4286 -0.7218
 5379SOL    HW227597   0.210   0.238   2.854  0.8852 -1.5976 -0.3395
 5380SOL     OW27598   2.646   2.659   6.669  0.0637 -0.0215  0.2835
 5380SOL    HW127599   2.668   2.753   6.670  2.4769 -0.6006  2.0549
 5380SOL    HW227600   2.552   2.664   6.655 -0.0368 -2.8453 -0.0012
 5381SOL     OW27601   1.685   3.071   7.679  0.2138  0.2321 -0.4921
 5381SOL    HW127602   1.695   2.987   7.724 -1.3287  0.9172  1.1742
 5381SOL    HW227603   1.655   3.141   7.738  2.6752  2.6990 -2.1554
 5382SOL     OW27604   0.074   2.361   0.535  0.4826 -0.0232  0.1319
 5382SOL    HW127605   0.145   2.297   0.542  4.5376  4.3011 -2.1193
 5382SOL    HW227606   0.092   2.402   0.451 -4.6574  2.4132  0.2084
 5383SOL     OW27607   4.712   1.739   7.225  0.2054  0.0828 -0.9396
 5383SOL    HW127608   0.079   1.741   7.251  0.6437  1.5019 -2.6214
 5383SOL    HW227609   0.003   1.804   7.157 -0.4876  0.0909 -1.0948
 5384SOL     OW27610   1.311   4.218   1.380 -0.2462  0.4385 -0.2949
 5384SOL    HW127611   1.225   4.250   1.353 -0.2378  1.1089  0.4956
 5384SOL    HW227612   1.358   4.248   1.302  0.7487 -0.6062 -0.1088
 5385SOL     OW27613   3.435   3.093   9.420  0.0695  0.1326  0.3440
 5385SOL    HW127614   3.365   3.032   9.442 -0.5104  0.7772  0.2885
 5385SOL    HW227615   3.498   3.066   9.487  0.2920  0.6689  0.3549
 5386SOL     OW27616   0.341   0.180   9.802  0.5687  0.6255 -0.4815
 5386SOL    HW127617   0.414   0.190   9.864  0.7582 -0.3293 -0.5573
 5386SOL    HW227618   0.393   0.159   9.725  0.7410  1.2280 -0.5307
 5387SOL     OW27619   3.420   2.042  17.527  0.2802 -0.0235  0.0707
 5387SOL    HW127620   3.350   2.021  17.465 -0.4191  0.8523  0.5643
 5387SOL    HW227621   3.372   2.092  17.593  1.2065  0.7126  0.1854
 5388SOL     OW27622   0.342   0.582  17.208 -0.2968  0.0641 -0.5750
 5388SOL    HW127623   0.394   0.548  17.136  1.0629 -1.4524  1.1194
 5388SOL    HW227624   0.411   0.636  17.248 -0.0326  0.6293 -1.7979
 5389SOL     OW27625   4.467   0.897   5.772  0.2241  0.2767 -0.5778
 5389SOL    HW127626   4.424   0.981   5.760 -0.7574 -0.2927 -1.1126
 5389SOL    HW227627   4.398   0.845   5.729  2.2014 -1.1638 -2.0015
 5390SOL     OW27628   2.387   1.713   1.737 -0.2846  0.5200 -0.0846
 5390SOL    HW127629   2.471   1.731   1.694 -0.6787  1.3576 -0.4924
 5390SOL    HW227630   2.393   1.618   1.746 -0.2856  0.5728  0.4862
 5391SOL     OW27631   4.455   0.433   9.410 -0.2827  0.4338 -0.1974
 5391SOL    HW127632   4.487   0.367   9.349  0.5098 -0.7633  1.5058
 5391SOL    HW227633   4.530   0.491   9.423  0.9810 -0.8542 -1.6722
 5392SOL     OW27634   3.589   1.190   5.740 -1.2566 -0.4414  0.5675
 5392SOL    HW127635   3.511   1.245   5.747  0.9918  2.8653 -0.1930
 5392SOL    HW227636   3.653   1.254   5.708 -1.4582  1.2298  3.5015
 5393SOL     OW27637   2.956   0.936  13.456 -0.2236 -0.9063  0.4426
 5393SOL    HW127638   3.011   0.912  13.381 -2.0458  0.7268 -1.4194
 5393SOL    HW227639   2.886   0.874  13.439  1.3780 -2.8807  0.9803
 5394SOL     OW27640   1.559   0.944   8.773 -0.2155  0.2094 -0.9083
 5394SOL    HW127641   1.522   0.872   8.823 -0.3918  1.4714  0.7547
 5394SOL    HW227642   1.637   0.963   8.825 -0.0468 -0.3659 -0.9532
 5395SOL     OW27643   1.476   3.908   2.130 -0.3705  0.5181  0.5421
 5395SOL    HW127644   1.426   3.967   2.073 -1.1534 -1.4648 -0.8111
 5395SOL    HW227645   1.563   3.945   2.113 -0.9233  1.6258  0.1538
 5396SOL     OW27646   0.268   4.595  10.029 -0.4936  0.1127 -0.2800
 5396SOL    HW127647   0.231   4.519   9.983  0.6479 -0.8937  0.4621
 5396SOL    HW227648   0.358   4.588   9.996 -1.1290 -1.2486 -1.7538
 5397SOL     OW27649   0.903   4.486   8.809 -0.0126  0.1378  0.1583
 5397SOL    HW127650   0.917   4.487   8.903  3.2858  1.7589 -0.3361
 5397SOL    HW227651   0.881   4.393   8.809  1.1493 -0.1381  1.4940
 5398SOL     OW27652   0.222   0.602   5.095  0.4235  0.1215  0.1762
 5398SOL    HW127653   0.127   0.605   5.109  0.2763  1.5146 -1.0676
 5398SOL    HW227654   0.238   0.696   5.085  2.1708 -0.1608  0.2836
 5399SOL     OW27655   2.858   1.450   1.681  0.2929 -0.2917  0.2746
 5399SOL    HW127656   2.826   1.396   1.609 -0.0706 -0.7396  0.7686
 5399SOL    HW227657   2.948   1.463   1.652 -0.1758 -1.6288 -1.7863
 5400SOL     OW27658   2.887   0.487   8.321 -0.0992  0.0248  0.4260
 5400SOL    HW127659   2.869   0.546   8.394  0.0677  1.4363 -0.6643
 5400SOL    HW227660   2.905   0.546   8.248 -0.7593  0.7548  0.8586
 5401SOL     OW27661   3.791   3.455   3.461  0.4924  0.0942  0.1302
 5401SOL    HW127662   3.749   3.450   3.547  0.5659  3.1522  0.3470
 5401SOL    HW227663   3.792   3.550   3.456  2.7348  0.1599  1.6138
 5402SOL     OW27664   2.600   0.640  17.563 -0.6703 -0.0993 -0.7894
 5402SOL    HW127665   2.504   0.636  17.556 -0.7995 -0.1202  1.1334
 5402SOL    HW227666   2.632   0.554  17.535  0.6299  0.0515  0.2370
 5403SOL     OW27667   3.708   2.287   2.849  1.0944 -0.4241 -0.1435
 5403SOL    HW127668   3.746   2.199   2.846  0.6097 -0.6495  0.2122
 5403SOL    HW227669   3.770   2.328   2.789  0.8846  1.1109  0.7052
 5404SOL     OW27670   2.145   2.158   7.360 -0.2672  1.0168  0.5206
 5404SOL    HW127671   2.114   2.067   7.356 -1.9672  1.7145 -2.4696
 5404SOL    HW227672   2.069   2.210   7.332 -0.0364  0.5550 -0.9670
 5405SOL     OW27673   0.917   1.439   8.914 -0.1636  0.3115 -0.4358
 5405SOL    HW127674   0.832   1.396   8.926 -1.2853  2.4841 -0.5494
 5405SOL    HW227675   0.895   1.530   8.894 -2.0967 -0.1878 -0.6192
 5406SOL     OW27676   2.390   0.390   3.989 -0.1932 -0.3716  0.2822
 5406SOL    HW127677   2.337   0.467   3.970 -0.6100 -1.4719 -2.9539
 5406SOL    HW227678   2.342   0.333   4.050  0.8949  0.1471  1.6400
 5407SOL     OW27679   0.587   1.766  15.104  0.2989 -0.7193  0.0983
 5407SOL    HW127680   0.497   1.769  15.072  0.9127  1.7696 -1.4040
 5407SOL    HW227681   0.601   1.673  15.124  0.2384 -0.6055  0.6699
 5408SOL     OW27682   2.891   4.000   2.027  0.1189 -0.1516  0.1022
 5408SOL    HW127683   2.929   3.941   1.962  0.5461 -0.1145  0.3152
 5408SOL    HW227684   2.954   4.072   2.030 -0.6770  0.5146  0.8253
 5409SOL     OW27685   3.282   2.994   6.110  0.3145  0.0774 -0.3822
 5409SOL    HW127686   3.216   2.971   6.176  1.9578 -0.6717  0.9737
 5409SOL    HW227687   3.366   2.961   6.139  0.6816  0.6356 -0.8056
 5410SOL     OW27688   3.849   1.732   9.558 -0.3745  0.2688  0.4585
 5410SOL    HW127689   3.925   1.698   9.512  0.8520  2.8179  0.5777
 5410SOL    HW227690   3.884   1.796   9.620 -1.2653  1.7046 -0.5002
 5411SOL     OW27691   2.050   1.993   3.137 -0.2048 -0.6775 -0.0592
 5411SOL    HW127692   2.058   1.915   3.192  2.1940  0.5898  1.3629
 5411SOL    HW227693   1.985   2.041   3.189 -1.2797 -2.4784  0.2861
 5412SOL     OW27694   4.716   3.844   3.615  0.5980 -0.6918 -0.3808
 5412SOL    HW127695   0.035   3.801   3.688 -0.7320  0.1697  0.9380
 5412SOL    HW227696   4.715   3.933   3.649 -1.0216 -1.0008  0.3847
 5413SOL     OW27697   1.840   2.659   3.952 -0.4952  0.5557 -0.5729
 5413SOL    HW127698   1.800   2.660   3.865 -1.2352 -1.1437 -0.2516
 5413SOL    HW227699   1.936   2.661   3.942 -0.1766  1.9136  2.7592
 5414SOL     OW27700   1.139   0.160   8.882  0.3284 -0.8432 -0.8943
 5414SOL    HW127701   1.212   0.177   8.822 -0.9286  1.1458 -1.8776
 5414SOL    HW227702   1.068   0.124   8.829 -2.4845 -0.6025  2.7553
 5415SOL     OW27703   4.618   4.242   2.278  0.2555  0.2657 -0.3111
 5415SOL    HW127704   4.640   4.282   2.194  1.8122 -2.3270 -1.1391
 5415SOL    HW227705   4.559   4.174   2.245  0.0540 -0.0670  0.7297
 5416SOL     OW27706   2.754   2.805   8.309  0.8297  0.5350  0.8112
 5416SOL    HW127707   2.818   2.827   8.241  1.8459  1.1649  1.9589
 5416SOL    HW227708   2.807   2.817   8.388  2.2834 -1.2114  0.0850
 5417SOL     OW27709   4.142   3.764   4.015  0.8971  0.2117 -0.3571
 5417SOL    HW127710   4.082   3.763   4.089 -0.6064  0.2275 -1.5619
 5417SOL    HW227711   4.210   3.705   4.046  0.8146 -0.2783 -1.0831
 5418SOL     OW27712   2.468   0.006  17.606  0.6972  0.1539  0.0135
 5418SOL    HW127713   2.413   4.671  17.557  2.8365 -3.1406  1.6017
 5418SOL    HW227714   2.549   4.681  17.618 -1.3242 -2.9117  0.7332
 5419SOL     OW27715   3.252   1.714   6.040 -0.3541  0.4595 -0.4264
 5419SOL    HW127716   3.276   1.747   6.127 -1.4969  0.6723 -0.1850
 5419SOL    HW227717   3.290   1.628   6.056 -0.8208  0.5629  1.2612
 5420SOL     OW27718   0.175   1.629   5.076  0.1679  0.9963  0.8161
 5420SOL    HW127719   0.133   1.684   5.010 -1.8230 -0.5093  0.8472
 5420SOL    HW227720   0.108   1.560   5.079  0.7011  0.3724 -1.7383
 5421SOL     OW27721   1.516   2.092   4.016 -0.3961  0.0535 -0.2379
 5421SOL    HW127722   1.557   2.104   4.102  1.0905  0.4870 -1.0130
 5421SOL    HW227723   1.481   2.003   4.029  0.7368 -0.6343 -1.8488
 5422SOL     OW27724   0.980   4.581  14.752 -0.6024  0.2876  0.4254
 5422SOL    HW127725   0.997   4.642  14.681 -1.0837 -1.7461 -1.4056
 5422SOL    HW227726   1.066   4.545  14.774 -0.9512 -1.5000 -1.2161
 5423SOL     OW27727   1.619   3.743   9.531 -0.2631  0.0312 -0.0747
 5423SOL    HW127728   1.586   3.667   9.483 -0.2628 -0.1722  0.2450
 5423SOL    HW227729   1.638   3.802   9.458  1.4352  1.7489  1.7412
 5424SOL     OW27730   1.929   3.781   7.051  0.4416  0.6074  0.2533
 5424SOL    HW127731   1.897   3.769   6.962 -2.5664  1.4767  1.2136
 5424SOL    HW227732   1.883   3.713   7.101  2.6498 -0.5080  0.7411
 5425SOL     OW27733   3.267   1.071   3.753 -0.5819 -0.1882 -0.2556
 5425SOL    HW127734   3.174   1.074   3.731 -0.8483  2.0437  1.2703
 5425SOL    HW227735   3.303   1.081   3.665  0.1105 -1.0738 -0.0749
 5426SOL     OW27736   3.931   2.080   6.089  0.2270 -0.2364 -0.2719
 5426SOL    HW127737   3.944   2.088   6.184 -0.6961  1.1114 -0.2530
 5426SOL    HW227738   3.911   2.168   6.057  1.4138  0.6945  1.5653
 5427SOL     OW27739   1.393   4.192   6.024  0.1137 -0.1510  0.5900
 5427SOL    HW127740   1.488   4.193   6.011  0.1677 -1.5184  0.8784
 5427SOL    HW227741   1.374   4.263   5.963  1.3164 -0.1547  0.2117
 5428SOL     OW27742   2.170   4.623   1.094 -0.0141  0.3217  0.6143
 5428SOL    HW127743   2.181   4.701   1.148  1.4811  0.9626 -0.6136
 5428SOL    HW227744   2.147   4.668   1.013 -1.3619 -0.6500  0.4763
 5429SOL     OW27745   3.567   1.327   7.991 -0.4853  0.1116  0.5423
 5429SOL    HW127746   3.480   1.364   7.999  0.0127  1.6419 -1.3288
 5429SOL    HW227747   3.615   1.401   7.953 -1.4106 -0.1130 -1.0455
 5430SOL     OW27748   3.781   3.151  14.490  0.7953 -0.3808 -0.2610
 5430SOL    HW127749   3.834   3.072  14.498  0.1643 -0.7858 -0.0864
 5430SOL    HW227750   3.729   3.145  14.571  0.9189  2.7905  0.0754
 5431SOL     OW27751   1.727   3.107   9.030 -0.4935 -0.4318 -0.2898
 5431SOL    HW127752   1.695   3.165   9.099  0.6794  0.1206 -0.2068
 5431SOL    HW227753   1.790   3.054   9.079 -0.1695 -1.1751 -1.4992
 5432SOL     OW27754   1.860   3.700   0.050  0.1189 -0.4147  0.7602
 5432SOL    HW127755   1.778   3.684   0.002  0.2728  1.4080 -0.1043
 5432SOL    HW227756   1.919   3.632   0.017  1.7577  0.4187  1.9876
 5433SOL     OW27757   2.788   1.808   3.924 -0.0476  0.6418  0.0209
 5433SOL    HW127758   2.825   1.822   4.011  1.0434 -0.5968 -0.2442
 5433SOL    HW227759   2.725   1.879   3.910  1.0809  1.4283 -1.0102
 5434SOL     OW27760   0.356   1.767  13.732  0.0565 -0.0166  0.0054
 5434SOL    HW127761   0.392   1.726  13.654  0.0848  2.4636 -1.2786
 5434SOL    HW227762   0.261   1.758  13.724 -0.2602  1.9651  1.4523
 5435SOL     OW27763   4.639   0.181   1.003  0.5801 -0.7337  0.4440
 5435SOL    HW127764   4.679   0.116   0.944  0.9323 -0.9939  0.9626
 5435SOL    HW227765   4.589   0.130   1.066 -0.0746  0.6542  1.0293
 5436SOL     OW27766   4.392   1.669   3.796 -0.1657 -0.0941  0.0013
 5436SOL    HW127767   4.380   1.590   3.742 -0.3309 -1.5399  2.1261
 5436SOL    HW227768   4.396   1.640   3.887  0.2298 -0.0037  0.0101
 5437SOL     OW27769   0.495   4.352   3.072  0.5510 -0.6292 -0.5838
 5437SOL    HW127770   0.580   4.367   3.031  0.9730  0.6364  0.7563
 5437SOL    HW227771   0.493   4.413   3.145  0.7342 -0.9265 -0.3288
 5438SOL     OW27772   3.771   2.002   9.730  0.0050  0.0691 -0.4473
 5438SOL    HW127773   3.756   2.093   9.753  1.2069 -0.3556  2.0111
 5438SOL    HW227774   3.742   1.999   9.639 -0.8984 -1.3192 -0.1120
 5439SOL     OW27775   3.280   0.017   1.991  0.1895 -0.6493 -0.1209
 5439SOL    HW127776   3.285   0.023   1.896 -3.5531 -0.7829 -0.3100
 5439SOL    HW227777   3.208   4.681   2.000  0.7694 -1.3031  0.0918
 5440SOL     OW27778   4.195   3.253   1.309 -0.1330  0.3034 -0.1885
 5440SOL    HW127779   4.174   3.271   1.218  1.1226  0.4334 -0.4574
 5440SOL    HW227780   4.235   3.334   1.340  0.0927  1.1075 -2.6071
 5441SOL     OW27781   2.224   3.785  15.333  0.7418  0.2823  0.5702
 5441SOL    HW127782   2.143   3.835  15.326  1.2412  0.6716 -2.4779
 5441SOL    HW227783   2.180   3.707  15.369  1.2846 -0.2849 -0.0089
 5442SOL     OW27784   1.608   3.322   3.516 -0.5447 -0.0132 -0.3752
 5442SOL    HW127785   1.534   3.380   3.497 -1.3349 -0.6156  0.8565
 5442SOL    HW227786   1.599   3.307   3.610  0.8998 -1.6832 -0.5180
 5443SOL     OW27787   1.888   0.014   4.623  0.0276 -0.4716 -0.6213
 5443SOL    HW127788   1.979   0.045   4.618 -1.1049  2.7431 -1.5105
 5443SOL    HW227789   1.894   4.645   4.611 -2.2050 -0.6355 -0.3369
 5444SOL     OW27790   3.814   1.554   2.685 -0.1075 -0.1554 -0.3537
 5444SOL    HW127791   3.719   1.562   2.679 -0.1199 -0.5932 -0.7128
 5444SOL    HW227792   3.818   1.540   2.779  2.2507 -1.2074 -0.6047
 5445SOL     OW27793   4.427   4.560  17.163  0.3029 -0.8345  0.6044
 5445SOL    HW127794   4.366   4.493  17.132 -0.5658  0.0169  0.4370
 5445SOL    HW227795   4.508   4.536  17.119  0.4929  2.1339 -0.6610
 5446SOL     OW27796   0.993   1.681   9.846  0.0425 -0.1914  0.0539
 5446SOL    HW127797   0.981   1.605   9.789  0.1620 -0.4986  0.4288
 5446SOL    HW227798   0.909   1.676   9.891 -0.0094 -1.0774 -0.1273
 5447SOL     OW27799   0.047   0.609   3.244 -0.5036 -0.2984 -0.1958
 5447SOL    HW127800   0.093   0.526   3.236  1.7153  0.9063  0.1289
 5447SOL    HW227801   0.063   0.634   3.335  2.6117  2.6906 -1.5511
 5448SOL     OW27802   0.602   0.497   8.470 -0.3557  0.0517  0.5333
 5448SOL    HW127803   0.569   0.488   8.381 -1.3610 -0.2468  0.9352
 5448SOL    HW227804   0.584   0.587   8.497  1.0297  0.0423  1.4983
 5449SOL     OW27805   1.127   0.533   8.745  0.5503  0.1146 -0.3430
 5449SOL    HW127806   1.207   0.539   8.692  0.8332 -1.5327 -0.1043
 5449SOL    HW227807   1.076   0.499   8.672  1.2694 -1.6813 -0.0017
 5450SOL     OW27808   2.019   3.950  17.684  0.0203  0.3722 -0.7570
 5450SOL    HW127809   1.973   3.873   0.017 -1.2357  0.9681 -1.0708
 5450SOL    HW227810   2.100   3.958   0.030 -1.1007  2.9317  0.6863
 5451SOL     OW27811   3.400   1.397   5.746 -0.2392  0.2570 -0.1069
 5451SOL    HW127812   3.355   1.401   5.662  1.0186  0.3417 -0.7799
 5451SOL    HW227813   3.429   1.486   5.765  0.4302  0.2098 -0.8761
 5452SOL     OW27814   1.762   2.708   4.203  0.2828  0.0737 -0.2165
 5452SOL    HW127815   1.788   2.692   4.112  3.2807 -0.6734  0.7680
 5452SOL    HW227816   1.675   2.745   4.189 -0.4216 -0.5737  2.5417
 5453SOL     OW27817   2.577   4.016   3.028 -0.0056  0.8218  0.2965
 5453SOL    HW127818   2.525   3.979   3.100  2.1004  1.2788  2.0621
 5453SOL    HW227819   2.559   4.106   3.056  0.7077  0.4746  1.8650
 5454SOL     OW27820   0.114   2.970   1.760 -0.0762  0.0791 -0.1692
 5454SOL    HW127821   0.094   3.020   1.839 -4.4272 -2.1185  0.1183
 5454SOL    HW227822   0.198   3.006   1.732 -0.7574  1.4243 -0.4965
 5455SOL     OW27823   0.938   1.318   6.855 -0.5049  0.3428  0.0120
 5455SOL    HW127824   1.031   1.297   6.858 -0.4375  0.6350 -0.1147
 5455SOL    HW227825   0.937   1.391   6.916  2.8293  0.4353 -0.0504
 5456SOL     OW27826   2.447   1.637  16.976 -0.1673  0.1524  0.4406
 5456SOL    HW127827   2.414   1.690  16.904  3.7232  0.8540 -0.8514
 5456SOL    HW227828   2.367   1.626  17.027  1.1143 -1.4814  2.0917
 5457SOL     OW27829   4.602   0.696   5.981 -0.5633 -0.0533 -0.2596
 5457SOL    HW127830   4.563   0.758   6.042 -2.7671 -0.2165 -1.5234
 5457SOL    HW227831   4.670   0.740   5.931  0.9044 -0.3775  1.4481
 5458SOL     OW27832   4.459   3.343   5.166  0.3960 -0.4550  0.1693
 5458SOL    HW127833   4.440   3.407   5.235 -1.9358 -0.6970 -0.2601
 5458SOL    HW227834   4.374   3.341   5.122 -1.2161  1.7207  3.1550
 5459SOL     OW27835   3.460   2.552   7.031  0.2605 -0.4805 -0.5402
 5459SOL    HW127836   3.388   2.528   7.089  0.1971 -0.6464 -0.6879
 5459SOL    HW227837   3.470   2.472   6.980 -0.8048 -0.3512 -0.9353
 5460SOL     OW27838   3.473   1.612   7.670 -0.3076  0.0186 -0.5264
 5460SOL    HW127839   3.451   1.699   7.702  0.5877  0.6528 -1.6456
 5460SOL    HW227840   3.504   1.569   7.750  0.1403  2.1244  0.4200
 5461SOL     OW27841   2.569   0.463  11.774 -0.0262 -0.0702 -0.6961
 5461SOL    HW127842   2.598   0.477  11.864  0.9095 -2.4809 -0.6293
 5461SOL    HW227843   2.500   0.397  11.776 -0.8099  0.7985  1.0617
 5462SOL     OW27844   4.659   1.652   2.145 -0.3700  0.7296  0.1148
 5462SOL    HW127845   0.007   1.706   2.177 -0.9328 -0.2675  3.0373
 5462SOL    HW227846   4.691   1.564   2.162 -1.1092  0.2754 -0.8497
 5463SOL     OW27847   0.238   3.603   2.660  0.1887 -0.5532  0.1995
 5463SOL    HW127848   0.195   3.552   2.591  1.4509  2.2230 -2.6494
 5463SOL    HW227849   0.173   3.599   2.730 -0.9496  2.8498 -0.6918
 5464SOL     OW27850   3.389   4.239   8.904 -0.2253  0.4803  0.2032
 5464SOL    HW127851   3.337   4.269   8.830 -1.7476 -1.3474  0.5268
 5464SOL    HW227852   3.319   4.206   8.961 -0.4311 -1.2967 -1.0470
 5465SOL     OW27853   2.407   3.406   1.047 -0.2799 -0.7091  0.3587
 5465SOL    HW127854   2.340   3.339   1.036  1.3858 -2.1027 -1.3445
 5465SOL    HW227855   2.447   3.374   1.128 -0.3615  1.4932  1.2899
 5466SOL     OW27856   0.150   3.674  17.306 -0.4598  0.4579 -0.1209
 5466SOL    HW127857   0.188   3.732  17.371  0.3220  0.4013 -0.5205
 5466SOL    HW227858   0.213   3.602  17.307 -1.2579 -0.2024  2.5267
 5467SOL     OW27859   4.626   2.924  11.020 -0.4635  0.0154 -0.3200
 5467SOL    HW127860   4.632   2.949  10.927  0.1660  1.5668  0.1374
 5467SOL    HW227861   4.650   2.832  11.015 -0.4461 -0.0914  1.9510
 5468SOL     OW27862   1.919   4.128   5.392 -0.0108 -0.4647 -0.1294
 5468SOL    HW127863   1.982   4.057   5.380  0.0894  0.0223 -2.3459
 5468SOL    HW227864   1.846   4.084   5.435  0.3681 -2.2431 -1.3288
 5469SOL     OW27865   3.978   2.202   4.144 -0.3697  0.2524  0.5103
 5469SOL    HW127866   3.892   2.177   4.177 -0.5939 -0.3611 -0.5179
 5469SOL    HW227867   4.001   2.145   4.070 -0.3365  2.9478 -1.5447
 5470SOL     OW27868   1.326   2.108   6.012 -0.0731 -0.1955 -0.0407
 5470SOL    HW127869   1.397   2.172   6.021  1.7574 -2.1628 -0.4730
 5470SOL    HW227870   1.275   2.127   6.091 -0.9502 -2.0328 -0.1666
 5471SOL     OW27871   4.102   0.589   0.414  0.0439  0.1982  0.2014
 5471SOL    HW127872   4.141   0.553   0.334  0.2287 -3.1058  1.7900
 5471SOL    HW227873   4.058   0.664   0.373 -2.7051 -2.1687 -1.1715
 5472SOL     OW27874   2.543   2.251  16.855 -0.3460 -0.4839 -0.1260
 5472SOL    HW127875   2.591   2.254  16.772 -1.6513 -1.3311 -0.9257
 5472SOL    HW227876   2.459   2.234  16.812 -0.3665 -3.3426  1.0608
 5473SOL     OW27877   0.200   1.772  13.282  0.1160 -0.1692 -0.8677
 5473SOL    HW127878   0.162   1.796  13.197  0.4113  0.2939 -0.8701
 5473SOL    HW227879   0.131   1.792  13.346 -0.2466  0.4135 -1.4375
 5474SOL     OW27880   4.692   3.740   3.382  0.1172  0.3108 -0.3404
 5474SOL    HW127881   0.031   3.782   3.325  0.3824  0.2705 -0.0689
 5474SOL    HW227882   4.697   3.798   3.457 -0.8439  1.4419 -1.1472
 5475SOL     OW27883   3.406   3.887   5.892 -0.3093 -0.1671  0.3303
 5475SOL    HW127884   3.449   3.801   5.899 -1.4159 -0.8279 -0.8745
 5475SOL    HW227885   3.440   3.930   5.971  1.1891  0.2814 -0.5478
 5476SOL     OW27886   4.641   0.596  12.938 -0.1425  0.3101 -0.2109
 5476SOL    HW127887   4.701   0.629  12.871 -0.2783 -0.5391 -0.7479
 5476SOL    HW227888   4.562   0.587  12.885 -0.8283  0.1470  0.8441
 5477SOL     OW27889   0.330   4.292   3.369 -0.2921  0.2003  0.2358
 5477SOL    HW127890   0.279   4.295   3.451 -0.7408 -2.2569  0.0279
 5477SOL    HW227891   0.256   4.292   3.307 -0.1857 -1.6108  0.1333
 5478SOL     OW27892   2.581   2.157   2.836 -0.6330  0.4944 -0.6130
 5478SOL    HW127893   2.584   2.063   2.851 -2.7266  0.3231 -1.2126
 5478SOL    HW227894   2.508   2.190   2.890  0.5705  0.2384  1.1673
 5479SOL     OW27895   1.372   4.484  10.641  0.5081 -0.2214  0.4336
 5479SOL    HW127896   1.349   4.569  10.603  0.0956  0.1453  1.5156
 5479SOL    HW227897   1.374   4.513  10.732 -0.2711 -2.4383  1.1478
 5480SOL     OW27898   0.733   4.619   2.656  0.8623  0.2781  0.1595
 5480SOL    HW127899   0.640   4.620   2.633  0.8715  0.9159  0.1554
 5480SOL    HW227900   0.779   4.631   2.573  1.0426  0.6745  0.3176
 5481SOL     OW27901   0.600   4.094   7.886 -0.0375  0.5666  0.2001
 5481SOL    HW127902   0.645   4.110   7.969 -2.5101  0.3736  1.5743
 5481SOL    HW227903   0.663   4.037   7.842  0.1419 -0.1997  1.4707
 5482SOL     OW27904   0.779   3.876  16.725  0.5892  0.3226 -0.4006
 5482SOL    HW127905   0.838   3.843  16.793 -1.1033 -1.1299  0.3632
 5482SOL    HW227906   0.799   3.813  16.655 -1.6302 -0.5538 -0.2305
 5483SOL     OW27907   3.493   2.766   3.032  0.3172 -0.3520  0.5745
 5483SOL    HW127908   3.416   2.812   3.066 -0.5760 -0.9183 -0.6861
 5483SOL    HW227909   3.478   2.678   3.066  1.0127  0.5750  3.2835
 5484SOL     OW27910   4.533   1.113   3.755  0.3331  0.1736 -0.0157
 5484SOL    HW127911   4.517   1.114   3.849 -0.5885  0.3985 -0.1763
 5484SOL    HW227912   4.517   1.204   3.728  2.0617  1.1809  2.3445
 5485SOL     OW27913   3.031   3.260   6.694  0.0697 -0.5171 -0.6371
 5485SOL    HW127914   3.089   3.210   6.637 -0.2307 -0.3505 -1.0885
 5485SOL    HW227915   3.089   3.311   6.750 -0.0055 -2.8979  1.5808
 5486SOL     OW27916   4.196   4.438  11.884  0.3800  0.1404  0.4333
 5486SOL    HW127917   4.223   4.443  11.976 -1.3455 -2.5918  1.0847
 5486SOL    HW227918   4.270   4.476  11.836 -0.8399  1.8435 -0.1106
 5487SOL     OW27919   4.086   3.840   9.983  0.1286  0.0019  0.1870
 5487SOL    HW127920   4.144   3.776   9.944 -0.1177  0.9324 -1.7084
 5487SOL    HW227921   4.001   3.807   9.952 -0.1909  1.5508 -0.6225
 5488SOL     OW27922   0.912   1.110   4.396 -0.2005  0.0824 -0.1317
 5488SOL    HW127923   0.964   1.044   4.443 -0.1635  0.2402  0.0505
 5488SOL    HW227924   0.833   1.062   4.372 -1.2713  0.8971  1.6864
 5489SOL     OW27925   2.669   3.299   7.318 -0.3353 -0.0728  0.6933
 5489SOL    HW127926   2.619   3.366   7.272 -1.5972 -0.0553  2.0784
 5489SOL    HW227927   2.711   3.346   7.390 -1.2609  0.5113  0.8562
 5490SOL     OW27928   0.318   2.717   4.089 -0.2273  0.0952 -0.0818
 5490SOL    HW127929   0.364   2.633   4.093  0.2003  0.3184 -0.3693
 5490SOL    HW227930   0.285   2.708   3.999  0.4803 -0.0719 -0.3289
 5491SOL     OW27931   1.015   3.801  16.845 -0.0979  0.1188  0.2307
 5491SOL    HW127932   1.045   3.825  16.758  0.9863 -1.4041  0.1718
 5491SOL    HW227933   1.092   3.838  16.887  0.0436  0.7587 -0.6046
 5492SOL     OW27934   4.323   4.188  15.134 -0.0872 -0.0508 -0.4154
 5492SOL    HW127935   4.350   4.262  15.079 -0.3969  0.5349  0.2181
 5492SOL    HW227936   4.228   4.197  15.121  0.0347 -0.6481 -1.7128
 5493SOL     OW27937   0.329   1.677   2.537 -0.5126 -0.5821 -0.5982
 5493SOL    HW127938   0.325   1.648   2.628  0.7467 -0.5250 -0.5156
 5493SOL    HW227939   0.333   1.772   2.548 -0.1970 -0.6593 -0.0548
 5494SOL     OW27940   2.716   1.392   2.635  0.3842  0.1270  0.2797
 5494SOL    HW127941   2.631   1.351   2.624  1.2622 -1.4966 -0.3779
 5494SOL    HW227942   2.757   1.388   2.549  2.0899 -2.3648  1.2085
 5495SOL     OW27943   2.930   2.515   8.459  0.4268 -0.0346  0.2921
 5495SOL    HW127944   2.854   2.474   8.500 -0.2007  1.6621  0.7974
 5495SOL    HW227945   2.903   2.605   8.473 -3.0233 -0.5502 -2.9567
 5496SOL     OW27946   1.655   0.794   2.124  0.3373 -0.3524  0.0890
 5496SOL    HW127947   1.593   0.772   2.193 -0.8294  1.2249 -0.4449
 5496SOL    HW227948   1.589   0.843   2.075 -2.0028 -2.5959  1.0379
 5497SOL     OW27949   4.372   3.592   7.980  0.0493 -0.0260 -0.7073
 5497SOL    HW127950   4.340   3.634   7.900  4.6560  1.6138 -1.6848
 5497SOL    HW227951   4.458   3.555   7.959  0.4278 -0.8140  2.2385
 5498SOL     OW27952   1.591   2.595   9.211 -0.2585 -0.3359 -0.0599
 5498SOL    HW127953   1.556   2.601   9.122 -1.8663 -1.7417  0.4746
 5498SOL    HW227954   1.679   2.625   9.192 -0.3986 -0.9570 -1.6750
 5499SOL     OW27955   0.117   2.307   3.432  0.0200  0.6751 -0.4733
 5499SOL    HW127956   0.150   2.336   3.347  1.1373 -1.6867 -0.8366
 5499SOL    HW227957   0.031   2.277   3.400 -0.3026  1.7461 -0.6088
 5500SOL     OW27958   2.498   1.437  16.784  0.5500 -0.3704 -0.5232
 5500SOL    HW127959   2.500   1.429  16.879  0.1539 -0.3066 -0.5103
 5500SOL    HW227960   2.407   1.416  16.765  0.7408 -1.0977 -0.6300
 5501SOL     OW27961   3.339   0.867   5.356  0.2648 -0.4386 -0.1872
 5501SOL    HW127962   3.342   0.923   5.433  0.2662 -0.7913  0.0687
 5501SOL    HW227963   3.314   0.931   5.290  0.8371  1.9193  1.9226
 5502SOL     OW27964   4.488   2.789   2.654 -0.5034  0.2321  0.6200
 5502SOL    HW127965   4.495   2.704   2.609 -2.0347  0.6002 -0.3028
 5502SOL    HW227966   4.571   2.789   2.702 -0.9692 -1.7209  1.4346
 5503SOL     OW27967   2.008   2.052   9.208  0.3493 -0.6980  0.0576
 5503SOL    HW127968   1.957   2.127   9.177 -0.6325 -1.8830 -1.1641
 5503SOL    HW227969   2.072   2.098   9.262  0.2281  0.3791 -0.7289
 5504SOL     OW27970   1.770   1.345  15.646  0.1206  0.5996  0.8280
 5504SOL    HW127971   1.679   1.372  15.660 -0.2092  0.1041 -0.3574
 5504SOL    HW227972   1.797   1.270  15.700 -0.3700  0.0950  0.3676
 5505SOL     OW27973   2.756   1.787   8.532 -0.2258  0.0540 -0.6335
 5505SOL    HW127974   2.834   1.786   8.588 -1.5112 -1.4740  1.0982
 5505SOL    HW227975   2.792   1.798   8.444  0.1841  2.3284 -0.1711
 5506SOL     OW27976   4.321   4.450   9.877  0.4287  0.2812  0.1410
 5506SOL    HW127977   4.264   4.389   9.828  0.5324  0.8384 -0.6743
 5506SOL    HW227978   4.403   4.403   9.865 -1.4560 -3.0681  0.0613
 5507SOL     OW27979   4.550   4.139  13.321  0.4003  0.5391  0.3448
 5507SOL    HW127980   4.455   4.145  13.332  0.3725  0.6943  0.0196
 5507SOL    HW227981   4.551   4.101  13.233 -3.6200  1.7411 -0.1983
 5508SOL     OW27982   2.357   0.455   5.620 -0.0676 -0.3491 -0.3927
 5508SOL    HW127983   2.334   0.544   5.646 -2.2257 -0.4893 -1.7960
 5508SOL    HW227984   2.446   0.446   5.654 -0.0149  0.2780 -0.3577
 5509SOL     OW27985   3.421   1.867   3.262 -0.1958 -0.3007  0.0837
 5509SOL    HW127986   3.473   1.842   3.338  1.4744 -0.5929 -1.1531
 5509SOL    HW227987   3.476   1.851   3.186 -0.0438 -1.8988  0.5242
 5510SOL     OW27988   0.307   2.351   3.600 -0.0878 -0.1554 -0.2099
 5510SOL    HW127989   0.232   2.308   3.561  0.1663  1.0076 -1.9919
 5510SOL    HW227990   0.287   2.334   3.692  0.7646 -0.9756 -0.1815
 5511SOL     OW27991   0.311   0.054   7.412 -0.0298 -0.3121 -0.0069
 5511SOL    HW127992   0.337   0.086   7.326 -1.8569  0.1506 -0.3919
 5511SOL    HW227993   0.296   4.689   7.385 -1.9334  0.1351 -0.4518
 5512SOL     OW27994   1.883   1.577   7.617 -0.0216  0.6724 -0.6164
 5512SOL    HW127995   1.975   1.602   7.621  0.5406 -1.3408 -1.1308
 5512SOL    HW227996   1.868   1.588   7.523  1.1252 -0.2727 -0.9101
 5513SOL     OW27997   2.832   2.025   3.655 -0.1410  0.2841 -0.1299
 5513SOL    HW127998   2.779   1.972   3.715  0.4908  0.6423  0.7424
 5513SOL    HW227999   2.881   2.077   3.719  3.4138 -0.3069 -2.3429
 5514SOL     OW28000   3.932   1.420   9.481 -0.8374  0.5046 -0.5004
 5514SOL    HW128001   3.920   1.325   9.470  1.0353  0.1572  0.2586
 5514SOL    HW228002   3.906   1.430   9.573 -0.3007 -0.2776 -0.2556
 5515SOL     OW28003   2.857   4.361   1.824  0.2602 -0.7654 -0.8019
 5515SOL    HW128004   2.824   4.291   1.881  1.5941 -0.4412  0.3778
 5515SOL    HW228005   2.776   4.394   1.786 -1.0976  0.5353  3.1812
 5516SOL     OW28006   3.468   4.205  17.260 -0.1685 -0.2358  0.2881
 5516SOL    HW128007   3.462   4.179  17.168 -0.1474  0.8386 -0.0121
 5516SOL    HW228008   3.563   4.209  17.265 -0.2887  1.6181  1.2484
 5517SOL     OW28009   1.499   1.767   4.058  0.0711  0.5007  0.4743
 5517SOL    HW128010   1.406   1.762   4.082 -0.1892  0.4711 -0.5303
 5517SOL    HW228011   1.518   1.689   4.006  1.1530  0.4430  0.9550
 5518SOL     OW28012   1.975   1.311   5.453 -0.8929  0.1745  0.3370
 5518SOL    HW128013   1.977   1.215   5.451 -1.2156  0.2190 -3.3094
 5518SOL    HW228014   1.883   1.331   5.469 -1.5281 -2.1747 -0.3042
 5519SOL     OW28015   4.223   3.827   6.744 -0.0043 -0.4303  0.2630
 5519SOL    HW128016   4.153   3.859   6.686 -1.5554 -0.4666  2.1095
 5519SOL    HW228017   4.171   3.771   6.801  1.0196 -1.1678  0.4452
 5520SOL     OW28018   1.021   0.990   3.359 -0.0347 -0.0943 -0.1928
 5520SOL    HW128019   0.962   0.934   3.310 -2.9352  4.0187 -1.3767
 5520SOL    HW228020   1.072   0.920   3.399  0.9510 -0.9180 -2.8719
 5521SOL     OW28021   1.560   1.828   6.559 -0.7234 -0.0478  0.2786
 5521SOL    HW128022   1.593   1.891   6.624 -1.0310 -0.5075  0.8831
 5521SOL    HW228023   1.528   1.883   6.488 -0.2534  0.6468  0.6036
 5522SOL     OW28024   4.378   2.439  11.915  0.3117  0.4664  0.5081
 5522SOL    HW128025   4.323   2.509  11.950  0.0287 -0.0922  1.1682
 5522SOL    HW228026   4.443   2.488  11.865 -0.6736 -1.2397 -2.4012
 5523SOL     OW28027   3.992   1.233  12.766  0.7875 -0.6382 -0.0602
 5523SOL    HW128028   3.934   1.301  12.730  0.2774 -0.1426  1.7266
 5523SOL    HW228029   4.078   1.274  12.773  1.0624 -1.4021  0.9128
 5524SOL     OW28030   0.938   3.678  14.835 -0.7981 -0.2491  0.1371
 5524SOL    HW128031   1.027   3.650  14.818 -0.3131  0.7492  0.9897
 5524SOL    HW228032   0.952   3.716  14.922  1.4476  1.7178 -1.0994
 5525SOL     OW28033   4.295   4.317   1.887 -0.2069  0.3432  0.3946
 5525SOL    HW128034   4.221   4.347   1.941  0.1924  0.1028  1.0747
 5525SOL    HW228035   4.290   4.226   1.914 -2.3706  0.8644  1.7785
 5526SOL     OW28036   4.264   2.933   6.696  0.3737  0.5584  0.3128
 5526SOL    HW128037   4.281   2.853   6.745 -1.3148 -1.1599 -1.8648
 5526SOL    HW228038   4.350   2.944   6.656  0.6275 -2.6757 -0.0213
 5527SOL     OW28039   1.890   2.124  10.269  0.6044  0.6556  0.1828
 5527SOL    HW128040   1.837   2.080  10.335 -1.0579  3.4938  0.7129
 5527SOL    HW228041   1.842   2.100  10.189  2.1109  0.2754 -0.6079
 5528SOL     OW28042   2.975   4.150   1.455 -0.7006  0.1184 -0.0055
 5528SOL    HW128043   2.932   4.167   1.371  0.6027  0.1122 -0.6690
 5528SOL    HW228044   2.973   4.235   1.500  1.6476  0.3766 -0.3582
 5529SOL     OW28045   2.661   2.531   6.928  0.5622  0.3779  0.3104
 5529SOL    HW128046   2.631   2.577   6.849 -0.2650 -0.5641  0.0801
 5529SOL    HW228047   2.590   2.468   6.945 -0.4924  1.2989 -0.6428
 5530SOL     OW28048   1.709   2.021   5.170 -0.1565  0.0292 -0.6274
 5530SOL    HW128049   1.805   2.012   5.171 -0.4537 -2.9472  0.7734
 5530SOL    HW228050   1.683   2.003   5.079  1.4139 -0.7799 -0.9182
 5531SOL     OW28051   0.383   2.601   8.368  0.6575 -0.1461  0.3299
 5531SOL    HW128052   0.369   2.628   8.459  0.0335 -1.0506  0.5095
 5531SOL    HW228053   0.476   2.623   8.358  0.0693  2.8456  1.6100
 5532SOL     OW28054   1.264   3.557   4.573 -1.0638 -0.5669 -0.1166
 5532SOL    HW128055   1.281   3.638   4.622  0.4870 -0.5639 -0.6488
 5532SOL    HW228056   1.202   3.519   4.636 -2.5975 -0.8998 -1.8510
 5533SOL     OW28057   2.693   3.658   6.328  0.8114 -0.3533 -0.0109
 5533SOL    HW128058   2.712   3.752   6.337 -0.0841  0.1914 -3.6722
 5533SOL    HW228059   2.608   3.641   6.366  0.5332  0.0334 -0.4512
 5534SOL     OW28060   2.169   2.950  12.638  0.3036 -0.1979  0.0761
 5534SOL    HW128061   2.133   2.915  12.719 -0.2696  1.0758  0.3686
 5534SOL    HW228062   2.096   2.930  12.580  0.5171 -0.0731 -0.2392
 5535SOL     OW28063   3.583   3.122   8.824 -0.5637 -0.8486  0.2182
 5535SOL    HW128064   3.562   3.212   8.851  3.0961  0.8702 -2.6202
 5535SOL    HW228065   3.596   3.130   8.730  0.8780  0.0314  0.4799
 5536SOL     OW28066   4.065   2.943  13.411 -0.3242 -0.7233 -0.2738
 5536SOL    HW128067   4.020   2.928  13.329 -2.6046 -0.6745  0.9740
 5536SOL    HW228068   4.023   2.879  13.469  0.0758 -1.6703 -1.0201
 5537SOL     OW28069   4.654   3.446   4.968 -0.4117  0.3545 -0.4478
 5537SOL    HW128070   4.698   3.361   4.965 -1.2954 -0.1204  0.0620
 5537SOL    HW228071   4.574   3.427   5.017 -0.5512  0.3165 -0.6917
 5538SOL     OW28072   2.783   1.669   1.862 -0.0088 -0.0920  0.3024
 5538SOL    HW128073   2.773   1.594   1.921 -1.5135  1.3262  1.8544
 5538SOL    HW228074   2.764   1.624   1.779 -0.6291  1.8887 -0.6340
 5539SOL     OW28075   3.515   0.962   1.960 -0.0755 -0.4141 -0.2505
 5539SOL    HW128076   3.477   1.049   1.968  1.2295  0.1703 -0.3022
 5539SOL    HW228077   3.583   0.953   2.027 -1.7643  1.1647  1.6441
 5540SOL     OW28078   3.186   3.119   6.486  0.1912 -0.1864 -0.1979
 5540SOL    HW128079   3.133   3.051   6.443 -1.2316  0.1554  1.0270
 5540SOL    HW228080   3.167   3.192   6.427  1.5431  0.4624  0.1892
 5541SOL     OW28081   0.226   0.090   4.000  1.0630 -0.0693 -0.1053
 5541SOL    HW128082   0.221   0.140   4.081 -1.6232  0.5460 -0.6646
 5541SOL    HW228083   0.183   0.145   3.935  1.2345  1.4150  1.0268
 5542SOL     OW28084   2.616   1.058   4.485  0.3551  0.4994 -0.3527
 5542SOL    HW128085   2.578   1.112   4.416 -0.4903 -0.3141 -0.5302
 5542SOL    HW228086   2.707   1.044   4.460  0.1282 -2.2687  0.3583
 5543SOL     OW28087   1.459   2.914   5.430 -0.1227 -0.6011 -0.0547
 5543SOL    HW128088   1.401   2.917   5.354 -1.6260  0.1540  1.1210
 5543SOL    HW228089   1.488   2.823   5.431  0.9664 -0.2333  1.6786
 5544SOL     OW28090   2.021   0.469   0.909  0.0891 -0.6329  0.2830
 5544SOL    HW128091   2.072   0.516   0.974 -1.6428  0.8903  0.5171
 5544SOL    HW228092   1.944   0.525   0.913 -0.5133 -1.4221 -0.3394
 5545SOL     OW28093   3.027   3.403   3.183  0.6032  0.0757 -0.2608
 5545SOL    HW128094   3.000   3.490   3.212  1.4750  0.4458 -0.5432
 5545SOL    HW228095   3.119   3.423   3.164  0.6257  0.2254  0.0039
 5546SOL     OW28096   2.247   1.365  16.729  0.2390 -0.5101  0.1771
 5546SOL    HW128097   2.181   1.411  16.781  0.0694 -1.1044  0.4828
 5546SOL    HW228098   2.202   1.356  16.645  3.1134  0.4243 -1.4653
 5547SOL     OW28099   2.783   4.420   7.712 -0.3421 -0.2818 -0.0290
 5547SOL    HW128100   2.727   4.389   7.783  0.7901  1.3128  1.5802
 5547SOL    HW228101   2.731   4.479   7.657  0.9313  0.7285 -0.1603
 5548SOL     OW28102   1.157   1.177  11.462  0.3336 -0.4537  0.1331
 5548SOL    HW128103   1.197   1.245  11.518  2.7569 -1.8517  0.0685
 5548SOL    HW228104   1.070   1.217  11.451  0.6994  0.1271 -0.6585
 5549SOL     OW28105   4.675   1.072   3.512  0.0253  0.3126  0.3724
 5549SOL    HW128106   4.621   1.076   3.591  0.0323 -1.0257  0.4375
 5549SOL    HW228107   0.039   1.090   3.544  0.2671  1.2826 -0.8334
 5550SOL     OW28108   0.398   1.068   3.434 -0.4346 -0.0819  0.3070
 5550SOL    HW128109   0.320   1.103   3.476 -0.3529  0.3332  0.1098
 5550SOL    HW228110   0.464   1.121   3.478 -0.0192  2.6263 -3.5919
 5551SOL     OW28111   3.057   3.151   7.382  0.0377 -0.4200 -0.1183
 5551SOL    HW128112   3.138   3.140   7.431  1.1024  1.4761 -1.4289
 5551SOL    HW228113   3.083   3.152   7.290  0.0846  1.1190 -0.0936
 5552SOL     OW28114   1.667   0.511   7.664  0.0721  0.2284 -0.4923
 5552SOL    HW128115   1.701   0.424   7.682 -0.2995  0.0315 -0.7408
 5552SOL    HW228116   1.588   0.501   7.718  1.2818 -0.6183  1.1248
 5553SOL     OW28117   3.197   0.563   8.771 -0.0543  0.5101  0.4722
 5553SOL    HW128118   3.126   0.582   8.832  0.8775  0.0351  1.7264
 5553SOL    HW228119   3.204   0.467   8.763 -0.5343  0.4327  0.9522
 5554SOL     OW28120   3.560   3.310   5.946 -0.0611  0.5140  0.5500
 5554SOL    HW128121   3.527   3.304   6.036  0.7293  1.8639  0.9305
 5554SOL    HW228122   3.502   3.374   5.906  1.0851  0.0080 -1.9041
 5555SOL     OW28123   3.464   2.573  12.434 -0.1702  0.7020 -0.3442
 5555SOL    HW128124   3.531   2.543  12.495  0.2549  1.1950 -0.5635
 5555SOL    HW228125   3.381   2.574  12.482 -0.5411 -2.1300 -0.9290
 5556SOL     OW28126   3.633   1.965  17.383  0.0065 -0.2017 -0.0356
 5556SOL    HW128127   3.564   1.987  17.446 -0.4529  0.1738 -0.6726
 5556SOL    HW228128   3.646   1.875  17.414 -0.0654 -0.9842 -2.2813
 5557SOL     OW28129   4.166   3.644   6.437 -0.0776  0.3286 -0.4266
 5557SOL    HW128130   4.091   3.692   6.472  0.2578 -0.2245  1.0463
 5557SOL    HW228131   4.206   3.718   6.392  2.4411 -1.7226 -1.5584
 5558SOL     OW28132   4.070   3.639  12.008  0.1959 -0.1962  0.0010
 5558SOL    HW128133   4.016   3.705  12.052 -0.5634 -1.5010  1.0223
 5558SOL    HW228134   4.140   3.692  11.969  0.6827 -1.0880 -0.3450
 5559SOL     OW28135   1.894   2.936   8.055  0.2873  0.0604  0.5989
 5559SOL    HW128136   1.825   2.990   8.016  0.3306  0.5224  1.1574
 5559SOL    HW228137   1.949   2.998   8.104 -1.4522  1.3821  0.8895
 5560SOL     OW28138   2.901   3.946   1.612  0.2116 -0.2993  0.0559
 5560SOL    HW128139   2.825   3.933   1.555 -0.5325  0.2422  0.9182
 5560SOL    HW228140   2.930   4.028   1.573 -3.4588  0.5726 -0.8823
 5561SOL     OW28141   4.673   2.565   8.906  0.7321  0.1560  0.1502
 5561SOL    HW128142   4.655   2.482   8.861 -1.6455 -0.1288  1.5825
 5561SOL    HW228143   0.036   2.587   8.876  0.5800 -1.0427 -1.1775
 5562SOL     OW28144   2.371   2.252   4.616  0.1534 -0.2836  0.3798
 5562SOL    HW128145   2.383   2.223   4.525  1.7933 -0.3295  0.6045
 5562SOL    HW228146   2.456   2.256   4.659  0.2281 -0.9218  0.2988
 5563SOL     OW28147   4.330   4.712   5.228 -0.3898 -0.5508 -0.2773
 5563SOL    HW128148   4.363   4.643   5.286  1.6461  0.4070 -0.3006
 5563SOL    HW228149   4.235   4.704   5.228 -0.4878  0.6000  0.1793
 5564SOL     OW28150   0.281   1.162  13.071 -0.0982  0.0382 -0.1709
 5564SOL    HW128151   0.368   1.132  13.043  0.1363  0.7628 -0.2281
 5564SOL    HW228152   0.243   1.214  13.001 -0.1889  1.8762  1.2329
 5565SOL     OW28153   3.380   1.193   0.573 -0.7591 -0.0793 -0.8125
 5565SOL    HW128154   3.340   1.277   0.550  0.4618 -0.1479 -3.2226
 5565SOL    HW228155   3.354   1.196   0.665 -0.0841  0.0283 -0.6229
 5566SOL     OW28156   1.193   3.846   0.234 -0.4224 -0.5215  0.0017
 5566SOL    HW128157   1.223   3.937   0.229  0.4760 -0.9181 -1.8375
 5566SOL    HW228158   1.131   3.836   0.162 -0.3558  1.4615 -0.3475
 5567SOL     OW28159   4.258   2.437   2.697 -0.5037  0.0139 -0.0784
 5567SOL    HW128160   4.239   2.348   2.668 -1.0790 -0.1919  0.8974
 5567SOL    HW228161   4.199   2.489   2.643  0.7769  1.8555  0.2636
 5568SOL     OW28162   4.302   3.425   4.498 -0.7031 -0.2062 -0.0456
 5568SOL    HW128163   4.276   3.438   4.589  1.8725  1.3304  0.4882
 5568SOL    HW228164   4.224   3.458   4.454  0.8594  0.5919 -2.2150
 5569SOL     OW28165   0.345   1.674   6.182  0.1290 -0.3615 -0.0828
 5569SOL    HW128166   0.382   1.593   6.148 -1.5240 -1.0246 -0.3411
 5569SOL    HW228167   0.333   1.730   6.106 -0.3454 -0.7922 -0.3270
 5570SOL     OW28168   1.750   1.680   3.798 -0.2211  0.0494 -0.2722
 5570SOL    HW128169   1.762   1.774   3.799 -2.7235  0.3540  0.4267
 5570SOL    HW228170   1.655   1.678   3.785 -0.2345 -1.4902  0.0342
 5571SOL     OW28171   1.373   2.893   0.317  0.1003  0.2031  0.2444
 5571SOL    HW128172   1.435   2.913   0.248 -0.4283 -1.1001 -0.6021
 5571SOL    HW228173   1.312   2.845   0.262  2.7313 -2.2427 -0.5315
 5572SOL     OW28174   0.014   2.870   4.374 -0.8763  0.0745  0.4470
 5572SOL    HW128175   0.078   2.940   4.365 -0.8868 -0.1680 -1.3828
 5572SOL    HW228176   4.661   2.922   4.393 -0.6414  0.2145  1.0538
 5573SOL     OW28177   1.034   3.614   0.571 -0.3653  0.6717 -0.2907
 5573SOL    HW128178   0.991   3.529   0.566 -0.2004  0.6997 -2.2451
 5573SOL    HW228179   1.059   3.599   0.662  0.2977  0.7605 -0.4596
 5574SOL     OW28180   4.491   1.712   6.708 -0.2262  0.1521  0.1658
 5574SOL    HW128181   4.407   1.677   6.677 -1.3086  2.0586  0.9103
 5574SOL    HW228182   4.553   1.676   6.645  0.2424 -2.3908  2.1134
 5575SOL     OW28183   4.556   0.433  16.513 -0.6422 -0.3912  0.0661
 5575SOL    HW128184   4.543   0.527  16.513 -1.2168 -0.4540  1.6551
 5575SOL    HW228185   4.648   0.418  16.535 -0.8412 -0.0435  1.1436
 5576SOL     OW28186   2.909   3.242  13.139  0.2309  0.4063 -0.1409
 5576SOL    HW128187   2.921   3.227  13.045  0.0741  1.0352 -0.2639
 5576SOL    HW228188   2.983   3.297  13.164  1.1960 -1.5254  1.1953
 5577SOL     OW28189   4.306   1.869   5.383 -0.5571 -0.1941  0.3641
 5577SOL    HW128190   4.237   1.935   5.373 -0.1544  0.2618  0.5714
 5577SOL    HW228191   4.333   1.868   5.291  3.0951  0.8464  1.4060
 5578SOL     OW28192   0.975   3.922  15.003 -0.7122  0.1565  0.2828
 5578SOL    HW128193   1.067   3.945  14.989 -0.8236  0.4807  0.0756
 5578SOL    HW228194   0.990   3.853  15.067  0.3663  1.4704  1.4589
 5579SOL     OW28195   0.256   1.494   4.711 -0.0842  0.3813  0.1893
 5579SOL    HW128196   0.286   1.583   4.732 -2.1326  1.1382 -0.1073
 5579SOL    HW228197   0.322   1.438   4.752  1.4202  0.5219 -2.0475
 5580SOL     OW28198   1.256   2.129   6.302 -0.3133  0.1609 -0.0953
 5580SOL    HW128199   1.232   2.056   6.359 -2.0196 -0.0342 -1.0391
 5580SOL    HW228200   1.167   2.148   6.272  0.3285  0.6238 -1.6788
 5581SOL     OW28201   3.479   3.062  14.167 -0.2921  0.0154  0.1556
 5581SOL    HW128202   3.525   3.122  14.226  1.1637 -0.3442 -0.6273
 5581SOL    HW228203   3.409   3.022  14.219 -1.1431  2.5084  0.9112
 5582SOL     OW28204   3.963   2.699   4.591  0.2441  0.0801  0.8947
 5582SOL    HW128205   4.032   2.744   4.544  1.0077  0.2441  2.1689
 5582SOL    HW228206   3.888   2.696   4.531  1.6646 -1.7481 -0.7854
 5583SOL     OW28207   3.048   2.491   6.111  0.3035  0.5276  0.9862
 5583SOL    HW128208   3.065   2.583   6.131 -2.2034  0.8525  1.5305
 5583SOL    HW228209   2.970   2.483   6.166 -1.1904  0.2259 -1.1882
 5584SOL     OW28210   2.517   4.118   9.153 -0.1138 -0.0598 -0.2742
 5584SOL    HW128211   2.603   4.094   9.189 -0.1951 -1.4920 -1.0466
 5584SOL    HW228212   2.492   4.174   9.227  1.4118 -0.3736  0.4880
 5585SOL     OW28213   4.108   1.208   4.905 -0.6282  0.3573 -0.4360
 5585SOL    HW128214   4.111   1.121   4.946  2.5008  1.7672  2.2714
 5585SOL    HW228215   4.200   1.229   4.920  0.0339 -2.1824 -0.8465
 5586SOL     OW28216   0.418   4.257  11.721  0.2565 -0.4420  0.0755
 5586SOL    HW128217   0.489   4.304  11.678  0.1210 -2.3514 -2.1826
 5586SOL    HW228218   0.444   4.282  11.810 -2.2727  0.1425  0.6747
 5587SOL     OW28219   0.959   2.858   4.528  0.3193 -0.3314 -0.4045
 5587SOL    HW128220   0.870   2.862   4.562 -0.4465  0.1530 -2.4186
 5587SOL    HW228221   1.002   2.804   4.594 -0.0693  0.1846  0.2623
 5588SOL     OW28222   4.509   2.543   9.796 -0.2347 -0.1878  0.1009
 5588SOL    HW128223   4.415   2.526   9.795  0.3089 -2.9313 -1.8331
 5588SOL    HW228224   4.540   2.460   9.831  0.1496  1.0423  2.7026
 5589SOL     OW28225   4.265   3.230   7.804 -0.2525  0.1659 -0.2007
 5589SOL    HW128226   4.226   3.227   7.891 -1.8908 -0.7725 -0.9800
 5589SOL    HW228227   4.315   3.310   7.822  0.2030 -0.2934  0.5926
 5590SOL     OW28228   0.945   3.611  10.162  0.3503  0.4212  0.1212
 5590SOL    HW128229   0.869   3.631  10.217 -1.1048 -1.5205 -1.2111
 5590SOL    HW228230   0.961   3.694  10.116  1.9238  0.3629  0.5774
 5591SOL     OW28231   0.552   1.069  11.123 -0.0847 -0.2164 -0.6144
 5591SOL    HW128232   0.465   1.053  11.162 -0.0969 -2.4384 -1.5551
 5591SOL    HW228233   0.621   1.037  11.180  0.0169  1.4818  0.2156
 5592SOL     OW28234   2.919   3.039   0.506 -0.0771 -0.1594  0.0726
 5592SOL    HW128235   3.006   3.026   0.544 -0.3326  0.7390  0.9424
 5592SOL    HW228236   2.875   2.980   0.567  0.2600 -1.2114 -0.6940
 5593SOL     OW28237   0.388   1.829  14.406 -0.0584  0.8365  0.3693
 5593SOL    HW128238   0.410   1.869  14.491  2.0651  1.7149 -0.5799
 5593SOL    HW228239   0.475   1.795  14.384 -1.1842 -1.6825 -0.1198
 5594SOL     OW28240   4.025   1.636   5.762  0.1292  0.6416  0.6570
 5594SOL    HW128241   4.085   1.682   5.821 -0.4598  3.1159 -0.6763
 5594SOL    HW228242   3.977   1.709   5.723  0.5229  0.6744  0.2291
 5595SOL     OW28243   4.496   2.006  11.662 -0.1429  0.4196 -0.5563
 5595SOL    HW128244   4.501   2.085  11.716 -2.7867  0.8891 -0.9867
 5595SOL    HW228245   4.539   1.941  11.717  0.0243  0.6889 -0.3669
 5596SOL     OW28246   2.159   2.078  11.215  0.2402  0.0157 -0.4405
 5596SOL    HW128247   2.125   2.149  11.160 -0.1355  0.2447  0.0859
 5596SOL    HW228248   2.133   2.098  11.305 -0.4011 -1.1427 -0.3783
 5597SOL     OW28249   2.599   4.386  12.960 -0.1149 -0.0040 -0.0115
 5597SOL    HW128250   2.668   4.444  12.927 -0.3662  0.3313  0.0485
 5597SOL    HW228251   2.637   4.327  13.025 -0.6455 -2.5342 -2.0199
 5598SOL     OW28252   2.596   0.438   1.683 -0.5618 -0.3728  0.1929
 5598SOL    HW128253   2.672   0.496   1.672  0.7731 -1.9035  1.2676
 5598SOL    HW228254   2.638   0.361   1.722 -0.5588 -1.6196 -2.2376
 5599SOL     OW28255   2.985   0.257  14.291 -0.0006 -0.9817  0.9656
 5599SOL    HW128256   3.029   0.254  14.376 -0.3621 -1.3028  1.1386
 5599SOL    HW228257   3.057   0.224  14.236 -0.9075  2.0410 -2.0249
 5600SOL     OW28258   0.687   2.338   0.846 -0.2921 -0.3417 -0.0594
 5600SOL    HW128259   0.714   2.420   0.887 -1.4129 -0.0124  0.0166
 5600SOL    HW228260   0.768   2.314   0.800  0.6637  0.3950  1.2291
 5601SOL     OW28261   2.669   3.175   7.934 -0.3727  0.4942 -0.0967
 5601SOL    HW128262   2.589   3.196   7.982 -0.8093 -2.5085  0.5312
 5601SOL    HW228263   2.716   3.256   7.947 -2.9957  2.0007  0.0636
 5602SOL     OW28264   3.172   3.059  14.016 -0.0485 -0.5636 -0.3392
 5602SOL    HW128265   3.233   3.131  13.999  0.1372 -1.1307 -2.0027
 5602SOL    HW228266   3.200   3.031  14.103 -2.7777  0.4789  0.8606
 5603SOL     OW28267   4.077   1.780   6.398 -0.3077 -0.2170 -0.3616
 5603SOL    HW128268   4.039   1.774   6.486 -1.4234  0.2906 -0.8039
 5603SOL    HW228269   4.134   1.704   6.395 -0.1228 -0.2226  2.5475
 5604SOL     OW28270   4.137   3.441   4.246 -0.0761 -0.8937  0.3416
 5604SOL    HW128271   4.097   3.488   4.319 -0.3876 -1.2836  0.4218
 5604SOL    HW228272   4.066   3.408   4.192 -1.6418  1.0240  1.2447
 5605SOL     OW28273   1.374   2.285   9.606 -0.8028  0.3756 -0.0413
 5605SOL    HW128274   1.368   2.354   9.541  2.0673  0.6126 -0.0303
 5605SOL    HW228275   1.429   2.219   9.564  0.4026  1.2985  0.1046
 5606SOL     OW28276   0.436   1.790   6.423  0.5335  0.0569 -0.0050
 5606SOL    HW128277   0.356   1.781   6.474  0.9288 -1.0113  0.4263
 5606SOL    HW228278   0.412   1.752   6.339 -2.2839 -1.5411  1.5288
 5607SOL     OW28279   3.968   2.936   8.873  0.0557 -0.2002 -0.7201
 5607SOL    HW128280   3.888   2.960   8.919  0.3616  1.2064 -0.9360
 5607SOL    HW228281   3.957   2.984   8.791  2.5903  4.0114  1.3902
 5608SOL     OW28282   3.660   4.683  10.027  0.1820  0.0599  0.0564
 5608SOL    HW128283   3.696   0.046  10.020 -2.8296  1.0209 -3.8056
 5608SOL    HW228284   3.743   4.635  10.027  0.9296  1.3477 -0.2355
 5609SOL     OW28285   3.381   1.585   3.437 -0.2030  0.2702 -0.0637
 5609SOL    HW128286   3.342   1.666   3.406 -0.1459 -0.0777 -1.0307
 5609SOL    HW228287   3.475   1.606   3.438  0.0981 -1.0345 -0.5097
 5610SOL     OW28288   4.114   3.301   7.286  0.8208  0.1918 -0.4132
 5610SOL    HW128289   4.038   3.345   7.324  2.1998  2.0485  0.2174
 5610SOL    HW228290   4.144   3.366   7.223 -0.8863  0.6744 -0.7411
 5611SOL     OW28291   0.647   1.446   3.781 -0.3195 -0.8198 -0.0083
 5611SOL    HW128292   0.613   1.535   3.772  0.0237 -0.5317  1.5671
 5611SOL    HW228293   0.743   1.450   3.784 -0.3808  0.5032  0.3029
 5612SOL     OW28294   2.566   2.738   5.124 -0.2075  0.2277  0.0039
 5612SOL    HW128295   2.476   2.729   5.092 -0.2841  0.3112  0.2007
 5612SOL    HW228296   2.590   2.828   5.101 -3.4649  1.2593  0.6889
 5613SOL     OW28297   0.145   4.352   5.238 -0.1664  0.3364 -0.5722
 5613SOL    HW128298   0.118   4.443   5.251 -1.8772 -0.1812 -0.5157
 5613SOL    HW228299   0.236   4.357   5.268 -0.8724 -0.9298  1.7794
 5614SOL     OW28300   3.410   3.457  15.036 -0.2452 -0.4616  0.2561
 5614SOL    HW128301   3.343   3.496  15.093  0.8343  1.0116  0.5117
 5614SOL    HW228302   3.424   3.371  15.077  3.3749  0.1219  0.2140
 5615SOL     OW28303   4.490   2.982  14.743 -0.1404  0.6770  0.1696
 5615SOL    HW128304   4.468   3.050  14.807 -1.5395 -1.3346  1.8197
 5615SOL    HW228305   4.581   2.960  14.762  0.2986  2.5292  0.2348
 5616SOL     OW28306   0.144   2.716   7.043  0.2890 -0.3047  0.0034
 5616SOL    HW128307   0.152   2.639   7.100 -1.2696 -0.3699  0.1208
 5616SOL    HW228308   0.049   2.726   7.037  0.3517  0.2703 -0.0752
 5617SOL     OW28309   0.087   1.901  13.068  0.5916 -0.3681  0.5407
 5617SOL    HW128310   0.113   1.993  13.062 -0.1914  0.0224  3.3013
 5617SOL    HW228311   4.719   1.907  13.045  1.0185  2.7491 -0.3191
 5618SOL     OW28312   1.626   4.171   3.287 -0.1865  0.2918 -0.2597
 5618SOL    HW128313   1.614   4.126   3.370 -0.1468  1.6556  0.4879
 5618SOL    HW228314   1.622   4.096   3.228 -1.0120  0.4480 -0.4027
 5619SOL     OW28315   0.357   4.259   2.018 -0.2241 -0.0071 -0.2977
 5619SOL    HW128316   0.364   4.191   1.950 -0.2537 -0.6031  0.2936
 5619SOL    HW228317   0.365   4.206   2.097 -0.9173 -1.1744 -0.9972
 5620SOL     OW28318   2.244   0.116   0.503  0.5904  0.0443  0.5363
 5620SOL    HW128319   2.309   0.185   0.487  0.0005  0.3536 -0.5107
 5620SOL    HW228320   2.163   0.149   0.465  2.1403  2.0866 -1.0055
 5621SOL     OW28321   3.917   4.351   9.495 -0.2787 -0.2165  0.4458
 5621SOL    HW128322   3.886   4.435   9.529  0.6764  0.0691  0.6125
 5621SOL    HW228323   3.845   4.331   9.435 -0.6792 -0.7629  1.1025
 5622SOL     OW28324   3.548   1.217  13.643 -0.2143 -0.7563 -0.5036
 5622SOL    HW128325   3.483   1.196  13.576  1.0598  0.2604 -2.0707
 5622SOL    HW228326   3.624   1.186  13.593  1.1173  0.5515  0.7215
 5623SOL     OW28327   2.564   4.438   8.446  0.2077  0.0603 -0.3520
 5623SOL    HW128328   2.492   4.386   8.483 -0.2111  0.2584 -0.8925
 5623SOL    HW228329   2.526   4.526   8.446  2.6441  1.1044 -0.2942
 5624SOL     OW28330   2.246   4.072  14.955  0.0505 -0.0011  0.2630
 5624SOL    HW128331   2.269   4.050  15.045 -0.2803  2.0942  0.8770
 5624SOL    HW228332   2.233   4.167  14.961 -0.3885 -0.1208  1.2417
 5625SOL     OW28333   3.080   0.942   4.792 -0.1660 -0.1210 -0.4414
 5625SOL    HW128334   2.990   0.975   4.791  1.0783  3.2578  0.3229
 5625SOL    HW228335   3.074   0.861   4.741 -1.5628 -1.0913  1.2595
 5626SOL     OW28336   4.543   1.551   7.351 -0.2112 -0.5216 -0.1680
 5626SOL    HW128337   4.467   1.605   7.329  1.0438  1.2458 -0.1970
 5626SOL    HW228338   4.604   1.610   7.307 -0.1566 -0.7758 -0.4322
 5627SOL     OW28339   4.482   4.024   4.341 -0.1888  0.4580  1.0466
 5627SOL    HW128340   4.397   4.004   4.303  0.3261  1.2188 -0.5002
 5627SOL    HW228341   4.537   4.051   4.268  1.9128  1.1518  2.8727
 5628SOL     OW28342   2.883   1.535  13.294  0.7918  0.1951  0.2460
 5628SOL    HW128343   2.937   1.541  13.216  1.2095 -3.0131  0.2921
 5628SOL    HW228344   2.806   1.583  13.264  1.3983 -1.5543 -4.0701
 5629SOL     OW28345   4.208   2.126   8.568 -0.7683 -0.0724  0.1078
 5629SOL    HW128346   4.270   2.195   8.543  0.3232 -1.0151  0.2390
 5629SOL    HW228347   4.257   2.079   8.636 -0.1331  0.5711  0.0970
 5630SOL     OW28348   2.343   1.356   6.716  0.1772  0.1326  0.7586
 5630SOL    HW128349   2.283   1.316   6.779 -0.2641  1.8423  1.4268
 5630SOL    HW228350   2.394   1.278   6.695 -1.1292 -0.2259 -1.0528
 5631SOL     OW28351   4.216   4.481   5.798  0.4766 -0.5392  0.6071
 5631SOL    HW128352   4.148   4.473   5.732  0.9498  0.2718  0.0229
 5631SOL    HW228353   4.272   4.536   5.743 -0.9426  1.6748  1.3632
 5632SOL     OW28354   1.256   0.663   5.018 -0.1280 -0.9760  0.0462
 5632SOL    HW128355   1.244   0.755   5.044 -1.9716 -1.0079 -0.7451
 5632SOL    HW228356   1.321   0.657   4.949 -2.1026  1.0318 -1.9651
 5633SOL     OW28357   0.942   0.611  10.446  0.5410 -0.0364 -0.2313
 5633SOL    HW128358   0.951   0.591  10.540  2.3736  0.1052 -0.3783
 5633SOL    HW228359   0.994   0.690  10.433  0.9670 -0.1019  1.0181
 5634SOL     OW28360   0.716   2.452   3.924  0.3957 -0.6178  0.4588
 5634SOL    HW128361   0.745   2.376   3.873 -1.2301 -0.3236 -0.9226
 5634SOL    HW228362   0.627   2.428   3.949 -0.0124 -0.9072 -1.2396
 5635SOL     OW28363   1.662   0.296   6.000 -0.3517 -0.2544  0.1934
 5635SOL    HW128364   1.635   0.383   6.029  2.2808  0.4387  0.5522
 5635SOL    HW228365   1.701   0.327   5.918  1.3496  1.0645  1.5116
 5636SOL     OW28366   3.448   0.900   8.967  0.0653 -0.2191  0.2617
 5636SOL    HW128367   3.474   0.849   8.890  1.0693  0.8237 -0.0865
 5636SOL    HW228368   3.511   0.967   8.991 -0.2497 -0.4414  1.6880
 5637SOL     OW28369   4.111   2.042  12.190  0.1604  0.4924  0.5458
 5637SOL    HW128370   4.040   2.048  12.255 -0.2182 -0.8126  0.2532
 5637SOL    HW228371   4.059   2.009  12.116  1.7844  2.5002 -1.4729
 5638SOL     OW28372   3.119   1.917  15.107 -0.5273 -0.2292 -0.3794
 5638SOL    HW128373   3.099   1.875  15.024 -1.1603 -1.7591  0.5340
 5638SOL    HW228374   3.150   2.004  15.082  0.8523 -0.4500  0.5817
 5639SOL     OW28375   1.850   1.126   3.639 -0.5193 -0.0507 -0.4564
 5639SOL    HW128376   1.852   1.222   3.640  2.6426 -0.1041 -0.5493
 5639SOL    HW228377   1.779   1.114   3.701 -1.3392  0.2677 -1.3269
 5640SOL     OW28378   3.910   1.259   3.280 -0.3191  0.1038 -0.9920
 5640SOL    HW128379   3.920   1.264   3.185  1.7223  0.6728 -0.7441
 5640SOL    HW228380   3.830   1.208   3.289 -0.6249  1.0502  1.6888
 5641SOL     OW28381   1.196   3.197   9.315  0.1813  0.4940  0.3386
 5641SOL    HW128382   1.275   3.152   9.348 -1.0724 -1.0613  1.2350
 5641SOL    HW228383   1.126   3.160   9.369  1.1004  1.0101  1.9101
 5642SOL     OW28384   2.899   0.130  10.136  0.4307  0.2219 -0.0823
 5642SOL    HW128385   2.992   0.109  10.122  0.0355 -1.4982 -0.0508
 5642SOL    HW228386   2.876   0.180  10.058 -1.2095 -1.9040 -0.9361
 5643SOL     OW28387   1.768   1.058  11.313 -0.4131 -0.6069  0.0255
 5643SOL    HW128388   1.796   1.141  11.276 -2.2460 -0.1649 -0.3748
 5643SOL    HW228389   1.784   1.098  11.398 -0.7134 -2.5708  1.0017
 5644SOL     OW28390   3.657   1.359   5.073 -0.7121 -0.1989  0.3711
 5644SOL    HW128391   3.752   1.346   5.074 -1.1411 -3.3319  0.1170
 5644SOL    HW228392   3.629   1.327   5.159 -4.0786 -0.6961 -0.9171
 5645SOL     OW28393   2.884   0.628  15.054 -0.0324  0.0088 -0.3897
 5645SOL    HW128394   2.909   0.686  14.982 -0.8474 -1.7656 -2.0897
 5645SOL    HW228395   2.824   0.559  15.028  0.7048 -0.5812 -0.5350
 5646SOL     OW28396   1.020   4.098   7.896  0.1397  0.3364 -0.1169
 5646SOL    HW128397   1.113   4.085   7.878  0.0650 -0.3143 -0.0456
 5646SOL    HW228398   1.018   4.193   7.909 -0.0264  0.3406 -0.1752
 5647SOL     OW28399   4.210   0.784  13.129  0.1849  0.1221 -0.3841
 5647SOL    HW128400   4.259   0.815  13.053  0.4611  0.1948 -0.1748
 5647SOL    HW228401   4.269   0.714  13.156  1.0886  0.8161 -0.5637
 5648SOL     OW28402   1.326   1.548   1.635  0.5818  0.2688  0.9759
 5648SOL    HW128403   1.349   1.624   1.689  0.5297  0.3239  0.9201
 5648SOL    HW228404   1.385   1.475   1.653  0.4027  0.0888  0.8333
 5649SOL     OW28405   1.788   3.270  17.495 -0.0368  0.2673 -0.8796
 5649SOL    HW128406   1.831   3.201  17.444 -0.2936  0.2314 -1.0497
 5649SOL    HW228407   1.773   3.340  17.432 -1.5539 -0.1693 -1.0015
 5650SOL     OW28408   2.009   0.610   2.890  0.1966  0.1540  0.1161
 5650SOL    HW128409   1.949   0.588   2.818 -2.7633 -3.2068  3.6026
 5650SOL    HW228410   1.948   0.609   2.963  0.6134 -0.1159  0.4609
 5651SOL     OW28411   4.142   2.987   2.613 -0.0887  0.0154 -0.3489
 5651SOL    HW128412   4.144   3.031   2.698 -2.4560 -1.1669  0.3098
 5651SOL    HW228413   4.098   2.907   2.640  1.9662 -1.0618 -0.1616
 5652SOL     OW28414   1.198   3.489   6.032 -0.3754 -0.5889 -0.5466
 5652SOL    HW128415   1.268   3.473   5.969 -1.2187 -1.7981 -1.1740
 5652SOL    HW228416   1.235   3.548   6.097 -1.3881 -0.5237 -0.0300
 5653SOL     OW28417   2.793   1.148  13.999 -0.2148  0.2982  0.1354
 5653SOL    HW128418   2.857   1.144  13.927 -1.7816 -0.5253 -1.2026
 5653SOL    HW228419   2.838   1.161  14.082  0.1582 -1.1912  0.1673
 5654SOL     OW28420   4.509   4.346   2.519 -0.3024 -0.3872 -0.6054
 5654SOL    HW128421   4.537   4.436   2.499 -1.2481 -0.5086 -2.4628
 5654SOL    HW228422   4.547   4.304   2.442 -1.5256  0.0621 -1.4485
 5655SOL     OW28423   2.448   1.784   3.403  0.2833  0.1495  0.4181
 5655SOL    HW128424   2.421   1.825   3.486 -1.6252 -0.8016  0.2642
 5655SOL    HW228425   2.486   1.708   3.448 -1.0911 -1.4052 -1.0690
 5656SOL     OW28426   4.053   1.842   5.986 -0.2519  0.2711  0.2318
 5656SOL    HW128427   3.978   1.849   5.927 -0.6916  0.5684  0.8352
 5656SOL    HW228428   4.015   1.898   6.053 -0.8284  0.0540  0.0865
 5657SOL     OW28429   2.990   0.137   5.164 -0.7077  0.4374 -0.0893
 5657SOL    HW128430   3.019   0.204   5.225  2.4300 -0.2854 -0.8290
 5657SOL    HW228431   2.894   0.141   5.168 -0.8976 -2.5997 -1.0684
 5658SOL     OW28432   1.653   0.467   3.366  0.1125  0.3043  0.1642
 5658SOL    HW128433   1.565   0.433   3.350  0.4383 -0.5529  0.1549
 5658SOL    HW228434   1.710   0.433   3.296  1.3155  0.6972  0.9569
 5659SOL     OW28435   1.179   2.759   7.570 -0.0081  0.8869  0.0726
 5659SOL    HW128436   1.196   2.748   7.663  3.1306 -1.8819 -0.8209
 5659SOL    HW228437   1.139   2.844   7.589 -1.6441  0.8201 -3.1076
 5660SOL     OW28438   2.558   2.885  16.223 -0.1695 -0.2668 -0.1215
 5660SOL    HW128439   2.516   2.799  16.224 -1.3879  0.3379  0.4402
 5660SOL    HW228440   2.637   2.871  16.276 -1.0848 -0.6873  1.1327
 5661SOL     OW28441   0.866   0.728   1.319  0.0161 -0.0535  0.2014
 5661SOL    HW128442   0.814   0.806   1.338  0.1946 -0.2121  1.3479
 5661SOL    HW228443   0.947   0.778   1.324 -0.0151  0.0009  0.1647
 5662SOL     OW28444   2.706   4.061   0.863 -0.4408 -0.2502  0.1950
 5662SOL    HW128445   2.726   3.973   0.897 -1.1599  0.4764  2.4776
 5662SOL    HW228446   2.611   4.059   0.877 -0.2820  0.6067  1.3632
 5663SOL     OW28447   3.878   4.440  17.343  0.2084  0.5297 -0.0182
 5663SOL    HW128448   3.949   4.448  17.407  0.5491 -1.0260 -0.2036
 5663SOL    HW228449   3.899   4.508  17.279 -1.6207  1.2493  0.1282
 5664SOL     OW28450   1.308   3.876  11.352  0.1793 -0.6166  0.1514
 5664SOL    HW128451   1.393   3.885  11.309  0.1536 -1.3865 -0.0545
 5664SOL    HW228452   1.246   3.871  11.279  1.5769 -2.2105 -0.9049
 5665SOL     OW28453   0.518   1.634   4.475 -0.3900  0.4109 -0.4844
 5665SOL    HW128454   0.468   1.674   4.546 -1.2043 -0.6923 -0.4307
 5665SOL    HW228455   0.587   1.584   4.520 -1.4639 -0.1156  0.5970
 5666SOL     OW28456   0.254   0.356   4.869  0.7614  0.2525 -0.3815
 5666SOL    HW128457   0.257   0.336   4.776 -1.4855  1.5061 -0.7175
 5666SOL    HW228458   0.285   0.273   4.906 -0.0378  0.1149 -0.0326
 5667SOL     OW28459   1.983   0.766   0.163  0.0589  1.1797  0.7308
 5667SOL    HW128460   2.028   0.846   0.135  3.8355 -1.7341 -1.5010
 5667SOL    HW228461   2.044   0.699   0.132 -2.9641 -0.5615 -1.4244
 5668SOL     OW28462   3.002   2.092  16.845  0.1619  0.0621  0.1422
 5668SOL    HW128463   2.914   2.054  16.855 -1.1021  3.2790  1.0637
 5668SOL    HW228464   3.052   2.025  16.892  0.1018 -1.3587 -1.8090
 5669SOL     OW28465   0.649   0.611   5.200 -0.3284  0.0151  0.4864
 5669SOL    HW128466   0.567   0.576   5.167 -0.2789  0.1870  0.1888
 5669SOL    HW228467   0.674   0.671   5.130  0.6452  0.6724  1.4041
 5670SOL     OW28468   1.545   2.060  15.385  0.6035  0.0580 -0.5677
 5670SOL    HW128469   1.598   2.120  15.332 -3.1778  2.3482 -1.7584
 5670SOL    HW228470   1.459   2.090  15.356  0.4526  1.1792  1.0156
 5671SOL     OW28471   1.316   4.720  14.538  0.0769  0.3078  0.6217
 5671SOL    HW128472   1.223   4.698  14.531  0.4159 -1.1520  0.6447
 5671SOL    HW228473   1.337   4.714  14.445 -2.6082 -2.3941  0.1835
 5672SOL     OW28474   2.869   1.736  15.034 -0.5097  0.8424 -0.5799
 5672SOL    HW128475   2.963   1.721  15.031 -0.1798  2.5574  1.3905
 5672SOL    HW228476   2.861   1.747  14.939 -1.7656  0.1272 -0.5583
 5673SOL     OW28477   2.752   3.911  11.688  0.3374  0.6757  0.0902
 5673SOL    HW128478   2.657   3.909  11.671  0.4959  1.7444 -0.8654
 5673SOL    HW228479   2.766   3.820  11.714 -0.6092  1.0546  1.9424
 5674SOL     OW28480   2.997   2.365   7.413 -0.2465  0.2397 -0.1702
 5674SOL    HW128481   3.025   2.444   7.460  1.6062  0.7545 -2.1410
 5674SOL    HW228482   2.961   2.310   7.482  1.3156 -0.7720 -0.1688
 5675SOL     OW28483   3.035   4.252   3.530  0.7581 -0.3175 -0.0019
 5675SOL    HW128484   3.040   4.248   3.434 -1.6504 -0.4773 -0.1418
 5675SOL    HW228485   3.114   4.297   3.556 -2.7604  5.2871  0.9858
 5676SOL     OW28486   2.981   1.427   3.455 -0.5919 -0.0458 -0.0351
 5676SOL    HW128487   3.000   1.488   3.383 -1.0293 -0.7557 -0.7585
 5676SOL    HW228488   2.890   1.411   3.428 -0.5617  0.0100 -0.1708
 5677SOL     OW28489   0.821   0.929   4.101 -0.0867 -0.2314  0.6753
 5677SOL    HW128490   0.850   0.842   4.131  0.8584 -0.9246 -2.2039
 5677SOL    HW228491   0.788   0.980   4.175  0.2821  1.8693 -0.6120
 5678SOL     OW28492   4.290   0.271   2.656 -0.2288  0.2072 -0.3118
 5678SOL    HW128493   4.309   0.273   2.563 -2.2092 -0.2146 -0.7120
 5678SOL    HW228494   4.363   0.224   2.697 -1.0946  0.0601  1.0464
 5679SOL     OW28495   4.463   0.804   8.812 -0.1830 -0.1556 -0.1199
 5679SOL    HW128496   4.481   0.783   8.903 -0.6051 -0.3804 -0.0878
 5679SOL    HW228497   4.445   0.721   8.768 -1.8721  0.1186  0.0319
 5680SOL     OW28498   0.130   4.717   8.527  0.2123  0.4203 -0.0031
 5680SOL    HW128499   0.124   0.081   8.494 -0.6340  0.2387 -0.3543
 5680SOL    HW228500   0.104   4.672   8.447 -2.7366 -0.3277  1.3411
 5681SOL     OW28501   4.385   1.604   9.213 -0.1023  0.0512 -0.1967
 5681SOL    HW128502   4.297   1.619   9.246  0.9533  0.3626  2.4183
 5681SOL    HW228503   4.438   1.597   9.292 -0.9211  1.3266  0.4643
 5682SOL     OW28504   1.033   3.799   9.179 -0.2570  0.4871 -0.2406
 5682SOL    HW128505   1.006   3.711   9.206  0.9532  0.9566  2.5532
 5682SOL    HW228506   0.991   3.842   9.254 -0.3879  0.6418 -0.4016
 5683SOL     OW28507   3.488   2.816  10.177  0.0830 -0.4500  0.1982
 5683SOL    HW128508   3.422   2.816  10.108  0.0411 -0.7320  0.2380
 5683SOL    HW228509   3.440   2.872  10.238  1.1474 -0.2005  0.8058
 5684SOL     OW28510   2.161   1.809   4.386  0.6587  0.7073 -0.6765
 5684SOL    HW128511   2.154   1.857   4.468  0.1742  1.4102 -1.1381
 5684SOL    HW228512   2.067   1.801   4.370  1.1200 -3.3173 -1.5345
 5685SOL     OW28513   3.915   2.157   9.434  0.1373  0.1454  0.6271
 5685SOL    HW128514   3.907   2.204   9.351  0.4181 -1.4025 -0.2717
 5685SOL    HW228515   3.844   2.197   9.485  1.7277  2.2653  1.2020
 5686SOL     OW28516   1.248   3.222   3.566 -0.4563  0.3979  0.1779
 5686SOL    HW128517   1.245   3.318   3.556  1.2233  0.3934 -0.3792
 5686SOL    HW228518   1.342   3.209   3.564 -0.6276 -0.7609 -0.1039
 5687SOL     OW28519   1.490   2.806   4.508  0.6585  0.3898 -0.0808
 5687SOL    HW128520   1.516   2.769   4.424  0.4914 -1.7125  0.7926
 5687SOL    HW228521   1.572   2.788   4.554  0.1293 -0.1576  0.6503
 5688SOL     OW28522   0.941   3.954   1.141 -1.4883  0.2938 -0.4565
 5688SOL    HW128523   0.929   3.928   1.050  2.2589  0.7033 -1.0731
 5688SOL    HW228524   0.995   4.031   1.125  0.2270 -0.2991  2.3842
 5689SOL     OW28525   4.423   0.080   5.889  0.4795  0.8454 -0.6001
 5689SOL    HW128526   4.427   0.115   5.978 -1.0324  1.7727 -0.9105
 5689SOL    HW228527   4.497   0.120   5.843  2.2846 -0.5451  1.0453
 5690SOL     OW28528   3.768   1.145   9.849 -0.2778 -0.1574 -0.1868
 5690SOL    HW128529   3.753   1.054   9.877  0.7776  0.1775  1.4903
 5690SOL    HW228530   3.691   1.190   9.883 -0.7735  1.2574 -3.2497
 5691SOL     OW28531   1.669   1.965   6.796  0.0070 -0.5886 -0.8690
 5691SOL    HW128532   1.709   2.036   6.746 -0.0409 -1.3803 -2.0378
 5691SOL    HW228533   1.683   1.980   6.889 -0.7107 -1.4931 -0.6134
 5692SOL     OW28534   1.943   4.465   6.146  0.4378 -0.1309  0.2783
 5692SOL    HW128535   1.966   4.523   6.218 -0.6555  0.9061 -0.2121
 5692SOL    HW228536   1.940   4.380   6.189 -0.8968 -0.7160 -0.9315
 5693SOL     OW28537   0.734   2.550   7.575  0.7991  0.4795 -0.4427
 5693SOL    HW128538   0.737   2.640   7.542 -0.1290  0.3971 -0.7560
 5693SOL    HW228539   0.793   2.502   7.517 -1.4546 -0.9646 -1.5572
 5694SOL     OW28540   3.990   3.877  14.721  0.1779  0.1614 -0.2668
 5694SOL    HW128541   4.027   3.929  14.792  1.0681 -1.3612  0.3962
 5694SOL    HW228542   3.950   3.804  14.769  0.9193 -0.5474 -0.7316
 5695SOL     OW28543   3.462   3.045   8.291 -0.0157  0.2970 -0.3119
 5695SOL    HW128544   3.551   3.010   8.285 -0.6068 -1.7383  3.0113
 5695SOL    HW228545   3.472   3.134   8.257  1.6658  0.4442  0.5708
 5696SOL     OW28546   1.759   4.660   7.696 -0.0238  0.3596 -0.0748
 5696SOL    HW128547   1.827   4.697   7.639  0.2903  2.5241  1.7112
 5696SOL    HW228548   1.807   4.627   7.772  0.1116 -0.7138 -0.6262
 5697SOL     OW28549   2.508   0.856  10.677  0.3877  0.0839 -0.0372
 5697SOL    HW128550   2.450   0.781  10.691  0.0971  0.0650 -1.3026
 5697SOL    HW228551   2.486   0.879  10.587  1.6890 -0.3526 -0.4713
 5698SOL     OW28552   2.937   0.421   7.070 -0.5396  0.3330  0.4421
 5698SOL    HW128553   2.878   0.350   7.044 -0.2511 -0.0209  0.7456
 5698SOL    HW228554   2.950   0.412   7.164 -1.2697 -0.1262  0.4962
 5699SOL     OW28555   4.565   0.148   4.695 -0.2229 -0.3729 -0.3682
 5699SOL    HW128556   4.576   0.125   4.787 -1.0255 -2.8993 -0.9103
 5699SOL    HW228557   4.632   0.098   4.649  1.2485 -0.4057  1.8435
 5700SOL     OW28558   2.897   2.150   5.963 -0.1001  0.4176 -0.1166
 5700SOL    HW128559   2.911   2.236   5.924  4.5799 -0.1767  0.3337
 5700SOL    HW228560   2.961   2.092   5.923  0.4072  0.8018  0.1306
 5701SOL     OW28561   1.919   2.336   4.726  0.2978 -0.5850 -0.0692
 5701SOL    HW128562   1.923   2.318   4.633  0.0654  0.6798 -0.3259
 5701SOL    HW228563   1.994   2.285   4.757  0.3211  0.4417  1.5947
 5702SOL     OW28564   4.087   1.990  10.084  0.1509  0.5813 -0.0420
 5702SOL    HW128565   4.119   2.057  10.144  1.1010 -0.4980  0.6339
 5702SOL    HW228566   4.013   1.950  10.130  0.8064 -0.8509 -0.2394
 5703SOL     OW28567   1.509   2.304   1.823  0.3813 -0.2689 -0.2111
 5703SOL    HW128568   1.486   2.234   1.884 -0.5025  0.1307 -0.0854
 5703SOL    HW228569   1.482   2.268   1.738  2.1384  0.9654 -1.2724
 5704SOL     OW28570   1.412   4.706   6.423 -0.5251  0.2988  0.2321
 5704SOL    HW128571   1.375   0.067   6.404  0.7332  1.3015  2.4281
 5704SOL    HW228572   1.355   4.639   6.385  1.0207 -0.5875 -0.5140
 5705SOL     OW28573   0.590   3.008   8.854 -0.5316  0.0811  0.5728
 5705SOL    HW128574   0.593   3.103   8.859 -1.0760  0.1181  0.2364
 5705SOL    HW228575   0.554   2.983   8.938  1.1988  0.9990  1.5887
 5706SOL     OW28576   1.872   0.618   7.048  0.3399 -0.4625  0.2381
 5706SOL    HW128577   1.890   0.523   7.044  1.1717 -0.2695 -0.6593
 5706SOL    HW228578   1.866   0.638   6.954  1.3692  0.5395  0.3930
 5707SOL     OW28579   3.684   2.498   3.017  0.5408  0.9467  0.2583
 5707SOL    HW128580   3.655   2.431   2.955  0.3919  1.6230 -0.4014
 5707SOL    HW228581   3.600   2.518   3.060 -1.6352 -2.2899 -2.4427
 5708SOL     OW28582   1.295   1.193  10.890  0.2132  0.2458 -0.0841
 5708SOL    HW128583   1.310   1.122  10.827  0.4921 -0.2704  0.5630
 5708SOL    HW228584   1.319   1.140  10.966  0.2787  1.7350  0.9375
 5709SOL     OW28585   4.095   0.614   2.400 -0.5180 -0.1415 -0.9308
 5709SOL    HW128586   4.046   0.696   2.400  0.7903  0.6486 -0.2654
 5709SOL    HW228587   4.160   0.636   2.467 -0.8456  0.0255 -0.6638
 5710SOL     OW28588   2.225   0.771   3.713  0.3708 -0.3679 -0.4966
 5710SOL    HW128589   2.304   0.790   3.662 -0.2932  0.9201 -1.0517
 5710SOL    HW228590   2.161   0.839   3.690 -0.0569 -0.5392  0.1945
 5711SOL     OW28591   4.185   1.636  15.453  0.5115  0.2239  0.3259
 5711SOL    HW128592   4.265   1.592  15.425 -1.2083 -1.6802 -1.5371
 5711SOL    HW228593   4.215   1.668  15.538  0.8196  1.0617 -0.0947
 5712SOL     OW28594   0.391   1.624   8.577  0.4482  0.2736 -0.2957
 5712SOL    HW128595   0.355   1.536   8.571 -0.2884  0.5187  0.4953
 5712SOL    HW228596   0.326   1.675   8.530  0.4065  2.5038  2.1704
 5713SOL     OW28597   1.021   2.214   4.145  0.8498  0.6757  0.0681
 5713SOL    HW128598   0.982   2.295   4.112 -1.2619  0.2544  1.6208
 5713SOL    HW228599   1.028   2.241   4.236 -0.7002 -2.0484  0.9627
 5714SOL     OW28600   4.086   3.092   2.294 -0.1094  0.1236  0.0236
 5714SOL    HW128601   4.064   3.002   2.270 -0.3528  0.4269 -0.8956
 5714SOL    HW228602   4.016   3.132   2.244  0.3945  0.5294 -0.3508
 5715SOL     OW28603   1.239   2.198   8.195 -0.1084 -0.1480 -0.0561
 5715SOL    HW128604   1.240   2.103   8.185 -0.9428 -0.2008  0.3542
 5715SOL    HW228605   1.150   2.204   8.231 -0.0109 -1.3539  0.3873
 5716SOL     OW28606   1.722   1.908   2.902  0.0984 -0.5309  0.4266
 5716SOL    HW128607   1.660   1.893   2.973  0.2353  1.1093  0.8997
 5716SOL    HW228608   1.690   1.994   2.878 -2.9264 -0.6998  3.8034
 5717SOL     OW28609   3.300   3.895   4.787  0.4448  0.2451  0.4141
 5717SOL    HW128610   3.350   3.939   4.856  1.1742  0.1366 -0.0362
 5717SOL    HW228611   3.362   3.898   4.714 -0.6790 -0.0051 -0.5357
 5718SOL     OW28612   0.668   0.374  13.624 -0.1271  0.2645 -0.1470
 5718SOL    HW128613   0.610   0.435  13.670  2.1757  1.1222  1.5928
 5718SOL    HW228614   0.657   0.300  13.684  0.0197  0.0611 -0.3729
 5719SOL     OW28615   0.684   2.378   7.102  0.4355 -0.1764 -0.3836
 5719SOL    HW128616   0.771   2.344   7.124 -1.2450 -2.4348  2.8147
 5719SOL    HW228617   0.706   2.470   7.110  0.8005 -0.3711  0.9148
 5720SOL     OW28618   4.165   1.752   4.688 -0.0040  0.5028  0.3097
 5720SOL    HW128619   4.217   1.796   4.755  0.1578  1.6500 -0.5651
 5720SOL    HW228620   4.225   1.679   4.673  0.8909  1.5495 -1.2239
 5721SOL     OW28621   2.829   0.882  16.811  0.1697  0.3309  0.4717
 5721SOL    HW128622   2.828   0.794  16.849  1.7612 -0.3138 -0.9881
 5721SOL    HW228623   2.755   0.926  16.852  1.9689  2.4596  1.4240
 5722SOL     OW28624   2.699   1.452   6.912  0.4861 -0.2581  0.0617
 5722SOL    HW128625   2.678   1.387   6.980  0.2505  0.2579  0.4819
 5722SOL    HW228626   2.684   1.398   6.835 -0.0278 -0.3713  0.2384
 5723SOL     OW28627   2.778   4.619   1.696  0.5209 -0.1234 -0.0595
 5723SOL    HW128628   2.701   4.574   1.729  0.7405  0.7288  1.6308
 5723SOL    HW228629   2.770   4.611   1.601 -1.7540  1.0579  0.0375
 5724SOL     OW28630   2.128   1.651  13.110 -0.0742 -0.2583  0.0919
 5724SOL    HW128631   2.187   1.602  13.052  0.7100 -1.0229  1.5605
 5724SOL    HW228632   2.078   1.691  13.038 -0.6448 -0.8861  0.1377
 5725SOL     OW28633   1.510   2.001   6.347  0.1149 -0.2501  0.4705
 5725SOL    HW128634   1.461   1.927   6.311 -1.5945  0.9064  0.4235
 5725SOL    HW228635   1.476   2.073   6.295  0.1993 -1.3092 -1.0257
 5726SOL     OW28636   1.946   4.647   7.320 -0.1576 -0.0120 -0.2716
 5726SOL    HW128637   1.871   4.593   7.345 -0.2089 -0.1598 -0.7489
 5726SOL    HW228638   1.900   4.721   7.282 -1.3445 -0.6473 -0.0731
 5727SOL     OW28639   4.184   2.700  11.683  0.2820 -0.2459 -0.4734
 5727SOL    HW128640   4.262   2.739  11.644  0.2822  0.2117 -0.0184
 5727SOL    HW228641   4.210   2.695  11.775 -1.9517  0.3166  0.1887
 5728SOL     OW28642   4.167   4.436   0.528 -1.2521 -0.1469  0.4912
 5728SOL    HW128643   4.126   4.486   0.458  0.5517  1.8840  0.8982
 5728SOL    HW228644   4.179   4.507   0.591 -0.6516  0.1369  0.0548
 5729SOL     OW28645   1.240   0.762   1.523  0.4422  0.5290 -0.0413
 5729SOL    HW128646   1.148   0.734   1.519  0.7694 -0.5173 -0.0823
 5729SOL    HW228647   1.265   0.796   1.437  0.4288 -1.6286 -0.8820
 5730SOL     OW28648   2.530   2.087  10.308  0.4937  0.2248  0.0544
 5730SOL    HW128649   2.459   2.074  10.370 -0.0205  0.8789 -0.4017
 5730SOL    HW228650   2.607   2.079  10.364  0.6403 -1.2139 -0.3461
 5731SOL     OW28651   3.882   0.105   4.039  0.1665  0.2520  0.1954
 5731SOL    HW128652   3.849   0.070   3.957  2.2775  1.8067 -1.3125
 5731SOL    HW228653   3.842   0.041   4.098 -0.0604  1.2932  1.1707
 5732SOL     OW28654   3.695   4.315   7.767  0.1940 -0.4748  0.0920
 5732SOL    HW128655   3.764   4.255   7.741  1.6511  1.8894 -1.4719
 5732SOL    HW228656   3.640   4.303   7.689 -0.9168  0.9657  0.6347
 5733SOL     OW28657   0.838   3.277   3.474 -0.0856  0.0987  0.6460
 5733SOL    HW128658   0.763   3.273   3.415  1.0163  2.2958 -0.8879
 5733SOL    HW228659   0.825   3.195   3.522 -1.2700  0.4871  0.9565
 5734SOL     OW28660   4.370   0.104   9.301 -0.3058 -0.0630  0.1680
 5734SOL    HW128661   4.449   0.153   9.277 -0.6713  1.0137  1.1215
 5734SOL    HW228662   4.350   0.045   9.229  1.2197 -0.1583 -0.1776
 5735SOL     OW28663   1.727   2.617  10.174  0.1390  0.2997  0.1927
 5735SOL    HW128664   1.788   2.565  10.227 -1.1090 -1.2662  0.0866
 5735SOL    HW228665   1.765   2.705  10.165 -0.2833  0.1986 -2.5928
 5736SOL     OW28666   4.338   3.717   7.483 -0.4005  0.1877  0.5337
 5736SOL    HW128667   4.382   3.788   7.529  0.4287 -0.0058  0.0288
 5736SOL    HW228668   4.410   3.669   7.443 -0.9862 -1.3796  1.3532
 5737SOL     OW28669   3.377   2.975   8.881  0.0240 -0.1880 -0.5833
 5737SOL    HW128670   3.316   3.044   8.907 -0.4813 -0.6275 -0.6153
 5737SOL    HW228671   3.454   3.029   8.862  0.5952 -1.7754 -2.7049
 5738SOL     OW28672   4.236   4.270   6.962  0.2934 -0.5550 -0.2541
 5738SOL    HW128673   4.196   4.184   6.975 -0.6478  0.1500  1.5735
 5738SOL    HW228674   4.171   4.326   7.005  1.4822 -0.6155  1.5983
 5739SOL     OW28675   2.454   4.077   5.037  0.1142  0.1817 -0.2088
 5739SOL    HW128676   2.473   4.089   5.131 -0.6287 -0.9198  0.0810
 5739SOL    HW228677   2.365   4.042   5.043 -0.3821  1.8700  2.5287
 5740SOL     OW28678   3.373   2.835   1.590 -0.0310 -0.4475 -0.3132
 5740SOL    HW128679   3.281   2.862   1.590  0.9130  2.7713  0.9853
 5740SOL    HW228680   3.412   2.892   1.656 -0.5224 -0.0460 -0.3706
 5741SOL     OW28681   3.457   1.071  17.297 -0.1097  0.0001  0.1086
 5741SOL    HW128682   3.416   1.147  17.255  0.3347  0.2900  0.2022
 5741SOL    HW228683   3.449   1.009  17.225 -1.2436 -1.6090  1.6130
 5742SOL     OW28684   1.268   3.009   4.809 -0.0937  0.1356 -0.7036
 5742SOL    HW128685   1.319   2.967   4.878  1.2030  0.1902 -1.6205
 5742SOL    HW228686   1.312   2.983   4.728 -0.2943 -1.3679 -0.3249
 5743SOL     OW28687   3.783   3.681  10.187 -0.0863  0.0173 -0.0114
 5743SOL    HW128688   3.741   3.646  10.108 -0.3827 -2.6531  1.3594
 5743SOL    HW228689   3.712   3.718  10.239 -2.0106 -0.5556 -2.2360
 5744SOL     OW28690   3.030   3.063  10.277  0.6293  0.4829 -0.0714
 5744SOL    HW128691   2.963   3.126  10.304  1.8856  1.5153  0.6752
 5744SOL    HW228692   3.061   3.043  10.365 -1.5545 -0.9927  0.3396
 5745SOL     OW28693   4.523   4.121   4.585  0.5742  0.4082  0.3822
 5745SOL    HW128694   4.535   4.098   4.493  2.9934 -1.1704  1.0729
 5745SOL    HW228695   4.429   4.135   4.582  0.3549 -1.7779 -2.1286
 5746SOL     OW28696   4.032   0.203  10.092 -0.4005  0.3380  0.4056
 5746SOL    HW128697   4.063   0.290  10.070  0.3967 -0.0735 -0.0782
 5746SOL    HW228698   4.112   0.152  10.082 -1.0679 -0.0398 -3.0396
 5747SOL     OW28699   2.772   3.009   3.691  0.3375 -0.7222  0.1275
 5747SOL    HW128700   2.682   2.976   3.690  0.0600  0.0012  1.1096
 5747SOL    HW228701   2.787   3.033   3.600 -0.4953 -3.2337 -0.6896
 5748SOL     OW28702   3.871   1.680  13.958 -0.3790  0.1628 -0.2427
 5748SOL    HW128703   3.816   1.712  14.030 -2.4487  1.5741 -2.4660
 5748SOL    HW228704   3.811   1.653  13.889  1.3688 -1.8188 -1.0004
 5749SOL     OW28705   3.083   3.525   7.835 -0.2543  0.2693  0.1112
 5749SOL    HW128706   3.000   3.507   7.792 -0.6164  1.7840  0.1771
 5749SOL    HW228707   3.053   3.584   7.905  1.4679  1.4305 -0.1126
 5750SOL     OW28708   4.081   1.483   1.609 -0.0812  0.0092 -0.9056
 5750SOL    HW128709   3.996   1.442   1.597  0.2001 -1.0289  0.6547
 5750SOL    HW228710   4.119   1.413   1.662 -1.9336 -1.1540 -1.1227
 5751SOL     OW28711   0.834   0.173   8.795 -0.1353  0.0653 -0.2382
 5751SOL    HW128712   0.744   0.158   8.764 -0.5711 -0.6103  1.3874
 5751SOL    HW228713   0.884   0.162   8.714  0.2020 -0.3466  0.0254
 5752SOL     OW28714   1.220   2.155  16.652 -0.6800  0.0355 -0.1215
 5752SOL    HW128715   1.282   2.208  16.702 -0.8627  1.0927 -1.0272
 5752SOL    HW228716   1.198   2.097  16.725 -0.6244 -1.8171 -1.5485
 5753SOL     OW28717   0.665   3.230  13.572  0.3216  0.1656  0.5858
 5753SOL    HW128718   0.749   3.222  13.525 -1.2794 -1.5715 -1.9882
 5753SOL    HW228719   0.694   3.303  13.626  0.2876  0.9830 -0.5018
 5754SOL     OW28720   4.102   2.357   4.980  0.3803 -0.1644  0.2188
 5754SOL    HW128721   4.113   2.432   5.039 -0.9084  0.0042  0.2517
 5754SOL    HW228722   4.058   2.408   4.912  0.8941 -2.2148 -1.6417
 5755SOL     OW28723   4.482   0.305  16.297 -0.3198 -0.4009  0.5565
 5755SOL    HW128724   4.482   0.212  16.319  3.1795 -0.5662 -0.2224
 5755SOL    HW228725   4.503   0.344  16.382  0.4487  0.8377 -0.1980
 5756SOL     OW28726   4.584   0.468  12.581  0.2725  0.6651  0.0454
 5756SOL    HW128727   4.499   0.424  12.592  1.3461 -1.4516 -0.1206
 5756SOL    HW228728   4.560   0.519  12.503 -0.7395 -2.9721 -2.0507
 5757SOL     OW28729   1.991   1.136  16.581 -0.1446 -0.3573 -0.0806
 5757SOL    HW128730   1.954   1.128  16.669 -0.7692 -1.5048 -0.4492
 5757SOL    HW228731   2.006   1.043  16.562  1.1442  0.1287 -1.4440
 5758SOL     OW28732   0.977   3.624   7.591 -0.5225 -0.6875  0.2825
 5758SOL    HW128733   1.007   3.655   7.677  0.6553  2.2803 -1.1739
 5758SOL    HW228734   1.038   3.552   7.582 -0.2151 -0.3802 -0.1247
 5759SOL     OW28735   3.482   3.379   6.218 -0.0170 -0.3767 -0.0395
 5759SOL    HW128736   3.532   3.407   6.295 -0.5799 -0.0761  0.2114
 5759SOL    HW228737   3.394   3.356   6.246 -0.4506  2.0811  0.6109
 5760SOL     OW28738   0.914   1.939   8.629  0.0180 -1.0596  0.6453
 5760SOL    HW128739   0.825   1.959   8.658 -0.2026  0.2031 -0.8810
 5760SOL    HW228740   0.957   2.003   8.686 -2.8109  0.5521  0.9516
 5761SOL     OW28741   0.186   4.051   1.898 -0.1948 -0.4566 -0.1907
 5761SOL    HW128742   0.248   4.052   1.825 -0.1183 -0.1257 -0.1239
 5761SOL    HW228743   0.129   3.983   1.862 -1.0264 -0.0931  0.4308
 5762SOL     OW28744   4.440   4.609   1.382  0.1228 -0.5121  0.1828
 5762SOL    HW128745   4.409   4.685   1.432 -1.1157 -0.3354 -0.8546
 5762SOL    HW228746   4.365   4.550   1.387 -0.0491 -0.2326  1.0116
 5763SOL     OW28747   0.968   3.390   8.117 -0.6481 -0.0806 -0.3591
 5763SOL    HW128748   0.967   3.469   8.170 -0.7520  0.0336 -0.5301
 5763SOL    HW228749   0.887   3.394   8.066 -1.0857 -2.3147  0.1548
 5764SOL     OW28750   1.409   1.258   6.768  0.0559 -0.8008 -0.0148
 5764SOL    HW128751   1.484   1.220   6.815  0.5067 -1.3075 -1.1570
 5764SOL    HW228752   1.336   1.229   6.824  3.3874 -4.3207  2.5610
 5765SOL     OW28753   2.802   2.688   1.797 -0.0291 -0.3705  0.7667
 5765SOL    HW128754   2.886   2.734   1.801  0.3040 -0.7633 -1.8535
 5765SOL    HW228755   2.742   2.762   1.787 -2.0383 -1.9408  1.3724
 5766SOL     OW28756   0.274   4.043   4.381 -0.6787 -0.1529 -0.1225
 5766SOL    HW128757   0.219   3.967   4.367  0.4796 -1.3700  1.8837
 5766SOL    HW228758   0.282   4.034   4.476 -0.9635  0.1001 -0.0748
 5767SOL     OW28759   3.251   1.604   5.192  0.4501 -0.3910 -0.1466
 5767SOL    HW128760   3.206   1.598   5.107 -0.0131  0.5796  0.0265
 5767SOL    HW228761   3.170   1.599   5.243  0.4634  0.5782 -0.0385
 5768SOL     OW28762   1.831   1.139   4.145 -0.9661 -0.0622  0.2627
 5768SOL    HW128763   1.795   1.146   4.234 -0.3454  3.0900  0.2525
 5768SOL    HW228764   1.833   1.226   4.106 -0.1847 -0.4361 -0.5194
 5769SOL     OW28765   3.510   2.638   1.454  0.2427 -0.3778 -0.2101
 5769SOL    HW128766   3.460   2.571   1.501  2.3942 -3.1138 -1.8325
 5769SOL    HW228767   3.454   2.715   1.471 -0.3078 -1.3881  2.4785
 5770SOL     OW28768   3.823   4.336  11.290 -0.0825  0.2694  0.0980
 5770SOL    HW128769   3.848   4.248  11.261 -0.1206 -0.4091  2.0930
 5770SOL    HW228770   3.730   4.316  11.302  0.5157 -1.3687  2.0662
 5771SOL     OW28771   1.404   0.564  11.186 -0.3454 -0.2728  0.2026
 5771SOL    HW128772   1.468   0.615  11.138 -1.3504  0.5663 -0.2464
 5771SOL    HW228773   1.466   0.506  11.231  0.5429  0.8479  0.4271
 5772SOL     OW28774   2.949   1.316  13.754 -0.0587 -0.7759  0.2366
 5772SOL    HW128775   2.928   1.404  13.724 -1.0997 -0.1819  2.7362
 5772SOL    HW228776   2.917   1.265  13.680 -0.7463  0.8293 -0.5665
 5773SOL     OW28777   4.355   3.186   6.473 -0.9353  0.2994 -0.0320
 5773SOL    HW128778   4.406   3.115   6.512 -0.3984  0.2593 -0.7996
 5773SOL    HW228779   4.372   3.173   6.380  0.4023  0.7748  0.1422
 5774SOL     OW28780   2.451   3.816   8.174  0.9249  0.4073  0.3052
 5774SOL    HW128781   2.464   3.820   8.079 -0.7636  0.7782  0.0999
 5774SOL    HW228782   2.451   3.721   8.185  0.3023  0.2644 -0.9326
 5775SOL     OW28783   3.811   3.897   4.078  0.1875 -0.2915 -0.5348
 5775SOL    HW128784   3.725   3.901   4.121 -0.2009  0.9702 -1.4375
 5775SOL    HW228785   3.808   3.977   4.025  1.0648 -0.4708 -0.8457
 5776SOL     OW28786   0.662   1.862   4.429  0.1412  0.1742  0.4923
 5776SOL    HW128787   0.605   1.788   4.449 -1.5346  0.9844 -1.2414
 5776SOL    HW228788   0.676   1.873   4.335 -3.4116  3.2826  0.3508
 5777SOL     OW28789   3.078   1.806  14.853  0.2840 -0.0607  0.0848
 5777SOL    HW128790   3.049   1.811  14.762  0.7814  2.0300  0.0581
 5777SOL    HW228791   3.103   1.714  14.866 -0.1477 -0.2797 -0.6633
 5778SOL     OW28792   1.243   4.357   1.922 -0.2330  0.0467 -0.7779
 5778SOL    HW128793   1.324   4.309   1.906 -0.0438 -0.5483  1.9373
 5778SOL    HW228794   1.255   4.452   1.914  1.8333 -0.2079 -0.6631
 5779SOL     OW28795   1.537   3.894   6.671  0.4412 -0.0863  0.2460
 5779SOL    HW128796   1.488   3.826   6.719  1.4260 -0.0319  1.3348
 5779SOL    HW228797   1.517   3.879   6.579 -1.1532  0.0396  0.5651
 5780SOL     OW28798   1.616   4.310   0.871  0.1931  0.0846  0.2902
 5780SOL    HW128799   1.538   4.361   0.850 -1.1361 -1.7638  0.7102
 5780SOL    HW228800   1.606   4.215   0.867  0.3570  0.2093 -3.1163
 5781SOL     OW28801   2.777   2.714  17.507 -0.3991  0.4346 -0.1031
 5781SOL    HW128802   2.851   2.680  17.557 -0.0236  1.4990  0.0674
 5781SOL    HW228803   2.706   2.707  17.570 -1.1958 -0.9563 -1.1566
 5782SOL     OW28804   1.081   2.431   5.952  0.4302 -0.0759 -0.3048
 5782SOL    HW128805   1.110   2.406   5.864  0.1597  0.0322 -0.4222
 5782SOL    HW228806   0.991   2.459   5.936 -0.2052 -2.3072 -0.5179
 5783SOL     OW28807   1.235   0.265  15.619 -0.0200  0.7173  0.3360
 5783SOL    HW128808   1.151   0.303  15.647  1.1867  2.7248  1.2435
 5783SOL    HW228809   1.212   0.177  15.588  0.6560  0.4171  0.6876
 5784SOL     OW28810   1.647   2.401   5.463  0.2714 -0.4029 -0.1365
 5784SOL    HW128811   1.640   2.308   5.439  0.1407 -0.2005 -0.8930
 5784SOL    HW228812   1.739   2.420   5.442  0.8808 -1.6687  1.4345
 5785SOL     OW28813   1.665   0.876   7.839 -0.2807 -0.2398 -0.5092
 5785SOL    HW128814   1.623   0.806   7.890 -0.5818 -0.7891 -1.5033
 5785SOL    HW228815   1.623   0.952   7.879 -0.9341 -0.2192 -1.2467
 5786SOL     OW28816   1.131   0.139   6.143  0.0833  0.0316 -0.0152
 5786SOL    HW128817   1.089   0.062   6.106  0.3667 -0.7655  1.3023
 5786SOL    HW228818   1.179   0.164   6.065 -1.1160 -0.1730 -0.8133
 5787SOL     OW28819   0.445   3.476   1.884 -0.0683  0.1346  0.6287
 5787SOL    HW128820   0.415   3.439   1.802 -2.3380 -0.7572  1.8712
 5787SOL    HW228821   0.394   3.557   1.873 -1.2399 -0.5812  0.7988
 5788SOL     OW28822   0.006   4.255  10.111  0.2747 -0.2471  0.2875
 5788SOL    HW128823   0.028   4.315  10.039  0.4579 -0.6470  0.0081
 5788SOL    HW228824   4.685   4.190  10.058 -0.2985  1.6950 -1.5994
 5789SOL     OW28825   1.787   2.278  15.677 -0.3624 -0.5527 -0.2122
 5789SOL    HW128826   1.826   2.320  15.600 -0.5467  0.1531  0.0787
 5789SOL    HW228827   1.803   2.337  15.751 -1.9174  0.5741 -0.7648
 5790SOL     OW28828   0.629   1.276   2.167  0.1510 -0.1208  0.2461
 5790SOL    HW128829   0.605   1.244   2.254 -0.9871 -0.3165 -0.1384
 5790SOL    HW228830   0.545   1.281   2.120 -0.6376 -2.8648  1.3457
 5791SOL     OW28831   3.120   2.776   3.678 -0.3783 -0.1367  0.3360
 5791SOL    HW128832   3.211   2.747   3.671 -0.2798  0.3186 -0.3189
 5791SOL    HW228833   3.089   2.765   3.588 -0.7963  0.3004  0.4285
 5792SOL     OW28834   0.438   4.265   4.842 -0.5391 -0.3132 -0.0268
 5792SOL    HW128835   0.410   4.293   4.755 -0.2848  1.0974  0.3428
 5792SOL    HW228836   0.492   4.337   4.873  3.5044 -1.6519 -3.9885
 5793SOL     OW28837   2.715   2.763   2.786  0.5130  0.0349  0.3667
 5793SOL    HW128838   2.688   2.855   2.793 -3.6058 -0.9329 -2.8704
 5793SOL    HW228839   2.751   2.760   2.697 -0.9838  0.3584 -0.2598
 5794SOL     OW28840   0.891   2.104   1.422  0.2361 -0.1580  0.7023
 5794SOL    HW128841   0.874   2.128   1.513  1.1075 -0.7834  1.0278
 5794SOL    HW228842   0.810   2.068   1.386  1.0015 -0.4180 -0.7861
 5795SOL     OW28843   3.304   3.343   8.737  0.0600 -0.0633 -0.6795
 5795SOL    HW128844   3.341   3.412   8.791  1.6888 -1.6172  0.1816
 5795SOL    HW228845   3.281   3.274   8.799 -2.5668  1.0215 -0.4581
 5796SOL     OW28846   0.966   2.461   6.363 -0.2006  0.3654  0.3431
 5796SOL    HW128847   0.922   2.513   6.430  1.0711 -0.4851  1.8335
 5796SOL    HW228848   1.032   2.523   6.332  0.9976 -0.9190  0.3395
 5797SOL     OW28849   1.317   2.253   4.858  0.4069  0.1853  0.2385
 5797SOL    HW128850   1.327   2.266   4.764 -2.8352  0.9369  0.0048
 5797SOL    HW228851   1.245   2.190   4.863 -0.5161  1.2135 -0.2501
 5798SOL     OW28852   1.317   0.812   6.325  0.4314 -0.3242  0.6423
 5798SOL    HW128853   1.316   0.800   6.230  0.7889 -0.3937  0.6486
 5798SOL    HW228854   1.242   0.754   6.342  0.1596 -0.4061 -0.8383
 5799SOL     OW28855   2.917   0.211   6.735 -0.3086  0.1769 -0.5540
 5799SOL    HW128856   2.922   0.146   6.666  0.0870  0.5032 -0.8343
 5799SOL    HW228857   3.011   0.221   6.749 -0.6798 -0.9452  2.7356
 5800SOL     OW28858   0.478   4.492   5.590  0.1305  0.2744  0.2487
 5800SOL    HW128859   0.531   4.534   5.657  2.7873 -1.2952 -0.8569
 5800SOL    HW228860   0.515   4.404   5.582  0.5759  0.4780  0.0515
 5801SOL     OW28861   1.228   2.374  15.466  0.7478 -0.0424  0.1165
 5801SOL    HW128862   1.148   2.416  15.500  1.0812 -0.9409  2.0278
 5801SOL    HW228863   1.278   2.354  15.545 -0.5523 -1.0162  0.6940
 5802SOL     OW28864   0.157   4.080  10.808 -0.6789  0.1571  0.4862
 5802SOL    HW128865   0.135   4.101  10.899 -1.1595 -0.1327  0.4357
 5802SOL    HW228866   0.251   4.090  10.822 -0.1314 -1.4482 -1.9994
 5803SOL     OW28867   1.513   1.624  13.332 -0.0320  0.0547 -0.4090
 5803SOL    HW128868   1.436   1.568  13.340  0.0364 -0.0213 -0.2858
 5803SOL    HW228869   1.528   1.632  13.426 -0.2017  1.0055 -0.4652
 5804SOL     OW28870   1.878   4.300   7.395  0.3506  0.0109 -0.0777
 5804SOL    HW128871   1.902   4.220   7.442  2.2068 -0.1471 -1.2862
 5804SOL    HW228872   1.929   4.291   7.314  1.4652  1.3025  0.4785
 5805SOL     OW28873   0.648   0.484   9.930  0.3290 -0.3230  0.0718
 5805SOL    HW128874   0.612   0.456  10.014 -0.8563 -2.7977 -1.2583
 5805SOL    HW228875   0.740   0.490   9.954  0.2570 -0.1758  0.3181
 5806SOL     OW28876   1.353   1.441   3.055 -0.5726  0.4725  0.2079
 5806SOL    HW128877   1.348   1.521   3.001  0.6078  2.0804  2.4987
 5806SOL    HW228878   1.274   1.392   3.032 -0.0599 -1.2479  2.1137
 5807SOL     OW28879   2.745   3.185   3.137 -0.2343 -0.2847  0.2206
 5807SOL    HW128880   2.680   3.117   3.155  0.0079 -1.2273 -2.4477
 5807SOL    HW228881   2.814   3.144   3.084  0.7576  0.7834  0.6920
 5808SOL     OW28882   2.957   2.162   3.888 -0.1366  0.0677  0.0069
 5808SOL    HW128883   2.947   2.186   3.980 -0.8871 -1.3519  0.2890
 5808SOL    HW228884   2.968   2.247   3.846 -2.5547 -1.1398 -3.0479
 5809SOL     OW28885   0.494   0.317   0.257 -0.3508  0.1435 -0.6592
 5809SOL    HW128886   0.491   0.274   0.171  0.0864 -2.1132  0.4630
 5809SOL    HW228887   0.417   0.279   0.297  0.1251 -0.2438 -0.1064
 5810SOL     OW28888   2.740   2.590   4.124  0.4279 -0.1704 -0.1288
 5810SOL    HW128889   2.732   2.635   4.040 -0.7189  1.7529  1.0379
 5810SOL    HW228890   2.666   2.622   4.176  0.4046  1.4775 -1.1772
 5811SOL     OW28891   0.154   2.234   1.730  0.2342 -0.1352  0.2470
 5811SOL    HW128892   0.135   2.286   1.652  0.9818  0.6036  0.5600
 5811SOL    HW228893   0.090   2.164   1.711 -2.5093  2.0782  1.3686
 5812SOL     OW28894   2.057   1.436   2.412 -0.0714  0.5909 -0.3688
 5812SOL    HW128895   2.003   1.361   2.436  0.1836  0.4595 -0.2020
 5812SOL    HW228896   2.008   1.516   2.434 -0.2578 -0.0027  1.3290
 5813SOL     OW28897   3.723   1.973  10.001  0.2938  0.0885 -0.1132
 5813SOL    HW128898   3.774   1.946   9.925 -0.2738  0.8157 -0.7517
 5813SOL    HW228899   3.756   2.063  10.005 -0.0788  0.2953 -1.6508
 5814SOL     OW28900   1.072   4.108   2.130 -0.1476 -0.1170 -0.5790
 5814SOL    HW128901   1.080   4.054   2.051  1.6943  1.3279 -1.3674
 5814SOL    HW228902   1.102   4.049   2.199 -1.6434  0.8466  0.9111
 5815SOL     OW28903   2.036   3.992   3.361 -0.2238  0.0297 -0.0362
 5815SOL    HW128904   1.946   3.959   3.359  0.3384 -1.4821 -0.0304
 5815SOL    HW228905   2.082   3.922   3.408  1.2102  0.0731 -1.3843
 5816SOL     OW28906   1.804   0.859   5.702 -0.4273  0.2094  0.1860
 5816SOL    HW128907   1.778   0.948   5.726 -2.9334 -0.2339 -0.8624
 5816SOL    HW228908   1.863   0.836   5.774 -1.6492 -3.3623  0.0559
 5817SOL     OW28909   1.997   1.073   5.084  0.0629  0.3552 -0.5339
 5817SOL    HW128910   1.977   1.144   5.145  0.4935 -0.5046  0.6000
 5817SOL    HW228911   2.070   1.029   5.127 -0.1393 -0.1574 -0.7155
 5818SOL     OW28912   0.970   1.731   7.428 -0.4352  0.4148 -0.4587
 5818SOL    HW128913   1.010   1.734   7.515 -0.1009 -0.0238 -0.5958
 5818SOL    HW228914   0.985   1.637   7.415 -0.2584  0.5471 -1.2091
 5819SOL     OW28915   3.275   0.354   2.858  0.0663 -0.1660  0.6527
 5819SOL    HW128916   3.229   0.414   2.917  1.1624  3.1716 -1.9278
 5819SOL    HW228917   3.235   0.363   2.772  1.5828  2.4635  0.2266
 5820SOL     OW28918   1.085   3.485   4.745 -0.2708 -0.2390  0.0449
 5820SOL    HW128919   1.101   3.421   4.814 -0.9504  0.0090  0.4311
 5820SOL    HW228920   0.994   3.512   4.754  0.4516  1.9634  0.7412
 5821SOL     OW28921   4.001   2.756   4.203 -0.0982  0.0206 -0.4134
 5821SOL    HW128922   3.928   2.817   4.197 -0.3363 -0.3314 -1.1963
 5821SOL    HW228923   3.946   2.686   4.238  0.3278  0.4238  1.0629
 5822SOL     OW28924   2.126   2.716   6.586  0.2944  0.0634 -0.2277
 5822SOL    HW128925   2.068   2.647   6.556 -1.8522  1.7880 -0.0691
 5822SOL    HW228926   2.159   2.738   6.499 -0.9967 -2.4769 -1.3350
 5823SOL     OW28927   2.561   0.407   4.881 -0.4533  0.4117 -0.2456
 5823SOL    HW128928   2.503   0.341   4.843 -2.0768  1.1847  0.8996
 5823SOL    HW228929   2.507   0.486   4.872 -2.0878 -0.8762 -1.9226
 5824SOL     OW28930   4.201   2.182  13.131 -0.1611  0.3729  0.4358
 5824SOL    HW128931   4.288   2.145  13.147 -0.0602  0.0281 -0.9256
 5824SOL    HW228932   4.224   2.268  13.096 -2.7003  0.8792 -0.0424
 5825SOL     OW28933   3.890   4.503   5.750  0.3445 -0.3323  0.7677
 5825SOL    HW128934   3.860   4.507   5.840  0.5401  1.2570  0.7556
 5825SOL    HW228935   3.915   4.593   5.730  0.9134 -0.4688  0.8428
 5826SOL     OW28936   3.856   0.513   9.684 -0.2813  0.1485 -0.0096
 5826SOL    HW128937   3.942   0.518   9.643 -0.2630  0.6758  0.0862
 5826SOL    HW228938   3.872   0.580   9.751 -0.2548 -0.2326  0.3655
 5827SOL     OW28939   3.831   3.117   2.924 -0.9057 -0.3504  0.1426
 5827SOL    HW128940   3.852   3.200   2.965 -0.0052 -1.1664  1.3457
 5827SOL    HW228941   3.801   3.065   2.998  0.1114 -1.0861  0.0435
 5828SOL     OW28942   2.164   4.609  15.097  0.0055  0.0455 -0.2400
 5828SOL    HW128943   2.164   4.626  15.003 -0.2447  2.3271  0.1709
 5828SOL    HW228944   2.177   4.695  15.136 -1.3542 -0.5131  1.4544
 5829SOL     OW28945   2.441   2.079   0.802  0.1386  0.0562  0.1569
 5829SOL    HW128946   2.494   2.022   0.858  2.0402  3.1999  1.5290
 5829SOL    HW228947   2.397   2.129   0.871 -2.1843 -0.6936 -0.7598
 5830SOL     OW28948   3.362   0.911  13.836  0.3292 -0.7266  0.3314
 5830SOL    HW128949   3.296   0.894  13.768 -1.2512  2.1589  1.1210
 5830SOL    HW228950   3.351   1.005  13.851  0.8150 -0.9157  1.8703
 5831SOL     OW28951   3.190   0.591   1.359  0.2934 -0.6345  0.2992
 5831SOL    HW128952   3.277   0.624   1.337  0.0824  1.1907  2.0940
 5831SOL    HW228953   3.130   0.626   1.293  1.1401 -1.1813 -0.7526
 5832SOL     OW28954   0.377   0.980   4.182  0.4722  0.0632  0.4963
 5832SOL    HW128955   0.358   1.071   4.161  0.6460  0.0553  0.3029
 5832SOL    HW228956   0.335   0.980   4.268  0.9997  1.4437  0.7616
 5833SOL     OW28957   3.755   1.732  12.988 -0.1124 -0.4004 -0.2701
 5833SOL    HW128958   3.799   1.701  13.067 -2.0492  0.4607  1.1501
 5833SOL    HW228959   3.802   1.814  12.975 -0.3117 -0.3613 -0.7196
 5834SOL     OW28960   2.558   0.118   7.112  0.2100 -0.0085 -0.3557
 5834SOL    HW128961   2.522   0.206   7.099  0.7472  0.3039  0.2436
 5834SOL    HW228962   2.645   0.128   7.074  0.2961 -1.1944 -0.4876
 5835SOL     OW28963   0.150   3.148  10.773 -0.4476  0.7136 -0.6008
 5835SOL    HW128964   0.189   3.114  10.853 -0.7478  0.3986 -0.5849
 5835SOL    HW228965   0.167   3.240  10.792 -0.6860  0.8687 -1.1342
 5836SOL     OW28966   2.012   3.344  16.774 -0.3262  0.3805 -0.1454
 5836SOL    HW128967   2.036   3.436  16.781  2.3248 -0.3708  0.6855
 5836SOL    HW228968   2.091   3.311  16.817 -1.6457 -2.1664  0.3407
 5837SOL     OW28969   2.380   1.665  10.717  0.1357 -0.2399 -0.1146
 5837SOL    HW128970   2.384   1.572  10.737  0.6185 -0.7363 -2.4736
 5837SOL    HW228971   2.426   1.661  10.633  1.4033  0.4816  0.5391
 5838SOL     OW28972   0.795   2.997   5.717 -0.2844  0.3019  0.0887
 5838SOL    HW128973   0.859   2.979   5.786  0.6230  1.0945 -0.5214
 5838SOL    HW228974   0.820   3.087   5.694 -1.1320  0.2627 -0.9610
 5839SOL     OW28975   3.925   1.729   4.586 -0.8874  0.8088  0.2199
 5839SOL    HW128976   3.900   1.819   4.607 -2.2765  1.1423 -2.8232
 5839SOL    HW228977   4.016   1.731   4.616 -1.5070 -1.8551  2.2932
 5840SOL     OW28978   3.263   2.922  11.925 -0.4010 -0.2059 -0.2295
 5840SOL    HW128979   3.202   2.967  11.983  1.5825  0.6273  1.1947
 5840SOL    HW228980   3.317   2.869  11.984  0.4752  2.2618  1.1687
 5841SOL     OW28981   0.808   1.862   1.601  0.6909  0.2146  0.0368
 5841SOL    HW128982   0.820   1.957   1.596 -0.2715  0.2434 -1.9538
 5841SOL    HW228983   0.776   1.854   1.691  1.3321 -0.8749  0.1723
 5842SOL     OW28984   2.091   0.438   4.378  0.0363 -0.2733  0.6790
 5842SOL    HW128985   2.089   0.425   4.284  0.5931 -2.0947  0.9313
 5842SOL    HW228986   2.179   0.413   4.405  0.8881  1.4658 -0.4693
 5843SOL     OW28987   2.233   1.734   9.085 -0.6222  0.2647  0.6369
 5843SOL    HW128988   2.141   1.744   9.108 -1.0009 -2.3658  0.1453
 5843SOL    HW228989   2.273   1.719   9.171 -0.0988  1.4326  0.6107
 5844SOL     OW28990   0.711   2.523   5.245  0.3267 -0.0724 -0.6574
 5844SOL    HW128991   0.623   2.502   5.278  0.6573  0.2998  0.4741
 5844SOL    HW228992   0.692   2.616   5.231  1.3077  0.3308  0.7326
 5845SOL     OW28993   3.423   3.137  15.049  0.3521 -0.1844  0.2113
 5845SOL    HW128994   3.505   3.131  15.001  0.0387  0.8933 -0.4709
 5845SOL    HW228995   3.466   3.113  15.131 -0.9941 -1.7642  0.4514
 5846SOL     OW28996   0.068   4.691   2.291 -0.3368 -0.0629  0.4746
 5846SOL    HW128997   4.713   4.678   2.241 -1.1805  2.4379  1.1807
 5846SOL    HW228998   0.131   4.702   2.219 -0.4880  2.6974  0.7359
 5847SOL     OW28999   2.777   2.767   6.357  0.1903  0.3305 -0.2811
 5847SOL    HW129000   2.735   2.717   6.428 -0.1780  0.6692 -0.2614
 5847SOL    HW229001   2.705   2.807   6.310  1.2773  0.7129 -1.6100
 5848SOL     OW29002   2.525   4.608   7.828 -0.2125 -0.2165 -0.1925
 5848SOL    HW129003   2.448   4.632   7.880  0.9513  0.9876  0.9688
 5848SOL    HW229004   2.589   4.592   7.897 -1.5380 -1.9055  0.6422
 5849SOL     OW29005   2.691   0.810   3.823 -0.4592 -0.3709 -0.1425
 5849SOL    HW129006   2.645   0.889   3.792  1.0470 -0.9579 -3.8864
 5849SOL    HW229007   2.636   0.801   3.900  0.2659  2.6531  0.7381
 5850SOL     OW29008   4.035   0.130   7.842 -0.6001 -0.4439  0.5045
 5850SOL    HW129009   4.040   0.159   7.933 -1.4391 -0.1402  0.4510
 5850SOL    HW229010   3.941   0.126   7.824 -0.4941  0.2200 -0.1519
 5851SOL     OW29011   4.636   2.029   1.396 -0.5319 -0.2260  0.7479
 5851SOL    HW129012   4.563   2.012   1.336  0.9503 -1.1143 -0.7978
 5851SOL    HW229013   4.602   1.978   1.471 -2.9596 -1.1356 -0.9592
 5852SOL     OW29014   1.996   1.976   5.157 -0.0721  0.4316 -0.0454
 5852SOL    HW129015   1.984   1.885   5.184  0.1788  1.0577  2.1441
 5852SOL    HW229016   2.018   1.962   5.065 -1.5303  0.6687 -0.4452
 5853SOL     OW29017   0.265   2.651   4.369  0.0903 -0.4894 -0.9397
 5853SOL    HW129018   0.225   2.737   4.365  0.1348 -0.5191 -2.0050
 5853SOL    HW229019   0.243   2.611   4.285 -0.8030 -2.8215  0.3881
 5854SOL     OW29020   0.658   1.368   1.237 -0.0350  0.2850  0.0353
 5854SOL    HW129021   0.581   1.317   1.212  1.1505 -0.6145 -1.8024
 5854SOL    HW229022   0.656   1.363   1.332  1.2837 -0.4929  0.0108
 5855SOL     OW29023   1.589   2.299   4.960 -0.1085  0.1902 -0.4406
 5855SOL    HW129024   1.510   2.286   4.908 -0.6165  1.5203 -0.0060
 5855SOL    HW229025   1.653   2.283   4.891  1.0831  3.4028 -0.0871
 5856SOL     OW29026   1.144   0.527   5.799 -0.6082  0.5208 -0.0930
 5856SOL    HW129027   1.206   0.588   5.759  0.4690  0.9658  2.2339
 5856SOL    HW229028   1.194   0.446   5.805  1.2636  1.4170 -3.4802
 5857SOL     OW29029   2.569   3.084  15.177  0.3754 -0.6461 -0.2964
 5857SOL    HW129030   2.604   3.072  15.089 -1.3580  1.0184 -1.2086
 5857SOL    HW229031   2.502   3.143  15.143  0.3588 -1.9599 -2.5333
 5858SOL     OW29032   1.134   3.490   3.105 -0.0515  0.1519  0.0107
 5858SOL    HW129033   1.172   3.544   3.037 -0.4564  0.1735 -0.1976
 5858SOL    HW229034   1.172   3.519   3.188 -2.8430 -0.2613  1.4311
 5859SOL     OW29035   4.591   0.270   9.880  0.3300 -0.7311 -0.0429
 5859SOL    HW129036   4.512   0.268   9.933 -0.2012  1.6285 -0.7582
 5859SOL    HW229037   4.620   0.180   9.895 -0.0919 -1.1015 -1.4676
 5860SOL     OW29038   1.803   4.497   6.652  0.0303 -0.5331  0.3974
 5860SOL    HW129039   1.838   4.464   6.734 -1.4876 -0.5553  1.0285
 5860SOL    HW229040   1.777   4.585   6.680 -0.0314 -0.5239  0.3118
 5861SOL     OW29041   0.920   3.924   6.271  0.1850  0.8731  0.3966
 5861SOL    HW129042   0.965   3.931   6.186  1.0780  0.0147  0.7958
 5861SOL    HW229043   0.846   3.984   6.259 -0.7754 -0.3676  0.2007
 5862SOL     OW29044   3.108   4.124   4.307  0.0282  0.5466 -0.7970
 5862SOL    HW129045   3.074   4.038   4.331 -1.2315  1.1703 -0.3586
 5862SOL    HW229046   3.041   4.153   4.245  0.1298 -0.9355 -1.5961
 5863SOL     OW29047   1.153   1.556  11.229  0.7416  0.1828  0.2342
 5863SOL    HW129048   1.081   1.537  11.289  0.5610  2.0406  0.6179
 5863SOL    HW229049   1.137   1.647  11.202  0.0814  0.3282  1.1275
 5864SOL     OW29050   1.914   3.481  17.064  0.0428 -0.2502  0.0864
 5864SOL    HW129051   1.954   3.443  16.986 -0.6108  1.8670 -1.2760
 5864SOL    HW229052   1.881   3.568  17.039  0.4523  0.1411  0.8974
 5865SOL     OW29053   2.505   4.105   3.927 -0.3653  0.3158  0.1612
 5865SOL    HW129054   2.564   4.034   3.953 -0.4330 -0.3932 -1.6160
 5865SOL    HW229055   2.429   4.095   3.985 -0.6017  0.8378 -0.0572
 5866SOL     OW29056   1.258   0.801  11.241 -0.0151 -0.3609 -0.4509
 5866SOL    HW129057   1.294   0.803  11.153  0.1038 -0.4026 -0.4033
 5866SOL    HW229058   1.262   0.706  11.247 -2.4981 -0.3958  0.6834
 5867SOL     OW29059   2.322   3.068   8.153 -0.1343 -0.6769 -0.0241
 5867SOL    HW129060   2.400   3.027   8.190 -0.2446 -0.2614  0.6738
 5867SOL    HW229061   2.273   2.993   8.119 -0.7123 -1.1778  1.9369
 5868SOL     OW29062   2.415   3.955  10.113 -0.3429  0.1519  0.0674
 5868SOL    HW129063   2.494   3.978  10.162  0.4448 -2.3446 -0.0613
 5868SOL    HW229064   2.437   3.862  10.107 -0.1954  0.1913  0.0117
 5869SOL     OW29065   1.160   4.508   2.480  0.2146 -0.3640 -0.1655
 5869SOL    HW129066   1.134   4.499   2.388  0.0811  1.0472 -0.2737
 5869SOL    HW229067   1.242   4.554   2.462 -0.2001 -0.2524 -1.7547
 5870SOL     OW29068   2.356   2.007   3.573  0.3416 -0.5368 -0.0034
 5870SOL    HW129069   2.370   2.094   3.610  0.7516 -0.2664 -0.7896
 5870SOL    HW229070   2.319   2.034   3.489  0.1165 -0.3850  0.1460
 5871SOL     OW29071   0.789   0.655   5.476 -0.1055  0.0414  0.2271
 5871SOL    HW129072   0.784   0.697   5.390  0.9406  0.5294  0.4039
 5871SOL    HW229073   0.769   0.726   5.537  0.5552  0.3926  0.0353
 5872SOL     OW29074   4.675   2.375   2.602 -0.3324  0.2497 -0.1262
 5872SOL    HW129075   0.010   2.303   2.618 -0.9751 -0.2893 -0.1462
 5872SOL    HW229076   4.681   2.431   2.680  2.2465  0.9518 -0.8132
 5873SOL     OW29077   2.778   0.036   2.084 -0.4149  0.2399 -0.4224
 5873SOL    HW129078   2.690   0.007   2.059 -0.4475 -0.3576  0.3937
 5873SOL    HW229079   2.800   0.109   2.026 -1.6005  1.6961  1.0011
 5874SOL     OW29080   0.462   3.474   2.501 -0.2029 -0.5724 -0.3897
 5874SOL    HW129081   0.489   3.383   2.510 -1.3298 -0.9441 -0.8358
 5874SOL    HW229082   0.384   3.483   2.555 -0.8276  0.1166 -1.4023
 5875SOL     OW29083   0.721   3.605   1.751 -0.0816 -0.6952 -0.7752
 5875SOL    HW129084   0.755   3.518   1.769  1.6211  0.2098  0.4967
 5875SOL    HW229085   0.704   3.591   1.658  0.1105 -1.1352 -0.7446
 5876SOL     OW29086   1.871   1.236   2.712  0.6414 -0.5813 -0.5636
 5876SOL    HW129087   1.863   1.142   2.727 -0.2288 -0.5331 -0.7077
 5876SOL    HW229088   1.897   1.246   2.620  0.4617  0.2684 -0.5235
 5877SOL     OW29089   3.130   4.647   5.062 -0.1315  0.5199  0.0582
 5877SOL    HW129090   3.122   4.666   4.968 -1.2563  0.0881  0.0672
 5877SOL    HW229091   3.071   4.716   5.094 -1.7252 -0.8074  0.0054
 5878SOL     OW29092   2.908   3.365   9.841  0.3183  0.4360  0.5267
 5878SOL    HW129093   2.827   3.318   9.859 -0.4080  0.4605 -2.6965
 5878SOL    HW229094   2.970   3.295   9.820  2.3095  1.9570  1.4191
 5879SOL     OW29095   0.427   2.167   6.959  0.4245  0.4831 -0.3504
 5879SOL    HW129096   0.470   2.233   6.906 -0.6055 -0.0013 -1.7738
 5879SOL    HW229097   0.404   2.095   6.900  1.7338 -0.2615  0.0421
 5880SOL     OW29098   2.596   3.028   4.184  0.6352 -0.4188 -0.6037
 5880SOL    HW129099   2.633   3.099   4.237  0.9773 -0.2147 -1.1101
 5880SOL    HW229100   2.669   3.014   4.123  1.3331  2.6238 -0.4700
 5881SOL     OW29101   2.147   3.126   3.610  0.1375  0.2259  0.1253
 5881SOL    HW129102   2.151   3.186   3.536 -0.4723 -1.1406 -0.9959
 5881SOL    HW229103   2.119   3.051   3.558 -1.5185  0.9163  0.0060
 5882SOL     OW29104   2.421   0.500   3.275  0.4130 -0.0822 -0.3831
 5882SOL    HW129105   2.409   0.594   3.285  0.6079 -0.3604  2.5051
 5882SOL    HW229106   2.429   0.474   3.367  0.0080 -0.8418 -0.5629
 5883SOL     OW29107   0.745   0.148   6.621  0.6403 -0.0266 -0.0636
 5883SOL    HW129108   0.756   0.167   6.714  0.9348  0.8896 -0.2859
 5883SOL    HW229109   0.796   0.068   6.606  0.4564 -0.3130  0.7896
 5884SOL     OW29110   2.040   1.245   4.863 -0.3460  0.4450  0.0807
 5884SOL    HW129111   2.040   1.316   4.927  3.2480  0.3853  0.1227
 5884SOL    HW229112   2.021   1.166   4.914 -1.6376  0.6754 -0.0253
 5885SOL     OW29113   0.633   0.006   9.267  0.8444 -0.2652  0.3875
 5885SOL    HW129114   0.583   4.662   9.311 -0.8740  0.0460 -1.0270
 5885SOL    HW229115   0.657   4.690   9.184  3.3064 -0.4087  1.1955
 5886SOL     OW29116   0.972   2.494  15.538  0.5129  0.1549 -0.8349
 5886SOL    HW129117   0.966   2.580  15.495  0.2257  1.1382  1.1449
 5886SOL    HW229118   0.991   2.519  15.628  0.3074 -2.3646 -0.1135
 5887SOL     OW29119   2.498   3.648   2.496 -0.7316  0.7334 -1.2138
 5887SOL    HW129120   2.544   3.625   2.416 -1.3402  1.0190 -1.6419
 5887SOL    HW229121   2.426   3.705   2.470 -1.9166 -0.7771 -1.1964
 5888SOL     OW29122   4.565   4.087  12.210  0.0010  0.4901  0.0942
 5888SOL    HW129123   4.569   4.159  12.273 -1.9871 -0.6586  1.5289
 5888SOL    HW229124   4.607   4.129  12.135 -0.9058 -0.0366 -0.6976
 5889SOL     OW29125   0.277   1.015   8.463  0.2553 -0.6138 -0.7598
 5889SOL    HW129126   0.291   1.012   8.368  5.2933  1.3049 -0.0725
 5889SOL    HW229127   0.195   0.966   8.469  0.7889 -1.2269  1.5320
 5890SOL     OW29128   2.184   3.749   4.526  0.1063 -0.1199 -0.2575
 5890SOL    HW129129   2.249   3.693   4.569  0.1713 -1.4518 -2.1009
 5890SOL    HW229130   2.111   3.689   4.514 -0.5087  0.5711  0.0067
 5891SOL     OW29131   0.947   0.911   7.361  0.6369 -0.1142  0.5069
 5891SOL    HW129132   0.908   0.826   7.345  0.2882 -0.1501  1.5375
 5891SOL    HW229133   0.929   0.940   7.451 -0.7922  1.0143 -0.1305
 5892SOL     OW29134   2.506   0.956  10.157 -0.2411 -0.2551 -0.2110
 5892SOL    HW129135   2.490   1.010  10.080 -1.1043 -1.7765 -1.1026
 5892SOL    HW229136   2.511   0.870  10.117 -0.8234 -0.7370  0.7266
 5893SOL     OW29137   4.064   3.437   6.291 -0.0879  0.7853  0.2560
 5893SOL    HW129138   4.145   3.392   6.267  0.7321  1.4859  1.6661
 5893SOL    HW229139   4.093   3.518   6.332 -2.0746  0.6989  1.8429
 5894SOL     OW29140   0.390   1.318   5.400 -0.5819 -0.2711  0.1675
 5894SOL    HW129141   0.424   1.405   5.420 -0.2597 -0.2371 -0.5234
 5894SOL    HW229142   0.315   1.322   5.460 -0.0989  0.2303  0.7373
 5895SOL     OW29143   0.105   2.133  11.650 -0.1283 -0.5378  0.4235
 5895SOL    HW129144   0.141   2.195  11.586  3.5347 -1.3312  1.6955
 5895SOL    HW229145   0.123   2.048  11.608  3.3308  1.0259 -1.3043
 5896SOL     OW29146   0.202   3.209   5.603 -0.0470  0.1846  0.1529
 5896SOL    HW129147   0.166   3.268   5.670 -3.5957  0.2717 -1.7969
 5896SOL    HW229148   0.174   3.124   5.635  0.0671 -0.3876 -1.2790
 5897SOL     OW29149   0.929   0.880  13.054  0.4796  0.0378  0.4083
 5897SOL    HW129150   0.864   0.813  13.072 -0.8729  0.6875 -2.0294
 5897SOL    HW229151   1.006   0.826  13.038 -0.0391 -0.4041 -0.5810
 5898SOL     OW29152   0.845   2.154   6.807  0.1962  0.7811  0.1994
 5898SOL    HW129153   0.795   2.144   6.888  1.0628 -0.8816  0.5164
 5898SOL    HW229154   0.834   2.063   6.779 -0.9082  0.3591  2.0214
 5899SOL     OW29155   2.845   1.989   2.787 -0.5524 -0.0092 -0.4657
 5899SOL    HW129156   2.775   2.054   2.790  1.2335  1.8023  1.7562
 5899SOL    HW229157   2.866   1.992   2.880 -0.2726 -0.4847 -0.5131
 5900SOL     OW29158   0.931   3.093  11.566  0.0513  0.1566  1.0556
 5900SOL    HW129159   0.861   3.036  11.599  2.1705 -1.5937  2.4783
 5900SOL    HW229160   0.985   3.112  11.642 -0.2811  0.1464  1.2920
 5901SOL     OW29161   1.875   2.387   3.074  0.0381 -0.3693  0.3266
 5901SOL    HW129162   1.813   2.314   3.081  1.1982 -1.5522 -1.6593
 5901SOL    HW229163   1.895   2.410   3.165  0.3281  1.9397 -0.3272
 5902SOL     OW29164   2.004   0.332   7.354  0.6105  0.1547 -0.0938
 5902SOL    HW129165   1.964   0.395   7.414  0.6076  1.3572 -1.3598
 5902SOL    HW229166   2.065   0.283   7.409 -0.3459 -0.2490  0.6017
 5903SOL     OW29167   2.934   2.978  14.509  0.0632 -0.1567  0.2022
 5903SOL    HW129168   3.025   2.975  14.539  0.8805  2.8146 -1.9135
 5903SOL    HW229169   2.950   3.023  14.426 -2.4545  0.1302 -0.1188
 5904SOL     OW29170   1.920   1.135   8.323  0.3035 -0.1059  0.5117
 5904SOL    HW129171   2.004   1.164   8.360 -0.5577  1.8518  0.9571
 5904SOL    HW229172   1.874   1.149   8.406 -1.1808 -0.3749 -0.2641
 5905SOL     OW29173   0.646   3.482   8.647 -0.0965 -0.4793 -0.2201
 5905SOL    HW129174   0.654   3.512   8.556 -3.7083  1.4366  0.1064
 5905SOL    HW229175   0.633   3.388   8.638  2.2671 -0.9037  0.7125
 5906SOL     OW29176   4.439   4.214   7.288  0.1189 -0.9150  0.0715
 5906SOL    HW129177   4.387   4.225   7.209  1.0615  0.4911 -0.3665
 5906SOL    HW229178   4.378   4.167   7.345  0.5968  0.9473  2.1318
 5907SOL     OW29179   0.063   1.395   3.799  0.3048  0.7421 -0.2842
 5907SOL    HW129180   0.077   1.488   3.820  0.5842  0.4854  0.6603
 5907SOL    HW229181   4.706   1.410   3.752 -0.2764 -0.4627  0.3459
 5908SOL     OW29182   1.264   2.866   3.875 -0.3262  0.2899  0.1105
 5908SOL    HW129183   1.319   2.943   3.863  2.3619 -1.2389  2.6198
 5908SOL    HW229184   1.195   2.902   3.930 -0.6424 -1.1416  0.6708
 5909SOL     OW29185   4.213   0.519   3.793 -0.1319  0.1216 -0.3552
 5909SOL    HW129186   4.269   0.579   3.745 -1.7414  3.0490  1.3637
 5909SOL    HW229187   4.275   0.449   3.809 -0.0129  0.3546  0.2030
 5910SOL     OW29188   2.158   2.239   4.777  0.3448 -0.6618 -0.0999
 5910SOL    HW129189   2.196   2.214   4.861  1.3860  2.1993  0.2927
 5910SOL    HW229190   2.237   2.250   4.724 -0.0775  0.2555 -0.5521
 5911SOL     OW29191   0.041   3.753  16.144 -0.2698  0.0305  0.2108
 5911SOL    HW129192   0.078   3.744  16.056  0.2164  1.6600  0.2566
 5911SOL    HW229193   0.084   3.835  16.168  0.0320 -0.1193  0.1809
 5912SOL     OW29194   0.543   0.990  15.631 -0.0871  0.3864 -0.0987
 5912SOL    HW129195   0.515   1.058  15.692  2.6680  0.8373  0.6620
 5912SOL    HW229196   0.456   0.957  15.610  0.1402  0.6687 -1.5119
 5913SOL     OW29197   0.141   1.828   8.584  0.2944 -0.6104  0.3958
 5913SOL    HW129198   0.053   1.863   8.577  1.7635  2.7329 -1.4961
 5913SOL    HW229199   0.161   1.827   8.678  2.0419  1.4513  0.0541
 5914SOL     OW29200   1.543   2.441   7.583  0.2928 -0.2527 -0.1930
 5914SOL    HW129201   1.625   2.416   7.626  0.6823  2.9428  0.9586
 5914SOL    HW229202   1.476   2.425   7.649  1.0961 -1.7017  0.2708
 5915SOL     OW29203   4.075   1.425   0.507 -0.0689  0.0208 -0.0623
 5915SOL    HW129204   4.129   1.404   0.583  0.4649  0.5528 -0.2986
 5915SOL    HW229205   4.010   1.355   0.511 -1.3650  1.2766  0.9230
 5916SOL     OW29206   0.589   3.480   2.902  0.3531 -0.2418 -0.0873
 5916SOL    HW129207   0.565   3.466   2.993  0.8404  0.2120  0.1136
 5916SOL    HW229208   0.519   3.430   2.861  2.0087 -2.4464 -0.1982
 5917SOL     OW29209   2.678   2.147  17.045  0.2891 -0.0637 -0.5283
 5917SOL    HW129210   2.698   2.082  16.977  0.6198  0.4240 -0.8955
 5917SOL    HW229211   2.618   2.194  16.987  1.2318 -1.2155 -2.4771
 5918SOL     OW29212   3.279   4.174   1.061  0.0761  0.4048 -0.2890
 5918SOL    HW129213   3.369   4.194   1.084  0.5252 -4.2035  1.8703
 5918SOL    HW229214   3.232   4.176   1.145  0.2847  1.2781 -0.1942
 5919SOL     OW29215   1.571   4.361  10.965  0.1240 -0.2004 -0.3708
 5919SOL    HW129216   1.541   4.446  10.935  1.4515 -0.4258 -2.3248
 5919SOL    HW229217   1.628   4.336  10.892 -0.4477 -0.6693 -0.6576
 5920SOL     OW29218   3.146   2.452   9.776  0.6817  0.0243  0.4234
 5920SOL    HW129219   3.092   2.531   9.771  0.3839 -0.1571  0.7366
 5920SOL    HW229220   3.176   2.464   9.866  1.8495 -1.6303  0.2473
 5921SOL     OW29221   2.673   4.623   5.670 -0.2203 -0.1520 -0.0979
 5921SOL    HW129222   2.593   4.652   5.714  0.1625  1.0222 -0.1733
 5921SOL    HW229223   2.649   4.625   5.577 -1.5266 -1.4115  0.2098
 5922SOL     OW29224   3.544   2.518   8.829 -0.4513  0.4323  0.1092
 5922SOL    HW129225   3.509   2.606   8.841 -1.6045  0.4109 -2.9980
 5922SOL    HW229226   3.489   2.462   8.883  1.3394 -0.0685  1.4236
 5923SOL     OW29227   0.363   2.382   7.848 -0.5972 -0.6591  0.3727
 5923SOL    HW129228   0.327   2.357   7.763 -1.9080 -0.7491  0.9434
 5923SOL    HW229229   0.284   2.424   7.882  1.4792  2.2629  1.5822
 5924SOL     OW29230   1.387   2.546   1.836 -0.1697 -0.5430  0.0955
 5924SOL    HW129231   1.307   2.510   1.796  0.2771  0.4407 -1.6533
 5924SOL    HW229232   1.423   2.457   1.841 -2.1119 -1.5316 -3.5351
 5925SOL     OW29233   3.885   2.438   9.898  0.8072  0.0302 -0.0127
 5925SOL    HW129234   3.872   2.444   9.993  0.5908  0.5843 -0.0800
 5925SOL    HW229235   3.978   2.452   9.885  0.7572  1.5346  1.2724
 5926SOL     OW29236   3.238   2.206   1.804 -0.1738 -0.5712 -0.3002
 5926SOL    HW129237   3.173   2.274   1.820 -1.1395 -1.7734  0.8396
 5926SOL    HW229238   3.249   2.176   1.894  0.8561  0.2889 -0.1345
 5927SOL     OW29239   3.244   3.683   8.526 -0.1026  0.8164  0.3276
 5927SOL    HW129240   3.205   3.610   8.576  1.2350 -0.2847 -0.2387
 5927SOL    HW229241   3.166   3.734   8.505 -1.1079  0.5067  3.3086
 5928SOL     OW29242   1.052   4.239  13.727 -0.4186  0.3199  0.0812
 5928SOL    HW129243   0.959   4.261  13.730 -0.5426 -0.0284 -1.1174
 5928SOL    HW229244   1.062   4.229  13.632 -2.0938  0.0595 -0.0723
 5929SOL     OW29245   4.051   4.403   7.106  0.0477 -0.0553 -0.8623
 5929SOL    HW129246   4.039   4.495   7.083 -1.6930  0.0457  0.4672
 5929SOL    HW229247   3.959   4.377   7.111 -0.2394  1.0058 -0.7747
 5930SOL     OW29248   4.329   4.203   9.230  0.8285  0.2789 -0.6270
 5930SOL    HW129249   4.247   4.155   9.247  0.8654  0.1590 -0.7855
 5930SOL    HW229250   4.295   4.263   9.163  0.0608  1.1807  0.5713
 5931SOL     OW29251   1.655   2.800  14.990  0.8327 -0.0355 -0.2535
 5931SOL    HW129252   1.709   2.722  14.980  0.0081 -0.7695  0.9739
 5931SOL    HW229253   1.598   2.791  14.914 -0.9120 -2.3209  1.3217
 5932SOL     OW29254   1.038   2.216   6.070 -0.1628  0.0265  0.3743
 5932SOL    HW129255   1.052   2.307   6.043  0.4404 -0.1986 -0.0724
 5932SOL    HW229256   0.981   2.229   6.146 -0.9683 -2.2326  0.1415
 5933SOL     OW29257   0.179   3.114   5.861  0.2837 -0.0177  0.0732
 5933SOL    HW129258   0.226   3.036   5.891  1.1782  0.1695 -0.8630
 5933SOL    HW229259   0.245   3.184   5.857  1.2832 -0.9424  0.2755
 5934SOL     OW29260   2.939   3.877   4.346 -0.1282  0.1869 -0.0228
 5934SOL    HW129261   2.858   3.829   4.327  1.7501 -1.1894 -4.4216
 5934SOL    HW229262   2.956   3.831   4.428 -1.9139  1.0894  0.8576
 5935SOL     OW29263   3.197   0.154   4.580  0.0239  0.1287  0.0328
 5935SOL    HW129264   3.112   0.117   4.556 -0.5138  1.4213 -0.0053
 5935SOL    HW229265   3.244   0.119   4.505  0.0628  1.6917 -0.6441
 5936SOL     OW29266   1.467   2.125   7.175  0.0593  0.0224  0.7634
 5936SOL    HW129267   1.391   2.069   7.195  0.4810 -0.5136  0.8644
 5936SOL    HW229268   1.442   2.202   7.225 -1.1533 -0.5073  0.9788
 5937SOL     OW29269   0.844   1.763  15.318 -0.2308 -0.0838 -0.1907
 5937SOL    HW129270   0.935   1.794  15.319  0.8225 -3.0522 -4.0133
 5937SOL    HW229271   0.837   1.744  15.225  0.7263 -1.1672 -0.0399
 5938SOL     OW29272   0.423   1.673  13.964  0.3387 -0.5863  0.0359
 5938SOL    HW129273   0.336   1.682  14.001 -0.2786 -2.1729 -1.0719
 5938SOL    HW229274   0.401   1.705  13.877  2.1139 -0.7626 -0.4857
 5939SOL     OW29275   4.264   0.655   1.634  0.1019  0.7108  0.6958
 5939SOL    HW129276   4.252   0.562   1.650 -0.2466  0.8660  1.3267
 5939SOL    HW229277   4.199   0.689   1.573 -0.6574 -0.0493  1.0913
 5940SOL     OW29278   2.269   1.604   2.191 -0.6456 -0.8797  0.4799
 5940SOL    HW129279   2.310   1.690   2.194 -2.3489 -0.1613  3.1561
 5940SOL    HW229280   2.191   1.624   2.139 -0.4973  1.5992  1.2207
 5941SOL     OW29281   4.029   2.186   7.390  0.0411  0.0216  0.0468
 5941SOL    HW129282   4.102   2.224   7.341  0.4571  0.0116  0.6432
 5941SOL    HW229283   4.027   2.243   7.467 -1.0550  1.7060 -1.2405
 5942SOL     OW29284   3.865   1.625  16.959 -0.2597  0.8867 -0.3138
 5942SOL    HW129285   3.802   1.561  16.993  1.1241  1.1541  2.7053
 5942SOL    HW229286   3.812   1.702  16.979 -2.4176 -1.1762  1.8343
 5943SOL     OW29287   3.110   3.019   6.998 -0.0840 -0.5801  0.0822
 5943SOL    HW129288   3.090   2.944   7.054 -2.3544 -1.3851 -1.7423
 5943SOL    HW229289   3.126   2.974   6.914  0.5485  3.7371 -2.0879
 5944SOL     OW29290   3.346   3.802  10.797 -0.1820  0.2161 -0.0745
 5944SOL    HW129291   3.434   3.805  10.761 -0.7069 -0.5931 -1.4415
 5944SOL    HW229292   3.317   3.767  10.712  1.0034 -0.2136 -0.2960
 5945SOL     OW29293   4.258   0.451   9.081  0.0081 -0.8275 -0.6063
 5945SOL    HW129294   4.229   0.372   9.126  4.4383 -2.4332 -0.5972
 5945SOL    HW229295   4.228   0.511   9.149  2.5057  1.2994 -1.3848
 5946SOL     OW29296   0.359   3.271   6.211  0.4192  0.2262 -0.1722
 5946SOL    HW129297   0.335   3.264   6.119  1.3625  0.0770 -0.4095
 5946SOL    HW229298   0.387   3.362   6.217 -1.7207  0.7874  1.0168
 5947SOL     OW29299   2.498   4.003   2.681 -0.3236 -0.5853  0.4874
 5947SOL    HW129300   2.487   3.922   2.732 -1.2432 -0.5599  0.3276
 5947SOL    HW229301   2.586   3.991   2.645 -0.4055 -1.5238  0.6043
 5948SOL     OW29302   4.708   2.502   2.825 -0.4986  0.0768  0.2381
 5948SOL    HW129303   0.066   2.460   2.844 -0.1344  1.3577  1.4821
 5948SOL    HW229304   4.722   2.593   2.852  0.5989 -1.4894  4.8986
 5949SOL     OW29305   4.535   1.363   5.344  0.2328 -0.3922  0.3981
 5949SOL    HW129306   4.523   1.441   5.398  0.0027  0.8250 -1.4141
 5949SOL    HW229307   4.471   1.302   5.381  2.0007 -1.3699  1.8350
 5950SOL     OW29308   0.141   4.685   2.981  0.0932  0.2940  0.0865
 5950SOL    HW129309   0.128   0.040   2.931 -0.7553 -0.2796 -0.6194
 5950SOL    HW229310   0.229   4.654   2.957 -0.8089  0.1688 -3.0084
 5951SOL     OW29311   0.607   1.739  15.739  0.0576  0.0072 -0.0469
 5951SOL    HW129312   0.586   1.680  15.812  1.7154 -0.0191  0.3898
 5951SOL    HW229313   0.557   1.813  15.774  0.5606  1.2639 -2.0408
 5952SOL     OW29314   0.884   0.270   3.325 -0.3691 -0.1256  0.0438
 5952SOL    HW129315   0.903   0.255   3.232 -2.3055 -1.0718 -0.1986
 5952SOL    HW229316   0.815   0.206   3.346 -1.0040  0.1691 -1.1126
 5953SOL     OW29317   0.853   3.624   3.693 -0.0657 -0.1762  0.0962
 5953SOL    HW129318   0.845   3.661   3.781 -0.4278  1.4775 -0.6226
 5953SOL    HW229319   0.771   3.575   3.688 -0.3203  0.2989 -0.3647
 5954SOL     OW29320   3.457   0.407   2.490 -0.5039  0.2058  0.4795
 5954SOL    HW129321   3.516   0.425   2.417  1.3731 -1.9605  1.4572
 5954SOL    HW229322   3.526   0.420   2.556  0.2726  0.5441 -0.4027
 5955SOL     OW29323   0.181   4.623   4.986  0.1961 -0.1472  0.7218
 5955SOL    HW129324   0.249   4.673   4.942  0.2462 -1.3625 -0.5835
 5955SOL    HW229325   0.137   4.575   4.915  1.5799 -1.9150  1.0439
 5956SOL     OW29326   3.038   2.537   9.336 -0.1805  0.1015  0.1282
 5956SOL    HW129327   2.958   2.588   9.331 -0.5175 -0.1866  2.2696
 5956SOL    HW229328   2.997   2.452   9.318 -1.2264  0.3660  1.2341
 5957SOL     OW29329   4.396   3.357   3.735 -0.0388  0.0450  0.0925
 5957SOL    HW129330   4.306   3.353   3.703 -0.6705 -1.0422  1.9651
 5957SOL    HW229331   4.417   3.450   3.727 -1.5381  0.3162 -0.7551
 5958SOL     OW29332   0.817   4.162   2.187  0.8058 -0.1880  0.2251
 5958SOL    HW129333   0.830   4.208   2.270 -0.9669  0.1370  0.3196
 5958SOL    HW229334   0.906   4.152   2.153  1.4911 -0.3676  2.0436
 5959SOL     OW29335   0.044   2.393   8.211  0.0293 -0.0969 -0.3921
 5959SOL    HW129336   0.125   2.398   8.160  0.2510  2.4662  0.2203
 5959SOL    HW229337   4.701   2.423   8.152  0.1647  1.0790  0.0626
 5960SOL     OW29338   1.321   3.111   2.990  0.5505  0.1001 -0.9233
 5960SOL    HW129339   1.272   3.093   2.909 -1.1906 -2.1727  0.6651
 5960SOL    HW229340   1.295   3.200   3.016 -1.0521 -0.2409 -1.3667
 5961SOL     OW29341   1.965   2.572  16.075 -0.1749  0.3716 -0.2368
 5961SOL    HW129342   2.017   2.522  16.011  0.7216  0.9467  0.0448
 5961SOL    HW229343   1.964   2.656  16.030 -2.5323 -0.7113 -2.2175
 5962SOL     OW29344   1.140   1.037   6.548 -0.2869  0.5438  0.4324
 5962SOL    HW129345   1.181   1.010   6.629 -0.8546  0.1049  0.5768
 5962SOL    HW229346   1.220   1.050   6.496 -0.6577 -0.9342 -0.5395
 5963SOL     OW29347   1.588   3.343   4.639  0.0452 -0.3566 -0.1640
 5963SOL    HW129348   1.618   3.432   4.622  0.3660 -0.6059 -0.8719
 5963SOL    HW229349   1.571   3.348   4.733  0.2732  0.3746 -0.1624
 5964SOL     OW29350   1.329   4.266   7.441 -0.2760  0.2898 -0.0797
 5964SOL    HW129351   1.292   4.198   7.384  2.8809 -1.9323  0.5110
 5964SOL    HW229352   1.338   4.341   7.383 -1.5319 -0.6707 -1.5391
 5965SOL     OW29353   4.406   3.107   2.258  0.1982 -0.0332  0.4038
 5965SOL    HW129354   4.415   3.041   2.189  1.5419  0.2290  0.3208
 5965SOL    HW229355   4.498   3.118   2.284  0.2437  1.3918 -0.3631
 5966SOL     OW29356   2.169   2.828  10.114  0.2995  0.0557  0.0235
 5966SOL    HW129357   2.121   2.750  10.088  1.3878  0.2584 -2.5382
 5966SOL    HW229358   2.233   2.795  10.178 -1.4641  1.3900  2.4643
 5967SOL     OW29359   0.684   4.621   7.368  0.4142  0.4459  0.6137
 5967SOL    HW129360   0.634   4.556   7.418 -1.5441  0.8213 -0.8384
 5967SOL    HW229361   0.620   4.640   7.299  1.2744  1.4158  0.0969
 5968SOL     OW29362   3.124   3.696   4.835  0.2953  0.3650 -0.3504
 5968SOL    HW129363   3.159   3.785   4.841  1.4506 -0.1581  0.4756
 5968SOL    HW229364   3.182   3.644   4.780  0.5574  0.0277  0.2544
 5969SOL     OW29365   1.658   3.671   7.764 -0.0620  0.0482 -0.2496
 5969SOL    HW129366   1.620   3.672   7.677 -2.6157 -1.3790  0.8507
 5969SOL    HW229367   1.597   3.620   7.817 -0.4517 -0.3333 -1.0680
 5970SOL     OW29368   4.397   0.777   7.939  0.0479  0.4973 -0.4625
 5970SOL    HW129369   4.424   0.691   7.905  4.3118  1.0783  1.3606
 5970SOL    HW229370   4.322   0.751   7.992 -0.6260 -1.1606 -2.2312
 5971SOL     OW29371   1.326   4.616   7.837 -0.4765 -0.3296 -0.9098
 5971SOL    HW129372   1.242   4.603   7.794 -1.6780  0.4636  1.2063
 5971SOL    HW229373   1.313   4.710   7.847  1.4205 -0.1256 -0.3582
 5972SOL     OW29374   1.630   1.602   7.141 -0.0863  0.3101 -0.2005
 5972SOL    HW129375   1.609   1.658   7.067 -1.5598  0.1440  0.1072
 5972SOL    HW229376   1.587   1.520   7.120 -0.1584  0.5057 -0.8018
 5973SOL     OW29377   1.028   3.034   3.941  0.0595  0.3693  0.0108
 5973SOL    HW129378   1.002   3.064   4.028 -1.7946 -0.0361 -0.4064
 5973SOL    HW229379   1.054   3.112   3.893  0.1290  0.0052 -0.5389
 5974SOL     OW29380   1.819   0.163   2.487 -0.0748  0.1157  0.7708
 5974SOL    HW129381   1.869   0.158   2.405 -0.2530 -0.5190  0.6997
 5974SOL    HW229382   1.877   0.199   2.554 -0.4454  1.2421  0.4928
 5975SOL     OW29383   0.608   3.460   7.434  0.6577 -0.6930 -0.3671
 5975SOL    HW129384   0.624   3.554   7.427 -0.5430 -0.4052  0.7054
 5975SOL    HW229385   0.646   3.423   7.354  0.9914  0.3285 -0.6853
 5976SOL     OW29386   0.133   0.997   5.603 -0.2746 -0.2838  0.9033
 5976SOL    HW129387   0.212   1.046   5.625  0.0798 -1.4817  2.3023
 5976SOL    HW229388   0.129   0.987   5.508  1.0219 -0.6915  0.8908
 5977SOL     OW29389   2.813   4.116   8.540  0.1784  0.1441  0.7271
 5977SOL    HW129390   2.813   4.032   8.585  2.4668 -0.1893  0.0830
 5977SOL    HW229391   2.742   4.156   8.591  0.8006  1.9882  0.1771
 5978SOL     OW29392   0.761   1.575   5.321  0.5136 -0.2686 -0.4419
 5978SOL    HW129393   0.696   1.619   5.266 -0.5041  0.4914  1.3970
 5978SOL    HW229394   0.812   1.533   5.251  1.5033  0.5130 -0.1930
 5979SOL     OW29395   3.466   2.055   8.561  0.4098 -0.4920  0.8164
 5979SOL    HW129396   3.562   2.050   8.559  0.4694  1.6117 -1.1858
 5979SOL    HW229397   3.444   1.981   8.617  1.0349 -1.1907  0.1449
 5980SOL     OW29398   2.993   2.759  14.715 -0.2162 -0.3774 -0.3435
 5980SOL    HW129399   3.056   2.804  14.772 -1.4438  0.5539  0.2732
 5980SOL    HW229400   3.004   2.667  14.736  1.4908 -0.9606 -3.7672
 5981SOL     OW29401   1.059   2.197   3.827  0.2532  0.1342 -0.3532
 5981SOL    HW129402   1.135   2.184   3.883  0.0670 -0.7766 -0.3256
 5981SOL    HW229403   1.079   2.135   3.757  1.3025 -1.5037  1.4294
 5982SOL     OW29404   4.439   0.431   8.355 -0.2323 -0.0426  0.3458
 5982SOL    HW129405   4.357   0.387   8.334  0.7429 -1.0256 -1.3863
 5982SOL    HW229406   4.487   0.366   8.406 -0.7662 -0.9149 -0.2685
 5983SOL     OW29407   3.601   0.168   2.117 -0.3907  0.8037  0.2985
 5983SOL    HW129408   3.524   0.121   2.088  0.9183 -0.8335 -0.5361
 5983SOL    HW229409   3.633   0.200   2.033  3.6931 -1.0505  1.1293
 5984SOL     OW29410   3.790   0.611   1.829 -0.5333  0.7869 -0.1240
 5984SOL    HW129411   3.835   0.570   1.904  1.1829  0.9662 -1.0552
 5984SOL    HW229412   3.858   0.637   1.767 -0.0241  0.8745  0.4595
 5985SOL     OW29413   4.518   4.568  12.256  0.4940  0.5056 -0.4715
 5985SOL    HW129414   4.504   4.656  12.291 -0.2768 -0.5899  1.9939
 5985SOL    HW229415   4.604   4.576  12.214  0.5451 -0.4973 -0.5652
 5986SOL     OW29416   0.590   3.791   5.950 -0.3958 -0.4360  0.5727
 5986SOL    HW129417   0.497   3.779   5.929 -0.2075  0.2453 -0.7063
 5986SOL    HW229418   0.586   3.781   6.045  0.8690  1.1625  0.7900
 5987SOL     OW29419   1.862   4.488   5.045 -0.2667 -0.0672  0.2944
 5987SOL    HW129420   1.931   4.535   5.093 -0.1326  0.6308 -0.5635
 5987SOL    HW229421   1.783   4.530   5.080 -0.2731 -0.0916  0.3092
 5988SOL     OW29422   2.754   3.549   9.702 -0.4844  0.0683  0.2160
 5988SOL    HW129423   2.805   3.493   9.761 -0.0793 -0.8379 -0.9990
 5988SOL    HW229424   2.737   3.485   9.632 -2.8762  1.3495 -0.3909
 5989SOL     OW29425   1.038   4.475  16.887  0.1741  0.5620 -0.6708
 5989SOL    HW129426   0.974   4.534  16.926 -1.0210 -1.2050  0.0083
 5989SOL    HW229427   1.119   4.515  16.920  1.1237  0.4972 -2.8799
 5990SOL     OW29428   2.131   2.971   7.904 -0.1358  0.0778  0.3669
 5990SOL    HW129429   2.042   2.941   7.925 -0.4940  2.3505  2.0773
 5990SOL    HW229430   2.170   2.884   7.910  1.0364  0.4543 -2.0798
 5991SOL     OW29431   4.040   0.173   5.567 -0.0042  0.0705  0.0334
 5991SOL    HW129432   4.065   0.249   5.514  0.0004  0.2408  0.2826
 5991SOL    HW229433   4.099   0.172   5.642  0.2500 -0.3288 -0.1754
 5992SOL     OW29434   2.579   3.593  13.820 -0.2413 -0.5173  0.2239
 5992SOL    HW129435   2.597   3.686  13.832 -0.8322 -0.1282 -1.7501
 5992SOL    HW229436   2.597   3.563  13.908  0.7995 -1.4056 -0.2939
 5993SOL     OW29437   0.642   1.029  16.294  0.1652 -0.5088 -0.1453
 5993SOL    HW129438   0.709   1.002  16.358 -1.1017  0.2293  1.5070
 5993SOL    HW229439   0.578   1.035  16.365  1.2079 -1.2123  0.8553
 5994SOL     OW29440   2.281   0.510  15.427  0.5463 -0.2211 -0.1753
 5994SOL    HW129441   2.259   0.429  15.474  1.0818 -0.6503 -0.6692
 5994SOL    HW229442   2.232   0.568  15.486  0.1296 -0.2847 -0.4592
 5995SOL     OW29443   3.851   3.569  15.182 -0.0799 -0.0220 -0.0937
 5995SOL    HW129444   3.907   3.505  15.226  2.4613  1.8804 -0.5907
 5995SOL    HW229445   3.885   3.648  15.222  2.0060  0.3012 -2.4661
 5996SOL     OW29446   3.854   4.074  15.929 -0.3026 -0.0901  0.2402
 5996SOL    HW129447   3.770   4.061  15.974  1.3829 -1.6515  2.9362
 5996SOL    HW229448   3.859   3.997  15.873 -0.3449 -0.5183  0.8199
 5997SOL     OW29449   0.376   3.370  14.308  0.8074 -0.2245 -0.5773
 5997SOL    HW129450   0.388   3.409  14.395 -1.2296 -1.7371  0.3865
 5997SOL    HW229451   0.333   3.442  14.262 -0.0615 -0.8170 -0.6712
 5998SOL     OW29452   1.361   1.393   4.024 -0.6382  0.2980 -0.3238
 5998SOL    HW129453   1.377   1.375   4.116  0.1336  0.4197 -0.4332
 5998SOL    HW229454   1.364   1.304   3.988  1.9870 -0.3891  1.6658
 5999SOL     OW29455   3.987   1.154  13.054 -0.1359  0.3627 -0.2395
 5999SOL    HW129456   3.962   1.177  12.965 -1.0996 -0.3852 -0.1628
 5999SOL    HW229457   4.014   1.063  13.039  1.8366  1.1451 -1.5459
 6000SOL     OW29458   4.274   1.336   9.388 -0.0870  0.1857 -0.6254
 6000SOL    HW129459   4.245   1.425   9.368  0.3267  0.5697  0.4923
 6000SOL    HW229460   4.242   1.324   9.477  2.6444  1.2018  0.4782
 6001SOL     OW29461   2.601   3.998  13.191 -0.2330 -0.3568  0.6626
 6001SOL    HW129462   2.663   4.042  13.133 -1.2862 -0.3629 -0.4659
 6001SOL    HW229463   2.534   4.064  13.212 -0.0859 -0.0791  0.2408
 6002SOL     OW29464   4.563   2.825   5.332 -0.5419 -0.0546 -0.4399
 6002SOL    HW129465   4.585   2.782   5.250  1.7938  0.2644  0.0213
 6002SOL    HW229466   4.566   2.754   5.397 -1.7762  0.9586  0.7453
 6003SOL     OW29467   2.505   3.888   0.937  0.3082  0.7043 -0.3069
 6003SOL    HW129468   2.482   3.840   0.857 -1.1496 -1.5649  1.4663
 6003SOL    HW229469   2.427   3.872   0.990  1.9263 -2.2850  1.1823
 6004SOL     OW29470   3.596   0.034   1.852 -0.2946 -0.0170 -0.1320
 6004SOL    HW129471   3.623   0.124   1.839  1.0153 -0.4466 -0.3206
 6004SOL    HW229472   3.560   0.013   1.765  1.9077  1.0820 -1.2945
 6005SOL     OW29473   2.700   0.758   4.847  0.0179  0.1391  0.0831
 6005SOL    HW129474   2.650   0.776   4.768 -1.1142  3.1314  1.4820
 6005SOL    HW229475   2.759   0.689   4.817  0.9375  1.1968 -0.5402
 6006SOL     OW29476   0.457   1.584   9.027  0.3207  0.5172  0.4620
 6006SOL    HW129477   0.385   1.648   9.027  0.5249  0.7506 -1.9389
 6006SOL    HW229478   0.502   1.602   9.109 -0.3841  1.0843  0.7334
 6007SOL     OW29479   1.386   4.115   5.695  0.1194 -0.5756 -0.3393
 6007SOL    HW129480   1.311   4.056   5.683 -2.1464  2.1196  0.5553
 6007SOL    HW229481   1.458   4.053   5.700 -1.3835 -2.4596 -2.1777
 6008SOL     OW29482   1.873   0.503   2.433  0.3989  0.3003  0.0818
 6008SOL    HW129483   1.889   0.566   2.503 -0.1169 -0.9642  1.3452
 6008SOL    HW229484   1.778   0.514   2.430  0.2837 -1.4068 -2.2664
 6009SOL     OW29485   3.280   1.748   4.803 -0.1076 -0.1871 -0.3277
 6009SOL    HW129486   3.343   1.689   4.843 -0.0218 -0.4373 -0.8372
 6009SOL    HW229487   3.332   1.826   4.783  0.2386 -0.4065 -0.2802
 6010SOL     OW29488   1.294   1.420  13.631 -0.0551  0.0411  0.6273
 6010SOL    HW129489   1.307   1.425  13.536  1.5382 -0.4938  0.8097
 6010SOL    HW229490   1.201   1.397  13.636 -0.3803  1.5554  1.3081
 6011SOL     OW29491   1.802   2.185   1.338  0.6316  0.3706  0.1071
 6011SOL    HW129492   1.811   2.130   1.260  2.5491  1.0956 -0.1823
 6011SOL    HW229493   1.784   2.109   1.394 -0.4531  0.1871 -0.4853
 6012SOL     OW29494   3.719   0.302   9.521 -0.6587  0.7050  0.8198
 6012SOL    HW129495   3.781   0.372   9.541 -0.0688  0.5562 -0.4746
 6012SOL    HW229496   3.772   0.258   9.455 -1.0388 -0.0470  1.0247
 6013SOL     OW29497   2.900   1.106   3.324  0.4935 -0.2896  0.3908
 6013SOL    HW129498   2.905   1.141   3.413  3.4100 -0.6439  0.3721
 6013SOL    HW229499   2.852   1.023   3.327  1.0507 -0.5717  1.4797
 6014SOL     OW29500   2.912   2.462  14.506 -0.5422 -0.5602 -0.3200
 6014SOL    HW129501   2.849   2.534  14.494 -2.3087 -1.2491  4.5716
 6014SOL    HW229502   2.940   2.439  14.418 -0.0083 -0.9066 -0.0571
 6015SOL     OW29503   1.537   4.519   7.702 -0.0633  0.2385  0.2526
 6015SOL    HW129504   1.618   4.569   7.705  0.1772 -0.2180  1.0880
 6015SOL    HW229505   1.479   4.570   7.759 -1.0361  0.7184 -1.1543
 6016SOL     OW29506   2.186   0.761   7.252 -0.2567 -0.1720 -0.1999
 6016SOL    HW129507   2.201   0.807   7.335  1.0334  2.6225 -1.9894
 6016SOL    HW229508   2.119   0.810   7.205  0.6774  0.6900 -0.6313
 6017SOL     OW29509   2.946   0.868   6.294 -0.0910  0.1223  0.0598
 6017SOL    HW129510   3.036   0.878   6.263 -0.6096 -0.6847 -1.7315
 6017SOL    HW229511   2.902   0.846   6.211  1.8366  0.2860 -0.9928
 6018SOL     OW29512   3.915   3.748   3.839  0.0654 -0.2655  0.4247
 6018SOL    HW129513   4.000   3.776   3.870 -0.4565  1.5518  0.1727
 6018SOL    HW229514   3.859   3.780   3.909 -0.7767 -0.6488 -0.0702
 6019SOL     OW29515   3.295   0.807   6.359 -0.4604  0.0236 -0.3089
 6019SOL    HW129516   3.248   0.736   6.315  2.0685 -3.1943  2.1540
 6019SOL    HW229517   3.388   0.784   6.359 -0.7520 -1.1588 -1.6942
 6020SOL     OW29518   1.830   1.062   2.113 -0.6995 -0.2268 -0.2759
 6020SOL    HW129519   1.842   1.140   2.058  1.8927 -0.0046  0.6060
 6020SOL    HW229520   1.754   1.015   2.078  0.3867 -0.8377 -1.8114
 6021SOL     OW29521   0.439   2.315   7.193  0.1869 -0.0273  0.3264
 6021SOL    HW129522   0.533   2.328   7.184 -0.0431  0.5210 -1.2089
 6021SOL    HW229523   0.420   2.261   7.117  1.1451  1.6902 -1.1376
 6022SOL     OW29524   0.010   0.473   4.307  0.5286 -0.0656  0.4538
 6022SOL    HW129525   4.657   0.439   4.350  0.9403  1.0927  2.1582
 6022SOL    HW229526   4.718   0.457   4.214  1.0817 -1.4434  0.5839
 6023SOL     OW29527   2.865   3.452   4.903  0.3247  0.3048 -0.9480
 6023SOL    HW129528   2.846   3.544   4.923 -1.0233 -1.0251  4.0291
 6023SOL    HW229529   2.830   3.412   4.983  1.2763  0.9000 -0.2400
 6024SOL     OW29530   4.617   4.613   8.820  0.2615  0.2066  0.2590
 6024SOL    HW129531   4.627   4.618   8.725 -2.0214  0.2316  0.0156
 6024SOL    HW229532   4.705   4.589   8.847  0.8674  2.0368 -0.1204
 6025SOL     OW29533   1.045   2.338  13.036 -0.3994  0.5374 -0.2162
 6025SOL    HW129534   1.054   2.260  12.981 -1.1487  0.0007  0.4185
 6025SOL    HW229535   1.016   2.295  13.116  1.4594 -0.4920 -0.1006
 6026SOL     OW29536   1.151   3.082  10.382  0.0958  0.3126 -0.1934
 6026SOL    HW129537   1.233   3.093  10.334 -1.2336 -0.3347 -2.5968
 6026SOL    HW229538   1.170   3.128  10.463 -1.1859 -1.0486  0.8833
 6027SOL     OW29539   3.774   4.607  15.712  0.3506  0.3138  0.1107
 6027SOL    HW129540   3.708   4.578  15.648 -1.4223  0.3308  1.9121
 6027SOL    HW229541   3.722   4.649  15.780  1.2263  0.2976  0.7862
 6028SOL     OW29542   4.078   2.647   5.077 -0.4139 -0.1602  0.1671
 6028SOL    HW129543   4.046   2.695   5.001  0.5138 -0.4140 -0.3779
 6028SOL    HW229544   4.062   2.711   5.146 -0.1202 -0.2113  0.2834
 6029SOL     OW29545   3.026   0.092  12.162 -0.5650 -0.0331  0.7727
 6029SOL    HW129546   3.101   0.127  12.209 -0.8245  1.0741  0.3603
 6029SOL    HW229547   3.049   0.003  12.136 -0.9932 -0.2193  1.0324
 6030SOL     OW29548   4.713   3.034  13.565  0.1891 -0.0421  0.3264
 6030SOL    HW129549   0.043   2.964  13.600  0.4710  0.0032 -0.0227
 6030SOL    HW229550   0.026   3.032  13.477 -0.9828 -0.0027 -0.1833
 6031SOL     OW29551   3.586   1.707  14.117  0.2876  0.3373 -0.3895
 6031SOL    HW129552   3.661   1.753  14.155  0.4900 -0.8666  0.6662
 6031SOL    HW229553   3.584   1.623  14.164 -1.5643  0.6584  0.1023
 6032SOL     OW29554   4.682   3.114   3.451  0.2468 -0.0301 -0.0039
 6032SOL    HW129555   4.713   3.150   3.534 -2.3234 -0.2985  1.0689
 6032SOL    HW229556   4.633   3.034   3.469  1.1724 -1.1113 -2.2922
 6033SOL     OW29557   0.225   0.605   2.764 -0.7492  0.0645 -1.1987
 6033SOL    HW129558   0.289   0.553   2.812 -0.7606  0.8081 -0.3872
 6033SOL    HW229559   0.195   0.662   2.835 -2.5492 -0.5528 -1.4713
 6034SOL     OW29560   4.551   2.207   5.100  0.2522  0.1140  0.2459
 6034SOL    HW129561   4.481   2.215   5.035  1.1294  0.0265 -0.7026
 6034SOL    HW229562   4.516   2.276   5.157 -0.3880 -0.5050  0.6005
 6035SOL     OW29563   0.769   0.214  12.090 -0.3457 -0.4466  0.1309
 6035SOL    HW129564   0.819   0.245  12.165  0.7030 -1.3628 -0.1857
 6035SOL    HW229565   0.739   0.297  12.054  0.4835 -0.1457  0.1278
 6036SOL     OW29566   1.037   0.137  15.770 -0.1206 -0.1453  0.2231
 6036SOL    HW129567   0.959   0.105  15.724 -1.6103 -1.7915  3.8716
 6036SOL    HW229568   1.095   0.077  15.723 -2.0229 -1.5572 -0.3283
 6037SOL     OW29569   3.178   2.737   8.285  0.2881  0.3587 -0.0900
 6037SOL    HW129570   3.151   2.829   8.279 -2.6323 -0.5953 -1.7428
 6037SOL    HW229571   3.155   2.704   8.198  2.9797  0.9106 -1.0199
 6038SOL     OW29572   3.277   4.172   5.901 -0.8012  0.4412  0.5994
 6038SOL    HW129573   3.222   4.221   5.840  0.4501 -0.7282 -1.4632
 6038SOL    HW229574   3.363   4.192   5.863 -0.8765 -0.5261 -0.0931
 6039SOL     OW29575   3.638   3.992  16.074 -0.2312 -0.4607  0.0765
 6039SOL    HW129576   3.639   3.904  16.112 -0.8883 -1.4016 -2.0637
 6039SOL    HW229577   3.553   4.031  16.095 -0.8352 -0.8892 -1.5626
 6040SOL     OW29578   3.822   1.895   5.863 -1.0513 -0.9579  0.2761
 6040SOL    HW129579   3.805   1.988   5.878 -1.5950 -1.0168  0.0143
 6040SOL    HW229580   3.732   1.865   5.849 -2.3779  2.0164  2.3662
 6041SOL     OW29581   1.935   4.268  15.910 -0.3763 -0.1987  0.3870
 6041SOL    HW129582   1.864   4.215  15.874  0.4499  1.3304 -3.5178
 6041SOL    HW229583   1.891   4.348  15.941  1.0011  0.7273 -0.0167
 6042SOL     OW29584   3.841   3.239   6.588 -0.2174 -0.3394  0.1059
 6042SOL    HW129585   3.839   3.286   6.672  0.3074  0.9692 -0.6157
 6042SOL    HW229586   3.922   3.188   6.591  0.6856  1.0152 -1.4129
 6043SOL     OW29587   3.530   1.790  14.404 -0.0611  0.0698  0.0516
 6043SOL    HW129588   3.599   1.768  14.466  0.0418 -0.1883 -0.1525
 6043SOL    HW229589   3.564   1.870  14.363 -2.1328  0.1255 -1.6178
 6044SOL     OW29590   3.199   4.300   4.556  0.3166 -0.4527 -0.4346
 6044SOL    HW129591   3.201   4.205   4.560  1.1039 -0.5279 -2.2532
 6044SOL    HW229592   3.231   4.327   4.642  1.0935  1.5376 -1.3370
 6045SOL     OW29593   1.981   0.910   9.012 -0.3301 -0.2839  0.5575
 6045SOL    HW129594   1.921   0.943   8.944  1.3453  1.9958  0.1952
 6045SOL    HW229595   2.049   0.976   8.998 -2.0818  0.7205 -3.2705
 6046SOL     OW29596   1.553   4.569   1.932 -0.0001  0.3178 -0.6232
 6046SOL    HW129597   1.575   4.662   1.923  1.8218 -0.0654 -0.2493
 6046SOL    HW229598   1.635   4.520   1.942 -0.0930  0.3297  0.1828
 6047SOL     OW29599   2.728   2.668   3.081  0.8789  0.8764  0.1020
 6047SOL    HW129600   2.767   2.595   3.033  0.4125  0.2266  0.7252
 6047SOL    HW229601   2.695   2.718   3.006 -2.5760 -0.7045  0.5705
 6048SOL     OW29602   3.530   1.795   8.702  0.2566  0.0577  0.1382
 6048SOL    HW129603   3.603   1.755   8.749  1.5602  1.8088 -0.4078
 6048SOL    HW229604   3.554   1.775   8.611 -0.8245  0.1543 -0.1664
 6049SOL     OW29605   0.373   2.019  13.641  0.4213 -0.0629 -0.4712
 6049SOL    HW129606   0.370   1.930  13.675  0.9624  0.8059  1.8942
 6049SOL    HW229607   0.425   2.057  13.712 -0.7790  1.7105 -0.5502
 6050SOL     OW29608   2.110   1.909   0.505  0.2682  0.1997 -0.1686
 6050SOL    HW129609   2.114   1.995   0.549 -1.3953 -0.1457  0.6658
 6050SOL    HW229610   2.199   1.876   0.515  0.0324 -0.5375 -0.5255
 6051SOL     OW29611   0.407   3.879   7.820 -0.2931 -0.2805  0.1796
 6051SOL    HW129612   0.435   3.961   7.862 -2.5266 -0.3925  1.9003
 6051SOL    HW229613   0.468   3.858   7.749 -2.3832 -0.1508 -1.6620
 6052SOL     OW29614   1.961   0.219  15.647 -0.2709 -0.0337 -0.1738
 6052SOL    HW129615   1.914   0.197  15.566 -1.3222 -0.7852  0.6295
 6052SOL    HW229616   1.886   0.243  15.703 -0.0244 -0.3100  0.2770
 6053SOL     OW29617   4.013   0.984  16.708 -0.1786 -0.4847  0.1710
 6053SOL    HW129618   4.057   1.039  16.772  0.1796 -0.7208  0.1244
 6053SOL    HW229619   4.086   0.973  16.646  0.2276  2.7028  0.0714
 6054SOL     OW29620   1.872   4.102   6.911  0.1001  0.3201 -0.0856
 6054SOL    HW129621   1.831   4.018   6.888  0.9638 -0.4978  1.3186
 6054SOL    HW229622   1.907   4.092   7.000  1.9096  0.8623 -0.7481
 6055SOL     OW29623   2.158   0.418   6.139 -0.6027  0.4403 -0.3351
 6055SOL    HW129624   2.233   0.365   6.165 -1.6162 -0.8748 -0.1164
 6055SOL    HW229625   2.151   0.480   6.211  0.4222 -0.7743  0.8006
 6056SOL     OW29626   0.020   4.211  12.030 -0.2111 -0.2057  0.1741
 6056SOL    HW129627   0.006   4.282  11.967  0.6079 -0.3312 -0.1547
 6056SOL    HW229628   0.112   4.189  12.011  0.0663  0.6055  0.5875
 6057SOL     OW29629   1.384   3.191  10.295  0.1453 -0.2171  0.0870
 6057SOL    HW129630   1.479   3.188  10.294  0.1983  1.6742 -0.5729
 6057SOL    HW229631   1.374   3.265  10.235  0.2301 -1.6227 -1.6664
 6058SOL     OW29632   0.501   0.913  16.961  0.0823 -0.3706  0.0612
 6058SOL    HW129633   0.513   0.960  16.878  2.3205  1.0533  1.1765
 6058SOL    HW229634   0.407   0.893  16.958  0.1751 -0.9681  1.1745
 6059SOL     OW29635   0.404   1.128   1.286  0.1244 -0.8023  0.5086
 6059SOL    HW129636   0.469   1.135   1.355  1.1776  0.5059 -0.6013
 6059SOL    HW229637   0.422   1.036   1.267 -0.5776 -0.4383 -1.9860
 6060SOL     OW29638   2.228   4.630   5.392 -0.4898 -0.1838 -0.0588
 6060SOL    HW129639   2.296   4.576   5.433  0.2865 -0.5485 -1.8000
 6060SOL    HW229640   2.279   4.678   5.326 -3.4355  1.5974 -1.0636
 6061SOL     OW29641   0.066   4.218  11.328 -0.1196  0.6181 -0.0192
 6061SOL    HW129642   0.076   4.310  11.303  0.8912  0.2595 -0.9456
 6061SOL    HW229643   0.105   4.220  11.415  1.8821  0.5460 -0.9117
 6062SOL     OW29644   4.395   2.198   4.061 -0.2440  0.4433 -0.1807
 6062SOL    HW129645   4.416   2.229   3.972 -1.0320  2.4665  0.3369
 6062SOL    HW229646   4.318   2.248   4.088 -0.9227 -1.3051  1.0978
 6063SOL     OW29647   0.224   4.388   1.134 -0.3232  0.0299  0.4170
 6063SOL    HW129648   0.312   4.373   1.101 -1.1808  0.5866 -2.1683
 6063SOL    HW229649   0.214   4.481   1.114 -0.1026 -0.2128 -0.8483
 6064SOL     OW29650   4.187   1.003   8.328 -0.3421 -0.0639  0.0475
 6064SOL    HW129651   4.173   0.967   8.415 -1.1924  0.1997  0.0270
 6064SOL    HW229652   4.106   1.053   8.314 -0.8773 -1.1826 -0.8833
 6065SOL     OW29653   2.570   3.670   3.318  0.0059  0.5242  0.2036
 6065SOL    HW129654   2.577   3.579   3.290 -1.0349  0.4032  0.3395
 6065SOL    HW229655   2.665   3.680   3.320 -0.0580  0.9422  1.7901
 6066SOL     OW29656   2.525   1.158   2.002 -0.5845  0.4456  0.3274
 6066SOL    HW129657   2.593   1.173   2.067 -1.8499  0.2163  1.7160
 6066SOL    HW229658   2.577   1.142   1.923 -1.0605 -1.1481  0.3282
 6067SOL     OW29659   3.213   0.753   7.744  0.1020  0.1890  0.2284
 6067SOL    HW129660   3.290   0.723   7.793  0.8831 -0.4978 -1.3976
 6067SOL    HW229661   3.160   0.785   7.816  0.6670 -0.2524  0.8386
 6068SOL     OW29662   1.463   2.810   9.312  0.5818 -0.1843  0.4679
 6068SOL    HW129663   1.494   2.729   9.271 -2.2504 -0.1245 -1.7232
 6068SOL    HW229664   1.450   2.873   9.242 -0.3733 -0.1630  0.6672
 6069SOL     OW29665   1.286   0.074   3.416  0.3566  0.1959  0.3877
 6069SOL    HW129666   1.240   0.148   3.376 -2.3965 -0.6461  1.9679
 6069SOL    HW229667   1.327   0.028   3.342 -0.6697 -0.2579  0.1082
 6070SOL     OW29668   2.012   1.592  16.386 -0.2764 -0.2423 -0.2601
 6070SOL    HW129669   2.056   1.661  16.436 -2.6378  1.2131 -0.2277
 6070SOL    HW229670   1.939   1.641  16.349  0.0370 -0.5203 -1.2419
 6071SOL     OW29671   4.053   0.723   4.942  0.1738  0.2483  0.0237
 6071SOL    HW129672   4.126   0.661   4.950 -0.1516  0.1276  2.1417
 6071SOL    HW229673   4.032   0.731   4.849  0.9852 -0.4605 -0.2243
 6072SOL     OW29674   2.920   2.534   1.467 -0.1395  0.1969 -0.3585
 6072SOL    HW129675   2.943   2.603   1.405  0.9443  0.9691  0.9187
 6072SOL    HW229676   2.944   2.456   1.417 -0.1357 -0.6493  0.9722
 6073SOL     OW29677   1.914   0.808  13.051  0.0896 -0.1152 -0.3619
 6073SOL    HW129678   1.984   0.832  12.991  0.4552  0.6555  0.3747
 6073SOL    HW229679   1.843   0.858  13.010 -1.6646 -2.5479 -0.2666
 6074SOL     OW29680   0.386   1.066   7.388 -0.0375 -0.0512  0.8392
 6074SOL    HW129681   0.291   1.077   7.384 -0.2842 -1.8412  1.6631
 6074SOL    HW229682   0.393   1.023   7.474 -0.5742  0.2750  1.0517
 6075SOL     OW29683   1.468   1.569  15.528  0.5331  0.5473 -0.3124
 6075SOL    HW129684   1.474   1.489  15.580 -1.0260  0.8077  0.2529
 6075SOL    HW229685   1.408   1.551  15.456 -0.8399 -0.2778  1.0243
 6076SOL     OW29686   3.804   2.736  13.074 -0.2835 -0.3626  0.6376
 6076SOL    HW129687   3.889   2.772  13.051  0.0360 -0.4857  1.6215
 6076SOL    HW229688   3.824   2.656  13.122  1.3324  1.0292  2.2751
 6077SOL     OW29689   3.484   2.309   4.262 -0.2477 -0.1001 -0.4987
 6077SOL    HW129690   3.446   2.385   4.304  1.9955 -0.5856  2.3728
 6077SOL    HW229691   3.403   2.270   4.229 -0.5722  1.0596 -1.0633
 6078SOL     OW29692   3.444   2.326   6.890  0.4429 -0.1940  0.2800
 6078SOL    HW129693   3.471   2.247   6.938  1.3501 -0.1175 -0.0929
 6078SOL    HW229694   3.349   2.318   6.887  0.6975 -2.8353 -0.5187
 6079SOL     OW29695   1.059   4.599   0.222 -0.1229  0.2517 -0.5520
 6079SOL    HW129696   1.020   4.589   0.135 -1.1144  1.0410 -0.1966
 6079SOL    HW229697   1.152   4.597   0.202 -0.3638  0.9434 -1.7487
 6080SOL     OW29698   0.578   0.759   4.938 -0.0627 -0.7073  0.2456
 6080SOL    HW129699   0.495   0.721   4.909  1.9258 -1.9804 -3.8284
 6080SOL    HW229700   0.642   0.728   4.874  1.3668  0.7339  1.0012
 6081SOL     OW29701   4.184   1.812   7.948 -0.0879  0.0543 -0.3001
 6081SOL    HW129702   4.266   1.777   7.912 -1.2832 -2.1467 -0.8867
 6081SOL    HW229703   4.218   1.891   7.990  0.4594  0.0569 -0.7483
 6082SOL     OW29704   4.540   0.009  10.126 -0.2542 -0.2834 -0.3233
 6082SOL    HW129705   4.626   0.017  10.086  0.1082  0.8792  0.6876
 6082SOL    HW229706   4.552   4.655  10.178  0.4908  0.9424  1.3695
 6083SOL     OW29707   0.127   2.846   4.672  0.3823  0.5687 -0.0713
 6083SOL    HW129708   0.213   2.885   4.659  1.0063 -0.8034 -0.0739
 6083SOL    HW229709   0.141   2.790   4.748 -0.0592  0.7835  0.1653
 6084SOL     OW29710   3.204   4.235  15.292  0.4027  0.3683  0.0581
 6084SOL    HW129711   3.111   4.250  15.274  0.1919 -1.0126  0.0058
 6084SOL    HW229712   3.219   4.291  15.369  3.0496  0.3424 -0.4256
 6085SOL     OW29713   1.199   2.037   7.284  0.3333  0.0954 -0.6650
 6085SOL    HW129714   1.205   2.038   7.380  2.2951 -0.6592 -0.7889
 6085SOL    HW229715   1.134   2.102   7.259  1.2604  1.6537  0.8911
 6086SOL     OW29716   0.450   1.165   4.645  0.1748  0.1929 -0.4851
 6086SOL    HW129717   0.528   1.129   4.688 -0.9116 -0.0555  1.2382
 6086SOL    HW229718   0.390   1.175   4.718  0.0914  0.6518 -0.6136
 6087SOL     OW29719   2.628   0.326   6.228  0.0161 -0.1490  0.3616
 6087SOL    HW129720   2.612   0.402   6.284  0.2130  0.0527  0.1451
 6087SOL    HW229721   2.614   0.360   6.139  1.3470 -1.8601 -0.5006
 6088SOL     OW29722   0.298   3.155   3.032 -0.0740  0.6507  0.4481
 6088SOL    HW129723   0.288   3.158   2.937  0.9756 -1.1453  0.2890
 6088SOL    HW229724   0.335   3.067   3.042 -0.5987  0.4155  0.3325
 6089SOL     OW29725   3.925   2.729   6.193  0.2990  0.2283  0.2724
 6089SOL    HW129726   3.916   2.790   6.266  1.5299  0.0739  0.5458
 6089SOL    HW229727   3.887   2.652   6.235  1.6949 -0.7131 -0.2134
 6090SOL     OW29728   3.723   2.177   8.905 -0.2203 -0.0506  0.6415
 6090SOL    HW129729   3.707   2.257   8.955  1.7265  0.1557  0.9409
 6090SOL    HW229730   3.721   2.211   8.816  1.8986 -1.4205  0.0660
 6091SOL     OW29731   2.187   3.513   5.714  0.0848  0.1498  0.5711
 6091SOL    HW129732   2.234   3.522   5.797  1.6145  1.7926 -0.4784
 6091SOL    HW229733   2.122   3.583   5.720 -0.4931 -0.5590  2.6756
 6092SOL     OW29734   2.734   0.676  15.283 -0.2259  0.5996 -0.1529
 6092SOL    HW129735   2.780   0.706  15.205  0.3852 -0.6110 -0.2489
 6092SOL    HW229736   2.659   0.635  15.239  0.2443  1.1905 -1.5087
 6093SOL     OW29737   4.540   4.443  11.108  0.1843 -0.1590  0.2243
 6093SOL    HW129738   4.636   4.447  11.110  0.2782 -0.7078 -2.6419
 6093SOL    HW229739   4.529   4.447  11.013 -1.0785 -3.9215  0.1998
 6094SOL     OW29740   0.054   4.723   5.681 -0.4177 -0.2442 -0.5963
 6094SOL    HW129741   0.020   0.070   5.732  0.4388 -1.7531  2.1392
 6094SOL    HW229742   0.141   4.719   5.721  0.0545 -0.6445 -1.6685
 6095SOL     OW29743   4.635   1.548   3.350 -0.0962 -0.1722  0.0025
 6095SOL    HW129744   4.675   1.512   3.271 -1.8716  0.6762 -1.2599
 6095SOL    HW229745   4.575   1.602   3.300  0.2676  1.1459  0.9799
 6096SOL     OW29746   2.358   4.433   6.420 -0.2665  0.1924  0.2284
 6096SOL    HW129747   2.422   4.438   6.492  0.0995 -0.9637 -0.0049
 6096SOL    HW229748   2.375   4.513   6.370  1.5810 -0.7578 -0.6744
 6097SOL     OW29749   1.162   2.218   5.267  0.5595  0.6293 -0.5323
 6097SOL    HW129750   1.246   2.254   5.238  0.5218  2.0959  1.1749
 6097SOL    HW229751   1.145   2.156   5.196  2.3543 -0.0841 -0.3525
 6098SOL     OW29752   2.200   3.241   2.215  0.1862 -0.0168 -0.2071
 6098SOL    HW129753   2.121   3.259   2.164  0.5451 -1.4932 -1.2892
 6098SOL    HW229754   2.193   3.146   2.217 -0.2057 -0.0287 -2.3413
 6099SOL     OW29755   2.920   0.653   3.450 -0.3188  0.2636 -0.0387
 6099SOL    HW129756   2.844   0.659   3.508 -0.4083  0.6020 -0.1931
 6099SOL    HW229757   2.880   0.679   3.367  1.0804 -2.0158 -1.4240
 6100SOL     OW29758   3.591   3.532   6.716  0.7738 -0.7031  0.5780
 6100SOL    HW129759   3.532   3.596   6.756  1.1079  0.3041 -0.5616
 6100SOL    HW229760   3.529   3.460   6.706 -0.3883  0.2769  0.7017
 6101SOL     OW29761   1.934   4.328   5.587 -0.4975 -0.2131 -0.0014
 6101SOL    HW129762   1.897   4.402   5.539 -0.9514 -0.5235 -0.1317
 6101SOL    HW229763   1.922   4.246   5.540  0.7227 -0.9233  0.9438
 6102SOL     OW29764   2.817   3.567   5.428 -0.5050 -0.5969 -0.0364
 6102SOL    HW129765   2.832   3.592   5.519  1.9527 -2.2664  0.0251
 6102SOL    HW229766   2.873   3.490   5.433 -1.2236 -1.2034 -1.4502
 6103SOL     OW29767   4.647   2.653   0.593 -0.1664  0.4365  1.0300
 6103SOL    HW129768   4.702   2.586   0.552  0.2010  1.9137 -0.8609
 6103SOL    HW229769   4.569   2.600   0.611 -0.1475 -0.3773 -1.2276
 6104SOL     OW29770   0.889   3.748  16.498  0.3546 -0.0493  0.4979
 6104SOL    HW129771   0.972   3.701  16.498  1.0550  1.1804  0.5409
 6104SOL    HW229772   0.883   3.768  16.404 -0.1998 -0.6575  0.4009
 6105SOL     OW29773   3.578   0.352   8.414  0.1444  0.0801 -0.2464
 6105SOL    HW129774   3.614   0.271   8.450  0.6457  0.3763 -0.0756
 6105SOL    HW229775   3.562   0.325   8.324  2.5036  0.3302 -0.7426
 6106SOL     OW29776   0.543   3.623   7.847  0.2170  0.7201 -0.2582
 6106SOL    HW129777   0.450   3.646   7.841  0.3752  1.3700 -0.3233
 6106SOL    HW229778   0.582   3.684   7.909 -0.7763  0.5378  0.5510
 6107SOL     OW29779   4.619   3.448  16.725  0.1374  0.1327 -0.2456
 6107SOL    HW129780   4.714   3.455  16.731  0.0398  1.5720 -0.3679
 6107SOL    HW229781   4.601   3.539  16.749 -1.6696 -0.1946 -0.3263
 6108SOL     OW29782   4.211   0.145   9.520 -0.2930  0.7545  0.1493
 6108SOL    HW129783   4.267   0.213   9.558 -1.8214  0.9250  2.0674
 6108SOL    HW229784   4.254   0.135   9.435  0.2813  2.4486  0.2414
 6109SOL     OW29785   3.140   4.597   8.445  0.1548 -0.0861 -0.7286
 6109SOL    HW129786   3.133   4.519   8.500 -1.3872 -0.8891 -2.0173
 6109SOL    HW229787   3.140   4.667   8.509 -2.0646 -0.3688 -0.4188
 6110SOL     OW29788   2.429   3.286   8.001 -0.0110 -0.3244 -0.1156
 6110SOL    HW129789   2.378   3.237   8.067 -1.4044  0.2850 -0.7300
 6110SOL    HW229790   2.376   3.275   7.922  1.6021  0.1893 -1.2660
 6111SOL     OW29791   0.135   2.891  12.614 -0.7062 -0.4851 -0.0992
 6111SOL    HW129792   0.077   2.963  12.588  1.2816  0.7754 -1.0245
 6111SOL    HW229793   0.189   2.938  12.677  2.5563 -2.2186 -1.5737
 6112SOL     OW29794   0.436   3.843  14.885 -0.3044  0.4699  0.5197
 6112SOL    HW129795   0.367   3.813  14.944 -0.4109 -1.6197 -0.6605
 6112SOL    HW229796   0.507   3.806  14.936  0.2093 -1.5516 -1.6282
 6113SOL     OW29797   3.599   1.315   6.503 -0.5100  0.0318  0.0395
 6113SOL    HW129798   3.598   1.400   6.459 -2.3402  0.0133  0.0199
 6113SOL    HW229799   3.575   1.256   6.431 -0.3637 -0.0141  0.0282
 6114SOL     OW29800   1.359   1.515   6.063  0.2932  0.0075 -0.4888
 6114SOL    HW129801   1.405   1.464   6.129  2.2148  2.4598  0.0537
 6114SOL    HW229802   1.426   1.526   5.996  2.1482 -0.6019  1.2774
 6115SOL     OW29803   1.784   1.442  11.756  0.6559  0.8533  0.3606
 6115SOL    HW129804   1.813   1.412  11.841 -1.9209 -1.4135  0.4536
 6115SOL    HW229805   1.865   1.456  11.707  0.1627 -0.3594 -0.8026
 6116SOL     OW29806   4.152   2.476  16.447 -0.1994  0.3170  0.4432
 6116SOL    HW129807   4.134   2.505  16.358  2.0007  1.7210  0.4514
 6116SOL    HW229808   4.209   2.544  16.483  0.1689  0.1062  0.2561
 6117SOL     OW29809   3.610   3.537   7.028 -0.6272  0.7171  0.1502
 6117SOL    HW129810   3.602   3.449   7.063  1.6016  0.6473  0.4948
 6117SOL    HW229811   3.534   3.582   7.065  1.2265  2.6450  1.6075
 6118SOL     OW29812   3.397   0.934  12.092 -0.1196 -0.5721 -0.1203
 6118SOL    HW129813   3.443   0.993  12.032  1.0976  0.6098  1.9639
 6118SOL    HW229814   3.470   0.886  12.132 -0.6111 -0.0612  1.3951
 6119SOL     OW29815   1.651   1.394   2.783 -0.5683 -0.4303  0.4313
 6119SOL    HW129816   1.729   1.341   2.766  1.9175  3.7656 -1.1039
 6119SOL    HW229817   1.697   1.474   2.810  2.3468 -2.2167  0.7947
 6120SOL     OW29818   1.666   0.545   5.424 -0.2269 -0.1412  0.4010
 6120SOL    HW129819   1.581   0.542   5.466 -1.4846  2.8060 -1.9618
 6120SOL    HW229820   1.640   0.556   5.332  1.5628  1.9484  0.1573
 6121SOL     OW29821   2.424   2.416   5.096 -0.0924 -0.2833 -0.3059
 6121SOL    HW129822   2.416   2.507   5.065 -0.6631  0.0534  0.8264
 6121SOL    HW229823   2.517   2.407   5.115 -0.4598 -0.9907  1.0766
 6122SOL     OW29824   4.217   1.588   8.190  0.0079  0.1764 -0.1016
 6122SOL    HW129825   4.210   1.498   8.222 -2.4031 -0.2452 -1.8168
 6122SOL    HW229826   4.281   1.569   8.122  0.0496  1.1737 -0.3398
 6123SOL     OW29827   3.535   4.618   4.290  0.6987  0.4548  0.3000
 6123SOL    HW129828   3.626   4.643   4.276  0.3253  0.4705 -2.1988
 6123SOL    HW229829   3.515   4.578   4.205 -0.4317 -1.0073  1.2641
 6124SOL     OW29830   4.463   3.983   9.357 -0.3929  0.3687  0.0303
 6124SOL    HW129831   4.458   4.064   9.408 -0.8997  0.2691  0.1338
 6124SOL    HW229832   4.379   3.981   9.313  1.3562  0.8259 -3.3005
 6125SOL     OW29833   0.776   0.592  17.568 -0.8419  0.0118 -0.0111
 6125SOL    HW129834   0.840   0.643  17.617 -0.5782 -0.3585  0.0273
 6125SOL    HW229835   0.698   0.595  17.623 -0.7601 -0.3846  0.1272
 6126SOL     OW29836   3.789   0.900  17.094  0.4727 -0.1949 -0.1038
 6126SOL    HW129837   3.736   0.823  17.074  1.6825 -0.4221 -2.4333
 6126SOL    HW229838   3.817   0.876  17.182 -1.8232 -3.0678 -0.1866
 6127SOL     OW29839   2.461   3.262  12.328  0.1116 -0.5062  0.3609
 6127SOL    HW129840   2.495   3.332  12.272 -0.7722 -0.3233  0.0609
 6127SOL    HW229841   2.505   3.188  12.286 -1.0194 -0.7557 -0.3740
 6128SOL     OW29842   3.853   0.373   5.657  0.0309  0.4687 -0.0715
 6128SOL    HW129843   3.851   0.326   5.740 -2.2344 -1.6750 -1.3414
 6128SOL    HW229844   3.762   0.394   5.637  0.2668 -0.0615 -1.7052
 6129SOL     OW29845   1.571   2.658   8.944 -0.0031  0.1509 -0.2313
 6129SOL    HW129846   1.478   2.681   8.943 -0.1842 -0.6249 -1.5206
 6129SOL    HW229847   1.606   2.715   8.876 -0.7374 -2.6478 -2.9778
 6130SOL     OW29848   0.451   3.313   8.042  0.5354  0.0694 -0.3204
 6130SOL    HW129849   0.398   3.327   7.963  1.0654  0.2630 -0.6395
 6130SOL    HW229850   0.472   3.221   8.028 -1.5952 -0.7597  2.0440
 6131SOL     OW29851   1.562   4.290   3.795  0.7390  0.1289  0.2379
 6131SOL    HW129852   1.498   4.293   3.867 -1.7977  1.3203 -2.0320
 6131SOL    HW229853   1.634   4.330   3.844 -0.7794  0.2156  2.3981
 6132SOL     OW29854   1.681   4.013   4.168 -0.1862 -0.2602 -0.4924
 6132SOL    HW129855   1.716   3.941   4.114 -1.1463  1.3192 -3.2141
 6132SOL    HW229856   1.606   3.968   4.206  0.7341 -0.6123  0.9009
 6133SOL     OW29857   0.894   2.267   0.628  0.9614  0.0819  0.0580
 6133SOL    HW129858   0.974   2.285   0.579  2.7293 -0.2599  2.8162
 6133SOL    HW229859   0.835   2.329   0.585 -0.4397 -1.0987  0.2910
 6134SOL     OW29860   0.513   4.272   6.876  0.2610  0.1311  0.3705
 6134SOL    HW129861   0.550   4.213   6.809  0.3483 -2.6158  2.8313
 6134SOL    HW229862   0.478   4.342   6.822 -0.8852 -0.1016  0.8109
 6135SOL     OW29863   4.064   1.560   7.312 -0.0086 -0.3776 -0.1755
 6135SOL    HW129864   4.055   1.554   7.217  0.9223 -0.2403 -0.2763
 6135SOL    HW229865   4.089   1.468   7.327 -1.8386 -0.8178  0.1837
 6136SOL     OW29866   0.121   0.384   4.549  0.3147 -0.4133  0.4741
 6136SOL    HW129867   0.086   0.421   4.468  1.4569 -1.1948 -0.3746
 6136SOL    HW229868   0.049   0.407   4.608  0.0392  0.5973 -0.2449
 6137SOL     OW29869   1.864   0.149   7.218  0.3239 -0.1920  0.2318
 6137SOL    HW129870   1.911   0.223   7.254 -0.3841  0.8259 -0.9428
 6137SOL    HW229871   1.777   0.162   7.257  0.7519  1.9153  0.4382
 6138SOL     OW29872   4.265   0.158   8.202 -0.3089 -0.3793  0.2081
 6138SOL    HW129873   4.207   0.147   8.127 -1.1927  1.3322  0.6606
 6138SOL    HW229874   4.222   0.224   8.256 -1.6317 -1.9007  0.9945
 6139SOL     OW29875   0.797   0.837   4.731 -0.2256 -0.0102  0.5414
 6139SOL    HW129876   0.745   0.916   4.718  0.7013  0.4139 -0.5502
 6139SOL    HW229877   0.824   0.845   4.823  2.9347  0.4144 -0.4122
 6140SOL     OW29878   3.182   1.419   8.597  0.0424  0.2335 -0.3715
 6140SOL    HW129879   3.114   1.400   8.662 -0.8681 -0.6347 -1.5921
 6140SOL    HW229880   3.153   1.505   8.567  0.9968  0.3313 -1.0160
 6141SOL     OW29881   0.194   1.493   8.850  0.5657  0.2205  0.2154
 6141SOL    HW129882   0.210   1.430   8.921 -1.4162  0.6048  0.9924
 6141SOL    HW229883   0.128   1.440   8.805  1.0979 -0.2549 -0.0067
 6142SOL     OW29884   2.890   4.427   6.345  0.3942 -0.2745  0.0696
 6142SOL    HW129885   2.861   4.468   6.264  1.0126  0.6518  0.3185
 6142SOL    HW229886   2.942   4.354   6.311 -1.1214 -0.5200 -1.6979
 6143SOL     OW29887   4.249   3.796  11.840 -0.0287 -0.3790  0.0761
 6143SOL    HW129888   4.206   3.820  11.758  0.1377  0.3235  0.1904
 6143SOL    HW229889   4.317   3.733  11.816 -0.1118 -0.1590 -0.7357
 6144SOL     OW29890   1.512   4.106   7.166 -0.5261 -0.4464 -0.8799
 6144SOL    HW129891   1.420   4.088   7.182 -0.5473  0.3912 -0.0523
 6144SOL    HW229892   1.505   4.127   7.073 -0.5968 -1.5505 -1.1262
 6145SOL     OW29893   2.970   4.145   8.901  0.4477 -0.1354  0.0221
 6145SOL    HW129894   2.958   4.237   8.876 -0.5437 -0.5882 -1.1569
 6145SOL    HW229895   2.919   4.082   8.851  0.2843  1.2430 -1.5525
 6146SOL     OW29896   0.315   1.110  12.676  0.2062  0.1002 -0.4298
 6146SOL    HW129897   0.323   1.191  12.726 -0.9307 -0.0478 -0.0002
 6146SOL    HW229898   0.323   1.148  12.589  0.3005 -1.7543 -1.2366
 6147SOL     OW29899   2.651   3.319  11.345 -0.5683  0.0846  0.2503
 6147SOL    HW129900   2.556   3.326  11.358 -0.7499 -0.6131 -0.6665
 6147SOL    HW229901   2.676   3.410  11.356  0.7308 -0.2186 -0.2615
 6148SOL     OW29902   0.730   2.182   9.068  0.0883 -0.1425  0.0979
 6148SOL    HW129903   0.703   2.252   9.128  0.1436 -0.7383  0.8296
 6148SOL    HW229904   0.824   2.199   9.062  0.0970  0.3691  1.6659
 6149SOL     OW29905   1.796   2.650   1.151  0.1794  0.8613 -0.5922
 6149SOL    HW129906   1.726   2.594   1.118 -0.0627 -0.2452  1.7926
 6149SOL    HW229907   1.764   2.740   1.147 -1.2651  0.3505 -0.4881
 6150SOL     OW29908   2.021   3.039  13.645 -0.9495  0.4203 -0.7912
 6150SOL    HW129909   2.086   3.040  13.575 -1.1082  1.1181 -0.9264
 6150SOL    HW229910   2.070   3.027  13.727 -1.3631  0.6184 -0.5109
 6151SOL     OW29911   1.738   3.213   6.534 -0.5122 -0.1640 -0.4315
 6151SOL    HW129912   1.796   3.204   6.610 -1.2245  0.3886  0.1834
 6151SOL    HW229913   1.656   3.202   6.582 -0.0158  0.1526  0.5015
 6152SOL     OW29914   4.291   0.445   3.153  0.1806  0.4139 -0.6540
 6152SOL    HW129915   4.232   0.410   3.087 -1.2586  2.5516 -0.4852
 6152SOL    HW229916   4.372   0.393   3.147  0.3458  0.7713 -1.4521
 6153SOL     OW29917   0.788   4.067   0.136 -0.6802  0.5228  0.5663
 6153SOL    HW129918   0.869   4.116   0.155 -0.8703  1.7525 -1.7601
 6153SOL    HW229919   0.796   4.070   0.040  0.6212  0.4432  0.6770
 6154SOL     OW29920   2.610   3.753  13.101  0.3187  0.2410 -0.1862
 6154SOL    HW129921   2.618   3.779  13.009  1.2444  0.8087  0.0533
 6154SOL    HW229922   2.581   3.837  13.138 -1.7115  0.3356 -1.9821
 6155SOL     OW29923   1.564   1.623   4.286  0.1141  0.2246  0.5779
 6155SOL    HW129924   1.588   1.707   4.327  0.9690 -0.2496  1.0490
 6155SOL    HW229925   1.557   1.668   4.201  1.1601 -0.6234  0.0384
 6156SOL     OW29926   1.632   0.890  16.049  0.1372  0.1180  0.3093
 6156SOL    HW129927   1.572   0.942  15.995 -0.8124 -2.0329 -0.6828
 6156SOL    HW229928   1.573   0.882  16.124 -1.8298 -0.4426 -1.2981
 6157SOL     OW29929   3.670   0.186   5.217 -0.1144 -0.4845  0.3794
 6157SOL    HW129930   3.733   0.231   5.274 -0.8317  1.9033 -0.6994
 6157SOL    HW229931   3.642   0.247   5.149 -0.6986  0.1212  1.1621
 6158SOL     OW29932   3.074   0.915   1.963 -0.2834 -0.3004 -0.2051
 6158SOL    HW129933   3.060   0.844   1.901  1.4788  0.1580 -1.1360
 6158SOL    HW229934   3.139   0.886   2.026  0.2547  1.3115 -0.0204
 6159SOL     OW29935   0.048   2.459   1.310  0.0388  0.4019  0.0518
 6159SOL    HW129936   4.694   2.474   1.362 -0.1963  1.1191 -0.5199
 6159SOL    HW229937   0.057   2.366   1.332 -0.1592  0.6428  1.1599
 6160SOL     OW29938   2.160   1.726   3.275  0.3254  0.5788  0.3401
 6160SOL    HW129939   2.138   1.728   3.369  1.7236 -1.0737  0.6972
 6160SOL    HW229940   2.254   1.736   3.285  0.3237  0.3084  0.6295
 6161SOL     OW29941   2.840   1.164  15.425 -0.1538 -0.1784 -0.8208
 6161SOL    HW129942   2.927   1.147  15.459 -0.4402 -0.2409 -0.1239
 6161SOL    HW229943   2.794   1.093  15.471 -0.7990 -1.2067 -3.0222
 6162SOL     OW29944   1.696   0.663  13.993  0.4418 -0.2365  0.0226
 6162SOL    HW129945   1.732   0.730  14.051 -3.2405  0.7314  1.2060
 6162SOL    HW229946   1.609   0.661  14.033 -0.0048 -0.1785 -0.9655
 6163SOL     OW29947   2.333   3.224  16.435  0.2232  0.2492  0.3812
 6163SOL    HW129948   2.273   3.157  16.467  1.3738 -1.4631 -1.0411
 6163SOL    HW229949   2.276   3.301  16.439  0.2411  0.3552 -1.4318
 6164SOL     OW29950   1.253   4.403   5.267  0.2992  0.2410  0.2381
 6164SOL    HW129951   1.268   4.375   5.357  0.5376  0.7943  0.3678
 6164SOL    HW229952   1.299   4.336   5.217  0.7262 -0.1117  1.1110
 6165SOL     OW29953   2.957   1.826   5.023 -0.0508 -0.1366 -0.3293
 6165SOL    HW129954   2.958   1.799   4.932  2.8849 -3.9568  0.8026
 6165SOL    HW229955   2.985   1.917   5.017  2.5740 -0.9364 -0.2843
 6166SOL     OW29956   1.989   4.112   7.534  0.1889  0.3202 -0.5161
 6166SOL    HW129957   2.054   4.043   7.524 -0.1633  0.3734 -3.2268
 6166SOL    HW229958   1.918   4.061   7.575  0.0320  1.8187  1.0508
 6167SOL     OW29959   3.798   3.305   7.681  0.1241  0.3657  0.3643
 6167SOL    HW129960   3.810   3.314   7.586 -0.4522  0.3058  0.2903
 6167SOL    HW229961   3.859   3.233   7.699  1.2774  1.2581  0.0513
 6168SOL     OW29962   2.484   0.016   3.088  0.4057 -0.1662  0.0134
 6168SOL    HW129963   2.499   0.023   3.182  1.2335  0.3096 -0.1596
 6168SOL    HW229964   2.391   4.720   3.095 -0.3005  3.2176  0.9701
 6169SOL     OW29965   4.663   1.971   2.031  0.0029 -0.3840 -0.0069
 6169SOL    HW129966   4.634   1.955   1.941 -0.2125 -0.4447  0.0719
 6169SOL    HW229967   4.592   1.928   2.079  0.4346  1.4589  2.2869
 6170SOL     OW29968   2.207   4.668   5.665 -0.0380 -0.3188 -0.2631
 6170SOL    HW129969   2.208   4.679   5.570  0.8399  0.5026 -0.1564
 6170SOL    HW229970   2.234   4.576   5.672 -0.9136 -0.6222 -0.8833
 6171SOL     OW29971   0.190   0.908  16.005 -0.1290 -0.0058  0.8037
 6171SOL    HW129972   0.121   0.886  16.067  1.1860  0.9602  2.6021
 6171SOL    HW229973   0.146   0.902  15.920  2.1188 -0.0529 -0.3548
 6172SOL     OW29974   4.687   2.949  16.164  0.1916  0.1772 -0.3084
 6172SOL    HW129975   4.622   2.933  16.095 -1.0181 -0.2792  0.9297
 6172SOL    HW229976   4.634   2.988  16.234  0.4112 -0.2626  0.0982
 6173SOL     OW29977   4.493   4.187   1.688  0.1131  0.5366 -0.1545
 6173SOL    HW129978   4.421   4.239   1.722 -0.3734 -0.7551  0.7937
 6173SOL    HW229979   4.539   4.150   1.763  0.7179  1.8705  0.1270
 6174SOL     OW29980   3.381   0.711   4.542  0.0483 -0.8820 -0.0582
 6174SOL    HW129981   3.383   0.671   4.629  1.4969  2.0614  1.2564
 6174SOL    HW229982   3.391   0.639   4.480  0.4665 -1.2918  0.4800
 6175SOL     OW29983   3.046   0.506   4.332 -0.7141 -0.5319 -0.0434
 6175SOL    HW129984   3.043   0.457   4.250  0.3780  1.2572 -1.1615
 6175SOL    HW229985   3.063   0.592   4.293  1.5583  0.0332  2.2265
 6176SOL     OW29986   3.771   2.796   5.045 -0.1062 -0.3267 -0.3747
 6176SOL    HW129987   3.854   2.788   4.997  0.5490  0.6790  0.5816
 6176SOL    HW229988   3.731   2.713   5.019 -0.8954 -0.0701  0.0130
 6177SOL     OW29989   4.575   2.219  16.710 -0.4674 -0.6072  0.2049
 6177SOL    HW129990   4.666   2.208  16.739 -0.1749 -1.8969 -1.2019
 6177SOL    HW229991   4.541   2.130  16.706 -0.3565 -0.6561  0.3564
 6178SOL     OW29992   0.344   0.093   8.301  0.4593 -0.3844 -0.6821
 6178SOL    HW129993   0.287   0.137   8.364 -0.2094  0.5351 -1.9195
 6178SOL    HW229994   0.411   0.160   8.285  0.6794 -0.4338  0.0179
 6179SOL     OW29995   0.773   3.599  15.164  0.1236  0.1382  0.1643
 6179SOL    HW129996   0.859   3.632  15.136 -0.5164  1.7142  0.0413
 6179SOL    HW229997   0.805   3.572  15.251  0.2645 -0.2979 -0.0254
 6180SOL     OW29998   0.260   3.931  11.492 -0.0324  0.1920 -0.5769
 6180SOL    HW129999   0.187   3.899  11.546 -0.2925 -0.1080 -1.1085
 6180SOL    HW230000   0.313   3.854  11.473 -1.3591 -0.9075  0.1731
 6181SOL     OW30001   0.753   4.007  15.256  0.3982 -0.2169  0.0359
 6181SOL    HW130002   0.659   3.993  15.262  0.6416 -1.4318  1.1404
 6181SOL    HW230003   0.776   4.077  15.194  1.8247  0.0148  0.8126
 6182SOL     OW30004   3.009   1.317   5.662 -0.2696 -0.5318  0.2667
 6182SOL    HW130005   3.010   1.222   5.654  1.5012 -0.2996 -2.2453
 6182SOL    HW230006   3.032   1.328   5.755  1.2722 -1.6061  0.0087
 6183SOL     OW30007   2.504   4.247  10.307 -0.5775  0.1804  0.2321
 6183SOL    HW130008   2.409   4.251  10.318 -0.3731 -0.3724  2.2545
 6183SOL    HW230009   2.533   4.282  10.391  1.6676 -0.1644 -0.3733
 6184SOL     OW30010   1.006   3.344   9.778 -0.3920  0.1281  0.2888
 6184SOL    HW130011   0.988   3.374   9.867  2.1766  3.1371 -0.1850
 6184SOL    HW230012   0.960   3.261   9.788  0.4961 -0.1197  2.3533
 6185SOL     OW30013   1.894   2.254   1.821  0.2175 -0.1967 -0.3262
 6185SOL    HW130014   1.936   2.187   1.877 -1.9271 -0.6286  0.7749
 6185SOL    HW230015   1.823   2.198   1.788 -1.4638  1.4847  0.4402
 6186SOL     OW30016   0.976   3.675   1.989 -0.2931 -0.3902 -0.0132
 6186SOL    HW130017   1.001   3.746   1.931  2.4699  0.8347  2.6944
 6186SOL    HW230018   1.060   3.633   2.007 -1.0631 -2.5178 -1.3853
 6187SOL     OW30019   2.236   1.196   6.361  0.5930  0.1673 -0.2632
 6187SOL    HW130020   2.277   1.170   6.443  0.6077 -2.1719 -1.0157
 6187SOL    HW230021   2.167   1.254   6.394  0.7184 -1.1534  2.2448
 6188SOL     OW30022   1.965   2.242   4.146 -0.0754 -0.6044  0.0129
 6188SOL    HW130023   2.023   2.166   4.134 -0.5763 -1.7006  4.3278
 6188SOL    HW230024   1.991   2.295   4.071  0.4480  0.1705  0.7518
 6189SOL     OW30025   3.165   0.755   0.748 -0.7120 -0.2556 -0.3360
 6189SOL    HW130026   3.116   0.838   0.752  1.3936  0.9417  0.9730
 6189SOL    HW230027   3.223   0.780   0.820 -0.2941 -0.3509 -0.6456
 6190SOL     OW30028   0.229   2.653   2.791 -0.3121 -0.0142  0.5416
 6190SOL    HW130029   0.299   2.639   2.855 -1.4998  0.4423  1.9094
 6190SOL    HW230030   0.278   2.662   2.709 -0.4515  2.8330  0.7742
 6191SOL     OW30031   0.534   3.230  11.244  0.2582  0.1658 -0.0329
 6191SOL    HW130032   0.581   3.256  11.324  2.0715 -1.7369 -0.4924
 6191SOL    HW230033   0.446   3.228  11.281  0.8629  1.1434  1.4596
 6192SOL     OW30034   2.352   3.804   6.039 -0.2386  0.4168 -0.1280
 6192SOL    HW130035   2.406   3.775   5.966  0.3969  0.4190  0.3439
 6192SOL    HW230036   2.403   3.871   6.085 -1.0226  0.7006  0.3326
 6193SOL     OW30037   4.457   3.318   2.770  0.6068 -0.4846 -0.0917
 6193SOL    HW130038   4.463   3.224   2.787  1.0302 -0.1575  1.5122
 6193SOL    HW230039   4.374   3.335   2.815  3.0810 -1.4558  4.8438
 6194SOL     OW30040   0.577   1.641   6.997 -0.5748  0.6346  0.4389
 6194SOL    HW130041   0.575   1.732   7.027 -0.3387  2.0345 -3.7727
 6194SOL    HW230042   0.654   1.602   7.039 -1.2498 -0.3075  0.7841
 6195SOL     OW30043   4.076   3.538   0.301 -0.3598 -0.2950  0.0457
 6195SOL    HW130044   4.105   3.466   0.357 -0.3204 -1.3578 -1.3641
 6195SOL    HW230045   4.136   3.523   0.228 -1.9504 -1.3954 -1.0348
 6196SOL     OW30046   2.682   0.061   0.937  0.5180 -0.1649  0.1649
 6196SOL    HW130047   2.761   0.018   0.970  0.0833 -0.5609  0.6927
 6196SOL    HW230048   2.699   0.155   0.941  1.4091 -0.3000 -0.4544
 6197SOL     OW30049   3.228   2.817   2.133  0.5482  0.2741 -0.0690
 6197SOL    HW130050   3.235   2.894   2.076  0.6480 -0.4049 -0.9643
 6197SOL    HW230051   3.312   2.824   2.179  0.1506 -0.6744  0.7926
 6198SOL     OW30052   2.999   1.990   6.923 -0.2663  0.5160 -1.1139
 6198SOL    HW130053   2.930   1.994   6.989 -0.1466  0.0862 -0.9605
 6198SOL    HW230054   2.939   1.983   6.849 -0.1092 -0.8993 -1.1140
 6199SOL     OW30055   1.581   2.657   2.213  0.3040  0.3065 -0.3526
 6199SOL    HW130056   1.650   2.631   2.152  1.4409  1.2627  0.5354
 6199SOL    HW230057   1.502   2.645   2.160  0.8431 -1.2343 -0.8203
 6200SOL     OW30058   2.509   1.741   9.550  0.4612 -0.0564 -0.5651
 6200SOL    HW130059   2.514   1.772   9.640  0.6377  0.1170 -0.6339
 6200SOL    HW230060   2.470   1.654   9.553 -1.7545  1.0257  1.7504
 6201SOL     OW30061   2.331   3.563   8.344 -0.6811 -0.1302  0.0501
 6201SOL    HW130062   2.354   3.575   8.252  0.3289 -0.3036  0.2801
 6201SOL    HW230063   2.235   3.564   8.348 -0.7869 -0.8272 -2.0147
 6202SOL     OW30064   3.902   2.369   3.129 -0.1778 -0.2975 -0.2659
 6202SOL    HW130065   3.970   2.427   3.093 -1.8516  1.3658 -0.7361
 6202SOL    HW230066   3.816   2.403   3.103 -0.3632 -0.4993  0.0885
 6203SOL     OW30067   2.287   1.066   2.143 -0.2630 -0.4484 -0.1298
 6203SOL    HW130068   2.271   1.160   2.137 -1.0959 -0.6548 -1.1932
 6203SOL    HW230069   2.347   1.057   2.069  2.0094 -1.3786  1.8404
 6204SOL     OW30070   4.000   3.996  11.832 -0.0643  0.2131 -0.0421
 6204SOL    HW130071   4.037   4.020  11.747 -0.6800  0.8158 -0.1393
 6204SOL    HW230072   3.986   3.901  11.831 -2.7152  0.5962  1.1006
 6205SOL     OW30073   2.099   0.483   8.385 -0.2216 -0.5070  0.1250
 6205SOL    HW130074   2.174   0.425   8.371 -0.7661 -2.0285  3.4462
 6205SOL    HW230075   2.130   0.555   8.439 -0.9004 -1.5595  1.9242
 6206SOL     OW30076   3.670   0.888   6.203 -0.2848  0.0387  0.2233
 6206SOL    HW130077   3.724   0.883   6.124  1.3297 -0.4874  1.3627
 6206SOL    HW230078   3.620   0.807   6.203 -0.4347  0.1268 -1.3497
 6207SOL     OW30079   0.994   3.076   9.138 -0.6851  0.2450  0.3724
 6207SOL    HW130080   0.910   3.112   9.111  0.5055  0.9385 -2.3763
 6207SOL    HW230081   0.984   3.092   9.232  0.3037  2.0823  0.1741
 6208SOL     OW30082   4.481   2.636   7.607  0.4859 -0.3185 -0.5433
 6208SOL    HW130083   4.481   2.673   7.695 -0.9674  2.3535 -1.6452
 6208SOL    HW230084   4.575   2.632   7.587  0.7768  0.7701  0.6177
 6209SOL     OW30085   2.626   0.795  14.522  0.9089  0.5572  0.3912
 6209SOL    HW130086   2.588   0.712  14.550 -0.7997  1.2794  0.1575
 6209SOL    HW230087   2.680   0.771  14.446 -0.6379 -0.0363 -0.5205
 6210SOL     OW30088   4.563   3.957  16.464 -0.6125  0.1747  0.4844
 6210SOL    HW130089   4.528   3.985  16.549 -0.7948  0.8217  0.1932
 6210SOL    HW230090   4.497   3.990  16.403 -0.7149  0.4241  0.7300
 6211SOL     OW30091   2.605   2.192   8.707 -0.2950  0.3241  0.1355
 6211SOL    HW130092   2.531   2.246   8.678 -0.0472  0.6494  0.1081
 6211SOL    HW230093   2.553   2.121   8.745  0.3560 -0.8085 -1.0881
 6212SOL     OW30094   2.039   1.540  13.339  0.4736 -0.1567 -0.9207
 6212SOL    HW130095   2.046   1.552  13.244  1.5949 -0.3251 -0.8703
 6212SOL    HW230096   2.116   1.585  13.372 -0.6403  2.4396 -1.8829
 6213SOL     OW30097   4.572   3.868   1.637  0.9400  0.0011 -0.2159
 6213SOL    HW130098   4.551   3.935   1.702  0.9407 -0.6462  0.4573
 6213SOL    HW230099   4.589   3.927   1.564 -0.3028  1.0717  0.3523
 6214SOL     OW30100   2.936   3.747   8.859  0.0778  0.0274  0.1983
 6214SOL    HW130101   2.984   3.760   8.941  0.3578 -0.7603  0.1665
 6214SOL    HW230102   2.912   3.654   8.859 -1.8192  0.5113 -1.0215
 6215SOL     OW30103   3.296   0.720   1.597 -0.3895 -0.4019  0.0095
 6215SOL    HW130104   3.290   0.735   1.502  2.8753  1.4798  0.1048
 6215SOL    HW230105   3.382   0.677   1.594 -0.1105  0.2873 -2.7820
 6216SOL     OW30106   2.942   3.190   3.343  0.2584 -0.3206 -0.0434
 6216SOL    HW130107   2.955   3.268   3.289 -1.6929 -1.7077 -2.5162
 6216SOL    HW230108   2.911   3.125   3.280  1.4356  0.0669 -1.0302
 6217SOL     OW30109   3.361   1.884  14.047 -0.1479 -0.0021  1.2168
 6217SOL    HW130110   3.420   1.954  14.074  0.1319  0.2345 -0.0113
 6217SOL    HW230111   3.423   1.811  14.050 -2.2025 -1.8208 -0.3796
 6218SOL     OW30112   4.165   0.481   8.821  0.1815  0.2391 -0.0991
 6218SOL    HW130113   4.108   0.405   8.834  1.6107 -0.8235  0.1174
 6218SOL    HW230114   4.202   0.478   8.910  1.2520 -0.1061 -0.5545
 6219SOL     OW30115   2.177   0.194   5.098 -0.0132 -0.4351 -0.2578
 6219SOL    HW130116   2.182   0.259   5.169  0.1867  2.1017 -2.6085
 6219SOL    HW230117   2.141   0.243   5.024 -0.1850 -0.3907 -0.1461
 6220SOL     OW30118   3.785   1.874   4.854  0.3523 -0.4339 -0.1589
 6220SOL    HW130119   3.810   1.961   4.826 -3.7016  1.3847  1.8036
 6220SOL    HW230120   3.867   1.834   4.882  0.8311  0.3916 -0.3995
 6221SOL     OW30121   3.764   2.539  10.537  0.3010 -0.7963  0.1860
 6221SOL    HW130122   3.842   2.540  10.480  2.4063 -0.3316  3.0787
 6221SOL    HW230123   3.723   2.456  10.513  0.2490 -0.7530  0.1249
 6222SOL     OW30124   2.418   4.131   0.658 -0.3066 -0.6395  0.0732
 6222SOL    HW130125   2.418   4.042   0.694  0.6088 -0.5499  0.2885
 6222SOL    HW230126   2.325   4.133   0.634 -0.4749  0.5262  0.8557
 6223SOL     OW30127   1.152   4.225   3.300 -0.0385 -0.4049 -0.0469
 6223SOL    HW130128   1.195   4.139   3.304 -1.4791 -1.1891 -1.5841
 6223SOL    HW230129   1.082   4.198   3.241 -0.1182  2.0880 -1.0679
 6224SOL     OW30130   0.285   2.411  12.828  0.0658 -0.5515  0.2952
 6224SOL    HW130131   0.301   2.502  12.855 -1.5133  0.2072 -1.3644
 6224SOL    HW230132   0.190   2.417  12.833  0.1238  0.7163 -0.1595
 6225SOL     OW30133   4.667   4.668  10.411  0.1579  0.2171  0.0001
 6225SOL    HW130134   4.701   4.624  10.333 -1.5002  0.6583 -0.9956
 6225SOL    HW230135   4.710   0.025  10.388  0.0053  0.0408 -0.9145
 6226SOL     OW30136   3.491   3.938   1.126 -0.2301 -0.2248  0.1123
 6226SOL    HW130137   3.456   3.977   1.045  0.6013 -0.5687 -0.4057
 6226SOL    HW230138   3.422   3.875   1.147 -0.4935  0.1853  0.4875
 6227SOL     OW30139   1.359   0.316   7.586 -0.0364 -0.2360 -0.0487
 6227SOL    HW130140   1.362   0.324   7.681  1.1180  1.8494 -0.2573
 6227SOL    HW230141   1.338   0.223   7.579 -0.2426 -0.3797  2.5859
 6228SOL     OW30142   2.720   4.018   6.517  0.9591 -0.4057  0.0573
 6228SOL    HW130143   2.708   4.110   6.493 -0.3409 -0.3643  0.8475
 6228SOL    HW230144   2.734   4.028   6.611 -0.0885 -1.5224  0.3393
 6229SOL     OW30145   1.252   1.634   4.512  0.2961  0.4473 -0.2693
 6229SOL    HW130146   1.216   1.556   4.470 -0.8892  1.3472 -0.8992
 6229SOL    HW230147   1.188   1.641   4.582  0.7447  0.4772  0.1399
 6230SOL     OW30148   4.083   2.764  17.676  0.4555  0.1123  0.8127
 6230SOL    HW130149   4.013   2.716   0.017  0.9206  0.8005  2.3066
 6230SOL    HW230150   4.109   2.692  17.618 -0.5386  0.1189  0.3634
 6231SOL     OW30151   0.006   0.301  15.622  0.8331  0.2698  0.4368
 6231SOL    HW130152   0.092   0.281  15.585  0.4611 -0.0063 -0.2900
 6231SOL    HW230153   0.004   0.392  15.650  0.7022  0.3409  0.1954
 6232SOL     OW30154   1.621   2.911  11.251 -0.1385  0.2454 -0.3119
 6232SOL    HW130155   1.650   2.829  11.292  0.5799  0.4387 -0.4419
 6232SOL    HW230156   1.553   2.876  11.193 -1.4055  1.1142  0.6685
 6233SOL     OW30157   0.944   1.332  11.426  0.1976  0.1342 -0.1604
 6233SOL    HW130158   0.854   1.314  11.400  0.4484 -1.3557 -0.0248
 6233SOL    HW230159   0.959   1.426  11.424  0.9683  0.0485  1.1670
 6234SOL     OW30160   0.398   3.496   6.549  0.5970 -0.1802  0.0340
 6234SOL    HW130161   0.346   3.573   6.525  0.4172 -0.6315 -1.0515
 6234SOL    HW230162   0.459   3.531   6.614  0.8598  0.8399 -0.7597
 6235SOL     OW30163   0.704   1.274   6.273 -0.6441 -0.1052 -0.1476
 6235SOL    HW130164   0.679   1.362   6.245  2.5834  0.5145 -1.1813
 6235SOL    HW230165   0.769   1.290   6.342 -1.8082 -0.6183  1.0702
 6236SOL     OW30166   3.378   2.731   5.305 -0.0763 -0.0080  0.0994
 6236SOL    HW130167   3.418   2.645   5.311 -1.0288 -0.4914 -0.5271
 6236SOL    HW230168   3.441   2.795   5.339  0.8043 -1.9332  2.0523
 6237SOL     OW30169   2.687   1.854   4.424  0.0617 -0.0772 -0.4785
 6237SOL    HW130170   2.611   1.907   4.399 -1.2371 -0.9272  1.6402
 6237SOL    HW230171   2.650   1.772   4.393 -1.7664  0.4105  0.3816
 6238SOL     OW30172   1.209   0.150   5.237  0.2046 -0.2498  0.1612
 6238SOL    HW130173   1.248   0.080   5.185  2.5549  1.2864 -0.1518
 6238SOL    HW230174   1.196   0.217   5.170 -0.1585 -1.6889 -1.2082
 6239SOL     OW30175   0.942   1.372   5.998 -0.0419 -0.0807 -0.0523
 6239SOL    HW130176   0.916   1.360   5.906  0.1973  0.4424 -0.1920
 6239SOL    HW230177   0.875   1.315   6.035 -1.0222  1.7493  0.9598
 6240SOL     OW30178   4.709   3.777   6.461  0.6547 -0.1461  0.4643
 6240SOL    HW130179   4.633   3.720   6.462 -1.2273  2.4003  1.7783
 6240SOL    HW230180   4.666   3.854   6.423  3.1895  0.7003 -0.7248
 6241SOL     OW30181   3.007   4.448   4.798 -0.2443 -0.1377 -0.0936
 6241SOL    HW130182   3.046   4.532   4.775  0.4006 -0.3328  0.2921
 6241SOL    HW230183   2.988   4.408   4.713  2.0076  1.9807 -1.6061
 6242SOL     OW30184   1.297   2.094  17.649 -0.6143  0.3510 -0.5836
 6242SOL    HW130185   1.366   2.092  17.582 -0.3391 -1.9096 -0.2501
 6242SOL    HW230186   1.227   2.147  17.613 -1.6389  0.3160  1.3648
 6243SOL     OW30187   1.837   3.226   3.398  0.3826  0.3613 -0.1941
 6243SOL    HW130188   1.784   3.288   3.448 -0.2395  2.3538 -3.3265
 6243SOL    HW230189   1.810   3.246   3.309  0.2363 -0.5937 -0.3676
 6244SOL     OW30190   3.628   4.401   6.488  0.1017  0.3138  0.6017
 6244SOL    HW130191   3.595   4.354   6.565  0.0873 -1.8629 -0.7236
 6244SOL    HW230192   3.580   4.363   6.415  0.8138  0.9612 -0.2079
 6245SOL     OW30193   2.144   1.111   8.942 -0.1835 -0.1313  0.1176
 6245SOL    HW130194   2.191   1.170   8.999  3.1420  0.4831 -3.2294
 6245SOL    HW230195   2.219   1.094   8.884 -2.4854 -0.3966 -2.8266
 6246SOL     OW30196   2.561   1.601   7.145 -0.3467  0.9214 -0.6960
 6246SOL    HW130197   2.590   1.693   7.140 -0.6664  1.0508 -0.1501
 6246SOL    HW230198   2.644   1.558   7.125 -1.1494 -0.3050 -1.3623
 6247SOL     OW30199   1.459   1.426  16.359  0.1205 -0.5605 -0.2811
 6247SOL    HW130200   1.505   1.484  16.419 -1.6940  2.6239 -1.9619
 6247SOL    HW230201   1.431   1.487  16.291  1.5367 -0.0728 -0.4248
 6248SOL     OW30202   4.308   1.242   7.607  0.0883  0.3031 -0.2901
 6248SOL    HW130203   4.346   1.302   7.671 -1.0690  0.2619  0.4252
 6248SOL    HW230204   4.300   1.164   7.661 -1.0314 -0.3308 -1.3570
 6249SOL     OW30205   3.599   2.632   0.485 -0.0135  0.1679 -0.0766
 6249SOL    HW130206   3.673   2.634   0.545  0.8936 -0.2319 -1.1933
 6249SOL    HW230207   3.631   2.663   0.400 -1.2324 -1.3696 -1.1079
 6250SOL     OW30208   2.201   2.644   3.168  0.0157 -0.1216 -0.1521
 6250SOL    HW130209   2.112   2.672   3.187  0.4096  1.2474 -0.3453
 6250SOL    HW230210   2.194   2.612   3.078  1.5712  1.5860 -0.8807
 6251SOL     OW30211   3.838   2.018   6.592 -0.0612  0.0516  0.4616
 6251SOL    HW130212   3.747   2.002   6.618 -0.5223  0.0932 -1.1174
 6251SOL    HW230213   3.886   1.987   6.668  1.0100 -0.4827 -0.4328
 6252SOL     OW30214   1.097   2.139   1.266 -0.6475  0.0121  0.1887
 6252SOL    HW130215   1.029   2.121   1.330 -0.7013 -3.0748 -0.7139
 6252SOL    HW230216   1.174   2.130   1.322 -0.7513  0.7635  0.4447
 6253SOL     OW30217   3.082   0.153   8.119  0.4955  0.1871 -0.6214
 6253SOL    HW130218   2.988   0.159   8.104  0.1891 -0.4794  1.0063
 6253SOL    HW230219   3.099   0.247   8.129  1.5623 -0.2575  1.7858
 6254SOL     OW30220   2.336   3.722   5.001  0.0751 -0.2673 -0.1946
 6254SOL    HW130221   2.424   3.758   4.987 -0.6744  2.4625  2.2548
 6254SOL    HW230222   2.294   3.790   5.053  0.6910 -1.9527  2.4977
 6255SOL     OW30223   3.103   0.044   2.525 -0.3998  0.2286  0.3913
 6255SOL    HW130224   3.038   0.072   2.461 -1.6289 -3.3236  0.0829
 6255SOL    HW230225   3.042   0.005   2.587 -1.5295  0.2239 -0.7219
 6256SOL     OW30226   2.552   1.745   6.204  0.0703  0.3995  0.8061
 6256SOL    HW130227   2.637   1.783   6.225  0.6816 -0.5600  0.0918
 6256SOL    HW230228   2.505   1.821   6.171 -0.5506 -0.0242  0.7054
 6257SOL     OW30229   3.923   2.319  14.942 -0.3338  0.1910  0.6165
 6257SOL    HW130230   3.968   2.337  14.859 -1.6007  0.1141 -0.0871
 6257SOL    HW230231   3.848   2.278  14.899  0.2437 -0.0239 -0.2077
 6258SOL     OW30232   2.310   3.811   5.272 -0.4066 -0.4672  0.2314
 6258SOL    HW130233   2.293   3.728   5.316 -1.9012  0.7164  1.9134
 6258SOL    HW230234   2.404   3.806   5.255 -0.7201  0.7967 -1.8110
 6259SOL     OW30235   0.682   3.971   6.876 -0.3654 -0.0882 -0.7197
 6259SOL    HW130236   0.672   3.879   6.854  2.8162 -0.2388 -1.4333
 6259SOL    HW230237   0.637   4.012   6.802  0.4595  0.4778 -0.9162
 6260SOL     OW30238   1.016   4.090   5.513 -0.0648 -0.2220 -0.0189
 6260SOL    HW130239   1.071   4.030   5.563 -0.6487 -2.2259 -1.7748
 6260SOL    HW230240   0.951   4.032   5.472  0.6109 -0.3788 -0.8658
 6261SOL     OW30241   3.839   1.839   1.285  0.3804  0.4241 -0.3213
 6261SOL    HW130242   3.885   1.762   1.251 -0.5176 -0.0781 -0.3804
 6261SOL    HW230243   3.771   1.802   1.341  1.7743 -2.3413 -0.4451
 6262SOL     OW30244   1.166   2.780   9.350  0.0542  0.1684  0.4507
 6262SOL    HW130245   1.258   2.755   9.348 -0.0013  0.0231 -0.2655
 6262SOL    HW230246   1.144   2.787   9.443 -0.8184  1.5664  0.1276
 6263SOL     OW30247   2.971   3.443  16.036  0.1557  0.3447  0.1832
 6263SOL    HW130248   2.972   3.535  16.060  0.3173  0.5307 -0.5391
 6263SOL    HW230249   2.965   3.455  15.941 -0.7524  2.4943  0.5318
 6264SOL     OW30250   1.547   1.535   8.017  0.0097 -0.0952  0.8842
 6264SOL    HW130251   1.616   1.480   7.979 -0.8439  0.3509 -1.3105
 6264SOL    HW230252   1.600   1.597   8.067  0.0183  1.4935 -1.1007
 6265SOL     OW30253   1.633   0.176   7.922  0.0521  0.6833 -0.3701
 6265SOL    HW130254   1.701   0.109   7.932 -0.0055  0.4427 -1.6368
 6265SOL    HW230255   1.588   0.168   8.006 -2.9644 -0.8541 -2.1543
 6266SOL     OW30256   3.153   2.826   3.953 -0.6775  0.3392  0.0414
 6266SOL    HW130257   3.121   2.800   3.867  2.3699 -0.1619 -0.9645
 6266SOL    HW230258   3.121   2.755   4.008 -0.8061 -0.7563 -1.4658
 6267SOL     OW30259   3.965   1.163   7.685 -0.0985  0.2813 -0.5854
 6267SOL    HW130260   4.057   1.189   7.686 -0.0358  0.0340 -0.0951
 6267SOL    HW230261   3.953   1.198   7.597  0.7690  0.8246 -0.4907
 6268SOL     OW30262   4.108   2.585   9.987 -0.3184 -0.2976  0.4924
 6268SOL    HW130263   4.105   2.679   9.966 -2.1284 -0.5393 -0.3595
 6268SOL    HW230264   4.131   2.574  10.079 -0.4944 -0.5922  0.5012
 6269SOL     OW30265   4.422   2.536   6.165 -0.1191  0.0131  0.1112
 6269SOL    HW130266   4.328   2.542   6.183  0.0295 -1.5258  1.4747
 6269SOL    HW230267   4.424   2.517   6.071 -1.2441  0.5965 -0.0303
 6270SOL     OW30268   0.416   3.907   4.155  0.5453 -0.1381 -0.1047
 6270SOL    HW130269   0.386   3.920   4.065  0.5229 -2.4914 -0.4145
 6270SOL    HW230270   0.372   3.976   4.206 -0.3352 -0.0946 -0.9306
 6271SOL     OW30271   1.134   4.529   1.141  0.2032  0.4725 -0.0574
 6271SOL    HW130272   1.112   4.609   1.094 -2.7503 -1.6189 -2.2309
 6271SOL    HW230273   1.052   4.481   1.151 -0.5580  1.6277 -0.7640
 6272SOL     OW30274   1.510   0.847   7.082  0.4232 -0.4302 -0.3060
 6272SOL    HW130275   1.490   0.755   7.064  0.4342 -0.0098 -2.3942
 6272SOL    HW230276   1.535   0.842   7.174  2.0411 -1.8539 -0.8222
 6273SOL     OW30277   3.020   1.131   1.489 -0.0048  0.1643 -0.2479
 6273SOL    HW130278   3.086   1.177   1.438 -0.4459  0.7543 -0.2926
 6273SOL    HW230279   3.045   1.039   1.478 -1.3889 -0.0254 -1.9100
 6274SOL     OW30280   2.772   4.341   3.419 -0.8930 -0.6351  0.2460
 6274SOL    HW130281   2.709   4.376   3.482 -1.4336  0.3536 -0.8357
 6274SOL    HW230282   2.852   4.341   3.472  1.7209 -2.8069 -3.6440
 6275SOL     OW30283   0.627   1.376  13.660 -0.6376 -0.4968 -0.1830
 6275SOL    HW130284   0.705   1.329  13.630 -0.7987 -0.1573 -1.1446
 6275SOL    HW230285   0.577   1.300  13.692  1.7119 -1.2712  1.6109
 6276SOL     OW30286   3.049   0.986   0.819 -0.8144  0.5886 -0.6315
 6276SOL    HW130287   2.964   1.025   0.799  0.7156  3.5167 -1.3960
 6276SOL    HW230288   3.045   0.996   0.914 -1.9109 -0.5160 -0.5625
 6277SOL     OW30289   2.681   0.439  15.046 -0.1851 -0.0776  0.0077
 6277SOL    HW130290   2.598   0.446  15.092 -0.8021  1.1262 -1.2913
 6277SOL    HW230291   2.651   0.372  14.984  1.0888 -0.8841  0.2578
 6278SOL     OW30292   4.280   3.510   0.129  0.6668  0.1670 -0.1532
 6278SOL    HW130293   4.319   3.588   0.169 -2.4751  0.7244  1.8447
 6278SOL    HW230294   4.346   3.443   0.148 -0.7682 -1.5350 -1.2843
 6279SOL     OW30295   4.662   3.197   1.539 -0.7432 -0.2301 -0.2722
 6279SOL    HW130296   4.600   3.261   1.504  0.4196  0.5270 -0.9279
 6279SOL    HW230297   4.605   3.121   1.522 -2.7069  1.4516 -1.1999
 6280SOL     OW30298   1.243   2.322  14.982 -0.2302  0.0929  0.0896
 6280SOL    HW130299   1.156   2.284  14.993 -0.4443 -0.2270 -2.8352
 6280SOL    HW230300   1.220   2.410  14.950 -0.7429  0.6975  2.1171
 6281SOL     OW30301   1.790   1.756  11.052 -0.2342  0.7630 -0.3802
 6281SOL    HW130302   1.751   1.680  11.008  0.8966 -0.4596  0.7475
 6281SOL    HW230303   1.872   1.713  11.075  0.8117  1.5021 -2.7363
 6282SOL     OW30304   1.785   1.633   2.858  0.1016 -0.6646  0.2379
 6282SOL    HW130305   1.811   1.619   2.949 -2.0239 -1.0070  0.8093
 6282SOL    HW230306   1.748   1.722   2.858  1.8699  0.0548  2.0688
 6283SOL     OW30307   2.369   0.390   5.320 -0.0757  0.2193 -0.1215
 6283SOL    HW130308   2.397   0.478   5.294  2.5058 -0.1591  1.3688
 6283SOL    HW230309   2.325   0.410   5.402 -0.4411  1.4119 -0.6114
 6284SOL     OW30310   1.133   0.164  12.307  0.0170 -0.1200  0.3013
 6284SOL    HW130311   1.193   0.099  12.270 -2.4025 -2.0459 -0.2784
 6284SOL    HW230312   1.124   0.119  12.391 -1.4874  0.1369  0.2809
 6285SOL     OW30313   0.576   1.777   7.476  0.2630 -0.1777 -0.2105
 6285SOL    HW130314   0.604   1.732   7.396 -0.1684  0.5492 -0.7597
 6285SOL    HW230315   0.486   1.746   7.475  0.4597 -0.7666 -0.0350
 6286SOL     OW30316   0.699   3.402   9.649 -0.2550  0.6938  0.6985
 6286SOL    HW130317   0.731   3.314   9.669 -2.5774 -0.2953  0.0575
 6286SOL    HW230318   0.605   3.387   9.635 -0.4296  2.2808  0.1188
 6287SOL     OW30319   2.545   0.549   8.513  0.3229  0.2261  0.5684
 6287SOL    HW130320   2.540   0.558   8.418  1.0711  0.9486  0.5957
 6287SOL    HW230321   2.595   0.628   8.533  1.4556 -0.4738  0.5591
 6288SOL     OW30322   2.111   1.507   3.028 -0.6293  0.2079 -0.3161
 6288SOL    HW130323   2.073   1.460   3.102 -1.2130  0.0101 -0.7383
 6288SOL    HW230324   2.133   1.431   2.974  0.3307  0.5030 -0.3443
 6289SOL     OW30325   3.723   4.314   4.877  0.4092 -0.3487 -0.4541
 6289SOL    HW130326   3.704   4.337   4.967  2.6999 -1.3460  0.3034
 6289SOL    HW230327   3.712   4.219   4.885  1.5545 -0.4963 -0.5220
 6290SOL     OW30328   4.386   0.987   9.284  0.0510  0.1484 -0.3457
 6290SOL    HW130329   4.292   1.004   9.280  0.5980  3.1283 -0.3970
 6290SOL    HW230330   4.422   1.072   9.311  0.4834 -0.2840  0.4291
 6291SOL     OW30331   3.504   3.399   4.572 -0.4450 -0.1057  0.6888
 6291SOL    HW130332   3.546   3.330   4.624 -1.1514  0.0326  1.4476
 6291SOL    HW230333   3.489   3.357   4.488  1.1300  0.1087  0.3020
 6292SOL     OW30334   1.662   4.135   6.006 -0.0124 -0.0967  0.2447
 6292SOL    HW130335   1.716   4.056   6.011  0.2359  0.0512 -0.1184
 6292SOL    HW230336   1.704   4.195   6.067 -1.0147  0.8758 -0.0331
 6293SOL     OW30337   1.540   2.252   6.118 -0.3963  0.1561  0.1072
 6293SOL    HW130338   1.623   2.248   6.070 -1.2017  2.4577 -1.4804
 6293SOL    HW230339   1.542   2.323   6.182  3.3902  2.0357 -2.1303
 6294SOL     OW30340   1.528   3.511   9.446  0.6092  0.4658  0.3952
 6294SOL    HW130341   1.555   3.426   9.411  0.9230  0.4489  0.6774
 6294SOL    HW230342   1.509   3.487   9.537  0.3748  2.0360  0.7582
 6295SOL     OW30343   4.507   1.904   1.594  0.5061 -0.1759 -0.0493
 6295SOL    HW130344   4.445   1.977   1.597 -3.2137 -3.2115 -3.4834
 6295SOL    HW230345   4.461   1.827   1.625  1.4734 -0.0757  1.6754
 6296SOL     OW30346   4.472   1.297   4.610  0.6827 -0.4992 -0.2409
 6296SOL    HW130347   4.559   1.292   4.572  0.1059  0.1448 -1.6692
 6296SOL    HW230348   4.430   1.233   4.553  0.6717  0.5593 -1.4328
 6297SOL     OW30349   1.401   1.046   8.570 -0.4203 -0.3215  0.5657
 6297SOL    HW130350   1.459   1.034   8.645  1.5568  2.6935 -0.5205
 6297SOL    HW230351   1.315   1.048   8.614 -0.8433 -1.2551 -0.2074
 6298SOL     OW30352   1.311   3.625   4.297 -0.2700  0.2007  0.5145
 6298SOL    HW130353   1.319   3.610   4.391  0.2962  0.6351  0.5325
 6298SOL    HW230354   1.221   3.600   4.277  0.3610 -1.0763 -0.7058
 6299SOL     OW30355   1.786   3.804   7.434 -0.3084  0.1428 -0.2362
 6299SOL    HW130356   1.756   3.879   7.383 -0.4319  1.0936  1.2297
 6299SOL    HW230357   1.783   3.839   7.523 -1.7056 -0.3205 -0.0933
 6300SOL     OW30358   3.264   1.441   0.533 -0.2034  0.2769 -0.4424
 6300SOL    HW130359   3.292   1.468   0.621  0.8994 -2.6680  0.1138
 6300SOL    HW230360   3.261   1.529   0.495 -1.3727  0.6258  0.4321
 6301SOL     OW30361   2.340   3.722  17.065 -0.5287  0.5495 -0.8168
 6301SOL    HW130362   2.275   3.672  17.115 -0.4416 -0.1153 -1.3730
 6301SOL    HW230363   2.284   3.795  17.037 -0.4691  0.9121 -0.0056
 6302SOL     OW30364   4.703   2.543   4.824  0.1387  0.4265 -0.1110
 6302SOL    HW130365   4.722   2.452   4.849  1.5788  0.8803  0.4773
 6302SOL    HW230366   0.006   2.546   4.732  2.2573  0.9565  0.5498
 6303SOL     OW30367   4.331   3.686   8.428 -0.0558 -0.1793 -0.0747
 6303SOL    HW130368   4.391   3.617   8.400 -0.3225 -0.6248  0.4510
 6303SOL    HW230369   4.293   3.707   8.343 -0.2026 -1.2320 -0.2760
 6304SOL     OW30370   3.218   1.813   8.292  0.7113 -0.9342  0.6033
 6304SOL    HW130371   3.251   1.813   8.202  0.8329  0.6919  0.6402
 6304SOL    HW230372   3.195   1.904   8.311 -0.0778 -1.0956  0.4560
 6305SOL     OW30373   2.082   2.019   1.065  0.1895 -0.2703  0.3271
 6305SOL    HW130374   2.131   1.949   1.023 -1.5693 -1.2167 -0.1442
 6305SOL    HW230375   1.990   2.017   1.038  0.2152 -0.0374  0.2166
 6306SOL     OW30376   2.407   4.654  10.303 -0.3503  0.4193 -0.6280
 6306SOL    HW130377   2.383   4.699  10.222 -1.2810  1.8278  0.4402
 6306SOL    HW230378   2.345   4.583  10.319  0.6940 -0.6507 -1.3073
 6307SOL     OW30379   1.033   4.294  17.552  0.2462 -0.1502 -0.2950
 6307SOL    HW130380   0.988   4.377  17.571  0.6767 -0.0350  0.2153
 6307SOL    HW230381   0.971   4.253  17.491  2.0170 -2.4316 -0.5687
 6308SOL     OW30382   1.917   2.629   8.917  0.5433  0.3120 -0.1495
 6308SOL    HW130383   1.935   2.536   8.934  0.2457  0.4340  0.8370
 6308SOL    HW230384   1.875   2.655   8.999  0.3831 -2.0135  0.5214
 6309SOL     OW30385   0.458   1.443   3.411  0.0765  0.1312 -0.6999
 6309SOL    HW130386   0.381   1.390   3.431  0.4249  0.5926  1.9638
 6309SOL    HW230387   0.461   1.424   3.318 -1.0203 -0.3700 -0.6399
 6310SOL     OW30388   1.084   3.413  10.292 -0.0778 -0.0045  0.1673
 6310SOL    HW130389   1.039   3.471  10.231  0.9320  1.5026  0.8304
 6310SOL    HW230390   1.008   3.363  10.322 -0.5029  0.0365 -0.8615
 6311SOL     OW30391   0.131   2.126   3.737  0.4194 -0.3339  0.1234
 6311SOL    HW130392   0.206   2.094   3.687  0.7770  2.5390 -1.1795
 6311SOL    HW230393   0.057   2.084   3.695  0.8822 -0.6111 -0.4112
 6312SOL     OW30394   3.388   1.800   3.922  0.9102  0.0002 -0.1556
 6312SOL    HW130395   3.408   1.780   3.831 -1.2542  0.2290 -0.6786
 6312SOL    HW230396   3.301   1.840   3.925 -0.6598 -3.4053 -0.6763
 6313SOL     OW30397   1.615   2.979   3.699  0.7234 -0.5944  0.5197
 6313SOL    HW130398   1.589   2.898   3.655  3.0604 -0.7001 -0.6656
 6313SOL    HW230399   1.710   2.971   3.696  0.7643 -0.0253  0.3121
 6314SOL     OW30400   4.612   1.001   7.918 -0.0636 -0.3112  0.3435
 6314SOL    HW130401   4.676   0.952   7.866  0.3528  0.2472  0.3293
 6314SOL    HW230402   4.552   0.927   7.917 -1.0481  0.5083 -0.6697
 6315SOL     OW30403   0.021   3.474   7.068  0.0047  0.2288  0.0761
 6315SOL    HW130404   4.699   3.554   7.090 -1.0596 -0.3484 -0.1131
 6315SOL    HW230405   0.106   3.519   7.073 -0.5722  1.5806 -2.0604
 6316SOL     OW30406   2.371   1.576   3.038 -0.0250  0.1672 -0.3785
 6316SOL    HW130407   2.383   1.604   2.947 -1.1605 -2.2134 -1.2666
 6316SOL    HW230408   2.279   1.553   3.038  0.1189 -0.4113 -0.2318
 6317SOL     OW30409   0.929   1.605   9.445 -0.4893 -0.1384  0.3977
 6317SOL    HW130410   0.884   1.575   9.524 -0.7336  1.4994  0.8856
 6317SOL    HW230411   0.934   1.520   9.400  2.1142 -0.5286  1.3914
 6318SOL     OW30412   1.824   3.361  13.737  0.3562  0.4460 -0.1161
 6318SOL    HW130413   1.869   3.445  13.729 -0.4662  0.7824 -1.1008
 6318SOL    HW230414   1.866   3.332  13.819  1.1282  3.1577  0.4359
 6319SOL     OW30415   2.566   0.026   8.207 -0.0948 -0.5077 -0.0694
 6319SOL    HW130416   2.621   0.059   8.136  1.3873 -0.2697  1.2055
 6319SOL    HW230417   2.575   4.661   8.179  2.6175 -0.7350  1.5360
 6320SOL     OW30418   2.574   0.164  12.484 -0.4313  0.9578 -0.0859
 6320SOL    HW130419   2.505   0.118  12.436  1.9584 -2.2988 -0.3458
 6320SOL    HW230420   2.543   0.255  12.487 -1.8875  0.4387  0.9868
 6321SOL     OW30421   2.199   2.655   5.681  0.8400 -0.3651  0.2491
 6321SOL    HW130422   2.275   2.678   5.735 -0.1485 -0.8213  1.8003
 6321SOL    HW230423   2.157   2.739   5.663  0.9370  0.1910  2.6057
 6322SOL     OW30424   3.535   2.090  10.657  0.4940 -0.0778 -0.6045
 6322SOL    HW130425   3.442   2.093  10.679  1.2432  2.8894  2.1636
 6322SOL    HW230426   3.549   1.995  10.659 -0.9175 -0.1766  3.7216
 6323SOL     OW30427   1.782   1.824   7.327 -0.7028 -0.6069  0.6100
 6323SOL    HW130428   1.765   1.732   7.307 -1.2396  0.0279 -1.9524
 6323SOL    HW230429   1.710   1.838   7.388  0.4724  2.5236  1.2857
 6324SOL     OW30430   0.558   2.485   8.889  0.0741  0.0140  0.2403
 6324SOL    HW130431   0.575   2.553   8.954 -1.6157 -1.2494  2.0106
 6324SOL    HW230432   0.512   2.422   8.945 -2.6569  1.2475 -0.6373
 6325SOL     OW30433   1.907   2.736   3.369  0.1941  0.5808 -0.1958
 6325SOL    HW130434   1.887   2.768   3.281 -1.3056 -0.2501 -0.1582
 6325SOL    HW230435   1.850   2.794   3.421  1.3345 -0.3208  2.0673
 6326SOL     OW30436   2.066   0.988   2.255 -0.3625 -0.2173 -0.0828
 6326SOL    HW130437   2.144   1.005   2.203  0.1348 -1.3152  0.3093
 6326SOL    HW230438   1.989   1.010   2.203  0.1824 -1.0976 -1.2642
 6327SOL     OW30439   0.672   4.293   2.008 -0.2286 -0.1699  0.6189
 6327SOL    HW130440   0.588   4.256   1.982 -0.8127  2.0715 -0.6786
 6327SOL    HW230441   0.703   4.229   2.072  0.0993  1.4665  2.0679
 6328SOL     OW30442   4.671   4.280  12.380 -0.1945 -0.2487 -0.6371
 6328SOL    HW130443   0.017   4.330  12.341  1.3838 -0.3201  2.1673
 6328SOL    HW230444   4.725   4.241  12.448 -0.4549 -0.0723 -0.3269
 6329SOL     OW30445   3.482   1.580   5.353 -0.3167  0.6196 -0.3993
 6329SOL    HW130446   3.393   1.549   5.333 -0.2444 -0.1183  0.4064
 6329SOL    HW230447   3.505   1.629   5.274 -0.3508  0.7005 -0.3582
 6330SOL     OW30448   0.795   2.460   8.005  0.5849 -0.0069  0.2409
 6330SOL    HW130449   0.726   2.490   7.947  0.7612  1.0268  0.5633
 6330SOL    HW230450   0.739   2.428   8.076 -0.2975 -0.6565 -0.7637
 6331SOL     OW30451   4.016   4.610   0.404 -0.4610 -0.3828 -0.0525
 6331SOL    HW130452   3.955   4.595   0.332 -0.8596  0.2545  0.1526
 6331SOL    HW230453   4.042   4.701   0.390 -0.7236 -0.2967  0.0223
 6332SOL     OW30454   3.128   1.524   4.458 -1.1564 -0.0054 -0.0493
 6332SOL    HW130455   3.164   1.567   4.381 -0.5121 -2.5781 -1.1750
 6332SOL    HW230456   3.036   1.550   4.469 -1.2931 -0.2719 -0.5655
 6333SOL     OW30457   0.710   2.533  12.093  0.3466 -0.0484  0.8529
 6333SOL    HW130458   0.794   2.552  12.134  0.5009 -2.1515  1.5143
 6333SOL    HW230459   0.700   2.601  12.027  1.1394 -1.9051 -1.1960
 6334SOL     OW30460   2.914   3.401   1.804  0.1597 -0.3802  0.3518
 6334SOL    HW130461   2.838   3.367   1.852 -0.1238 -2.2172 -1.3839
 6334SOL    HW230462   2.909   3.365   1.716  1.1283 -0.6011  0.3904
 6335SOL     OW30463   4.573   0.260  15.354  0.5373  0.2466 -0.5578
 6335SOL    HW130464   4.624   0.280  15.433 -2.4225 -0.9613  1.6501
 6335SOL    HW230465   4.523   0.183  15.382  2.6252 -0.7149  0.5780
 6336SOL     OW30466   1.680   4.031  12.259 -0.2711 -0.2170 -0.0022
 6336SOL    HW130467   1.630   4.090  12.202 -1.2858 -1.1969 -0.1344
 6336SOL    HW230468   1.624   3.954  12.263 -0.3885 -0.1320 -0.0102
 6337SOL     OW30469   1.699   4.482   0.002  0.1695  0.4050  0.6914
 6337SOL    HW130470   1.644   4.425  17.652  1.3900  0.6487 -0.8277
 6337SOL    HW230471   1.774   4.422   0.007 -1.0866 -1.2132 -0.0577
 6338SOL     OW30472   2.991   1.121   3.719 -0.0974 -0.6492  0.1397
 6338SOL    HW130473   2.978   1.027   3.707  1.7926 -0.8831 -0.1070
 6338SOL    HW230474   2.906   1.160   3.697  0.6381  0.2456 -1.1365
 6339SOL     OW30475   0.071   0.209   3.807 -0.1438  0.4334 -0.0506
 6339SOL    HW130476   4.719   0.162   3.777 -0.6217 -1.2542  3.7277
 6339SOL    HW230477   0.130   0.211   3.732 -1.0001  1.9377 -0.6829
 6340SOL     OW30478   4.189   3.952   5.205 -0.4252  0.0739  0.4951
 6340SOL    HW130479   4.235   3.869   5.216  0.7924  1.0572  2.7046
 6340SOL    HW230480   4.179   3.977   5.297 -2.3889 -0.9788  0.5555
 6341SOL     OW30481   3.232   1.263   2.420  0.6148 -0.0231 -0.1013
 6341SOL    HW130482   3.278   1.180   2.436  0.2146  0.0576  1.5166
 6341SOL    HW230483   3.177   1.233   2.348  0.9819 -0.8270 -0.0473
 6342SOL     OW30484   3.555   4.143  12.576  1.0813  0.2072  0.0210
 6342SOL    HW130485   3.647   4.167  12.569  1.4690 -1.3646 -0.1114
 6342SOL    HW230486   3.516   4.160  12.490  0.7994  2.5050  0.6006
 6343SOL     OW30487   3.850   1.562  16.013  0.0033 -0.2396  0.2686
 6343SOL    HW130488   3.941   1.538  15.999 -0.3986 -1.3864 -0.4692
 6343SOL    HW230489   3.816   1.536  15.927 -1.6732 -0.9305  1.1261
 6344SOL     OW30490   2.798   0.996   7.037 -0.4752  0.0010  0.5928
 6344SOL    HW130491   2.717   0.987   7.086 -0.3859  0.8382  0.9015
 6344SOL    HW230492   2.771   0.997   6.945  0.3164 -0.6686  0.3554
 6345SOL     OW30493   1.011   0.145   0.754  0.0880  0.2883  0.4078
 6345SOL    HW130494   0.928   0.190   0.772  0.1075 -0.4992  2.4811
 6345SOL    HW230495   1.026   0.172   0.663  0.5767  0.3161  0.4984
 6346SOL     OW30496   3.776   2.533   6.307 -0.2678 -0.3728 -0.0203
 6346SOL    HW130497   3.718   2.579   6.367 -1.3077  0.5653 -1.7364
 6346SOL    HW230498   3.743   2.444   6.316  0.4169 -0.3779  2.3223
 6347SOL     OW30499   2.197   2.569   4.128 -0.0413 -0.0227 -0.7574
 6347SOL    HW130500   2.164   2.617   4.052 -0.9020 -1.1448 -1.0906
 6347SOL    HW230501   2.134   2.608   4.188 -0.2814  0.5365 -1.3680
 6348SOL     OW30502   1.014   2.442   7.856 -0.2952 -0.0501 -0.2044
 6348SOL    HW130503   0.931   2.455   7.902  0.3943  0.7862  0.7962
 6348SOL    HW230504   1.071   2.402   7.922  2.0559 -1.5251 -3.1051
 6349SOL     OW30505   4.205   4.289  17.129 -0.0465 -0.4337 -0.1433
 6349SOL    HW130506   4.265   4.235  17.077  0.0659 -1.7535  1.3691
 6349SOL    HW230507   4.127   4.275  17.075 -1.5300 -0.8128  2.1197
 6350SOL     OW30508   0.899   3.254   5.718 -0.3240 -0.3366 -0.0718
 6350SOL    HW130509   0.988   3.220   5.718  0.1019  0.8238 -1.7756
 6350SOL    HW230510   0.909   3.340   5.758 -1.4512 -0.3529  0.2638
 6351SOL     OW30511   1.995   0.223   2.091 -0.3014  0.2185  0.5810
 6351SOL    HW130512   2.063   0.182   2.037  0.5258  0.7426  1.2415
 6351SOL    HW230513   1.923   0.229   2.028 -0.6448 -1.5000  0.8006
 6352SOL     OW30514   4.452   4.059   2.149 -0.4849 -0.2613 -0.2677
 6352SOL    HW130515   4.468   3.967   2.170  1.3111  0.4778  1.5582
 6352SOL    HW230516   4.392   4.055   2.074  0.4039 -1.5088 -0.8986
 6353SOL     OW30517   2.203   1.570   4.767 -0.6582  0.5243 -0.2082
 6353SOL    HW130518   2.110   1.576   4.743 -0.7064 -2.5643 -0.7479
 6353SOL    HW230519   2.225   1.491   4.717 -2.3579 -0.9326  1.3464
 6354SOL     OW30520   2.181   1.929  12.820  0.2021 -0.0189  0.1371
 6354SOL    HW130521   2.177   1.962  12.910  0.8822  0.7403 -0.1134
 6354SOL    HW230522   2.224   1.997  12.769 -0.3526  0.5886  0.4878
 6355SOL     OW30523   2.811   4.171  16.199  0.5427 -0.0516  0.0160
 6355SOL    HW130524   2.805   4.076  16.208 -0.3822 -0.2106 -2.2769
 6355SOL    HW230525   2.846   4.180  16.111 -0.0147 -0.6113 -0.2587
 6356SOL     OW30526   3.861   4.247   3.717 -0.2611 -0.1139 -0.8494
 6356SOL    HW130527   3.789   4.296   3.679  1.9121  1.7692 -2.5675
 6356SOL    HW230528   3.820   4.195   3.786 -2.0720  1.3305 -0.8365
 6357SOL     OW30529   3.144   4.008   3.600  0.2809 -0.2160 -0.5300
 6357SOL    HW130530   3.084   4.081   3.617  0.5472  0.0261 -0.6305
 6357SOL    HW230531   3.230   4.050   3.614  0.3295 -0.3636 -0.3894
 6358SOL     OW30532   2.306   3.794   2.075  0.0392  0.3945 -0.3880
 6358SOL    HW130533   2.272   3.704   2.085  0.5214  0.1504 -0.9768
 6358SOL    HW230534   2.379   3.779   2.016 -1.4247  0.3980 -2.2071
 6359SOL     OW30535   0.115   1.179  11.773  0.9384 -0.4692  0.1764
 6359SOL    HW130536   0.069   1.157  11.854 -1.1265  1.8580 -0.3722
 6359SOL    HW230537   0.103   1.274  11.772 -0.9051 -0.6927  0.6687
 6360SOL     OW30538   2.746   1.364   9.136 -0.5856 -0.3351 -0.1784
 6360SOL    HW130539   2.754   1.412   9.053  1.4576 -0.5832 -0.1040
 6360SOL    HW230540   2.836   1.373   9.166 -0.5548  0.5621 -0.5335
 6361SOL     OW30541   1.413   4.463   5.947  0.1778 -0.5644 -0.6265
 6361SOL    HW130542   1.356   4.475   5.872  1.7334 -0.5068 -1.7958
 6361SOL    HW230543   1.481   4.529   5.936 -1.7077  1.2303 -1.5653
 6362SOL     OW30544   1.860   4.695   3.868 -0.1260 -0.5091 -0.3848
 6362SOL    HW130545   1.859   4.676   3.961 -1.6641 -0.1738 -0.3378
 6362SOL    HW230546   1.789   0.033   3.861  0.6641  0.3543 -0.7164
 6363SOL     OW30547   0.267   1.447   8.347 -0.3879  0.4531  0.1051
 6363SOL    HW130548   0.232   1.535   8.334  1.7611  1.2666 -0.0587
 6363SOL    HW230549   0.193   1.409   8.299  0.1673 -1.9852  1.1735
 6364SOL     OW30550   3.268   1.619   3.052 -0.3123  0.3588 -0.1508
 6364SOL    HW130551   3.258   1.641   2.959 -0.0535 -1.6591 -0.6579
 6364SOL    HW230552   3.232   1.531   3.045 -2.3693  1.0679  1.4889
 6365SOL     OW30553   0.255   0.264  11.496 -0.4036  0.0534 -0.6084
 6365SOL    HW130554   0.339   0.261  11.541 -0.0649 -0.8666 -1.2901
 6365SOL    HW230555   0.223   0.349  11.527  0.6683  0.9887 -2.0525
 6366SOL     OW30556   2.700   1.362  12.524  0.3400  0.3500 -0.7118
 6366SOL    HW130557   2.789   1.345  12.557 -0.6496  0.3046  1.9786
 6366SOL    HW230558   2.721   1.391  12.436 -1.3586 -0.0166 -1.2403
 6367SOL     OW30559   3.626   1.883  10.930  0.2536  0.0479  0.1063
 6367SOL    HW130560   3.598   1.821  10.997 -0.5133  0.6315  0.3220
 6367SOL    HW230561   3.688   1.833  10.876  0.8824  0.2373  0.6499
 6368SOL     OW30562   2.655   1.323   5.232 -0.0863 -0.4168 -0.1712
 6368SOL    HW130563   2.708   1.359   5.303 -0.4706  3.7852 -2.0084
 6368SOL    HW230564   2.690   1.235   5.217 -0.6468 -0.6261 -0.2220
 6369SOL     OW30565   3.621   3.718   5.943 -0.0312  0.4216  1.1307
 6369SOL    HW130566   3.675   3.640   5.929  0.9225  1.1942  0.4339
 6369SOL    HW230567   3.589   3.702   6.031  1.3306  1.1033  1.7597
 6370SOL     OW30568   1.052   1.325   2.794  0.2273 -0.0974  0.0397
 6370SOL    HW130569   1.102   1.385   2.739 -0.0227  0.6569  0.6354
 6370SOL    HW230570   0.994   1.283   2.731 -0.1834  0.7054 -0.1253
 6371SOL     OW30571   1.818   4.715   6.042  0.0514  0.0053  0.2992
 6371SOL    HW130572   1.838   0.079   6.015  1.1353  0.1809  1.6707
 6371SOL    HW230573   1.732   4.722   6.083  0.1240 -1.4812  0.7094
 6372SOL     OW30574   2.108   2.353   2.953 -0.0196 -0.1886  0.6163
 6372SOL    HW130575   2.120   2.448   2.953 -0.2741 -0.1352 -2.7317
 6372SOL    HW230576   2.015   2.348   2.976 -0.4802  2.9616 -0.4262
 6373SOL     OW30577   1.023   3.712   2.632  0.6629 -0.1958  0.3336
 6373SOL    HW130578   0.968   3.637   2.654  0.4076 -0.5027 -1.3517
 6373SOL    HW230579   0.999   3.770   2.705  1.2753  2.2047 -1.3649
 6374SOL     OW30580   0.245   3.243   3.671 -0.4221 -0.2985 -0.1053
 6374SOL    HW130581   0.176   3.293   3.629 -2.0144 -2.2639  0.1447
 6374SOL    HW230582   0.273   3.305   3.738  0.2099 -1.5278  0.7660
 6375SOL     OW30583   0.801   4.310   4.026 -0.1319 -0.1753 -0.2193
 6375SOL    HW130584   0.833   4.288   4.114  1.3198  4.1835  0.3457
 6375SOL    HW230585   0.708   4.313   4.049 -0.2401  1.6540 -0.9309
 6376SOL     OW30586   4.627   0.945   3.123  0.0829 -0.1069 -0.2779
 6376SOL    HW130587   4.648   0.894   3.202 -0.0104  0.6052  0.2102
 6376SOL    HW230588   4.550   0.904   3.084  1.6531 -2.8070 -0.5320
 6377SOL     OW30589   0.578   1.532   1.907 -0.3531  0.2063  0.1663
 6377SOL    HW130590   0.530   1.506   1.829  0.6126  1.9905 -1.0315
 6377SOL    HW230591   0.666   1.499   1.888 -0.6072 -0.9166  0.9305
 6378SOL     OW30592   0.159   3.170  15.558 -0.6057 -0.5342 -0.0563
 6378SOL    HW130593   0.197   3.085  15.577 -1.1466 -0.7843 -0.1097
 6378SOL    HW230594   0.192   3.218  15.634 -1.4097  0.0948 -0.1100
 6379SOL     OW30595   0.240   3.038  12.805  0.1261 -0.1617  0.4698
 6379SOL    HW130596   0.264   3.126  12.834 -1.1148  0.9837 -1.9774
 6379SOL    HW230597   0.304   2.979  12.845  0.7302  0.1438 -0.0645
 6380SOL     OW30598   1.446   3.506   0.603  0.3881  0.0730  0.1386
 6380SOL    HW130599   1.456   3.559   0.524  0.6444 -1.2015 -0.6858
 6380SOL    HW230600   1.382   3.439   0.581 -1.2544  2.2785 -1.7799
 6381SOL     OW30601   3.014   2.361   5.884 -0.5284  0.2717 -0.5655
 6381SOL    HW130602   3.018   2.417   5.962 -1.2353 -1.1500  0.4913
 6381SOL    HW230603   3.042   2.429   5.823  1.0044  0.3715  0.2459
 6382SOL     OW30604   2.047   3.425   7.417  0.3630 -0.6183  0.0244
 6382SOL    HW130605   1.972   3.460   7.463  0.3079 -1.2406  0.4101
 6382SOL    HW230606   2.103   3.502   7.425  0.1759 -0.8121  2.9250
 6383SOL     OW30607   3.441   2.585   0.222 -0.8902  0.3619 -0.2676
 6383SOL    HW130608   3.536   2.591   0.222 -0.9009  0.5126 -0.3979
 6383SOL    HW230609   3.419   2.648   0.291  3.3933 -0.0326  1.4117
 6384SOL     OW30610   3.460   0.620   5.202  0.6226  0.0276  0.1780
 6384SOL    HW130611   3.446   0.590   5.113  1.8860  0.6146 -0.2244
 6384SOL    HW230612   3.403   0.697   5.203 -1.5352 -1.6002 -1.3057
 6385SOL     OW30613   1.071   3.752   8.425  0.3509 -0.0670 -0.1048
 6385SOL    HW130614   1.063   3.777   8.517  1.7015  1.3254 -0.3547
 6385SOL    HW230615   1.133   3.680   8.433  0.7253  0.3205  0.4764
 6386SOL     OW30616   1.243   3.196   5.463 -0.2579  0.2926 -0.4739
 6386SOL    HW130617   1.234   3.113   5.415  0.6642  1.2764 -2.3221
 6386SOL    HW230618   1.294   3.241   5.395 -1.4250  0.6069 -1.1462
 6387SOL     OW30619   1.967   1.789   5.578  0.2846 -0.3025  0.1492
 6387SOL    HW130620   1.914   1.825   5.508 -0.6885 -0.0412  1.0169
 6387SOL    HW230621   2.043   1.757   5.530  0.2978 -1.0733  0.6816
 6388SOL     OW30622   3.537   2.478  11.956 -0.7029 -0.2497 -0.6378
 6388SOL    HW130623   3.521   2.524  12.038  2.2454 -0.0561 -0.1919
 6388SOL    HW230624   3.531   2.552  11.895  0.0384  0.7077  0.4655
 6389SOL     OW30625   3.872   1.672   7.440 -0.0666  0.1722  0.3735
 6389SOL    HW130626   3.943   1.621   7.404  2.0143  2.7084  0.8786
 6389SOL    HW230627   3.802   1.607   7.445  1.0233 -1.0022  0.1538
 6390SOL     OW30628   4.640   3.790   9.318 -0.0678 -0.6925 -0.0288
 6390SOL    HW130629   4.707   3.842   9.274  0.3416 -0.8494  0.4144
 6390SOL    HW230630   4.571   3.853   9.340 -0.0445 -1.0640  1.0836
 6391SOL     OW30631   2.316   1.880   4.925  0.0257 -0.4650  0.1562
 6391SOL    HW130632   2.357   1.793   4.923  2.3817  0.6801 -1.1266
 6391SOL    HW230633   2.351   1.918   5.005  0.5686  0.7639 -0.6530
 6392SOL     OW30634   4.709   4.351   7.868  0.5298 -0.6427  0.1430
 6392SOL    HW130635   0.026   4.374   7.785 -0.6508  0.5266 -0.1425
 6392SOL    HW230636   0.051   4.324   7.931 -0.2871 -1.2371  0.7533
 6393SOL     OW30637   3.303   1.531  12.974 -0.5054  0.4497  0.4459
 6393SOL    HW130638   3.302   1.625  12.993 -0.9212  0.9765 -2.1461
 6393SOL    HW230639   3.243   1.511  13.046 -0.9391 -0.2986 -0.1276
 6394SOL     OW30640   3.228   4.420   8.668  0.8504  0.1329  0.3076
 6394SOL    HW130641   3.199   4.329   8.677  1.1790 -0.0720 -0.6586
 6394SOL    HW230642   3.202   4.462   8.750 -0.6023  1.0664 -0.6294
 6395SOL     OW30643   3.184   3.217   5.064 -0.6512  0.3603 -0.0035
 6395SOL    HW130644   3.149   3.142   5.113 -1.2972 -0.1827 -1.2950
 6395SOL    HW230645   3.142   3.292   5.106 -1.5926  0.2874 -0.8191
 6396SOL     OW30646   2.955   0.390  11.686  0.0004  1.2175  0.2217
 6396SOL    HW130647   2.870   0.392  11.643  0.8995 -1.3953 -1.6619
 6396SOL    HW230648   2.988   0.480  11.687  0.1992  1.1538 -1.7384
 6397SOL     OW30649   2.792   0.256   4.026  0.4274  0.0681  0.0937
 6397SOL    HW130650   2.728   0.191   4.054 -1.9102  2.6554  0.8039
 6397SOL    HW230651   2.773   0.257   3.932 -0.5443  3.1559  0.3238
 6398SOL     OW30652   1.085   1.570  16.264  0.5623 -0.0793  0.8244
 6398SOL    HW130653   1.169   1.586  16.221 -0.7141  2.8981 -0.5860
 6398SOL    HW230654   1.101   1.505  16.332 -0.3470  0.9511  2.0290
 6399SOL     OW30655   3.708   3.778  13.270  0.5098  0.1349 -0.1705
 6399SOL    HW130656   3.680   3.849  13.328  0.1968  0.9799 -1.3637
 6399SOL    HW230657   3.781   3.742  13.321 -0.7280 -0.0747  1.4558
 6400SOL     OW30658   3.591   1.013   1.414 -0.3246  0.4083 -0.1680
 6400SOL    HW130659   3.612   1.010   1.508 -0.3457  2.0597 -0.1193
 6400SOL    HW230660   3.675   1.016   1.370 -0.4189  1.0589 -0.3052
 6401SOL     OW30661   4.345   0.962   5.014  0.6114 -0.6558 -0.2773
 6401SOL    HW130662   4.422   0.909   4.992  2.3676  1.8858 -0.3673
 6401SOL    HW230663   4.274   0.899   5.013 -0.1497  0.2008  0.9746
 6402SOL     OW30664   3.625   2.154   3.151 -0.2032 -0.5278  0.2790
 6402SOL    HW130665   3.546   2.173   3.101  0.9525  0.2577 -1.2583
 6402SOL    HW230666   3.629   2.244   3.183  1.5186 -0.9862  1.3773
 6403SOL     OW30667   1.060   4.663   7.325  0.1518 -0.6947 -0.0388
 6403SOL    HW130668   0.968   4.675   7.351  0.0751 -1.5861  0.0764
 6403SOL    HW230669   1.057   4.588   7.266  1.0354  0.9348 -2.1673
 6404SOL     OW30670   2.893   3.210  16.168 -0.1483 -0.0428  0.3518
 6404SOL    HW130671   2.945   3.156  16.109 -0.0699 -0.8181  1.1222
 6404SOL    HW230672   2.870   3.285  16.113  0.1582  0.3407  0.7513
 6405SOL     OW30673   2.431   0.595   2.274 -0.1446  0.5030  0.2745
 6405SOL    HW130674   2.339   0.618   2.276 -0.7664 -2.2275  2.5314
 6405SOL    HW230675   2.476   0.671   2.237  0.0286  1.3010  2.1227
 6406SOL     OW30676   2.795   0.709  13.117 -0.1085  0.7482 -0.0142
 6406SOL    HW130677   2.833   0.623  13.099  2.4273  1.1600  3.4728
 6406SOL    HW230678   2.803   0.715  13.212  0.7127 -2.8861  0.1353
 6407SOL     OW30679   1.950   4.344   2.461  0.6285  0.6641 -0.0936
 6407SOL    HW130680   2.044   4.362   2.464  0.5285  1.1398  0.1717
 6407SOL    HW230681   1.915   4.408   2.400 -1.3198 -0.8476 -0.5701
 6408SOL     OW30682   2.720   0.610  16.890  0.6975 -0.3254  0.0401
 6408SOL    HW130683   2.729   0.547  16.818 -1.6870  0.1082 -0.6366
 6408SOL    HW230684   2.712   0.543  16.957  1.8099 -0.0965  0.4096
 6409SOL     OW30685   1.359   0.226   8.738  0.1162  0.1050  0.2949
 6409SOL    HW130686   1.452   0.241   8.724  0.1387 -0.2874  0.0196
 6409SOL    HW230687   1.315   0.221   8.653  3.1335  1.5302 -1.3447
 6410SOL     OW30688   1.234   3.055   8.467  0.5134  0.6441 -0.2209
 6410SOL    HW130689   1.246   3.134   8.519 -2.0400 -0.1342  1.5779
 6410SOL    HW230690   1.179   3.100   8.403 -0.3736  0.9466  0.7600
 6411SOL     OW30691   2.415   1.790  11.185  0.0420 -0.2658 -0.5678
 6411SOL    HW130692   2.452   1.854  11.247 -3.8007 -0.2978  1.8032
 6411SOL    HW230693   2.344   1.762  11.244  0.6766 -0.0572  0.3035
 6412SOL     OW30694   1.423   4.138   6.416  0.1007  0.1714 -0.3498
 6412SOL    HW130695   1.489   4.094   6.364  2.0204 -0.8051  2.9443
 6412SOL    HW230696   1.350   4.078   6.396  0.9533 -1.3062  0.9759
 6413SOL     OW30697   0.235   1.021   3.218  0.5494  0.2277  0.4147
 6413SOL    HW130698   0.303   1.031   3.285  0.6837 -0.8872  0.4477
 6413SOL    HW230699   0.284   0.979   3.147 -0.4926 -1.6026  0.7525
 6414SOL     OW30700   0.077   1.519  11.719  0.3269 -0.1532  0.0979
 6414SOL    HW130701   0.171   1.516  11.700  0.3149 -0.5217  0.1000
 6414SOL    HW230702   0.071   1.615  11.710 -1.2080 -0.3246 -0.6934
 6415SOL     OW30703   0.021   0.265   8.514  0.0783  0.5954 -0.2839
 6415SOL    HW130704   4.722   0.285   8.604  2.1611 -1.1628  0.6484
 6415SOL    HW230705   0.088   0.328   8.487 -0.0882  0.6195 -0.6446
 6416SOL     OW30706   3.726   3.362  17.551  0.3327  0.4685 -0.1944
 6416SOL    HW130707   3.795   3.296  17.549  0.2628  0.3812  0.4286
 6416SOL    HW230708   3.701   3.345  17.460  1.7914  0.9635 -0.6839
 6417SOL     OW30709   0.111   3.392  10.336 -0.3080 -0.5367 -0.4917
 6417SOL    HW130710   0.098   3.423  10.426 -0.0273 -3.8606  0.6785
 6417SOL    HW230711   0.056   3.314  10.338  0.2008 -0.9366 -2.2817
 6418SOL     OW30712   4.435   1.205   9.879 -0.2003 -0.0679  0.2202
 6418SOL    HW130713   4.363   1.172   9.932 -0.3363 -2.0488 -1.1700
 6418SOL    HW230714   4.399   1.280   9.832  0.9849  0.9791  0.9937
 6419SOL     OW30715   3.500   1.542  15.070  0.4881  0.6619  0.6438
 6419SOL    HW130716   3.585   1.583  15.058  0.9465 -0.3767  0.3735
 6419SOL    HW230717   3.441   1.615  15.091 -0.9143 -0.4259  0.4502
 6420SOL     OW30718   1.194   1.620   5.328 -0.6364 -0.1472  0.3535
 6420SOL    HW130719   1.168   1.646   5.240 -2.6532 -1.3766  0.5809
 6420SOL    HW230720   1.283   1.656   5.336 -1.6004  2.7098 -1.6899
 6421SOL     OW30721   0.757   0.640  13.068  0.4490 -0.3080  0.2638
 6421SOL    HW130722   0.791   0.562  13.113  0.5372  0.2569  1.1672
 6421SOL    HW230723   0.702   0.670  13.141  0.6064 -1.8770  1.0260
 6422SOL     OW30724   1.471   1.304   5.450  0.3375  0.6375  0.6823
 6422SOL    HW130725   1.395   1.350   5.414  0.7259  1.9019  1.4799
 6422SOL    HW230726   1.453   1.218   5.411  0.4179  1.1272 -0.4278
 6423SOL     OW30727   2.490   3.257   5.803  0.5296 -0.4162  0.1384
 6423SOL    HW130728   2.438   3.189   5.759 -1.6444 -0.2292  2.3906
 6423SOL    HW230729   2.420   3.318   5.829  0.0069 -0.5466 -0.9329
 6424SOL     OW30730   3.866   0.906  11.051 -0.2246  0.1946 -0.1344
 6424SOL    HW130731   3.806   0.861  10.991 -0.5772 -1.1514  1.2519
 6424SOL    HW230732   3.940   0.850  11.031 -0.4641 -0.0682 -0.2885
 6425SOL     OW30733   1.416   1.812   1.462 -0.0348  0.5721  1.0313
 6425SOL    HW130734   1.410   1.717   1.474 -0.0716  0.6258  1.4553
 6425SOL    HW230735   1.504   1.827   1.427 -0.0906 -0.0561  0.6223
 6426SOL     OW30736   4.371   1.795   3.338  0.2724  0.2962 -0.0393
 6426SOL    HW130737   4.310   1.721   3.346 -1.4831  1.7243 -0.1130
 6426SOL    HW230738   4.322   1.859   3.287  1.0628 -0.1006 -1.2847
 6427SOL     OW30739   3.528   0.384   7.241 -0.4008 -0.0175 -0.5610
 6427SOL    HW130740   3.544   0.354   7.331  0.6407 -0.7721 -0.9912
 6427SOL    HW230741   3.437   0.412   7.251 -0.4710  0.5135 -2.8157
 6428SOL     OW30742   4.725   2.198   6.795 -0.2760 -0.1673  0.2869
 6428SOL    HW130743   4.695   2.112   6.766  3.0771 -2.3486  3.3338
 6428SOL    HW230744   4.652   2.251   6.826 -2.6987 -2.0101 -2.1709
 6429SOL     OW30745   2.770   0.410  14.293 -0.3257  0.4666  0.3039
 6429SOL    HW130746   2.833   0.340  14.305 -1.0649 -0.6074 -2.2319
 6429SOL    HW230747   2.811   0.489  14.331  1.3155  0.2132 -0.9833
 6430SOL     OW30748   4.192   3.006   9.093  0.0905  0.2103 -0.3792
 6430SOL    HW130749   4.185   3.079   9.155  0.0000  1.5627 -1.9660
 6430SOL    HW230750   4.147   3.032   9.013 -0.4876  1.7086  0.4291
 6431SOL     OW30751   3.867   0.996   4.210  0.1578  0.4740  0.2160
 6431SOL    HW130752   3.879   1.000   4.305 -2.3098  0.3815  0.5287
 6431SOL    HW230753   3.790   1.053   4.204 -1.5613 -1.7622  1.0673
 6432SOL     OW30754   4.605   1.208  16.592  0.1392  0.4524 -0.0352
 6432SOL    HW130755   4.694   1.230  16.618 -0.5656  2.6144  0.5659
 6432SOL    HW230756   4.571   1.273  16.531 -1.9064 -0.6134 -0.0672
 6433SOL     OW30757   2.603   4.337  16.197 -0.0931 -0.2486 -0.1757
 6433SOL    HW130758   2.680   4.283  16.215 -1.0428 -1.1098  1.2613
 6433SOL    HW230759   2.540   4.323  16.267  0.3452 -2.1200 -0.1441
 6434SOL     OW30760   0.290   1.014   8.951 -0.1685  0.0978  0.3165
 6434SOL    HW130761   0.383   0.992   8.950 -0.1198  0.2891  0.5998
 6434SOL    HW230762   0.262   0.924   8.931  2.0990 -0.2390 -1.3490
 6435SOL     OW30763   4.381   3.523   2.235 -0.0103 -0.0851 -0.3214
 6435SOL    HW130764   4.308   3.585   2.235 -0.2949 -0.4088 -0.9507
 6435SOL    HW230765   4.334   3.442   2.213  2.3190 -1.7680  0.9933
 6436SOL     OW30766   4.195   0.732  13.777 -0.0467 -0.0534  0.0406
 6436SOL    HW130767   4.263   0.686  13.728  0.6808  1.1055 -0.0524
 6436SOL    HW230768   4.185   0.810  13.722 -3.5828 -1.0967 -0.8021
 6437SOL     OW30769   3.593   2.993   5.115 -0.3249 -0.3790 -0.4368
 6437SOL    HW130770   3.649   3.066   5.088 -0.6934 -0.2996 -0.9728
 6437SOL    HW230771   3.649   2.919   5.091 -0.3845 -0.3387 -0.6996
 6438SOL     OW30772   3.924   1.700   1.707  0.2603  0.4942 -0.6469
 6438SOL    HW130773   3.842   1.651   1.702 -0.2349  1.3247 -0.5854
 6438SOL    HW230774   3.985   1.626   1.702  0.4266  0.4910  1.4423
 6439SOL     OW30775   0.442   0.113   6.338  0.5910  0.1276 -0.0307
 6439SOL    HW130776   0.458   0.179   6.405 -0.1803 -0.3066  0.5889
 6439SOL    HW230777   0.472   0.157   6.259 -0.3188  0.9341  0.0755
 6440SOL     OW30778   0.274   2.232   6.453  0.2881 -0.2246 -0.9680
 6440SOL    HW130779   0.208   2.211   6.387  1.0082 -3.0012 -0.8304
 6440SOL    HW230780   0.277   2.147   6.497  2.0914  0.2861 -0.1126
 6441SOL     OW30781   2.446   0.184   1.911  0.2511 -0.1802 -1.0457
 6441SOL    HW130782   2.359   0.209   1.879  1.3413  2.4504 -1.9674
 6441SOL    HW230783   2.499   0.211   1.836  2.9013  0.1963  0.9464
 6442SOL     OW30784   1.390   0.801   3.618  0.1908  0.0029 -0.2097
 6442SOL    HW130785   1.420   0.796   3.708 -0.6544  1.3838  0.1423
 6442SOL    HW230786   1.473   0.796   3.570  1.7422 -1.0540  2.6136
 6443SOL     OW30787   4.262   2.136   1.965 -0.1526  0.0317 -0.6276
 6443SOL    HW130788   4.290   2.228   1.965 -2.8648  0.8555 -1.3959
 6443SOL    HW230789   4.225   2.130   1.876 -0.1700 -1.9282 -0.4729
 6444SOL     OW30790   1.666   1.902   8.890  0.3276 -0.2795 -1.0679
 6444SOL    HW130791   1.600   1.932   8.828  0.0473  0.0372 -0.6133
 6444SOL    HW230792   1.614   1.842   8.945  1.7193 -2.1923 -1.8503
 6445SOL     OW30793   1.715   0.544   6.078  0.0848 -0.4438  0.3415
 6445SOL    HW130794   1.751   0.556   6.166  0.9309  0.5838 -0.1492
 6445SOL    HW230795   1.720   0.633   6.045  0.8600  0.0309  1.7488
 6446SOL     OW30796   3.687   3.881   4.477  0.7859 -0.2969 -0.5518
 6446SOL    HW130797   3.680   3.793   4.514 -0.7409 -0.6136 -1.6031
 6446SOL    HW230798   3.634   3.938   4.532  2.7315 -1.1401  2.1927
 6447SOL     OW30799   4.526   4.004   1.896 -0.3277 -0.1058 -0.1181
 6447SOL    HW130800   4.435   4.026   1.916 -0.5214 -1.6906  0.7250
 6447SOL    HW230801   4.536   3.909   1.904 -1.4957 -0.4973 -3.2918
 6448SOL     OW30802   3.970   0.770   4.687  0.3511  0.5322  0.2740
 6448SOL    HW130803   3.898   0.788   4.627 -0.1910  0.8599  1.0186
 6448SOL    HW230804   4.020   0.849   4.664  0.8138 -0.1552 -1.0614
 6449SOL     OW30805   1.491   4.420   2.280 -0.0763  0.1395  0.7471
 6449SOL    HW130806   1.406   4.394   2.245  0.3442 -1.2172  0.7217
 6449SOL    HW230807   1.470   4.501   2.327 -1.0242 -0.7463  1.8494
 6450SOL     OW30808   0.931   2.140   7.687 -0.0513  0.5445  0.4131
 6450SOL    HW130809   0.996   2.077   7.657  0.3151  1.3201 -0.4501
 6450SOL    HW230810   0.914   2.092   7.768  0.2445 -0.7302 -0.2952
 6451SOL     OW30811   2.861   2.725   8.964  0.0033 -0.1751 -0.0573
 6451SOL    HW130812   2.772   2.733   8.931 -0.6905  0.6542  2.0372
 6451SOL    HW230813   2.891   2.666   8.895  1.3056  0.4401 -0.0273
 6452SOL     OW30814   2.201   3.202  12.987 -0.5123 -0.3306 -0.0855
 6452SOL    HW130815   2.176   3.183  13.077  0.2279  0.8198  0.3652
 6452SOL    HW230816   2.291   3.171  12.983  0.1575  1.7492 -1.0884
 6453SOL     OW30817   2.601   0.362   2.142 -0.0105  0.0281  0.3330
 6453SOL    HW130818   2.674   0.376   2.081  0.6255 -0.5102  0.9694
 6453SOL    HW230819   2.533   0.318   2.091  0.2280  0.5016 -0.3879
 6454SOL     OW30820   3.573   2.403   6.642 -0.0663  0.6833  0.4302
 6454SOL    HW130821   3.516   2.392   6.718  1.1654 -0.9805  1.1167
 6454SOL    HW230822   3.508   2.459   6.601  0.4113 -0.0286 -1.3368
 6455SOL     OW30823   1.705   2.729   6.358 -0.6492  0.1373 -0.1681
 6455SOL    HW130824   1.727   2.818   6.386 -2.2379  0.8142 -1.0858
 6455SOL    HW230825   1.704   2.746   6.264 -1.0498 -0.9306 -0.3594
 6456SOL     OW30826   3.974   2.041  15.060 -0.4492 -0.1317 -0.3687
 6456SOL    HW130827   3.962   2.092  15.139 -2.5183  0.3233 -0.9742
 6456SOL    HW230828   4.044   2.099  15.030 -2.4644  1.7852 -1.2806
 6457SOL     OW30829   2.153   1.421   5.834 -0.4786  0.3340 -0.1886
 6457SOL    HW130830   2.193   1.433   5.748 -1.3230 -1.5428 -0.8532
 6457SOL    HW230831   2.101   1.500   5.847 -1.2952 -0.6394  2.4271
 6458SOL     OW30832   2.314   2.270   2.109  0.0831  0.0613 -0.0786
 6458SOL    HW130833   2.337   2.274   2.202 -0.4384  1.0541  0.0097
 6458SOL    HW230834   2.394   2.231   2.075  1.5819  2.5381  0.6049
 6459SOL     OW30835   4.583   3.693   7.120 -0.0477  0.6285  0.2211
 6459SOL    HW130836   4.577   3.755   7.192  3.1778 -1.5556  2.3535
 6459SOL    HW230837   4.523   3.734   7.057  1.1862  1.2970 -0.5220
 6460SOL     OW30838   2.852   3.871   7.144  0.0537 -0.1200 -0.1245
 6460SOL    HW130839   2.843   3.900   7.234 -0.0279  0.8866 -0.4629
 6460SOL    HW230840   2.816   3.783   7.151  2.4623 -1.4122 -3.7166
 6461SOL     OW30841   0.206   0.391   3.505  0.0205 -0.0790  0.1153
 6461SOL    HW130842   0.130   0.333   3.497 -1.5057  1.6554  2.1027
 6461SOL    HW230843   0.165   0.473   3.532 -1.7061 -0.9837  0.2162
 6462SOL     OW30844   1.140   3.945   3.335 -0.3641 -0.1658  0.4316
 6462SOL    HW130845   1.143   3.906   3.422  2.1977  1.5538  1.1191
 6462SOL    HW230846   1.076   3.881   3.304  1.4617 -1.8002  0.0668
 6463SOL     OW30847   2.889   0.799   6.559  0.0160  0.1019  0.3172
 6463SOL    HW130848   2.918   0.839   6.478  0.2098 -3.3303 -1.2776
 6463SOL    HW230849   2.821   0.858   6.592 -2.1823 -1.6177 -1.1469
 6464SOL     OW30850   2.526   0.341   1.433 -0.1721  0.5160  0.2906
 6464SOL    HW130851   2.578   0.267   1.464  1.8366  1.4399 -0.8504
 6464SOL    HW230852   2.523   0.385   1.518 -1.4639  0.0815  0.4659
 6465SOL     OW30853   2.634   2.356   5.517  0.3972 -0.0331 -0.6238
 6465SOL    HW130854   2.682   2.334   5.437  0.5187  0.3186 -0.6482
 6465SOL    HW230855   2.544   2.325   5.510 -0.2868  2.4751 -3.1241
 6466SOL     OW30856   3.326   1.191   6.960 -0.1347  0.1625 -0.3845
 6466SOL    HW130857   3.315   1.271   7.011 -2.4828  0.4974 -1.4363
 6466SOL    HW230858   3.390   1.145   7.013 -0.7635  2.2407  2.1719
 6467SOL     OW30859   0.609   2.426   3.012 -0.4583  0.1947 -0.6411
 6467SOL    HW130860   0.551   2.392   2.944 -2.5163 -0.5319  1.4725
 6467SOL    HW230861   0.601   2.364   3.084  0.7240  2.7109  1.6750
 6468SOL     OW30862   0.223   4.012   3.462 -0.1840 -0.8085 -0.8406
 6468SOL    HW130863   0.261   4.029   3.376 -0.0796  1.5888 -0.3088
 6468SOL    HW230864   0.145   4.064   3.447 -0.0362 -0.5403 -0.6754
 6469SOL     OW30865   0.726   3.353   5.235 -0.6411  0.1974  0.5068
 6469SOL    HW130866   0.634   3.341   5.212 -0.1031 -0.0236 -1.5403
 6469SOL    HW230867   0.708   3.337   5.328 -0.0198  0.4757  0.6743
 6470SOL     OW30868   3.180   3.394   0.757  0.1876  0.2349 -0.3512
 6470SOL    HW130869   3.254   3.336   0.742 -1.6185 -1.9968 -0.5052
 6470SOL    HW230870   3.139   3.398   0.671 -0.0605 -1.1729 -0.2976
 6471SOL     OW30871   1.079   1.717   1.614  0.1602 -0.2191  0.6786
 6471SOL    HW130872   1.088   1.780   1.543  1.5284 -2.6490 -1.3167
 6471SOL    HW230873   1.152   1.655   1.603 -2.6636 -2.9936 -2.4089
 6472SOL     OW30874   1.533   1.054  11.127 -0.6046  0.4296  0.3677
 6472SOL    HW130875   1.622   1.070  11.159 -0.0214  1.1165 -1.6096
 6472SOL    HW230876   1.480   1.088  11.199 -1.9889 -1.1367  0.0890
 6473SOL     OW30877   2.241   1.892  13.243  0.4125 -0.2114 -0.4845
 6473SOL    HW130878   2.295   1.832  13.192 -0.4150 -2.1116  0.8623
 6473SOL    HW230879   2.221   1.839  13.320  2.6390  1.3055  1.1259
 6474SOL     OW30880   0.208   0.745  10.524 -0.2597 -0.2583  0.0480
 6474SOL    HW130881   0.298   0.726  10.553 -0.3583  0.7253  1.0084
 6474SOL    HW230882   0.204   0.697  10.441 -1.6003 -1.1049  0.6116
 6475SOL     OW30883   2.698   1.357   3.440  0.0931  0.4622  0.0536
 6475SOL    HW130884   2.653   1.428   3.396  2.0567  0.9499 -1.1680
 6475SOL    HW230885   2.642   1.280   3.428  1.8493 -0.6099 -1.1643
 6476SOL     OW30886   0.276   1.694   5.320 -0.0316 -0.1597 -0.0877
 6476SOL    HW130887   0.353   1.640   5.335  0.4082  0.0573 -1.5177
 6476SOL    HW230888   0.251   1.670   5.230 -1.5624 -2.4013  0.9410
 6477SOL     OW30889   1.286   2.532   4.853  0.6626  0.1125 -0.5557
 6477SOL    HW130890   1.310   2.505   4.765 -1.7600 -0.8920 -0.9059
 6477SOL    HW230891   1.275   2.442   4.882 -0.5397  0.7887  1.1269
 6478SOL     OW30892   1.737   3.204   7.981  0.2105 -0.3191 -0.3675
 6478SOL    HW130893   1.741   3.256   8.061  1.0480 -0.7528 -0.1314
 6478SOL    HW230894   1.662   3.147   7.998  1.1258 -1.8931 -1.5463
 6479SOL     OW30895   3.817   4.579   1.207  0.2630 -0.5510 -0.5945
 6479SOL    HW130896   3.828   4.654   1.149  3.2566  0.5558  1.4357
 6479SOL    HW230897   3.722   4.573   1.192  0.1344 -0.3680  0.1485
 6480SOL     OW30898   3.904   4.199   5.274  0.6660 -0.4488 -0.0101
 6480SOL    HW130899   3.869   4.194   5.185  1.0825 -1.1705 -0.1329
 6480SOL    HW230900   3.821   4.198   5.321  0.3237  3.0635 -0.5101
 6481SOL     OW30901   0.562   2.311   4.688 -0.0592 -0.0471 -0.2809
 6481SOL    HW130902   0.480   2.263   4.674 -0.3011  0.4195 -0.4688
 6481SOL    HW230903   0.543   2.355   4.771  0.4565  0.1721 -0.2787
 6482SOL     OW30904   1.042   2.137   8.761  0.3167 -0.1432  0.0676
 6482SOL    HW130905   1.008   2.226   8.776  2.5735  0.6527  0.5860
 6482SOL    HW230906   1.113   2.137   8.826  1.4234 -1.7852 -1.1482
 6483SOL     OW30907   3.162   2.656  12.189 -0.0263 -0.1903  0.0296
 6483SOL    HW130908   3.191   2.747  12.196  0.9460 -0.3924 -1.5569
 6483SOL    HW230909   3.237   2.600  12.208  1.5150  1.2385 -1.8425
 6484SOL     OW30910   2.308   1.553   6.291  0.1488  0.1355 -0.1145
 6484SOL    HW130911   2.283   1.522   6.378  1.3760 -0.3595  0.0533
 6484SOL    HW230912   2.320   1.646   6.309  1.3865  0.1280 -0.9587
 6485SOL     OW30913   3.545   4.468   3.242 -0.6126  0.3731 -0.5340
 6485SOL    HW130914   3.630   4.425   3.231 -0.3975  0.8905 -0.8796
 6485SOL    HW230915   3.500   4.384   3.233  0.1637  0.0036 -0.9669
 6486SOL     OW30916   3.975   2.501  10.385  0.3187 -0.3216 -0.1034
 6486SOL    HW130917   4.017   2.580  10.352  0.4561 -0.1263  0.5369
 6486SOL    HW230918   4.048   2.482  10.444  2.9853  5.3960 -1.5823
 6487SOL     OW30919   0.585   0.421   5.502 -0.1402 -0.1538 -0.0576
 6487SOL    HW130920   0.630   0.506   5.495 -0.4845  0.0820  0.6076
 6487SOL    HW230921   0.522   0.421   5.430 -1.9054 -1.0093  1.5028
 6488SOL     OW30922   4.335   3.864   2.675 -0.0385  0.7627 -0.0631
 6488SOL    HW130923   4.260   3.804   2.671 -0.2313  1.1275 -2.0214
 6488SOL    HW230924   4.358   3.847   2.766  0.5250 -0.3647 -0.4083
 6489SOL     OW30925   1.163   3.969   6.628  0.4115  0.2446  0.2622
 6489SOL    HW130926   1.208   3.955   6.711  0.3385  0.7419  0.3881
 6489SOL    HW230927   1.179   4.061   6.607 -0.9362  0.6151  0.8130
 6490SOL     OW30928   2.058   1.562   1.644  0.6006  0.0106  0.2805
 6490SOL    HW130929   2.082   1.655   1.637 -1.5974  0.4744 -1.1669
 6490SOL    HW230930   2.077   1.543   1.552  1.3088 -1.3407  0.7058
 6491SOL     OW30931   4.071   2.618   9.531  0.5212  0.1486  0.0334
 6491SOL    HW130932   4.074   2.607   9.436 -1.4629 -2.8834  0.2874
 6491SOL    HW230933   4.117   2.701   9.539  2.3396 -0.6495 -2.3351
 6492SOL     OW30934   4.606   4.322   5.208 -0.4978  0.2890 -0.0576
 6492SOL    HW130935   4.689   4.276   5.219 -1.7871 -1.8336  0.7530
 6492SOL    HW230936   4.636   4.403   5.166  1.2806 -0.7294 -0.7591
 6493SOL     OW30937   3.508   1.415   9.199 -0.1208  0.3866 -0.3258
 6493SOL    HW130938   3.473   1.421   9.110  0.3812  2.3632 -0.3893
 6493SOL    HW230939   3.546   1.502   9.191  1.9655 -0.5716 -0.8073
 6494SOL     OW30940   2.991   1.559  17.307  1.3108  0.1517  0.5487
 6494SOL    HW130941   3.060   1.510  17.351 -0.0713 -1.6886  0.6812
 6494SOL    HW230942   3.025   1.568  17.218 -1.5192  1.4087 -0.4013
 6495SOL     OW30943   1.804   2.634   7.850  0.8193  0.3497 -0.5008
 6495SOL    HW130944   1.843   2.652   7.935 -0.7005  0.6624  0.1381
 6495SOL    HW230945   1.717   2.598   7.872  1.5981 -2.0015 -1.2912
 6496SOL     OW30946   4.382   0.742  10.032  0.0441  0.1644 -0.9424
 6496SOL    HW130947   4.359   0.782   9.948 -3.1686 -1.0379 -0.6385
 6496SOL    HW230948   4.321   0.777  10.097  0.1045 -0.0591 -0.7646
 6497SOL     OW30949   2.485   4.290   7.252 -0.2693  0.2854 -0.0617
 6497SOL    HW130950   2.391   4.307   7.241 -0.2667 -0.3024 -1.0884
 6497SOL    HW230951   2.501   4.356   7.318 -0.3946  0.6300 -0.3734
 6498SOL     OW30952   2.698   2.440   7.319 -0.0942  0.6471 -0.0042
 6498SOL    HW130953   2.763   2.419   7.386  0.6911  0.8195 -0.7116
 6498SOL    HW230954   2.665   2.351   7.308  1.8725 -0.0429 -0.1923
 6499SOL     OW30955   2.710   4.426   4.730  0.1446  0.4035  0.3260
 6499SOL    HW130956   2.689   4.394   4.818 -0.2032 -0.7856 -0.1978
 6499SOL    HW230957   2.806   4.429   4.724  0.3125  3.0032  4.3570
 6500SOL     OW30958   1.793   3.715  17.282  0.5959 -0.5593  0.4322
 6500SOL    HW130959   1.767   3.793  17.330  0.5830 -0.7812  0.7876
 6500SOL    HW230960   1.829   3.764  17.208 -2.5942  1.6742  0.3316
 6501SOL     OW30961   4.277   4.062   2.379 -0.0396 -0.5807 -0.5397
 6501SOL    HW130962   4.183   4.078   2.383 -0.0528 -0.1647 -2.7482
 6501SOL    HW230963   4.284   4.021   2.292  1.0809 -0.3119 -0.5700
 6502SOL     OW30964   4.330   4.377   0.318 -0.1163  0.5913 -0.1162
 6502SOL    HW130965   4.275   4.406   0.391  1.0610  0.3646  0.8633
 6502SOL    HW230966   4.412   4.344   0.356  0.9104 -0.0675 -2.8397
 6503SOL     OW30967   3.557   1.811   1.034  0.0787  0.2040  0.2878
 6503SOL    HW130968   3.617   1.869   0.988  0.2165 -1.1561 -1.2740
 6503SOL    HW230969   3.574   1.831   1.126  1.3389  1.5496 -0.2564
 6504SOL     OW30970   4.257   3.756   8.180  0.0798  0.0255  0.1104
 6504SOL    HW130971   4.173   3.776   8.138  0.3750  0.0168 -0.4691
 6504SOL    HW230972   4.295   3.704   8.110 -2.3293 -0.6976 -0.6563
 6505SOL     OW30973   1.618   0.330  11.272 -0.0117  0.9397  0.0646
 6505SOL    HW130974   1.655   0.370  11.350  1.9921 -2.7578  1.0106
 6505SOL    HW230975   1.581   0.257  11.322  0.5409  0.6925  0.1081
 6506SOL     OW30976   1.542   3.359   8.452  0.2882 -0.1928  0.0252
 6506SOL    HW130977   1.468   3.315   8.493  1.0240 -1.1943  0.2746
 6506SOL    HW230978   1.606   3.348   8.523  0.8520 -2.0329 -0.7667
 6507SOL     OW30979   3.966   0.161   9.432  0.0054  0.1255 -0.3584
 6507SOL    HW130980   4.046   0.172   9.483 -0.5126  1.5040  0.1490
 6507SOL    HW230981   3.958   0.247   9.391 -0.6614  0.2167 -0.0373
 6508SOL     OW30982   2.273   3.409   7.235  0.0303  0.3966  0.1590
 6508SOL    HW130983   2.187   3.375   7.259  0.3255 -0.1207  0.4855
 6508SOL    HW230984   2.259   3.454   7.151  0.1807 -1.1059 -0.6601
 6509SOL     OW30985   1.827   3.937   5.928  0.3317  0.4301 -0.0799
 6509SOL    HW130986   1.904   3.973   5.885  0.9212 -2.2521 -1.2779
 6509SOL    HW230987   1.857   3.858   5.974  0.3020 -0.7192 -2.0150
 6510SOL     OW30988   0.087   3.456   2.466 -0.7332  0.7645  0.1848
 6510SOL    HW130989   0.122   3.399   2.398 -1.5479 -0.0574  0.4577
 6510SOL    HW230990   0.011   3.498   2.426  0.8281  2.6312 -0.8438
 6511SOL     OW30991   3.298   3.249   5.633 -0.0551 -0.4303 -0.2968
 6511SOL    HW130992   3.313   3.307   5.707 -0.6943  1.4584 -1.6539
 6511SOL    HW230993   3.384   3.216   5.605 -0.9334 -1.5955 -1.6284
 6512SOL     OW30994   1.778   1.038  11.689 -0.0921  0.0997  0.0854
 6512SOL    HW130995   1.849   0.999  11.741 -0.6580  1.0701  1.5646
 6512SOL    HW230996   1.818   1.108  11.637 -1.4885  1.4792  0.8646
 6513SOL     OW30997   3.564   0.732   3.790  0.0823  0.7946  0.2864
 6513SOL    HW130998   3.489   0.757   3.845 -0.7714 -2.1937  0.4897
 6513SOL    HW230999   3.581   0.822   3.760  0.7864  1.0689  1.4856
 6514SOL     OW31000   4.369   4.298   8.846  0.3477 -0.2920 -0.0788
 6514SOL    HW131001   4.375   4.385   8.807  1.2336 -0.0017  0.6924
 6514SOL    HW231002   4.428   4.303   8.922 -0.0725 -0.7048  0.2785
 6515SOL     OW31003   0.280   4.264  12.015  0.2177 -0.0076  0.3318
 6515SOL    HW131004   0.373   4.243  12.026  0.3590  0.6994  0.4664
 6515SOL    HW231005   0.291   4.348  11.970  0.0779  0.6864  1.6210
 6516SOL     OW31006   2.536   0.984   1.281  0.2131  0.4033 -0.3652
 6516SOL    HW131007   2.455   0.939   1.303  1.3654 -0.8254  1.3666
 6516SOL    HW231008   2.534   1.036   1.362  0.4479  1.2139 -0.8837
 6517SOL     OW31009   3.277   3.954  12.653  0.2120 -0.2478  0.3532
 6517SOL    HW131010   3.256   3.993  12.568  1.9452 -2.2367 -1.0155
 6517SOL    HW231011   3.203   3.897  12.671 -0.2932 -0.1455 -1.4346
 6518SOL     OW31012   0.502   4.275  16.627  0.1158 -0.7212  0.1322
 6518SOL    HW131013   0.529   4.338  16.560  1.0171  0.3616  1.5346
 6518SOL    HW231014   0.556   4.197  16.616  0.4942 -0.2584 -1.2903
 6519SOL     OW31015   1.359   1.863  10.366  0.2344 -0.3534 -0.2131
 6519SOL    HW131016   1.325   1.792  10.420 -0.6984  0.5339  0.3607
 6519SOL    HW231017   1.418   1.912  10.422 -1.0832  0.3119  0.5834
 6520SOL     OW31018   0.451   1.550   7.850  0.0539 -0.3573 -0.1473
 6520SOL    HW131019   0.518   1.576   7.787  0.1337 -2.3748 -0.8931
 6520SOL    HW231020   0.383   1.618   7.842  0.6599  0.2125 -0.4068
 6521SOL     OW31021   0.853   3.909   5.382  0.0674 -0.2487 -0.1463
 6521SOL    HW131022   0.862   3.816   5.363  0.6254  0.5666 -3.9135
 6521SOL    HW231023   0.758   3.918   5.378 -0.0495 -1.5874 -0.2809
 6522SOL     OW31024   0.669   3.128  13.236 -0.5204  0.8822  0.0920
 6522SOL    HW131025   0.650   3.221  13.222  0.8432  1.5542  2.6893
 6522SOL    HW231026   0.732   3.133  13.308 -0.1235 -0.1737 -0.1951
 6523SOL     OW31027   4.590   0.870   3.838  0.6893 -0.4406  0.1606
 6523SOL    HW131028   4.562   0.951   3.795  1.5905  0.5944  1.5261
 6523SOL    HW231029   4.669   0.905   3.878  0.6245 -0.5342  0.3722
 6524SOL     OW31030   1.929   1.496   6.574 -0.2714  0.1421  0.7425
 6524SOL    HW131031   1.890   1.538   6.651 -1.3777 -0.9551  0.7848
 6524SOL    HW231032   1.862   1.503   6.507  0.8975  0.5219 -0.3906
 6525SOL     OW31033   4.197   0.817   7.361  0.0721  0.2375 -0.8600
 6525SOL    HW131034   4.151   0.735   7.376 -0.8076  0.9347  0.2872
 6525SOL    HW231035   4.241   0.823   7.446 -1.8260  0.0116  0.1214
 6526SOL     OW31036   3.884   2.679   8.004 -0.1243 -0.0754 -0.1038
 6526SOL    HW131037   3.867   2.684   7.910 -0.4210 -3.8215 -0.2406
 6526SOL    HW231038   3.835   2.758   8.027 -1.8710 -0.9624 -0.8278
 6527SOL     OW31039   3.286   1.042   5.155  0.6626  0.1922 -0.3305
 6527SOL    HW131040   3.273   1.135   5.138 -1.1827 -0.1625 -0.8622
 6527SOL    HW231041   3.205   1.015   5.110  1.3792  0.2253 -1.6461
 6528SOL     OW31042   0.707   3.110  15.735  0.5732  0.0131 -0.2692
 6528SOL    HW131043   0.672   3.025  15.709  1.0486  0.3480 -2.0345
 6528SOL    HW231044   0.628   3.155  15.766  0.7084  0.0282  0.0471
 6529SOL     OW31045   0.344   4.637  12.300  0.2325 -0.6178 -0.3925
 6529SOL    HW131046   0.285   4.565  12.322 -1.6614  0.3906 -2.1795
 6529SOL    HW231047   0.305   4.706  12.354 -1.3716 -1.2760 -0.7236
 6530SOL     OW31048   0.663   0.909  16.582 -0.7108 -0.6760  0.0974
 6530SOL    HW131049   0.747   0.909  16.628 -0.0555  1.0750 -1.0996
 6530SOL    HW231050   0.651   0.818  16.554 -1.6809 -0.6271  0.3446
 6531SOL     OW31051   3.500   3.912   7.605  0.3524  0.3769  0.2531
 6531SOL    HW131052   3.408   3.891   7.620 -0.5518  1.6260 -3.3842
 6531SOL    HW231053   3.528   3.821   7.601 -2.0169 -0.2559 -1.6602
 6532SOL     OW31054   4.443   1.447   5.972  0.0464  0.2258  0.0321
 6532SOL    HW131055   4.381   1.481   6.036  1.2035 -0.1755  1.3765
 6532SOL    HW231056   4.400   1.490   5.899 -0.1661  0.2155  0.1529
 6533SOL     OW31057   3.903   1.769   9.162  0.8555 -0.3095 -0.4793
 6533SOL    HW131058   3.942   1.834   9.103 -0.7899  2.4398  1.4690
 6533SOL    HW231059   3.852   1.710   9.106  1.4957  0.4448 -1.8619
 6534SOL     OW31060   3.356   2.902   3.261 -0.5370  0.3297  0.3158
 6534SOL    HW131061   3.392   2.832   3.315  1.1683  1.7408  1.0270
 6534SOL    HW231062   3.347   2.955   3.341  1.4280 -0.9126  1.3483
 6535SOL     OW31063   3.701   0.887   9.930 -0.3602  0.4160  0.2762
 6535SOL    HW131064   3.696   0.876  10.025 -2.9040 -2.5611 -0.1908
 6535SOL    HW231065   3.615   0.856   9.901 -0.1870  0.2322 -0.0415
 6536SOL     OW31066   3.629   4.194  12.065 -0.1847 -0.1884  0.6806
 6536SOL    HW131067   3.581   4.215  11.986 -0.2507 -1.7063  0.3066
 6536SOL    HW231068   3.720   4.208  12.037 -1.2446  1.5529 -1.8101
 6537SOL     OW31069   0.748   1.867   8.198  0.2308 -0.2612  0.4300
 6537SOL    HW131070   0.692   1.867   8.276  0.8947  1.7822  0.9274
 6537SOL    HW231071   0.828   1.840   8.242  1.1290  0.9910 -0.4435
 6538SOL     OW31072   4.671   2.637   4.244  0.0727  0.1712 -0.2478
 6538SOL    HW131073   4.716   2.704   4.295  1.7507 -1.3952  0.3347
 6538SOL    HW231074   4.600   2.621   4.306 -0.2863 -1.0019 -0.9597
 6539SOL     OW31075   2.557   3.775  17.622 -0.4618 -0.3170  0.2353
 6539SOL    HW131076   2.614   3.704  17.592 -0.0215 -0.3856  1.2229
 6539SOL    HW231077   2.607   3.855  17.604 -0.8604  0.2105  1.5102
 6540SOL     OW31078   3.819   2.600   9.464 -0.0797 -0.5588 -0.0208
 6540SOL    HW131079   3.895   2.611   9.521  1.2134 -0.4616 -1.7520
 6540SOL    HW231080   3.791   2.691   9.463  1.4416 -0.1028  0.3057
 6541SOL     OW31081   4.591   3.310   4.670  0.1056  0.7440  0.2557
 6541SOL    HW131082   4.658   3.283   4.732  0.6683  2.6213  0.4408
 6541SOL    HW231083   4.643   3.335   4.593 -0.3159  3.3388  0.8091
 6542SOL     OW31084   1.804   3.456  12.519 -0.1182 -1.0295 -0.3224
 6542SOL    HW131085   1.838   3.442  12.431  4.1447  1.2514  0.9623
 6542SOL    HW231086   1.831   3.378  12.566 -0.2894 -0.7355  0.2666
 6543SOL     OW31087   4.472   0.795   6.760  0.1897  0.0470 -0.3998
 6543SOL    HW131088   4.528   0.729   6.801 -1.1901 -1.7369 -1.4109
 6543SOL    HW231089   4.396   0.796   6.818  0.1470  2.0477 -0.4935
 6544SOL     OW31090   0.421   0.317   2.533  0.3605  0.3041 -0.6754
 6544SOL    HW131091   0.386   0.231   2.510  0.6641  0.2960 -1.1137
 6544SOL    HW231092   0.417   0.317   2.628  0.2179 -1.8444 -0.6888
 6545SOL     OW31093   0.391   4.183   8.922 -0.6852 -0.1980  0.0212
 6545SOL    HW131094   0.481   4.216   8.929 -0.1491 -1.1545 -2.4372
 6545SOL    HW231095   0.410   4.104   8.871  0.6225 -0.5634  1.0528
 6546SOL     OW31096   1.810   3.082   5.470  0.2567  0.3439 -0.5519
 6546SOL    HW131097   1.740   3.036   5.515  1.4686  0.0158  0.9806
 6546SOL    HW231098   1.809   3.168   5.511 -1.4042  0.5722 -1.0568
 6547SOL     OW31099   3.377   1.925   2.331 -0.1031  0.1723 -0.1480
 6547SOL    HW131100   3.379   1.873   2.250  0.5252  0.5445 -0.3729
 6547SOL    HW231101   3.436   1.992   2.297 -2.8051  2.0712 -1.1393
 6548SOL     OW31102   4.316   1.841   6.102  0.2869  0.3822  0.7750
 6548SOL    HW131103   4.231   1.828   6.060  0.5372 -0.7227  0.5988
 6548SOL    HW231104   4.306   1.934   6.119  2.2880  0.6626  0.4263
 6549SOL     OW31105   1.897   2.444   6.729 -0.1472  0.0801 -1.1119
 6549SOL    HW131106   1.827   2.508   6.744 -0.1028  0.1504 -1.2049
 6549SOL    HW231107   1.953   2.458   6.805 -0.8528  0.0742 -0.5906
 6550SOL     OW31108   2.736   0.271   3.736  0.1749 -0.0983 -0.6311
 6550SOL    HW131109   2.662   0.327   3.761 -0.6953 -2.3256  1.7670
 6550SOL    HW231110   2.723   0.262   3.642 -1.0050  1.8207 -0.6607
 6551SOL     OW31111   4.673   2.820   6.435 -0.3879  0.0309  0.4413
 6551SOL    HW131112   0.031   2.865   6.447  0.4282 -1.2131 -0.5445
 6551SOL    HW231113   4.669   2.807   6.340 -2.3719 -1.9272  0.7889
 6552SOL     OW31114   1.269   0.507   2.771 -0.1142 -0.3446 -0.1118
 6552SOL    HW131115   1.182   0.491   2.735 -0.3275 -0.9726  0.6911
 6552SOL    HW231116   1.290   0.561   2.695  0.8476  0.4356  0.7061
 6553SOL     OW31117   2.478   4.578   2.244 -0.0156  0.1217 -0.5451
 6553SOL    HW131118   2.502   4.489   2.271  0.5805  1.2340  2.6626
 6553SOL    HW231119   2.533   4.598   2.169  1.5742  0.6491  0.7495
 6554SOL     OW31120   3.018   1.150   9.034 -0.7659  0.3308  0.2748
 6554SOL    HW131121   3.082   1.209   9.074  0.2993 -0.7275  0.1198
 6554SOL    HW231122   3.063   1.066   9.038 -0.9564  0.2378  0.4701
 6555SOL     OW31123   2.895   0.843   6.025 -0.1988 -0.3926 -0.0334
 6555SOL    HW131124   2.843   0.791   5.965 -0.0404 -1.6636  0.9350
 6555SOL    HW231125   2.977   0.854   5.977  0.0595 -2.1309  0.0188
 6556SOL     OW31126   2.484   0.750   2.545 -0.1733  0.1470 -0.2881
 6556SOL    HW131127   2.425   0.682   2.513  0.6813 -1.1062  0.7927
 6556SOL    HW231128   2.472   0.826   2.489 -0.5110 -1.4035 -2.2982
 6557SOL     OW31129   1.118   1.671   5.972 -0.6974  0.2453 -0.1001
 6557SOL    HW131130   1.095   1.763   5.960  1.9191  0.8359 -0.5593
 6557SOL    HW231131   1.213   1.686   5.971 -0.4654 -1.3714 -1.1858
 6558SOL     OW31132   2.660   1.319   7.412  0.7306 -0.2316  0.3533
 6558SOL    HW131133   2.707   1.403   7.419 -1.4572  1.2253 -2.5231
 6558SOL    HW231134   2.668   1.290   7.321 -0.4306  1.0989 -0.1655
 6559SOL     OW31135   3.959   3.289  10.843  0.2508  0.0160 -0.1780
 6559SOL    HW131136   3.876   3.241  10.835 -0.0825  0.4882  0.4202
 6559SOL    HW231137   4.019   3.217  10.858  2.0772  1.7989  1.0879
 6560SOL     OW31138   0.666   0.214   4.471 -0.2273 -0.2345 -0.6246
 6560SOL    HW131139   0.626   0.183   4.390 -0.7254 -0.2182 -0.3828
 6560SOL    HW231140   0.748   0.253   4.439 -0.5246  0.0558 -1.0376
 6561SOL     OW31141   4.430   4.367  12.437  0.2286  0.1844 -0.0986
 6561SOL    HW131142   4.501   4.303  12.435 -0.3175 -0.5122  2.6584
 6561SOL    HW231143   4.470   4.438  12.387  2.7170  0.5910  2.4670
 6562SOL     OW31144   4.525   0.400   3.503  0.0308  0.5155 -0.2092
 6562SOL    HW131145   4.506   0.474   3.447 -1.4576 -1.4527 -2.2711
 6562SOL    HW231146   4.448   0.350   3.530  0.0677  0.0480 -0.9760
 6563SOL     OW31147   4.165   4.108  14.323  0.9043  0.2044  0.2788
 6563SOL    HW131148   4.223   4.034  14.341 -0.1810 -0.3529  1.4257
 6563SOL    HW231149   4.125   4.123  14.409  0.6874  2.1919 -0.1708
 6564SOL     OW31150   4.541   3.596   2.884 -0.0805 -0.0542 -0.2624
 6564SOL    HW131151   4.541   3.548   2.967  0.5501 -1.2124 -0.9436
 6564SOL    HW231152   4.447   3.594   2.865 -0.4602  0.6441  1.5638
 6565SOL     OW31153   0.722   1.042  14.971 -0.1997  0.1139  0.0000
 6565SOL    HW131154   0.818   1.036  14.972 -0.2831 -1.4810 -0.9135
 6565SOL    HW231155   0.703   0.951  14.948  4.2715 -0.6995 -0.4436
 6566SOL     OW31156   4.432   0.109   3.675  0.4796  0.1797  0.0077
 6566SOL    HW131157   4.377   0.111   3.597 -0.8386  2.6882  1.0042
 6566SOL    HW231158   4.516   0.088   3.632 -0.5581  2.4954 -3.1611
 6567SOL     OW31159   1.011   2.504   7.544  0.3498 -0.1222  0.4297
 6567SOL    HW131160   1.018   2.498   7.639 -0.3245  0.0963  0.4922
 6567SOL    HW231161   1.044   2.591   7.521 -1.3264  0.1718 -0.8583
 6568SOL     OW31162   4.687   0.203   3.108 -0.2047 -0.7003 -0.2941
 6568SOL    HW131163   0.018   0.199   3.031 -1.9878 -0.0624 -1.6151
 6568SOL    HW231164   4.666   0.295   3.096  3.1658  0.0688 -0.2687
 6569SOL     OW31165   3.706   3.515   9.973 -0.0863  0.6808  0.5147
 6569SOL    HW131166   3.629   3.536   9.920  0.4114  1.9214  0.2663
 6569SOL    HW231167   3.671   3.450  10.033  1.9288 -0.9732 -0.1115
 6570SOL     OW31168   3.703   0.132   7.098 -0.1479  0.4315 -0.1841
 6570SOL    HW131169   3.715   0.211   7.045 -0.5762  1.2223  0.8805
 6570SOL    HW231170   3.688   0.165   7.187 -1.3075 -0.6452  0.0245
 6571SOL     OW31171   1.318   0.175   2.717  0.3664 -0.0551 -0.1302
 6571SOL    HW131172   1.279   0.088   2.728  0.3803 -0.4083 -2.9098
 6571SOL    HW231173   1.235   0.217   2.692  1.3833  0.9443 -1.8762
 6572SOL     OW31174   4.702   4.470   5.733  0.0564  0.1981 -0.1024
 6572SOL    HW131175   4.701   4.564   5.754  0.7042 -0.1544  1.5441
 6572SOL    HW231176   0.071   4.462   5.716  0.1995  1.1024  0.2433
 6573SOL     OW31177   3.937   4.505  15.929  0.1256 -0.4749  0.1492
 6573SOL    HW131178   3.985   4.422  15.924 -0.4931 -0.6989 -2.3977
 6573SOL    HW231179   3.891   4.505  15.845 -1.0914  0.5562  0.8258
 6574SOL     OW31180   0.875   1.924   3.967 -0.5551  0.0042  0.9029
 6574SOL    HW131181   0.804   1.919   3.903 -1.0618 -0.6537  1.5210
 6574SOL    HW231182   0.887   1.830   3.977  1.2424 -0.1799 -2.9354
 6575SOL     OW31183   3.080   4.085   4.940 -0.4611 -0.3499  0.5808
 6575SOL    HW131184   3.069   4.170   4.983  0.2230  0.0503 -0.0269
 6575SOL    HW231185   3.136   4.039   5.003 -0.9782  0.0527  1.3217
 6576SOL     OW31186   1.100   3.544   2.371  0.4693 -0.1062  0.1383
 6576SOL    HW131187   1.127   3.460   2.333  2.4003 -0.0706  1.4406
 6576SOL    HW231188   1.188   3.568   2.400  0.2485  1.5281 -0.5377
 6577SOL     OW31189   2.791   0.976   2.804 -0.0956 -0.4554 -0.5693
 6577SOL    HW131190   2.857   1.041   2.779  0.0781  0.0635  1.2207
 6577SOL    HW231191   2.735   0.970   2.727 -0.4047 -0.8075 -0.3198
 6578SOL     OW31192   1.349   4.686   8.432 -0.2631 -0.6636  0.0428
 6578SOL    HW131193   1.429   4.665   8.383 -0.1097  0.5956 -0.2368
 6578SOL    HW231194   1.352   4.630   8.511  0.9807 -0.4262  0.1732
 6579SOL     OW31195   3.523   2.583  16.898 -0.3169  0.5626  0.8778
 6579SOL    HW131196   3.574   2.503  16.885 -3.3273 -1.3091  0.4120
 6579SOL    HW231197   3.470   2.577  16.977 -2.1741 -1.0792 -0.4836
 6580SOL     OW31198   2.815   1.277   1.472 -0.0143 -0.1694  0.2247
 6580SOL    HW131199   2.736   1.225   1.489 -0.3740 -0.2688 -1.7571
 6580SOL    HW231200   2.889   1.217   1.484  0.3354  0.0199 -0.9403
 6581SOL     OW31201   3.663   2.823   7.552 -0.1142  0.5310 -0.0727
 6581SOL    HW131202   3.581   2.852   7.592  0.0314  0.1054  0.5299
 6581SOL    HW231203   3.711   2.906   7.543 -1.9992  1.4190 -1.9182
 6582SOL     OW31204   4.627   1.384   7.566 -0.1542 -0.3451  0.1144
 6582SOL    HW131205   4.557   1.366   7.628 -0.6082 -0.3762 -0.4060
 6582SOL    HW231206   4.587   1.451   7.510  1.3692  1.1363  0.7964
 6583SOL     OW31207   4.407   4.595   1.914  0.0515 -0.0932  0.1361
 6583SOL    HW131208   4.390   4.502   1.896  0.4356  0.2490 -2.0101
 6583SOL    HW231209   4.335   4.637   1.868 -0.8434 -1.5419  0.2078
 6584SOL     OW31210   0.411   1.958  14.118 -0.7364 -0.9980 -0.1159
 6584SOL    HW131211   0.439   1.987  14.031  3.8114  0.5064  1.8556
 6584SOL    HW231212   0.403   1.864  14.103  1.3637 -1.0484 -0.9081
 6585SOL     OW31213   4.388   0.119   1.545  0.4894  0.4317  0.2906
 6585SOL    HW131214   4.466   0.128   1.600  0.2246  0.3355  0.6751
 6585SOL    HW231215   4.329   0.088   1.613 -1.1882  3.0005 -0.0043
 6586SOL     OW31216   0.348   0.207   0.521  0.2151 -0.1399  0.6068
 6586SOL    HW131217   0.261   0.202   0.483 -0.0559 -2.4412  1.5303
 6586SOL    HW231218   0.332   0.184   0.613  0.2117  1.1881  0.9290
 6587SOL     OW31219   0.634   3.799   8.023 -0.2666  0.4076  0.2944
 6587SOL    HW131220   0.716   3.810   8.071 -0.1719  0.8733  0.0219
 6587SOL    HW231221   0.606   3.890   8.024 -0.2688  0.4079 -0.0885
 6588SOL     OW31222   1.263   1.306   2.286 -0.3471  0.3221 -0.2504
 6588SOL    HW131223   1.250   1.368   2.358 -0.7425 -0.5082  0.3892
 6588SOL    HW231224   1.250   1.365   2.212 -0.9754  0.2512 -0.1975
 6589SOL     OW31225   2.799   0.241   8.193 -0.0435  0.0554  0.2200
 6589SOL    HW131226   2.779   0.174   8.258  0.5823 -1.4930 -1.1520
 6589SOL    HW231227   2.827   0.312   8.250 -1.5244  0.9675 -0.2232
 6590SOL     OW31228   3.950   0.269   9.770 -0.4950  0.5386  0.1023
 6590SOL    HW131229   4.028   0.295   9.722 -0.4222 -2.5926 -1.5045
 6590SOL    HW231230   3.898   0.348   9.755 -0.4926  0.8444  1.7396
 6591SOL     OW31231   3.880   0.346   6.302  0.5517 -0.0071  0.2801
 6591SOL    HW131232   3.894   0.266   6.250 -2.2973  0.6402 -1.4382
 6591SOL    HW231233   3.788   0.364   6.282  0.6192 -0.9167 -0.8829
 6592SOL     OW31234   0.153   1.381   1.879  0.0445  0.3541  0.1899
 6592SOL    HW131235   0.085   1.448   1.873 -0.9198 -0.7394 -0.9822
 6592SOL    HW231236   0.189   1.375   1.791 -2.0661  2.7289 -0.8172
 6593SOL     OW31237   2.828   0.760  12.696  0.3259 -0.4457  0.5072
 6593SOL    HW131238   2.889   0.784  12.626  0.7185  1.6377  1.5654
 6593SOL    HW231239   2.751   0.806  12.663  1.2730 -0.2714 -1.4619
 6594SOL     OW31240   1.926   1.406  11.315  0.6659  0.0273  0.0748
 6594SOL    HW131241   1.841   1.416  11.357  0.1334  1.7735 -1.4287
 6594SOL    HW231242   1.919   1.353  11.236 -0.1737 -1.7243  1.3287
 6595SOL     OW31243   2.418   2.427   8.060 -0.0825  0.2395 -0.1942
 6595SOL    HW131244   2.466   2.464   7.986  0.7813  1.3895  0.9563
 6595SOL    HW231245   2.488   2.433   8.124 -0.0997  0.9892 -0.2497
 6596SOL     OW31246   1.802   3.730   4.037  0.0898  0.0669  0.4679
 6596SOL    HW131247   1.718   3.743   3.993  1.9939 -0.7102 -3.4265
 6596SOL    HW231248   1.813   3.635   4.040  0.3472  0.0750 -0.1680
 6597SOL     OW31249   3.262   1.366   5.416  0.4208  0.1494  0.2551
 6597SOL    HW131250   3.239   1.444   5.467 -0.1761 -0.9260  1.6345
 6597SOL    HW231251   3.254   1.297   5.482  0.7389 -0.6415 -0.5355
 6598SOL     OW31252   0.372   3.639  11.975  0.5382  0.1754  0.9997
 6598SOL    HW131253   0.424   3.718  11.995  1.9108 -0.3696 -0.3993
 6598SOL    HW231254   0.439   3.571  11.984  0.8780  0.0364 -2.7715
 6599SOL     OW31255   0.214   3.748   6.809 -0.3996  0.7646 -0.1051
 6599SOL    HW131256   0.231   3.837   6.779 -1.3185  1.3587  1.1214
 6599SOL    HW231257   0.118   3.744   6.806 -0.4274  0.4091  0.9658
 6600SOL     OW31258   4.614   2.451   7.947  0.6935  0.2584  0.0579
 6600SOL    HW131259   4.519   2.449   7.961  0.3304 -0.1449 -2.4013
 6600SOL    HW231260   4.611   2.437   7.852  0.0560  0.7810 -0.0006
 6601SOL     OW31261   2.623   3.227   4.371  0.2097 -0.2382  0.2584
 6601SOL    HW131262   2.565   3.295   4.337 -1.1486 -1.1336  0.7430
 6601SOL    HW231263   2.706   3.259   4.337  0.1906 -1.7719 -1.2037
 6602SOL     OW31264   0.881   2.792   2.075  0.0501  0.2244 -0.1035
 6602SOL    HW131265   0.964   2.744   2.084  0.6143  1.2991  0.3315
 6602SOL    HW231266   0.907   2.884   2.071 -1.9383  0.8087  0.6140
 6603SOL     OW31267   4.181   3.433   8.796  0.1320 -0.2903 -0.0315
 6603SOL    HW131268   4.131   3.483   8.861  0.5458  0.8714 -0.6092
 6603SOL    HW231269   4.269   3.459   8.822 -1.2445  2.4478  1.9120
 6604SOL     OW31270   2.467   3.301   1.277  0.3807 -0.0095  0.0082
 6604SOL    HW131271   2.533   3.301   1.347  0.9542  0.7620 -0.5369
 6604SOL    HW231272   2.390   3.302   1.334 -1.0964  0.2710 -1.9872
 6605SOL     OW31273   4.066   1.856   7.288 -0.8900  0.1188 -0.1863
 6605SOL    HW131274   3.991   1.803   7.316 -0.0306 -0.5024  0.8932
 6605SOL    HW231275   4.033   1.945   7.305 -2.0933  0.4170 -3.9979
 6606SOL     OW31276   4.385   3.863   2.942 -0.4921 -0.0370  0.4484
 6606SOL    HW131277   4.416   3.936   2.995  0.2652 -1.1277  1.5097
 6606SOL    HW231278   4.444   3.802   2.986 -1.6599 -2.0216 -0.7468
 6607SOL     OW31279   2.884   3.519  13.105  0.4224 -0.0052  0.2818
 6607SOL    HW131280   2.876   3.424  13.110  1.0529 -0.1009 -0.4643
 6607SOL    HW231281   2.911   3.533  13.014  1.2433 -1.2654  0.3395
 6608SOL     OW31282   4.110   0.460   9.630 -0.4417 -0.5978 -0.0240
 6608SOL    HW131283   4.183   0.427   9.682  0.8285  1.1530 -0.6804
 6608SOL    HW231284   4.170   0.515   9.579  1.4614 -2.4603  0.1770
 6609SOL     OW31285   3.261   1.230   8.406 -0.2808  0.1314 -0.4887
 6609SOL    HW131286   3.211   1.299   8.450  0.5504  1.0977 -1.0789
 6609SOL    HW231287   3.203   1.153   8.406 -0.9749  0.6515  0.7663
 6610SOL     OW31288   1.388   1.995   2.858  0.0952 -0.0954 -0.6265
 6610SOL    HW131289   1.463   2.052   2.869 -0.5484  0.5781  0.2906
 6610SOL    HW231290   1.311   2.047   2.881  0.5011 -0.4363  1.5239
 6611SOL     OW31291   2.168   0.024   4.637  0.2399 -0.1640  0.2488
 6611SOL    HW131292   2.224   4.711   4.569  1.2122 -0.0434  0.9714
 6611SOL    HW231293   2.208   4.705   4.712  0.3199  1.0469  0.9203
 6612SOL     OW31294   4.498   0.664   9.685 -0.3246  0.0406  0.5242
 6612SOL    HW131295   4.437   0.731   9.719  0.5916  2.2184 -2.1341
 6612SOL    HW231296   4.582   0.702   9.713  0.6863 -0.0192 -2.5128
 6613SOL     OW31297   2.516   3.515   7.283  0.1965 -0.2390 -0.1359
 6613SOL    HW131298   2.483   3.604   7.296 -0.9374 -0.6842  0.0876
 6613SOL    HW231299   2.436   3.463   7.270 -0.5419  0.4953  1.3659
 6614SOL     OW31300   0.629   1.799   5.149 -0.2909 -0.0686  0.3071
 6614SOL    HW131301   0.535   1.814   5.163 -0.2562  0.9225 -0.5186
 6614SOL    HW231302   0.637   1.822   5.056 -1.5364 -0.7916  0.0183
 6615SOL     OW31303   1.633   0.765   7.613 -0.5526 -0.4552 -0.3369
 6615SOL    HW131304   1.640   0.672   7.633 -0.2258 -0.4394 -0.3850
 6615SOL    HW231305   1.636   0.804   7.700 -0.6437 -0.1551 -0.4673
 6616SOL     OW31306   2.024   3.581   1.822  0.2437  0.8914 -0.3306
 6616SOL    HW131307   1.955   3.536   1.871  1.3581 -3.2981 -2.6442
 6616SOL    HW231308   1.979   3.652   1.777  1.7271  1.4584 -0.8998
 6617SOL     OW31309   1.614   3.525   8.785 -0.0690 -0.1966  0.0552
 6617SOL    HW131310   1.693   3.504   8.735 -0.5088  0.1596 -0.7754
 6617SOL    HW231311   1.597   3.435   8.813 -1.2605  0.1729  0.4971
 6618SOL     OW31312   0.823   0.138  10.114 -0.1406 -0.1676  0.3767
 6618SOL    HW131313   0.760   0.201  10.148  1.0337 -0.3229  2.8516
 6618SOL    HW231314   0.894   0.197  10.088  1.2849 -1.3470  1.6408
 6619SOL     OW31315   2.343   1.425  13.225 -0.4642 -0.3526 -0.1560
 6619SOL    HW131316   2.369   1.466  13.308  0.6109  1.7043 -1.5057
 6619SOL    HW231317   2.248   1.428  13.230 -0.4846 -0.5921 -0.3772
 6620SOL     OW31318   1.528   0.346   2.694  0.0013  0.1988  0.2068
 6620SOL    HW131319   1.466   0.273   2.702 -0.1441  0.4335  1.2013
 6620SOL    HW231320   1.482   0.404   2.755 -3.4807 -0.1326 -2.1293
 6621SOL     OW31321   1.637   1.424   1.009 -0.0073  0.2135 -0.1371
 6621SOL    HW131322   1.552   1.460   0.983 -0.3034 -0.5558 -0.2183
 6621SOL    HW231323   1.664   1.494   1.068 -1.7877 -0.1174  1.0513
 6622SOL     OW31324   1.694   4.544   1.095  0.2043  0.4559 -0.1780
 6622SOL    HW131325   1.722   4.473   1.038  0.0496  1.5208 -1.5784
 6622SOL    HW231326   1.627   4.594   1.048 -0.4399 -0.3043 -0.0613
 6623SOL     OW31327   3.013   1.761  14.574  0.3477 -0.0882  0.2619
 6623SOL    HW131328   2.945   1.705  14.613 -0.9796  0.8785 -0.6765
 6623SOL    HW231329   2.973   1.824  14.514 -0.1724 -0.1370  0.5521
 6624SOL     OW31330   4.055   0.617  10.052 -0.4155 -0.3871  0.5422
 6624SOL    HW131331   4.094   0.545  10.003  0.1340  0.6300 -0.5475
 6624SOL    HW231332   4.014   0.668   9.982 -2.0187 -0.7737  1.2146
 6625SOL     OW31333   2.532   1.513   5.830 -0.0379  0.6661 -0.4820
 6625SOL    HW131334   2.575   1.428   5.844  0.4977  1.1832  1.0450
 6625SOL    HW231335   2.600   1.557   5.779 -0.0784  1.7945  0.4149
 6626SOL     OW31336   4.377   2.798   6.398  0.0536 -0.3424 -0.3464
 6626SOL    HW131337   4.401   2.799   6.306 -2.4649 -2.5896 -1.0379
 6626SOL    HW231338   4.463   2.794   6.439  0.6440 -0.0749 -1.5586
 6627SOL     OW31339   2.540   0.838   2.180  0.0486 -0.0468  0.3015
 6627SOL    HW131340   2.479   0.897   2.223 -0.7077 -0.5330 -0.1081
 6627SOL    HW231341   2.618   0.856   2.233 -0.3920 -0.8573  1.2350
 6628SOL     OW31342   3.536   1.523   3.072 -0.3763  0.6987 -0.6869
 6628SOL    HW131343   3.462   1.584   3.075 -2.5509 -1.8774 -1.3223
 6628SOL    HW231344   3.507   1.448   3.125 -0.0286  1.3125  0.3737
 6629SOL     OW31345   3.477   2.161   7.377 -0.3223 -0.0019 -0.2069
 6629SOL    HW131346   3.399   2.184   7.325 -1.0720  0.2470  1.0181
 6629SOL    HW231347   3.457   2.081   7.426  0.5393 -0.9887 -1.4744
 6630SOL     OW31348   4.593   1.139   8.521 -0.1470  0.4720  0.2581
 6630SOL    HW131349   4.527   1.096   8.576 -0.7940  1.5259  0.2894
 6630SOL    HW231350   4.644   1.181   8.591 -1.3752  0.9930  0.8370
 6631SOL     OW31351   3.965   0.908   6.204  0.2930 -0.3068  0.0519
 6631SOL    HW131352   3.937   0.898   6.113  0.5358 -2.2642  0.1861
 6631SOL    HW231353   3.879   0.905   6.246  1.7352  1.3763  3.1172
 6632SOL     OW31354   0.014   1.414   6.673  0.5245 -0.2027  0.4140
 6632SOL    HW131355   4.711   1.416   6.765  0.2598 -1.0460  0.3517
 6632SOL    HW231356   0.033   1.323   6.652  1.0808 -0.2962  1.3071
 6633SOL     OW31357   3.988   1.175   1.385  0.3397 -0.2510 -0.2939
 6633SOL    HW131358   3.936   1.095   1.373 -2.6730  1.6053  0.4286
 6633SOL    HW231359   3.939   1.250   1.420 -1.9793 -1.9978  0.2398
 6634SOL     OW31360   4.703   2.932   3.820 -0.6752  0.1117  0.0027
 6634SOL    HW131361   0.016   2.960   3.903  0.9993  0.5792 -0.9211
 6634SOL    HW231362   4.621   2.981   3.830 -0.6885  0.0320  0.2881
 6635SOL     OW31363   1.045   4.228   1.695  0.0758  0.1141  0.1454
 6635SOL    HW131364   0.955   4.211   1.723  0.1319 -1.1149 -0.4191
 6635SOL    HW231365   1.094   4.259   1.772  1.3687  0.1531 -0.6920
 6636SOL     OW31366   2.328   0.086   2.269  0.3327 -0.6503 -0.2642
 6636SOL    HW131367   2.314   0.065   2.361  0.8352 -1.3877 -0.3544
 6636SOL    HW231368   2.397   0.022   2.252 -1.4596 -2.2663 -1.3982
 6637SOL     OW31369   0.322   3.268  13.807 -0.1957 -0.4849  0.6001
 6637SOL    HW131370   0.277   3.271  13.891 -0.8662  0.5100  0.2166
 6637SOL    HW231371   0.340   3.175  13.793 -2.3595 -0.8562  0.3518
 6638SOL     OW31372   1.544   4.666   2.906  0.2590  0.2298  0.0179
 6638SOL    HW131373   1.621   4.611   2.920 -0.3819  0.5069  4.5490
 6638SOL    HW231374   1.553   4.691   2.814  2.0419  0.9706  0.3853
 6639SOL     OW31375   3.516   4.082   5.660  0.1181 -0.0502  0.4118
 6639SOL    HW131376   3.602   4.044   5.648 -1.4545 -4.0813  2.1051
 6639SOL    HW231377   3.461   4.012   5.696  0.0943 -1.4907 -2.4595
 6640SOL     OW31378   3.894   2.191   0.716  0.6146 -0.7626 -0.1537
 6640SOL    HW131379   3.857   2.160   0.633 -0.3200 -2.2295  0.8156
 6640SOL    HW231380   3.844   2.266   0.746  0.0880 -0.5023 -1.6632
 6641SOL     OW31381   2.706   3.552   5.719 -0.0351 -0.0793  0.5034
 6641SOL    HW131382   2.794   3.587   5.731 -0.1871 -0.4231  2.6346
 6641SOL    HW231383   2.725   3.460   5.736 -3.1420 -0.6572  0.7917
 6642SOL     OW31384   0.671   4.010   8.848  0.0937  0.1567  0.2910
 6642SOL    HW131385   0.604   4.006   8.779  1.0252 -1.8490 -0.4906
 6642SOL    HW231386   0.695   3.918   8.859 -2.6863 -0.7578 -1.1965
 6643SOL     OW31387   4.021   2.231   5.781  0.0107  0.1119  0.0904
 6643SOL    HW131388   4.056   2.238   5.692  1.1760  0.5644  0.5832
 6643SOL    HW231389   3.930   2.242   5.752  0.1904 -0.2255 -0.6122
 6644SOL     OW31390   3.870   0.081   5.773  0.1206  0.0624  0.1471
 6644SOL    HW131391   3.920   0.114   5.699  0.0375  0.2763  0.1863
 6644SOL    HW231392   3.936   0.042   5.829 -1.2811 -1.9048  0.4201
 6645SOL     OW31393   3.015   2.877   1.376  0.6492 -0.0306  0.4532
 6645SOL    HW131394   2.999   2.798   1.324 -0.0380 -0.5764  1.4820
 6645SOL    HW231395   2.946   2.933   1.341 -2.1961 -2.0422  2.8044
 6646SOL     OW31396   0.208   1.949   1.989  0.0497  0.1220  0.8123
 6646SOL    HW131397   0.253   2.034   1.992  0.8519 -0.3740  2.5645
 6646SOL    HW231398   0.114   1.965   1.995 -0.1321 -0.2793 -0.9010
 6647SOL     OW31399   2.201   2.049   4.207 -0.4441  0.3967 -0.1134
 6647SOL    HW131400   2.203   1.972   4.264  2.0785  0.7694  0.3227
 6647SOL    HW231401   2.284   2.092   4.229  1.1792 -2.7296 -0.0398
 6648SOL     OW31402   0.669   3.773  14.959  0.3622  0.2096 -0.5983
 6648SOL    HW131403   0.684   3.702  15.021  1.3348 -0.3204 -1.4335
 6648SOL    HW231404   0.740   3.832  14.984  0.1260  1.1221 -2.0784
 6649SOL     OW31405   1.697   1.089   5.375  0.1310 -0.7324 -0.1539
 6649SOL    HW131406   1.622   1.030   5.366  0.7687 -1.2674 -2.0026
 6649SOL    HW231407   1.685   1.145   5.298  3.2218 -0.7000 -0.6455
 6650SOL     OW31408   2.907   3.369  13.847  0.5007 -0.1238 -0.1913
 6650SOL    HW131409   3.001   3.356  13.859  0.3692  1.3014  2.4128
 6650SOL    HW231410   2.894   3.425  13.924  0.6984 -0.8133  0.3391
 6651SOL     OW31411   2.127   1.516  17.577  0.2570 -0.4843 -0.0354
 6651SOL    HW131412   2.088   1.550  17.657  0.0066 -0.2709 -0.2479
 6651SOL    HW231413   2.211   1.503  17.621  1.0175 -2.3333 -2.0212
 6652SOL     OW31414   3.364   4.172   8.205  0.4046 -0.4275 -0.3743
 6652SOL    HW131415   3.430   4.104   8.223 -0.9041 -1.1405  1.7849
 6652SOL    HW231416   3.361   4.219   8.289  0.5632 -0.6706 -0.2314
 6653SOL     OW31417   4.525   1.251   9.338 -0.0249  0.0472  0.3155
 6653SOL    HW131418   4.433   1.272   9.347  0.2494  0.8204  1.2876
 6653SOL    HW231419   4.550   1.239   9.430  0.5478  0.3232  0.2012
 6654SOL     OW31420   1.765   0.232   6.460  0.2206 -0.5934  0.1104
 6654SOL    HW131421   1.816   0.152   6.448 -0.4639 -1.2183  1.3873
 6654SOL    HW231422   1.700   0.225   6.390 -0.9779 -1.8832  1.3576
 6655SOL     OW31423   3.274   1.746  10.259 -0.1765  0.4371  0.0010
 6655SOL    HW131424   3.207   1.778  10.199  3.2179  1.8821 -3.0272
 6655SOL    HW231425   3.274   1.652  10.240 -3.1578  0.4948 -0.2781
 6656SOL     OW31426   3.297   0.296   1.754 -0.1999  0.5431 -0.5189
 6656SOL    HW131427   3.293   0.316   1.661  1.0872 -1.1173 -0.9188
 6656SOL    HW231428   3.313   0.202   1.758 -0.9165  0.3772 -1.6362
 6657SOL     OW31429   2.138   3.351  11.410 -0.1445 -0.1874 -0.7365
 6657SOL    HW131430   2.219   3.402  11.413  1.7524 -3.2534  0.7405
 6657SOL    HW231431   2.166   3.277  11.356 -0.9356 -2.0092  1.3331
 6658SOL     OW31432   0.549   1.412  17.276 -0.2997  0.4270  0.2844
 6658SOL    HW131433   0.640   1.442  17.272 -0.1026 -0.5771 -2.6730
 6658SOL    HW231434   0.514   1.479  17.335 -0.7080 -1.6721  2.3848
 6659SOL     OW31435   3.319   0.971  16.576 -0.2924 -0.6281  0.0116
 6659SOL    HW131436   3.350   1.008  16.494  2.4177 -1.3101  0.7101
 6659SOL    HW231437   3.283   0.890  16.542  0.4630 -0.7902 -0.3910
 6660SOL     OW31438   4.071   2.399   1.015  0.5618  0.1268 -0.1602
 6660SOL    HW131439   4.132   2.326   1.004  0.9807  0.3896  0.4248
 6660SOL    HW231440   4.099   2.430   1.101  1.0845 -1.1055  0.1138
 6661SOL     OW31441   3.922   3.710   3.483  0.0530 -0.0564 -0.4774
 6661SOL    HW131442   3.989   3.762   3.526 -0.2920  0.1296 -0.1583
 6661SOL    HW231443   3.919   3.748   3.395  0.4671 -0.0668 -0.4940
 6662SOL     OW31444   0.159   3.129   6.781 -0.2860  0.7193  0.2230
 6662SOL    HW131445   0.096   3.171   6.839 -2.6977 -1.0042 -1.1480
 6662SOL    HW231446   0.229   3.194   6.777  0.0885  0.2525 -0.9789
 6663SOL     OW31447   3.939   3.352   2.988 -0.1569  0.0609 -0.1792
 6663SOL    HW131448   3.896   3.438   2.984 -1.1434 -0.4139  0.1591
 6663SOL    HW231449   4.002   3.366   3.058  0.4744  0.9737 -0.9341
 6664SOL     OW31450   1.088   2.819   6.057 -0.7964  0.7439  0.4849
 6664SOL    HW131451   1.167   2.765   6.063 -1.0387  0.5014  1.6288
 6664SOL    HW231452   1.053   2.800   5.970  0.9100 -2.2403  0.4729
 6665SOL     OW31453   3.229   3.321   7.569  0.3711  0.0047  0.0749
 6665SOL    HW131454   3.168   3.355   7.635  0.6002 -1.2926  0.9465
 6665SOL    HW231455   3.314   3.323   7.614  0.3332  0.6294  0.1232
 6666SOL     OW31456   3.956   1.585  11.000 -0.5946 -0.5081  0.3488
 6666SOL    HW131457   3.963   1.680  10.994 -1.4195 -0.6566 -2.9138
 6666SOL    HW231458   4.006   1.555  10.924  0.3636  1.0579  0.3813
 6667SOL     OW31459   1.129   2.499  15.779  0.1654 -0.2824 -0.0769
 6667SOL    HW131460   1.158   2.422  15.830  0.1919  0.1143  0.5053
 6667SOL    HW231461   1.201   2.556  15.805 -0.1177 -0.2798  0.7147
 6668SOL     OW31462   3.906   1.628  11.475 -0.1507  0.1745  0.5478
 6668SOL    HW131463   3.939   1.540  11.493 -1.8261 -0.4194  0.7463
 6668SOL    HW231464   3.845   1.629  11.549  1.3199 -0.2886  1.7601
 6669SOL     OW31465   1.753   2.962   4.552 -0.3697 -0.3843  0.5523
 6669SOL    HW131466   1.679   3.011   4.587 -0.1585  1.5020 -1.6518
 6669SOL    HW231467   1.806   3.038   4.525 -0.5574 -0.4953 -0.1119
 6670SOL     OW31468   3.595   0.592   9.587  0.4850  0.5028 -0.3265
 6670SOL    HW131469   3.580   0.685   9.607  0.4936  0.3425  0.4156
 6670SOL    HW231470   3.683   0.581   9.622  1.2654 -0.4873 -2.6298
 6671SOL     OW31471   4.556   4.139   7.789 -0.5153 -0.0746 -0.1265
 6671SOL    HW131472   4.592   4.221   7.823  0.9448  0.3691 -2.7175
 6671SOL    HW231473   4.632   4.085   7.810  0.4800  1.9224  1.3621
 6672SOL     OW31474   1.509   1.439   4.571 -0.4403 -0.8666  0.2840
 6672SOL    HW131475   1.472   1.358   4.606 -3.6769  0.0030 -1.1525
 6672SOL    HW231476   1.433   1.477   4.527  0.9922 -1.9438 -3.1343
 6673SOL     OW31477   3.265   3.244  15.441  0.0149  0.2411  0.1760
 6673SOL    HW131478   3.255   3.314  15.376  0.3931  0.5341  0.4336
 6673SOL    HW231479   3.225   3.294  15.513  0.3470 -1.5709  1.5937
 6674SOL     OW31480   3.024   4.582   1.948 -0.0195 -0.2491 -0.5578
 6674SOL    HW131481   3.017   4.498   1.904 -0.7955 -0.1752 -0.5804
 6674SOL    HW231482   2.935   4.616   1.936  0.1805 -0.0359 -1.4847
 6675SOL     OW31483   4.478   4.022  11.833  0.2892  0.0927  0.0421
 6675SOL    HW131484   4.455   3.983  11.749  3.2734 -0.0622 -0.6977
 6675SOL    HW231485   4.529   4.093  11.796  1.1496 -0.5973 -0.1037
 6676SOL     OW31486   3.720   0.481   7.053 -0.0165 -0.0892 -0.1782
 6676SOL    HW131487   3.678   0.451   7.133 -1.3627  0.9302 -0.4994
 6676SOL    HW231488   3.683   0.418   6.991 -1.5350  1.4137 -0.7963
 6677SOL     OW31489   3.251   2.102   4.150  0.0969  0.0254 -0.0354
 6677SOL    HW131490   3.238   2.016   4.189  2.2798  0.2005  1.0802
 6677SOL    HW231491   3.171   2.141   4.186 -0.4841  0.1733 -1.4879
 6678SOL     OW31492   2.217   1.117   3.486 -0.4180 -0.2038  0.4824
 6678SOL    HW131493   2.217   1.180   3.558 -1.5509 -0.2826  0.5421
 6678SOL    HW231494   2.168   1.050   3.532 -0.2023 -0.0419  0.9463
 6679SOL     OW31495   1.139   0.251  16.004 -0.1469 -0.1147 -0.1517
 6679SOL    HW131496   1.233   0.235  16.014 -0.1058 -0.5188 -1.1227
 6679SOL    HW231497   1.112   0.209  15.922  1.5745  0.8568 -1.2281
 6680SOL     OW31498   4.145   0.784   6.345  0.4312  0.3176  0.0960
 6680SOL    HW131499   4.182   0.862   6.386 -0.2767  1.2307 -0.9866
 6680SOL    HW231500   4.086   0.821   6.279 -1.2860  0.3957  1.6705
 6681SOL     OW31501   1.064   2.192   4.448  0.3490  0.7081 -0.7371
 6681SOL    HW131502   1.085   2.285   4.445 -0.2057  0.9224  2.1273
 6681SOL    HW231503   1.017   2.179   4.530 -0.2011 -1.6771 -1.4259
 6682SOL     OW31504   0.965   3.045  12.545  0.7459 -0.2727 -0.8333
 6682SOL    HW131505   0.919   3.115  12.591  1.6059  0.0307 -0.4476
 6682SOL    HW231506   0.929   2.972  12.594 -3.0015  0.8286 -1.8888
 6683SOL     OW31507   0.853   1.060  10.361 -0.1954 -0.1457  0.5118
 6683SOL    HW131508   0.912   1.060  10.437  1.1016 -0.3647 -0.4940
 6683SOL    HW231509   0.772   1.081  10.407 -0.5972  0.1884 -0.3513
 6684SOL     OW31510   3.047   3.416  12.691 -0.2469 -0.0539  0.3067
 6684SOL    HW131511   3.126   3.373  12.657  1.6745  2.0629  2.1139
 6684SOL    HW231512   3.031   3.363  12.769  1.2398 -0.8208  0.0942
 6685SOL     OW31513   1.079   0.591  10.160 -0.3291  0.7121 -0.3289
 6685SOL    HW131514   1.095   0.677  10.199  1.1301  0.0656  0.5229
 6685SOL    HW231515   1.134   0.529  10.207 -2.6259 -1.8067 -0.9532
 6686SOL     OW31516   0.720   1.999   8.813  0.3704  0.0314  0.3145
 6686SOL    HW131517   0.648   2.043   8.768 -1.6660 -3.9287 -0.2218
 6686SOL    HW231518   0.746   2.076   8.865  1.6801  0.2497 -0.6559
 6687SOL     OW31519   4.223   0.836  15.750 -0.2531 -0.1523 -0.5413
 6687SOL    HW131520   4.248   0.745  15.760 -0.0620  0.2927  3.0206
 6687SOL    HW231521   4.208   0.849  15.657  1.3699  2.7004 -0.4282
 6688SOL     OW31522   2.142   2.486   7.608 -0.4985  0.1622 -0.1829
 6688SOL    HW131523   2.129   2.578   7.586 -0.2935  0.5828  1.5137
 6688SOL    HW231524   2.160   2.456   7.519  1.8608 -0.6649  0.5780
 6689SOL     OW31525   0.069   1.434   2.298  0.2300 -0.1430 -0.3227
 6689SOL    HW131526   0.159   1.410   2.321  0.2306 -1.2111 -1.4789
 6689SOL    HW231527   0.052   1.377   2.223 -3.2299  2.4724 -1.5320
 6690SOL     OW31528   0.874   4.646   6.592  0.1672 -0.1587 -0.3773
 6690SOL    HW131529   0.953   4.699   6.600 -0.7981  1.3853 -1.1002
 6690SOL    HW231530   0.883   4.578   6.658 -0.9420 -1.7349 -1.8505
 6691SOL     OW31531   1.933   0.775   2.072 -0.0338  0.0879 -0.0054
 6691SOL    HW131532   1.842   0.804   2.077  0.9668  2.8838  1.5869
 6691SOL    HW231533   1.922   0.682   2.093 -1.6335  0.0609 -0.9477
 6692SOL     OW31534   2.513   3.361  12.982  0.0147 -0.2831 -0.1691
 6692SOL    HW131535   2.447   3.408  12.932  2.1486  0.7619 -2.0380
 6692SOL    HW231536   2.571   3.340  12.908 -0.5085  2.8446 -1.4879
 6693SOL     OW31537   1.281   4.020   3.968 -0.3718  0.1081  0.0952
 6693SOL    HW131538   1.331   4.094   4.004 -0.2606 -0.2211  0.6231
 6693SOL    HW231539   1.240   4.055   3.890  0.6592 -0.9795 -0.9383
 6694SOL     OW31540   4.017   0.850   7.079  0.7086 -0.1687  0.4140
 6694SOL    HW131541   3.987   0.868   7.168 -1.8464  0.4743 -0.5909
 6694SOL    HW231542   4.087   0.785   7.084  0.1617 -0.7536  0.4309
 6695SOL     OW31543   3.548   3.409  16.994  0.0578 -0.2846 -0.7408
 6695SOL    HW131544   3.461   3.426  16.959  0.0760  0.2933 -0.5033
 6695SOL    HW231545   3.584   3.357  16.923  0.4319  2.1424 -2.3305
 6696SOL     OW31546   1.957   1.022   5.472  0.8988  0.4237 -0.4002
 6696SOL    HW131547   1.867   1.008   5.444  0.7607 -1.0827  0.8060
 6696SOL    HW231548   1.937   1.043   5.563  0.4392 -0.9305 -0.1980
 6697SOL     OW31549   1.128   1.260   3.041  0.0313  0.1918  0.3672
 6697SOL    HW131550   1.096   1.170   3.047  2.1642 -0.6125 -0.3226
 6697SOL    HW231551   1.075   1.295   2.969  0.0809  0.1501  0.3102
 6698SOL     OW31552   1.081   0.438   1.403  0.0662 -0.2063  0.1758
 6698SOL    HW131553   1.155   0.477   1.356  0.1438 -0.3780  0.1562
 6698SOL    HW231554   1.030   0.390   1.339 -1.1637 -0.5011  1.3729
 6699SOL     OW31555   1.282   3.552   9.324  0.6793  0.0318  0.0110
 6699SOL    HW131556   1.307   3.589   9.239  1.5915 -1.5597 -0.4185
 6699SOL    HW231557   1.363   3.558   9.375  0.8550  0.2431 -0.2923
 6700SOL     OW31558   1.938   4.674   4.128  0.7643 -0.5627 -0.1876
 6700SOL    HW131559   2.004   4.638   4.068  1.2626  1.3350 -0.7859
 6700SOL    HW231560   1.974   4.630   4.205  0.0572 -0.8333 -0.0113
 6701SOL     OW31561   1.949   1.394   3.672 -0.2584 -0.2229 -0.4557
 6701SOL    HW131562   2.026   1.389   3.615 -0.0267 -1.5213 -0.0347
 6701SOL    HW231563   1.902   1.467   3.632 -1.0277 -0.8231 -0.6331
 6702SOL     OW31564   0.086   4.037   3.804 -0.0545  0.1488 -0.3403
 6702SOL    HW131565   0.024   4.095   3.761  0.3512 -1.0631 -2.5590
 6702SOL    HW231566   0.071   4.070   3.893  2.1521  0.3699 -0.0498
 6703SOL     OW31567   3.076   2.749  16.028  0.3047  0.0006  0.3742
 6703SOL    HW131568   3.046   2.751  15.937 -1.9873  4.7868  1.2588
 6703SOL    HW231569   3.034   2.831  16.055 -0.4895  0.2785 -1.6988
 6704SOL     OW31570   3.699   3.990   6.364  0.0110  0.5701 -0.1701
 6704SOL    HW131571   3.754   4.004   6.442  1.0611 -3.7307 -0.1293
 6704SOL    HW231572   3.737   4.063   6.315  1.7119 -1.7551 -2.3259
 6705SOL     OW31573   0.841   3.038   6.894 -0.5107 -0.0562  0.1381
 6705SOL    HW131574   0.932   3.050   6.865 -0.3683 -3.3740 -0.7414
 6705SOL    HW231575   0.798   3.080   6.820 -1.3512 -1.4794 -0.1871
 6706SOL     OW31576   0.248   3.808   1.308  0.3556 -0.4062 -0.0268
 6706SOL    HW131577   0.178   3.873   1.304 -0.8474 -1.8564 -2.4225
 6706SOL    HW231578   0.307   3.842   1.240  0.1950  0.0504  0.0602
 6707SOL     OW31579   2.825   4.142  12.124 -0.1119  0.0052 -0.6049
 6707SOL    HW131580   2.741   4.144  12.170 -0.5000  0.9341 -1.3565
 6707SOL    HW231581   2.775   4.132  12.043  1.1408 -1.4843 -1.1891
 6708SOL     OW31582   0.104   0.077   0.466 -0.0682 -0.3220 -0.2173
 6708SOL    HW131583   0.072   4.724   0.421 -3.5729  1.2287 -0.3731
 6708SOL    HW231584   0.143   0.025   0.537  0.3597 -0.1239 -0.3029
 6709SOL     OW31585   2.386   2.201   4.944  0.1812  0.0571 -0.2907
 6709SOL    HW131586   2.436   2.129   4.982  2.7045  1.4677 -0.8992
 6709SOL    HW231587   2.406   2.274   5.003  1.3594  0.2158 -0.8864
 6710SOL     OW31588   2.418   1.917  11.949  0.7041 -0.0379  0.4206
 6710SOL    HW131589   2.436   1.919  12.043  0.8394 -0.1288  0.3974
 6710SOL    HW231590   2.491   1.969  11.915 -0.8573  0.8511 -1.5697
 6711SOL     OW31591   3.881   4.722   8.786 -0.5592 -0.5980 -0.0748
 6711SOL    HW131592   3.825   0.022   8.859 -0.7932  0.2659 -0.5618
 6711SOL    HW231593   3.933   4.657   8.834  2.0557  0.3038 -1.6631
 6712SOL     OW31594   3.522   1.738   4.304  0.1340  0.0773 -0.2669
 6712SOL    HW131595   3.520   1.678   4.378 -1.6138 -1.2165 -1.3737
 6712SOL    HW231596   3.591   1.792   4.342  1.1018 -0.8418 -0.7193
 6713SOL     OW31597   4.186   4.010   4.926  0.5855 -0.1369 -0.9291
 6713SOL    HW131598   4.189   3.989   5.020  1.9505  0.7760 -0.7613
 6713SOL    HW231599   4.259   4.072   4.925 -0.0529  0.5960 -1.7510
 6714SOL     OW31600   0.048   2.050   5.019 -0.0483 -0.2188 -0.0126
 6714SOL    HW131601   0.003   2.006   4.948 -0.0347  0.6992 -0.5943
 6714SOL    HW231602   4.708   2.106   5.062 -0.1608  0.3972 -0.9904
 6715SOL     OW31603   1.359   1.489   8.203 -0.1031  0.0483 -0.1444
 6715SOL    HW131604   1.300   1.510   8.129  0.1074 -3.0367 -1.1884
 6715SOL    HW231605   1.444   1.480   8.161  0.0879 -2.3821  0.7635
 6716SOL     OW31606   1.164   2.556  14.861 -0.2137  0.3466 -0.5289
 6716SOL    HW131607   1.092   2.558  14.924  2.5844 -0.6123  2.7348
 6716SOL    HW231608   1.193   2.647  14.870  1.5953 -0.0856 -1.9185
 6717SOL     OW31609   4.488   4.467   9.293  0.3394 -0.2003  0.4504
 6717SOL    HW131610   4.435   4.399   9.335  1.0115 -0.5687  0.7202
 6717SOL    HW231611   4.570   4.463   9.342 -0.0331  0.0859  1.0916
 6718SOL     OW31612   0.530   0.720   4.398  0.2639 -0.1957  0.1277
 6718SOL    HW131613   0.503   0.803   4.437  1.0929 -0.3263  0.9752
 6718SOL    HW231614   0.457   0.713   4.336  1.5305  2.1774 -1.6302
 6719SOL     OW31615   3.293   0.083   7.386  0.3712  0.0344 -0.4598
 6719SOL    HW131616   3.288   0.176   7.363  1.6598 -0.0881 -1.2564
 6719SOL    HW231617   3.201   0.059   7.381 -0.0730  1.3281  1.3799
 6720SOL     OW31618   1.160   0.349   1.625 -0.9077  0.0483 -0.2282
 6720SOL    HW131619   1.129   0.391   1.545 -0.4026 -0.3407 -0.6323
 6720SOL    HW231620   1.148   0.256   1.608 -1.4538  0.4905 -2.1876
 6721SOL     OW31621   2.763   3.344   4.677  0.2111 -0.0894  0.9613
 6721SOL    HW131622   2.836   3.306   4.628 -1.9847 -1.1685 -1.4331
 6721SOL    HW231623   2.797   3.388   4.756  1.2953  3.5518 -1.5505
 6722SOL     OW31624   2.091   2.522   6.914 -0.2720  0.3608 -0.1642
 6722SOL    HW131625   2.073   2.438   6.955  2.6064  0.6695  1.7144
 6722SOL    HW231626   2.176   2.546   6.950  0.0557  0.3043 -0.9007
 6723SOL     OW31627   4.181   3.793   0.421 -0.2379 -0.2003 -0.3495
 6723SOL    HW131628   4.170   3.847   0.343 -0.2756 -0.3118 -0.4223
 6723SOL    HW231629   4.110   3.731   0.400 -2.0626  1.7772 -0.0099
 6724SOL     OW31630   0.250   2.978   8.531  0.0160  0.6440 -1.1530
 6724SOL    HW131631   0.260   3.027   8.612 -2.6811 -0.8773  0.0714
 6724SOL    HW231632   0.275   3.044   8.466  0.1868  0.4076 -1.3295
 6725SOL     OW31633   4.243   4.415   6.068  0.2374 -0.2941  0.2423
 6725SOL    HW131634   4.295   4.344   6.029 -0.6116 -0.3109 -0.8581
 6725SOL    HW231635   4.219   4.464   5.990 -0.4879 -0.9032  0.0821
 6726SOL     OW31636   1.403   4.474   6.824 -0.2613  0.5883 -0.6253
 6726SOL    HW131637   1.446   4.544   6.775  1.3010 -0.0625 -0.1506
 6726SOL    HW231638   1.310   4.494   6.811  0.1902  1.6024 -2.3353
 6727SOL     OW31639   3.415   0.346   3.755  0.1141  0.2091 -0.1320
 6727SOL    HW131640   3.431   0.277   3.820 -0.7337  0.4789  0.3642
 6727SOL    HW231641   3.494   0.342   3.702 -0.9541  1.5362 -1.8220
 6728SOL     OW31642   3.803   3.504   9.728 -0.1345  0.1369 -0.1683
 6728SOL    HW131643   3.807   3.419   9.685 -1.6461 -1.8935  3.7461
 6728SOL    HW231644   3.771   3.488   9.816 -0.8240 -0.6790 -0.5674
 6729SOL     OW31645   1.485   3.236   9.169 -0.1772 -0.1398  0.1598
 6729SOL    HW131646   1.520   3.258   9.256 -0.2586 -1.8044  0.6101
 6729SOL    HW231647   1.459   3.326   9.148  2.0327  0.7187  0.9987
 6730SOL     OW31648   3.222   2.274   3.768  0.3056  0.2677 -0.1900
 6730SOL    HW131649   3.158   2.343   3.783 -0.9343 -0.9370  0.0247
 6730SOL    HW231650   3.179   2.200   3.727  0.7063 -1.0947  1.8118
 6731SOL     OW31651   3.330   3.547   2.844  0.1374 -0.0129 -0.0110
 6731SOL    HW131652   3.348   3.635   2.880 -0.8459 -0.5508  1.7930
 6731SOL    HW231653   3.396   3.556   2.776  0.3712  4.0799  0.7060
 6732SOL     OW31654   0.601   4.034   4.819  0.1624  0.2417  0.4237
 6732SOL    HW131655   0.621   3.979   4.894  1.4678  0.7687  0.4682
 6732SOL    HW231656   0.570   4.110   4.868  0.3061 -0.3024  1.3624
 6733SOL     OW31657   2.593   3.901  16.962  0.0406  0.3611 -0.0991
 6733SOL    HW131658   2.610   3.968  17.028  0.5126 -0.4288  0.5763
 6733SOL    HW231659   2.659   3.930  16.899 -0.9784  0.6063 -1.0536
 6734SOL     OW31660   1.955   3.861   5.056 -0.5861  0.0559 -0.2926
 6734SOL    HW131661   1.971   3.828   4.967  0.6227  0.4313 -0.2213
 6734SOL    HW231662   1.938   3.777   5.100 -0.8080  0.3823  0.2477
 6735SOL     OW31663   0.971   1.112   1.791  0.5436  0.1384 -0.2986
 6735SOL    HW131664   0.877   1.126   1.783  0.3966 -0.2037  0.8554
 6735SOL    HW231665   0.972   1.020   1.817  1.0514  0.5526  1.1121
 6736SOL     OW31666   3.111   2.122   6.514  0.6525 -0.4339 -0.1566
 6736SOL    HW131667   3.060   2.181   6.569 -0.5387 -0.5317 -1.1639
 6736SOL    HW231668   3.051   2.080   6.452  2.0258  0.2772 -1.9698
 6737SOL     OW31669   0.972   0.783   5.791 -0.7493 -0.0337  0.0330
 6737SOL    HW131670   0.999   0.844   5.723  0.1808  2.0604  2.2967
 6737SOL    HW231671   1.059   0.761   5.824 -0.0627  1.7586 -0.5758
 6738SOL     OW31672   2.149   2.510   9.335  0.0477  0.1525 -0.5040
 6738SOL    HW131673   2.168   2.525   9.428  1.2188  0.0567 -0.7238
 6738SOL    HW231674   2.210   2.569   9.291 -0.4095  0.4316 -0.7580
 6739SOL     OW31675   2.523   1.763   6.499  0.0350 -0.3773  0.2261
 6739SOL    HW131676   2.557   1.706   6.429 -2.3743 -0.3265 -0.9814
 6739SOL    HW231677   2.431   1.739   6.487  0.3902 -2.5845  1.8730
 6740SOL     OW31678   4.555   4.264  11.543 -0.2996 -0.0047 -0.1962
 6740SOL    HW131679   4.597   4.226  11.465  1.8125 -1.9804  1.8962
 6740SOL    HW231680   4.481   4.311  11.504 -1.2001 -0.9376  0.4150
 6741SOL     OW31681   2.298   0.916   1.373  0.0998  0.0975  0.2500
 6741SOL    HW131682   2.204   0.920   1.354  0.1008 -1.4933 -0.1294
 6741SOL    HW231683   2.290   0.931   1.467 -1.6708 -1.9851  0.4409
 6742SOL     OW31684   2.822   1.397   8.409 -0.6461  0.2864 -0.1209
 6742SOL    HW131685   2.836   1.395   8.315 -1.2991  1.7849 -0.2508
 6742SOL    HW231686   2.804   1.489   8.429  0.1171  0.1830  1.0538
 6743SOL     OW31687   3.446   0.001   6.975  0.7421  0.5824 -0.0151
 6743SOL    HW131688   3.402   0.082   7.002 -0.4540  0.0671 -0.4052
 6743SOL    HW231689   3.530   4.725   7.020  0.1188 -1.4772  1.1164
 6744SOL     OW31690   4.147   1.195   2.128 -0.5558 -0.2089  0.5565
 6744SOL    HW131691   4.213   1.230   2.069 -0.4287 -1.8158 -0.2517
 6744SOL    HW231692   4.082   1.266   2.126  0.1849  0.4488  0.0962
 6745SOL     OW31693   4.462   2.225  12.828 -0.3558  0.1038  0.3191
 6745SOL    HW131694   4.534   2.214  12.890  1.0562  0.9161 -1.1724
 6745SOL    HW231695   4.386   2.249  12.880 -0.4833 -1.1242  0.6887
 6746SOL     OW31696   4.429   4.127   2.791 -0.5627 -0.1157 -0.6747
 6746SOL    HW131697   4.462   4.055   2.844  1.5871  0.6711 -0.9226
 6746SOL    HW231698   4.430   4.207   2.843 -0.3712 -0.6617  0.1640
 6747SOL     OW31699   2.989   4.311   5.290 -0.6935 -0.3894 -0.6024
 6747SOL    HW131700   2.943   4.395   5.282 -0.7231 -0.3186  0.3607
 6747SOL    HW231701   3.027   4.309   5.202  2.6621 -1.9023  0.9106
 6748SOL     OW31702   1.129   4.569   8.307  0.1243 -0.2701 -0.1471
 6748SOL    HW131703   1.185   4.622   8.364 -0.3985  0.9696 -0.7863
 6748SOL    HW231704   1.196   4.516   8.264  0.2383 -0.5589  0.3757
 6749SOL     OW31705   4.317   3.310   3.995  0.1627 -0.7152 -0.2714
 6749SOL    HW131706   4.259   3.243   3.959 -0.4982  0.7816 -1.9815
 6749SOL    HW231707   4.384   3.319   3.927 -0.6767 -0.5226 -1.0615
 6750SOL     OW31708   4.485   1.595   5.496 -0.5871  0.0066 -0.2865
 6750SOL    HW131709   4.451   1.629   5.578  0.0739  0.1569 -0.0741
 6750SOL    HW231710   4.573   1.633   5.502 -0.3666 -0.1448 -2.2824
 6751SOL     OW31711   4.143   1.756   2.463  0.3832  0.3645  0.0835
 6751SOL    HW131712   4.168   1.846   2.442  0.4933  0.8433  2.2734
 6751SOL    HW231713   4.175   1.702   2.392 -2.4543 -0.4358 -0.5743
 6752SOL     OW31714   0.421   0.755   2.499  0.4446  0.0757 -0.2182
 6752SOL    HW131715   0.377   0.829   2.542 -1.1482 -2.4301  2.4166
 6752SOL    HW231716   0.383   0.672   2.527 -0.9513  1.0572  0.8319
 6753SOL     OW31717   3.209   1.567   7.728 -0.1952  0.0147 -0.6380
 6753SOL    HW131718   3.229   1.565   7.822  3.7349 -0.9391 -1.5103
 6753SOL    HW231719   3.285   1.521   7.692 -0.8418 -0.3761 -1.5144
 6754SOL     OW31720   3.175   2.655   9.030  0.2362 -0.2773 -0.4975
 6754SOL    HW131721   3.099   2.605   8.999 -0.4818 -0.7940  2.1287
 6754SOL    HW231722   3.153   2.690   9.116  1.2004 -2.8308  0.7653
 6755SOL     OW31723   2.102   0.284  11.643 -0.2067  0.2822 -0.3541
 6755SOL    HW131724   2.089   0.349  11.712  2.4425 -0.3733  0.7497
 6755SOL    HW231725   2.197   0.285  11.651 -0.1682  0.8301 -0.8824
 6756SOL     OW31726   3.208   3.726  15.959 -0.3350  0.2987  0.3345
 6756SOL    HW131727   3.231   3.635  15.976 -2.0000 -0.6035 -2.2397
 6756SOL    HW231728   3.115   3.726  15.980 -0.7320 -1.1899 -1.4087
 6757SOL     OW31729   1.495   2.758   3.932 -0.6330  0.6255 -0.2284
 6757SOL    HW131730   1.405   2.787   3.918  0.2268  2.8537 -1.2232
 6757SOL    HW231731   1.529   2.831   3.880 -2.9577  0.3396 -2.1413
 6758SOL     OW31732   1.054   0.268  10.051  0.0538 -0.6524 -0.2186
 6758SOL    HW131733   1.080   0.188  10.005 -0.7050  0.1005 -1.9495
 6758SOL    HW231734   1.128   0.328  10.034 -0.5498  0.4426  1.0092
 6759SOL     OW31735   0.581   0.150   0.956  0.2623  0.3709  0.3359
 6759SOL    HW131736   0.543   0.214   0.895 -1.9797 -0.7190  0.5856
 6759SOL    HW231737   0.519   0.145   1.029  0.9513  0.5936  0.9343
 6760SOL     OW31738   3.634   0.371  10.160  0.1049 -0.0471  0.1567
 6760SOL    HW131739   3.694   0.438  10.193  0.4946 -0.2373 -0.1660
 6760SOL    HW231740   3.697   0.315  10.114 -0.8686 -1.2994  0.3459
 6761SOL     OW31741   2.609   2.778   7.762 -0.0170  0.3627  0.4719
 6761SOL    HW131742   2.610   2.869   7.733  1.1753  0.2987  0.3058
 6761SOL    HW231743   2.518   2.760   7.741  0.8004 -0.4040 -2.3536
 6762SOL     OW31744   3.937   1.253   7.454  0.3591  0.3475 -0.0327
 6762SOL    HW131745   4.030   1.270   7.438  0.9034 -2.8778 -0.1863
 6762SOL    HW231746   3.903   1.251   7.365 -0.3373 -0.7725  0.2657
 6763SOL     OW31747   4.100   4.274   2.091 -0.0741 -0.1240 -0.3004
 6763SOL    HW131748   4.017   4.311   2.120  0.2354  1.5487 -1.5762
 6763SOL    HW231749   4.102   4.189   2.135 -2.1343 -0.2417 -0.4349
 6764SOL     OW31750   3.716   2.758   2.858  0.6786  0.0118  0.3237
 6764SOL    HW131751   3.717   2.667   2.888 -0.7599 -0.0777  0.1067
 6764SOL    HW231752   3.638   2.796   2.899  0.2665 -0.2390 -0.2317
 6765SOL     OW31753   4.367   4.565   7.751  0.4398  0.3678 -0.3830
 6765SOL    HW131754   4.272   4.578   7.757  0.5292 -0.1733  2.1034
 6765SOL    HW231755   4.381   4.472   7.764  3.1093  0.9529  0.9085
 6766SOL     OW31756   1.710   1.529   6.765  0.5739 -0.2688 -0.5979
 6766SOL    HW131757   1.727   1.469   6.838 -1.4730 -0.2614 -0.1134
 6766SOL    HW231758   1.656   1.583   6.822  0.6134 -2.3008  1.3854
 6767SOL     OW31759   4.651   1.816   7.587 -0.0581 -0.4827 -0.0383
 6767SOL    HW131760   4.698   1.898   7.604 -0.4036 -0.6374  1.7191
 6767SOL    HW231761   4.614   1.834   7.501 -0.9927  2.0489  0.8687
 6768SOL     OW31762   2.486   0.566  15.226  0.4821  0.0757  0.6647
 6768SOL    HW131763   2.418   0.560  15.293  0.4585  2.0287  0.8216
 6768SOL    HW231764   2.443   0.591  15.145 -0.4957 -2.0528  0.5295
 6769SOL     OW31765   3.234   0.422  17.174  0.2764  0.0588  0.4686
 6769SOL    HW131766   3.164   0.475  17.213 -1.3836  0.8871 -3.5662
 6769SOL    HW231767   3.256   0.361  17.244 -1.9302 -0.9980  0.2644
 6770SOL     OW31768   2.357   1.393   8.096 -0.5309 -0.2566 -0.5241
 6770SOL    HW131769   2.422   1.326   8.076  1.8496  1.9236 -0.0236
 6770SOL    HW231770   2.272   1.351   8.107 -0.8916  0.0052 -2.2286
 6771SOL     OW31771   1.874   0.811  15.986  0.8574  0.0835  0.0222
 6771SOL    HW131772   1.798   0.860  16.014  1.3590  0.0409  1.4278
 6771SOL    HW231773   1.833   0.736  15.943 -0.6042  1.7116 -1.4373
 6772SOL     OW31774   3.324   3.905  13.437 -0.2599  0.3788  0.2578
 6772SOL    HW131775   3.363   3.926  13.352  0.5317 -2.6465 -0.1186
 6772SOL    HW231776   3.275   3.824  13.423  0.7477 -0.0309 -0.9041
 6773SOL     OW31777   4.106   1.519   2.746  0.1927 -0.3436  0.1515
 6773SOL    HW131778   4.061   1.568   2.677 -0.7521 -0.5133  0.6534
 6773SOL    HW231779   4.191   1.562   2.740  0.7009 -0.9377  3.4301
 6774SOL     OW31780   3.571   2.791   5.874 -0.1726 -0.1042  0.0691
 6774SOL    HW131781   3.618   2.717   5.837  1.6607  1.5067 -0.7859
 6774SOL    HW231782   3.585   2.783   5.969 -1.2614 -1.1671  0.1548
 6775SOL     OW31783   0.928   1.270   8.445 -0.0261  0.0751  0.2691
 6775SOL    HW131784   1.020   1.255   8.421  0.5454  3.2627  0.4515
 6775SOL    HW231785   0.927   1.270   8.540 -1.9842 -1.9485  0.2593
 6776SOL     OW31786   3.287   0.883   7.494  0.2658 -0.0831 -0.0809
 6776SOL    HW131787   3.313   0.824   7.565  2.2917  0.9474  0.0271
 6776SOL    HW231788   3.199   0.848   7.477 -0.0522 -0.8685  3.1530
 6777SOL     OW31789   1.184   1.387   8.883  0.0510  0.5590 -0.1464
 6777SOL    HW131790   1.095   1.387   8.919 -0.0947  0.9564 -0.5139
 6777SOL    HW231791   1.178   1.435   8.801 -0.1578 -0.2251 -0.5876
 6778SOL     OW31792   0.609   3.242   3.324  0.4079 -0.2349 -0.1927
 6778SOL    HW131793   0.565   3.179   3.381  1.1080 -1.0060 -0.4994
 6778SOL    HW231794   0.542   3.282   3.269 -0.0047 -0.8319 -0.1236
 6779SOL     OW31795   1.271   2.944   9.893  0.7336 -0.3172 -0.1739
 6779SOL    HW131796   1.321   2.933   9.974  0.8994 -3.5830 -0.7034
 6779SOL    HW231797   1.187   2.912   9.927  0.0207 -0.8101 -2.3964
 6780SOL     OW31798   3.973   1.600   1.250  0.8642 -0.5277 -0.0140
 6780SOL    HW131799   3.911   1.553   1.306  1.0956  0.4368  1.0441
 6780SOL    HW231800   4.027   1.525   1.223  0.4016 -0.7067 -0.4377
 6781SOL     OW31801   0.870   3.743   0.401  0.4063  0.1554 -0.5828
 6781SOL    HW131802   0.830   3.824   0.431  0.2726  0.1734 -0.8157
 6781SOL    HW231803   0.920   3.715   0.478 -1.2676  0.9488  0.7904
 6782SOL     OW31804   2.636   2.784   7.458 -0.5975  0.5613  0.1172
 6782SOL    HW131805   2.656   2.751   7.545  0.4331  2.8370  0.7418
 6782SOL    HW231806   2.714   2.835   7.436 -1.8082  2.3178 -0.0606
 6783SOL     OW31807   0.704   1.111   4.765  0.3239 -0.2719  0.1167
 6783SOL    HW131808   0.750   1.154   4.693  0.3413 -0.1416  0.2050
 6783SOL    HW231809   0.706   1.176   4.835 -0.9639  3.1114 -2.9767
 6784SOL     OW31810   2.837   3.906   6.070 -0.6260  0.2206 -0.7122
 6784SOL    HW131811   2.846   3.894   6.164 -1.6646  0.6897 -0.5617
 6784SOL    HW231812   2.906   3.854   6.028  0.4822  1.2451 -0.1608
 6785SOL     OW31813   3.278   3.424   2.083  0.1550 -0.0013  1.3537
 6785SOL    HW131814   3.279   3.408   2.177 -0.4005 -2.2905  0.9534
 6785SOL    HW231815   3.370   3.412   2.059  0.5114 -0.7101  3.0775
 6786SOL     OW31816   3.534   1.549   4.524 -1.1719 -0.2920  0.3704
 6786SOL    HW131817   3.604   1.521   4.582 -0.9099  0.0523  0.2157
 6786SOL    HW231818   3.479   1.471   4.532  1.4078 -2.0789  0.2986
 6787SOL     OW31819   0.163   0.031   9.563  0.4484 -0.0538 -0.0514
 6787SOL    HW131820   0.138   0.032   9.470 -1.3242  2.7758  0.4803
 6787SOL    HW231821   0.254   0.058   9.572 -0.0331  2.1013 -1.5976
 6788SOL     OW31822   2.781   2.845   3.306  0.4242  0.4039 -0.2039
 6788SOL    HW131823   2.705   2.902   3.318 -1.1166 -1.3488 -1.6556
 6788SOL    HW231824   2.747   2.799   3.230 -0.2096  0.9121 -0.2324
 6789SOL     OW31825   4.025   4.277  11.698 -0.2175  0.2414 -0.0281
 6789SOL    HW131826   3.943   4.321  11.723  0.1945  1.6482 -1.0990
 6789SOL    HW231827   4.092   4.333  11.738  0.5217 -0.1239 -0.7507
 6790SOL     OW31828   1.551   3.413   5.396  0.1149  0.1079  0.0464
 6790SOL    HW131829   1.520   3.398   5.485  0.2567  3.8387  0.7320
 6790SOL    HW231830   1.646   3.399   5.395  0.2893  1.3958 -1.3060
 6791SOL     OW31831   3.981   2.797   4.878  0.0131 -0.0670  0.4332
 6791SOL    HW131832   4.055   2.855   4.862 -0.7136  1.2963  1.9095
 6791SOL    HW231833   3.968   2.761   4.790  2.3115  2.4490 -0.9645
 6792SOL     OW31834   4.217   2.159   9.262  0.2653 -0.2089  0.2265
 6792SOL    HW131835   4.230   2.141   9.169 -3.6399  1.1195 -0.5621
 6792SOL    HW231836   4.136   2.208   9.251  0.4612 -0.0902 -0.6957
 6793SOL     OW31837   0.671   0.426   4.919 -0.0253  0.4303  0.4311
 6793SOL    HW131838   0.602   0.430   4.985 -0.0389  2.6149  0.2766
 6793SOL    HW231839   0.637   0.491   4.857  0.5097  0.0982 -0.2051
 6794SOL     OW31840   3.980   2.454  17.237  0.0118 -0.3551  0.5278
 6794SOL    HW131841   3.993   2.409  17.320  1.1282 -0.5215  0.2659
 6794SOL    HW231842   3.908   2.405  17.197 -2.2856  1.0893  2.9773
 6795SOL     OW31843   1.768   1.562   5.805  0.1926  0.1469 -0.0143
 6795SOL    HW131844   1.673   1.566   5.819  0.2315 -1.2365  0.5764
 6795SOL    HW231845   1.762   1.518   5.720  1.6144  0.6019 -0.3436
 6796SOL     OW31846   0.137   1.768   9.349  0.0770 -0.2366 -0.4045
 6796SOL    HW131847   0.118   1.785   9.441  0.1037 -0.9350 -0.2706
 6796SOL    HW231848   0.126   1.675   9.331  1.8721 -0.2595 -1.4528
 6797SOL     OW31849   1.008   0.288  14.895 -0.1385  0.2304 -0.8224
 6797SOL    HW131850   0.914   0.300  14.898 -0.1604  0.1117 -1.0707
 6797SOL    HW231851   1.015   0.203  14.852 -1.4561 -0.3365  0.1012
 6798SOL     OW31852   1.466   2.899   3.034  0.0415 -0.1576 -0.2960
 6798SOL    HW131853   1.427   2.986   3.025 -0.5765 -0.2149  1.8157
 6798SOL    HW231854   1.537   2.890   2.970 -1.1562  0.0440 -1.6653
 6799SOL     OW31855   3.364   4.021   4.371 -0.0187  0.0576  0.1823
 6799SOL    HW131856   3.279   4.061   4.354  0.5054  1.7114  1.4850
 6799SOL    HW231857   3.350   3.938   4.326  0.5289  0.4894 -0.7855
 6800SOL     OW31858   1.881   4.623   3.005 -0.1735  0.2251  0.1266
 6800SOL    HW131859   1.862   4.589   3.092 -1.5535  1.0176  0.1371
 6800SOL    HW231860   1.965   4.667   3.018  0.9949 -1.5321 -1.4808
 6801SOL     OW31861   3.275   4.659   5.758  0.0678 -0.0901 -0.3899
 6801SOL    HW131862   3.365   4.661   5.724 -0.6968 -2.2477 -2.5729
 6801SOL    HW231863   3.300   4.670   5.849  1.4901 -2.4864 -0.4769
 6802SOL     OW31864   3.052   3.712   2.771  0.6481 -1.0533 -0.3575
 6802SOL    HW131865   3.117   3.671   2.829 -0.2739  0.8615  2.0406
 6802SOL    HW231866   3.093   3.701   2.685  1.4220  3.6893 -0.5914
 6803SOL     OW31867   0.996   2.530  13.307  0.3960 -0.5280  0.9567
 6803SOL    HW131868   0.937   2.606  13.301  0.0660 -0.8816 -0.2139
 6803SOL    HW231869   1.070   2.581  13.274 -0.9589 -0.7176 -2.3009
 6804SOL     OW31870   1.504   3.965  11.185 -0.1842 -0.3004  0.0774
 6804SOL    HW131871   1.578   4.026  11.188 -0.1855 -0.3571  1.3773
 6804SOL    HW231872   1.528   3.903  11.116 -0.4554 -0.0173 -0.2731
 6805SOL     OW31873   0.909   3.004   6.539 -0.0035 -0.2526  0.2685
 6805SOL    HW131874   0.942   3.007   6.449  1.3416 -1.9398  0.6980
 6805SOL    HW231875   0.858   2.923   6.534 -0.7310  0.1695  0.9492
 6806SOL     OW31876   0.367   1.285   7.859  0.5973 -0.1760 -0.9246
 6806SOL    HW131877   0.386   1.350   7.928  0.8753 -0.2782 -0.9041
 6806SOL    HW231878   0.304   1.339   7.811  0.6532  1.8689  1.2751
 6807SOL     OW31879   4.347   2.483  17.379 -0.1289  0.4716  0.6157
 6807SOL    HW131880   4.365   2.404  17.327 -0.0705  0.3565  0.8119
 6807SOL    HW231881   4.256   2.472  17.406 -0.0970 -1.3694 -0.0367
 6808SOL     OW31882   3.653   2.030  13.122  0.0790 -0.0799  0.0013
 6808SOL    HW131883   3.626   2.010  13.033 -0.8504  0.3116  0.1975
 6808SOL    HW231884   3.748   2.020  13.116  0.5670  3.0489  2.4406
 6809SOL     OW31885   0.210   2.570  13.076 -0.6413 -0.4605  0.2911
 6809SOL    HW131886   0.163   2.555  13.158 -2.4161  2.1311 -0.2532
 6809SOL    HW231887   0.159   2.641  13.037  0.2977  0.9680  1.6860
 6810SOL     OW31888   0.895   2.209   1.949  0.1250 -0.1623  0.0258
 6810SOL    HW131889   0.878   2.268   2.023  0.5467  0.6714 -0.5430
 6810SOL    HW231890   0.901   2.125   1.994 -0.6966  0.3636  1.1227
 6811SOL     OW31891   1.575   0.137   8.179 -0.8672  0.2582 -0.0550
 6811SOL    HW131892   1.496   0.093   8.211 -0.5264 -0.2396  0.0988
 6811SOL    HW231893   1.639   0.135   8.250 -0.2022  2.8911 -0.5632
 6812SOL     OW31894   3.859   2.084  16.013 -0.3626  0.4406 -0.4494
 6812SOL    HW131895   3.941   2.054  15.973 -1.1880 -1.4665 -0.7067
 6812SOL    HW231896   3.826   2.005  16.055  1.0861  0.0966  0.0436
 6813SOL     OW31897   1.659   1.018   3.424  0.2068  0.1615 -0.4365
 6813SOL    HW131898   1.713   1.050   3.496  1.2274  1.3342 -1.7264
 6813SOL    HW231899   1.609   0.946   3.461  1.7745 -0.5642  0.2763
 6814SOL     OW31900   3.054   1.021  16.706 -0.0699  0.1625 -0.0778
 6814SOL    HW131901   3.002   0.961  16.760  0.3440  0.1338  0.2915
 6814SOL    HW231902   3.126   0.960  16.691 -0.7071 -0.3538 -0.9746
 6815SOL     OW31903   0.884   3.394   8.781  0.2221 -0.5194 -0.6902
 6815SOL    HW131904   0.811   3.426   8.728 -1.1734 -3.3334 -0.4781
 6815SOL    HW231905   0.863   3.301   8.793 -1.8056 -0.2120 -1.7574
 6816SOL     OW31906   1.595   0.536   2.907  0.1245  0.1563 -0.0227
 6816SOL    HW131907   1.582   0.596   2.981 -0.9022  1.0541 -0.9494
 6816SOL    HW231908   1.558   0.454   2.942  0.4482 -0.5889 -1.4428
 6817SOL     OW31909   0.957   2.702   9.778  0.6527  0.2494 -0.2779
 6817SOL    HW131910   0.880   2.655   9.810 -0.4295  1.9913 -0.3575
 6817SOL    HW231911   0.997   2.735   9.858 -1.2239  0.3950  0.5933
 6818SOL     OW31912   0.738   4.724   8.381  0.0000 -0.3883 -0.7520
 6818SOL    HW131913   0.812   0.045   8.419 -1.1460 -0.1393  1.1555
 6818SOL    HW231914   0.713   4.662   8.449  1.0337 -1.7816 -1.6264
 6819SOL     OW31915   3.745   3.217  16.833  0.1353 -0.3055 -0.2769
 6819SOL    HW131916   3.791   3.248  16.755  0.1201 -1.6655 -0.8161
 6819SOL    HW231917   3.698   3.142  16.796 -0.9267  0.8721 -1.3376
 6820SOL     OW31918   1.714   4.348   8.552  0.1005 -0.1181 -0.6456
 6820SOL    HW131919   1.790   4.293   8.535  0.6927  0.5092 -0.0492
 6820SOL    HW231920   1.726   4.362   8.646 -0.5507 -1.8928 -0.2956
 6821SOL     OW31921   0.308   0.605   4.556  0.0486  0.3620 -0.3504
 6821SOL    HW131922   0.389   0.562   4.530 -1.2283  0.0349 -3.8177
 6821SOL    HW231923   0.251   0.528   4.561  4.0716 -2.5484 -0.0183
 6822SOL     OW31924   2.798   4.579   3.209  0.4464 -0.4226  0.3086
 6822SOL    HW131925   2.743   4.503   3.225 -0.1577  0.3890  1.9887
 6822SOL    HW231926   2.887   4.548   3.190  0.6986  0.8295 -0.6008
 6823SOL     OW31927   1.018   1.579   4.335 -0.5756  0.3329  0.7489
 6823SOL    HW131928   0.926   1.598   4.316  0.0574  0.5764 -2.1348
 6823SOL    HW231929   1.008   1.544   4.423 -0.3105  1.6388  1.2864
 6824SOL     OW31930   1.025   0.103   5.548 -0.0773  0.0728 -0.3491
 6824SOL    HW131931   1.078   0.035   5.507  2.2312  2.7007 -1.6961
 6824SOL    HW231932   0.941   0.058   5.542 -0.1595  0.0068  1.2870
 6825SOL     OW31933   3.195   0.189   4.965  0.2492 -0.0593  0.3769
 6825SOL    HW131934   3.108   0.155   4.985 -0.2628  1.0631  0.0635
 6825SOL    HW231935   3.234   0.198   5.051 -0.2320 -0.5180  0.6387
 6826SOL     OW31936   0.620   0.750  15.984 -0.2260  0.0663 -0.0277
 6826SOL    HW131937   0.536   0.706  15.974  0.5632 -1.0499 -1.7441
 6826SOL    HW231938   0.645   0.744  15.892 -1.1590  1.3997 -0.3747
 6827SOL     OW31939   2.148   3.263   3.899  0.1332  0.9231  0.0078
 6827SOL    HW131940   2.089   3.318   3.951 -2.9577  1.0871 -3.6200
 6827SOL    HW231941   2.202   3.238   3.973 -0.7586  0.2445  0.4273
 6828SOL     OW31942   1.483   0.492  16.124  0.4236  0.0495  0.1729
 6828SOL    HW131943   1.464   0.581  16.152 -1.9692 -0.2667 -0.4537
 6828SOL    HW231944   1.455   0.499  16.033  0.2630  1.7869  0.3537
 6829SOL     OW31945   4.288   2.718   9.089  0.0837  0.1552  0.2277
 6829SOL    HW131946   4.362   2.738   9.032  1.0437 -1.2275  0.9757
 6829SOL    HW231947   4.254   2.805   9.110 -2.9260 -0.9788  0.0939
 6830SOL     OW31948   0.351   3.949   1.092  0.4728 -0.1272  0.1293
 6830SOL    HW131949   0.392   4.035   1.092  0.2963 -0.0424  0.1427
 6830SOL    HW231950   0.421   3.894   1.056 -0.5663 -0.1271 -1.8749
 6831SOL     OW31951   1.688   1.949   3.810 -0.3189 -0.2501 -0.6714
 6831SOL    HW131952   1.662   2.039   3.790 -1.9928 -0.5945 -0.0403
 6831SOL    HW231953   1.697   1.947   3.905  0.6049  1.1191 -0.7328
 6832SOL     OW31954   3.098   1.617   8.465  0.0133  0.0058 -0.5318
 6832SOL    HW131955   3.096   1.556   8.391 -1.4375 -1.4495  0.7092
 6832SOL    HW231956   3.098   1.696   8.411 -1.8207 -0.8745 -1.7962
 6833SOL     OW31957   0.001   3.791  10.297  0.4495 -0.3661 -0.5039
 6833SOL    HW131958   4.647   3.771  10.247 -0.2416 -1.9776  1.2387
 6833SOL    HW231959   4.692   3.780  10.385 -0.0076  1.6050 -0.4385
 6834SOL     OW31960   2.803   0.478   5.471  0.3293  0.5017  0.5406
 6834SOL    HW131961   2.858   0.400   5.470  1.3807  1.2314  1.5840
 6834SOL    HW231962   2.794   0.497   5.378  1.6866 -1.4234 -0.0021
 6835SOL     OW31963   3.120   3.849  15.739  0.4133  0.1060 -0.1011
 6835SOL    HW131964   3.207   3.871  15.705  1.3212  0.4762  2.4596
 6835SOL    HW231965   3.149   3.815  15.824  0.2883 -0.9540 -0.4794
 6836SOL     OW31966   2.998   4.046  15.935  1.0321 -0.1768  0.2795
 6836SOL    HW131967   3.055   3.986  15.886 -0.6078 -3.2120  2.1245
 6836SOL    HW231968   2.938   3.983  15.975  1.1186 -0.3072  0.2033
 6837SOL     OW31969   2.621   3.076  10.108  0.3567  0.2653 -0.4435
 6837SOL    HW131970   2.532   3.054  10.079  0.1570  0.6356 -0.1124
 6837SOL    HW231971   2.611   3.146  10.173  2.9839  0.5411 -0.3358
 6838SOL     OW31972   1.110   1.000   2.605  0.3830  0.1249  0.4511
 6838SOL    HW131973   1.136   0.976   2.517  0.5228  2.9728 -0.2534
 6838SOL    HW231974   1.061   1.078   2.579  1.6705  1.1133  1.0390
 6839SOL     OW31975   0.846   2.687   3.236 -0.0884 -0.0912 -0.3392
 6839SOL    HW131976   0.810   2.600   3.251 -1.5138 -0.1010 -3.8277
 6839SOL    HW231977   0.784   2.733   3.179 -0.4945  0.5378  0.6167
 6840SOL     OW31978   3.152   1.483   3.649  0.1352  0.2872 -0.4733
 6840SOL    HW131979   3.079   1.465   3.591  0.8912 -0.5583 -1.1677
 6840SOL    HW231980   3.144   1.422   3.722  3.0156 -1.2214 -1.3986
 6841SOL     OW31981   4.188   3.489   7.091 -0.1482  0.4284 -0.2557
 6841SOL    HW131982   4.111   3.547   7.087 -0.2546  0.4620  2.7336
 6841SOL    HW231983   4.235   3.528   7.017 -0.3404  0.4754 -0.3563
 6842SOL     OW31984   2.874   0.979   4.470 -0.1031  0.4534  0.0763
 6842SOL    HW131985   2.964   0.990   4.440 -0.1209  0.7723  0.1423
 6842SOL    HW231986   2.877   0.885   4.451  1.5960 -0.0228  2.6408
 6843SOL     OW31987   3.321   3.520   3.716  0.7813 -0.3587 -0.4510
 6843SOL    HW131988   3.334   3.571   3.796  0.1058 -1.6950  0.5247
 6843SOL    HW231989   3.227   3.518   3.730  0.8352 -0.5480 -0.1020
 6844SOL     OW31990   1.171   2.459   1.719 -0.4710  0.2078  0.0415
 6844SOL    HW131991   1.181   2.392   1.652  0.4413 -1.1042  1.4847
 6844SOL    HW231992   1.102   2.504   1.670  0.9055 -1.2802 -3.1869
 6845SOL     OW31993   4.697   0.869   2.431 -0.1605  0.2599  0.0553
 6845SOL    HW131994   4.701   0.794   2.491 -0.2568  1.8747  2.0591
 6845SOL    HW231995   4.709   0.808   2.358  2.5648 -0.7421  1.3288
 6846SOL     OW31996   3.599   1.081   3.595 -0.0080  0.2584  0.1234
 6846SOL    HW131997   3.537   1.009   3.583  1.6046 -1.0117 -0.5173
 6846SOL    HW231998   3.586   1.103   3.687  2.1972 -2.6014  1.1297
 6847SOL     OW31999   3.881   0.362   4.178 -0.0287 -0.7223  0.4300
 6847SOL    HW132000   3.933   0.410   4.114  0.2689 -0.6672  0.7154
 6847SOL    HW232001   3.886   0.273   4.142  0.6748 -0.4840 -0.0573
 6848SOL     OW32002   0.634   2.224  13.401 -0.0761 -0.3382 -0.4396
 6848SOL    HW132003   0.701   2.186  13.457 -0.3526  0.4047  0.3957
 6848SOL    HW232004   0.617   2.159  13.333 -0.3245 -0.6160 -0.1155
 6849SOL     OW32005   0.891   1.141   8.008  0.0079 -0.5626  0.2803
 6849SOL    HW132006   0.860   1.188   8.085  1.1361 -0.7577  0.8483
 6849SOL    HW232007   0.825   1.153   7.939 -0.1218 -1.3799  0.2560
 6850SOL     OW32008   0.456   0.067  15.347 -0.0664  0.0003 -0.0268
 6850SOL    HW132009   0.499   4.716  15.385 -0.8779  0.5679  2.0008
 6850SOL    HW232010   0.465   0.132  15.416  0.3675 -3.0276  2.7840
 6851SOL     OW32011   0.274   3.060  10.470 -0.5807 -0.7177 -0.5246
 6851SOL    HW132012   0.307   3.128  10.412 -2.8714  1.0991  0.3220
 6851SOL    HW232013   0.270   3.108  10.553 -0.7542 -0.6599 -0.5659
 6852SOL     OW32014   2.784   1.292   3.682  0.2144  0.1392 -0.0827
 6852SOL    HW132015   2.764   1.301   3.589  1.1206 -2.3347 -0.5277
 6852SOL    HW232016   2.782   1.386   3.700  3.2811  0.3076 -0.6825
 6853SOL     OW32017   3.877   1.383   4.418 -0.1589  0.4464 -0.7295
 6853SOL    HW132018   3.819   1.456   4.395 -1.1525  0.7801  2.8663
 6853SOL    HW232019   3.810   1.317   4.435  0.5969 -0.1811 -0.2405
 6854SOL     OW32020   1.001   3.184   2.954 -0.4396 -0.2713  0.0046
 6854SOL    HW132021   0.908   3.202   2.935  0.5550  2.2266 -2.5165
 6854SOL    HW232022   1.011   3.210   3.046 -0.5499  0.7905 -0.2845
 6855SOL     OW32023   4.285   0.321   7.358  0.4086 -0.0414 -0.1772
 6855SOL    HW132024   4.235   0.402   7.370 -0.6317 -0.8337  0.7529
 6855SOL    HW232025   4.230   0.282   7.290 -2.0918  0.9425  1.2869
 6856SOL     OW32026   3.755   0.147   4.424  0.0033 -0.4141 -0.0435
 6856SOL    HW132027   3.696   0.116   4.493  2.8100  0.2224  2.6001
 6856SOL    HW232028   3.702   0.180   4.351  1.0299  2.4062  0.5179
 6857SOL     OW32029   2.741   1.025  10.283 -0.4626 -0.2881  0.5426
 6857SOL    HW132030   2.776   1.014  10.194 -0.3235 -0.8788  0.6695
 6857SOL    HW232031   2.648   1.006  10.270 -0.4185  1.3947 -2.2043
 6858SOL     OW32032   1.157   1.810   2.912 -0.3437  0.4569 -0.3322
 6858SOL    HW132033   1.133   1.858   2.833 -0.8551 -0.2845 -0.6319
 6858SOL    HW232034   1.251   1.829   2.906 -0.3563  0.9371  0.9269
 6859SOL     OW32035   2.816   2.709   9.218  0.0037  0.6851  0.4196
 6859SOL    HW132036   2.839   2.721   9.126 -1.6657  1.0846  0.0463
 6859SOL    HW232037   2.727   2.744   9.220  0.5263  1.9592  1.1016
 6860SOL     OW32038   3.899   1.813  15.195 -0.4516  0.1430  0.4040
 6860SOL    HW132039   3.987   1.781  15.211 -0.7364 -1.1166 -0.5331
 6860SOL    HW232040   3.913   1.904  15.170 -1.3293  0.0423 -0.4850
 6861SOL     OW32041   3.014   2.918   4.413  0.4115  0.5074 -0.5892
 6861SOL    HW132042   2.970   2.833   4.409 -0.5528  0.9415  0.8487
 6861SOL    HW232043   3.102   2.896   4.383  0.4747  1.2933 -0.9706
 6862SOL     OW32044   4.131   0.524  11.842  0.2805 -0.7280 -0.3069
 6862SOL    HW132045   4.137   0.432  11.817 -0.0519 -0.5018 -1.2432
 6862SOL    HW232046   4.151   0.572  11.761 -0.3493  2.0507  1.1930
 6863SOL     OW32047   4.486   3.753   1.998  0.1555  0.7078 -0.2393
 6863SOL    HW132048   4.403   3.716   2.027  1.2745 -1.4055  0.3449
 6863SOL    HW232049   4.521   3.678   1.949 -1.4261 -1.8855  2.6022
 6864SOL     OW32050   2.727   3.965   2.517 -0.4145  0.0102 -0.3095
 6864SOL    HW132051   2.795   3.949   2.452  0.1558 -3.1898  1.0562
 6864SOL    HW232052   2.652   3.935   2.466 -1.6332 -2.0164  2.6394
 6865SOL     OW32053   3.253   4.114   2.250 -0.1791 -0.0496 -0.0532
 6865SOL    HW132054   3.347   4.129   2.248 -0.4887  1.6097 -1.6004
 6865SOL    HW232055   3.232   4.174   2.321 -1.1712  0.5448 -0.8519
 6866SOL     OW32056   3.899   4.474   2.137  0.1057  0.5756  0.3570
 6866SOL    HW132057   3.848   4.537   2.085 -0.3435 -0.0541  0.0237
 6866SOL    HW232058   3.988   4.503   2.118  0.4252  0.7904  2.2593
 6867SOL     OW32059   0.222   0.063   8.018  0.3418 -0.1820  0.7520
 6867SOL    HW132060   0.315   0.041   8.020  0.4011  0.1674  1.7204
 6867SOL    HW232061   0.192   4.713   8.068 -1.7742 -0.8149 -1.4840
 6868SOL     OW32062   1.337   3.085  11.454  0.0961 -0.2815  0.1109
 6868SOL    HW132063   1.402   3.025  11.492 -0.3922 -0.5619  0.5007
 6868SOL    HW232064   1.366   3.097  11.364 -1.6761  1.4961 -0.2235
 6869SOL     OW32065   4.236   2.437   6.491  0.4319  0.6239 -0.3451
 6869SOL    HW132066   4.207   2.525   6.516  0.3203 -0.3950  3.1468
 6869SOL    HW232067   4.153   2.396   6.466 -0.5259  1.4891  1.4773
 6870SOL     OW32068   2.709   2.611   5.622  0.3209 -0.1531 -0.2422
 6870SOL    HW132069   2.755   2.624   5.539 -1.5092  1.0265 -1.0539
 6870SOL    HW232070   2.664   2.530   5.598  1.0087 -0.7757  0.5691
 6871SOL     OW32071   1.292   2.778  10.108 -0.1620 -0.4225 -0.2159
 6871SOL    HW132072   1.314   2.690  10.078 -0.1665 -0.2149 -0.8310
 6871SOL    HW232073   1.205   2.788  10.069  0.7888  0.6330 -2.0787
 6872SOL     OW32074   0.077   1.454   3.152  0.0295  1.0522  0.6116
 6872SOL    HW132075   0.149   1.404   3.113 -0.0870 -0.4029  2.2453
 6872SOL    HW232076   0.028   1.482   3.075 -1.2955 -0.0163  1.0689
 6873SOL     OW32077   3.831   2.099  12.087 -0.1977  0.2345  0.5605
 6873SOL    HW132078   3.822   2.123  12.179 -1.0567  0.5727  0.3849
 6873SOL    HW232079   3.782   2.164  12.037 -0.1331  0.5910  0.9630
 6874SOL     OW32080   1.820   1.589   9.999 -0.3006 -0.1342  0.0571
 6874SOL    HW132081   1.771   1.631   9.928  0.9325  0.5109 -0.4113
 6874SOL    HW232082   1.797   1.630  10.082  0.0369  0.5023 -0.1690
 6875SOL     OW32083   1.532   1.279   2.325  0.1885  0.1843  0.1089
 6875SOL    HW132084   1.542   1.352   2.264 -2.8023  0.2206 -0.3634
 6875SOL    HW232085   1.437   1.268   2.315  0.4054 -1.0086 -0.7046
 6876SOL     OW32086   0.025   3.280   1.793 -0.3909 -0.1504 -0.3066
 6876SOL    HW132087   4.722   3.257   1.704  1.1381 -0.3018 -0.7538
 6876SOL    HW232088   0.118   3.296   1.777  0.1073 -0.7223  2.0822
 6877SOL     OW32089   3.213   3.966   5.150 -0.0355 -0.0228 -0.8784
 6877SOL    HW132090   3.304   3.979   5.177 -0.2689 -0.7748  0.2480
 6877SOL    HW232091   3.154   3.983   5.223  0.1947 -3.3664  0.0840
 6878SOL     OW32092   4.191   1.284   0.116 -0.2413 -0.4856 -0.2804
 6878SOL    HW132093   4.197   1.241   0.201 -3.5128 -0.9043 -0.2935
 6878SOL    HW232094   4.219   1.374   0.136  0.0809 -0.3236 -1.5085
 6879SOL     OW32095   0.738   1.645  13.492 -0.3905 -0.2273 -0.3773
 6879SOL    HW132096   0.754   1.695  13.411  1.7458 -0.7427 -0.2612
 6879SOL    HW232097   0.796   1.574  13.466  3.3375  2.4374  0.7570
 6880SOL     OW32098   0.162   1.691   7.835  0.1411  0.1509 -0.0932
 6880SOL    HW132099   0.170   1.670   7.742 -2.6765  1.0579 -0.5324
 6880SOL    HW232100   0.152   1.607   7.879  0.2576  0.0578 -0.2451
 6881SOL     OW32101   4.536   1.558  11.843  0.0372  0.0401 -0.5889
 6881SOL    HW132102   4.472   1.600  11.786  1.1884 -1.4711 -2.9601
 6881SOL    HW232103   4.590   1.508  11.782  0.5498 -0.5451  0.3516
 6882SOL     OW32104   3.565   3.751  10.376  0.8384  0.1664  0.8830
 6882SOL    HW132105   3.518   3.831  10.401  0.5443  0.1541  0.3808
 6882SOL    HW232106   3.503   3.679  10.385  0.7573  0.2218  0.7821
 6883SOL     OW32107   4.152   2.671  10.270  1.0864  0.2824 -0.3343
 6883SOL    HW132108   4.126   2.760  10.248 -2.5217 -0.4888  0.8149
 6883SOL    HW232109   4.216   2.693  10.337  1.6918 -2.1339 -0.1224
 6884SOL     OW32110   3.067   3.725   2.262 -0.3940 -0.1265 -0.7682
 6884SOL    HW132111   3.084   3.634   2.288  1.1833  0.1610 -0.7910
 6884SOL    HW232112   3.034   3.721   2.172 -1.1206 -0.1250 -0.5011
 6885SOL     OW32113   3.036   4.205   2.087 -0.1344 -0.2659  0.5898
 6885SOL    HW132114   3.018   4.294   2.119  0.9928  0.3299 -0.3775
 6885SOL    HW232115   3.105   4.177   2.148  0.4430 -1.1135 -0.4583
 6886SOL     OW32116   2.514   0.872   5.795  0.4392 -0.1332 -0.9175
 6886SOL    HW132117   2.494   0.927   5.719 -0.3370 -0.5311 -0.9971
 6886SOL    HW232118   2.425   0.862   5.828  1.2667 -0.1325  1.2687
 6887SOL     OW32119   3.373   2.228  13.288  0.1856  0.0009 -0.4151
 6887SOL    HW132120   3.283   2.224  13.257 -0.3244 -2.2038  1.2994
 6887SOL    HW232121   3.386   2.323  13.289 -1.0698  0.1678 -1.1205
 6888SOL     OW32122   3.736   2.673   8.997  0.0056 -0.4245  0.0561
 6888SOL    HW132123   3.795   2.732   9.043  0.3830 -0.9865  0.2921
 6888SOL    HW232124   3.655   2.723   8.992  0.2637 -0.0281 -0.1430
 6889SOL     OW32125   2.053   1.668   8.207 -0.3252  0.4962 -0.3767
 6889SOL    HW132126   2.080   1.666   8.299  0.4515 -2.4929 -0.6696
 6889SOL    HW232127   2.137   1.699   8.175 -0.6492  0.4558 -1.2540
 6890SOL     OW32128   3.268   1.566  13.264 -0.3460  0.2570  0.3906
 6890SOL    HW132129   3.232   1.537  13.347  0.3066  0.4307  0.7387
 6890SOL    HW232130   3.324   1.496  13.232  1.3471  1.9314 -0.3686
 6891SOL     OW32131   4.157   3.105   3.881  0.6405 -0.0117 -0.6522
 6891SOL    HW132132   4.117   3.056   3.952 -1.3190  0.3509 -1.5069
 6891SOL    HW232133   4.182   3.028   3.830  2.7722  0.5002 -0.3797
 6892SOL     OW32134   1.576   0.189   4.212  0.6915  0.6618 -0.3025
 6892SOL    HW132135   1.671   0.193   4.208  0.7605  0.1016  0.5730
 6892SOL    HW232136   1.555   0.239   4.134  0.4379  0.4926 -0.3438
 6893SOL     OW32137   4.413   0.773   2.334 -0.0680 -0.1155  0.4190
 6893SOL    HW132138   4.325   0.797   2.303  0.0010  0.4723  0.6760
 6893SOL    HW232139   4.462   0.850   2.364 -1.0064  0.4440  0.5244
 6894SOL     OW32140   0.649   3.383  13.169  0.3173 -0.1020 -0.3103
 6894SOL    HW132141   0.593   3.407  13.095  0.4977  1.3026  0.0213
 6894SOL    HW232142   0.734   3.378  13.124  0.7675  0.5627  0.4772
 6895SOL     OW32143   0.027   4.370   1.738 -0.1193 -0.1095 -0.3674
 6895SOL    HW132144   4.721   4.416   1.660  1.3687  0.5566 -0.5693
 6895SOL    HW232145   0.111   4.348   1.699  0.3658 -0.2834  0.7687
 6896SOL     OW32146   0.938   0.730  11.053 -0.8263 -0.1640 -0.1258
 6896SOL    HW132147   0.890   0.652  11.025 -0.0748 -1.5494  2.4428
 6896SOL    HW232148   0.932   0.781  10.972 -0.5157 -0.9913 -0.6697
 6897SOL     OW32149   0.714   1.071  14.562  0.4508  0.4815 -0.1911
 6897SOL    HW132150   0.657   1.100  14.633  0.8081  0.1200  0.2439
 6897SOL    HW232151   0.722   1.155  14.517  1.4940  1.5562  2.0173
 6898SOL     OW32152   1.554   3.962   7.884  0.0014  0.4301 -0.2758
 6898SOL    HW132153   1.599   3.886   7.847 -0.6958 -0.7304  1.2356
 6898SOL    HW232154   1.506   3.925   7.958  0.5811 -0.5829 -0.4043
 6899SOL     OW32155   4.711   4.623   7.209 -0.1447  0.0023 -0.2410
 6899SOL    HW132156   4.700   4.581   7.124 -2.1926 -1.9206  0.9803
 6899SOL    HW232157   0.070   4.596   7.243  0.1397  1.5027  0.2430
 6900SOL     OW32158   2.739   0.141   5.731 -0.2789  0.3894  0.1878
 6900SOL    HW132159   2.783   0.103   5.808  0.3132  0.2609 -0.2118
 6900SOL    HW232160   2.691   0.064   5.701  1.4849 -0.7963  0.4079
 6901SOL     OW32161   0.667   4.093   2.596 -0.1277 -0.7487  0.0357
 6901SOL    HW132162   0.675   3.997   2.600 -0.9421 -0.7780  0.7767
 6901SOL    HW232163   0.581   4.116   2.631  0.3133 -0.6903  1.0981
 6902SOL     OW32164   3.015   0.743   4.163 -0.2220  0.0145  0.3227
 6902SOL    HW132165   3.101   0.756   4.123 -0.3516  0.7083  0.2708
 6902SOL    HW232166   3.008   0.817   4.223  2.2360  1.7009 -1.4669
 6903SOL     OW32167   1.417   0.414   3.737  0.1498  0.1220  0.5040
 6903SOL    HW132168   1.379   0.333   3.769  0.9584 -0.6949 -0.5996
 6903SOL    HW232169   1.356   0.431   3.665  0.9193  0.5804 -0.0353
 6904SOL     OW32170   4.025   0.530   1.966 -0.2333  0.3178  0.2139
 6904SOL    HW132171   4.114   0.558   1.988 -0.6658  0.8174  1.3800
 6904SOL    HW232172   4.038   0.446   1.923 -0.3772  0.1611  0.4726
 6905SOL     OW32173   3.297   3.264   9.781  0.1656  0.4859 -0.2788
 6905SOL    HW132174   3.313   3.278   9.874  0.2329  0.1227 -0.2353
 6905SOL    HW232175   3.348   3.337   9.747  0.8911 -0.1883 -0.6451
 6906SOL     OW32176   0.804   3.406   3.200 -0.0026  0.5831  0.0444
 6906SOL    HW132177   0.869   3.336   3.212  0.0132  0.8375  1.4821
 6906SOL    HW232178   0.739   3.347   3.239 -0.2956  2.2597  2.0855
 6907SOL     OW32179   2.188   0.965   2.587 -0.0413  0.0074  0.0486
 6907SOL    HW132180   2.094   0.968   2.604  0.3044 -1.2254  2.2139
 6907SOL    HW232181   2.222   0.936   2.672  1.3187 -0.9731 -0.8220
 6908SOL     OW32182   1.002   0.918   1.479 -0.2616 -0.0426  0.4194
 6908SOL    HW132183   0.968   0.897   1.566 -1.0422 -0.2797  0.0564
 6908SOL    HW232184   1.059   0.993   1.496  0.4285 -0.2052 -1.1902
 6909SOL     OW32185   4.538   0.690   2.067  0.0201 -0.0296  0.0253
 6909SOL    HW132186   4.576   0.602   2.067  1.9489  0.8030  1.3296
 6909SOL    HW232187   4.467   0.681   2.131  0.0192 -1.3489 -0.1657
 6910SOL     OW32188   1.817   3.150   7.073  0.0838  0.2660 -0.2191
 6910SOL    HW132189   1.822   3.063   7.034  1.4466  0.0409  0.4451
 6910SOL    HW232190   1.900   3.139   7.119  1.3324  1.5221 -2.1435
 6911SOL     OW32191   1.817   1.607   8.975  0.3415 -0.1872 -0.0219
 6911SOL    HW132192   1.835   1.687   8.925 -0.0596  0.2251  0.4965
 6911SOL    HW232193   1.744   1.572   8.925  2.3179 -3.6452 -0.5036
 6912SOL     OW32194   1.189   1.715  16.903  0.1098 -1.2216  0.3016
 6912SOL    HW132195   1.123   1.773  16.940 -0.3875 -1.2080 -0.6107
 6912SOL    HW232196   1.180   1.735  16.810  0.9260  0.4654  0.5885
 6913SOL     OW32197   1.915   3.489  15.186  0.4645  0.0858 -0.7396
 6913SOL    HW132198   1.972   3.535  15.125  1.7238  1.7142  1.6244
 6913SOL    HW232199   1.833   3.491  15.136  0.7646  1.2331 -1.1835
 6914SOL     OW32200   4.709   0.484   2.009 -0.5059 -0.1521 -0.0419
 6914SOL    HW132201   4.715   0.525   1.923  0.6479 -1.3923 -0.5649
 6914SOL    HW232202   0.041   0.410   1.991 -0.6577 -0.0471 -0.9658
 6915SOL     OW32203   0.470   1.015  16.717 -0.3472 -0.0362 -0.6637
 6915SOL    HW132204   0.525   0.965  16.656 -0.6549 -2.2980  0.9113
 6915SOL    HW232205   0.504   1.104  16.710 -0.9327  0.3247  1.2818
 6916SOL     OW32206   2.034   0.804   6.133 -0.1939  0.0482 -0.4971
 6916SOL    HW132207   2.099   0.849   6.186  1.1107 -1.8347 -0.4988
 6916SOL    HW232208   1.978   0.779   6.207 -1.0636  0.1100 -1.1265
 6917SOL     OW32209   2.049   3.921   4.149  0.0382 -0.6872 -0.0563
 6917SOL    HW132210   1.976   3.879   4.103 -0.7584  1.6817 -0.9479
 6917SOL    HW232211   2.100   3.955   4.076  0.9530 -1.4533  0.2255
 6918SOL     OW32212   4.529   2.372   8.505 -0.0713 -0.0509 -0.0034
 6918SOL    HW132213   4.463   2.417   8.452 -1.5384 -1.2536  0.8229
 6918SOL    HW232214   4.512   2.415   8.588  0.6492 -0.7605  0.5118
 6919SOL     OW32215   2.143   0.485   4.953  0.1238 -0.0617  0.3476
 6919SOL    HW132216   2.217   0.502   4.895 -0.7014 -1.3376 -1.0712
 6919SOL    HW232217   2.104   0.573   4.958 -1.0964 -0.6399  0.9969
 6920SOL     OW32218   0.776   2.505   6.727 -0.8793 -1.0392  0.1510
 6920SOL    HW132219   0.851   2.446   6.719 -0.6751 -0.7153 -0.3410
 6920SOL    HW232220   0.702   2.445   6.718 -2.5617  1.3851 -2.1825
 6921SOL     OW32221   3.012   1.717   7.265 -0.3790 -0.6087  0.1627
 6921SOL    HW132222   3.092   1.762   7.238 -1.7979  0.0213 -2.8925
 6921SOL    HW232223   3.023   1.639   7.210 -0.1246 -0.6741  0.3044
 6922SOL     OW32224   1.393   4.651   2.472 -0.2222  0.1377 -0.2316
 6922SOL    HW132225   1.465   4.655   2.535 -1.6785 -0.7451  1.4926
 6922SOL    HW232226   1.380   0.020   2.462 -0.8841  0.1238  0.4644
 6923SOL     OW32227   4.006   4.632   5.511  0.4172  0.1675  0.3286
 6923SOL    HW132228   4.049   4.717   5.522 -1.2477  1.3194 -2.2174
 6923SOL    HW232229   4.028   4.628   5.418  0.0723  1.0081  0.2087
 6924SOL     OW32230   4.049   1.496   4.859  0.1920 -0.1003  0.3772
 6924SOL    HW132231   4.053   1.401   4.858  0.7160 -0.0324 -3.3642
 6924SOL    HW232232   4.110   1.517   4.788 -2.2420  0.3271 -1.5867
 6925SOL     OW32233   0.540   2.089   3.895  0.3682  0.0268  0.5171
 6925SOL    HW132234   0.634   2.103   3.903 -0.0031  3.1499 -0.3056
 6925SOL    HW232235   0.528   2.137   3.813  0.9990 -0.7432 -0.0127
 6926SOL     OW32236   3.505   1.654  17.222 -0.3200 -0.2783 -0.4788
 6926SOL    HW132237   3.459   1.629  17.302  1.1350  1.1260  0.8186
 6926SOL    HW232238   3.534   1.566  17.196  0.2224 -0.8692  2.0804
 6927SOL     OW32239   2.650   3.702   5.217 -0.9323  0.2885 -0.4388
 6927SOL    HW132240   2.680   3.625   5.267 -1.1818 -0.6028 -1.6643
 6927SOL    HW232241   2.638   3.758   5.294  0.9007 -2.3074  1.7583
 6928SOL     OW32242   2.389   2.060   0.535  0.0773  0.1127 -0.2505
 6928SOL    HW132243   2.436   1.976   0.534 -0.7287 -0.3378  0.3681
 6928SOL    HW232244   2.379   2.079   0.628 -1.0780  0.5183 -0.4573
 6929SOL     OW32245   4.090   4.210   2.933  0.0156  0.6062  0.5635
 6929SOL    HW132246   4.079   4.138   2.871  0.7043  0.9580  0.0366
 6929SOL    HW232247   4.000   4.228   2.959 -0.8264 -2.4929 -0.2614
 6930SOL     OW32248   3.413   1.875   7.729 -0.1948 -0.0991 -0.2516
 6930SOL    HW132249   3.395   1.905   7.640  1.3297  0.2746 -0.4368
 6930SOL    HW232250   3.487   1.932   7.753  0.3630 -0.3660 -1.3534
 6931SOL     OW32251   2.868   2.081  11.885 -0.0948 -0.3600  0.0750
 6931SOL    HW132252   2.774   2.096  11.890 -0.0549  0.4707 -1.4219
 6931SOL    HW232253   2.887   2.041  11.800  0.5548  0.3745 -0.1244
 6932SOL     OW32254   0.251   1.274   9.067  0.3030  0.2134  0.0490
 6932SOL    HW132255   0.275   1.187   9.035  0.3374  0.1490  0.2526
 6932SOL    HW232256   0.166   1.261   9.110  0.3625 -0.5122 -0.0489
 6933SOL     OW32257   2.512   2.242   1.897 -0.1775  0.1822 -0.0306
 6933SOL    HW132258   2.522   2.156   1.857  0.6849 -1.0379  2.7386
 6933SOL    HW232259   2.591   2.290   1.872  0.0571  0.0773  0.4966
 6934SOL     OW32260   1.917   1.079   7.439  0.0137  0.2270 -0.4723
 6934SOL    HW132261   1.925   1.017   7.367 -1.4714  1.7162 -1.9311
 6934SOL    HW232262   1.910   1.024   7.517 -1.4825 -0.6868 -1.2673
 6935SOL     OW32263   0.505   4.673   8.045  0.0176 -0.0531  0.4725
 6935SOL    HW132264   0.524   4.580   8.058 -1.9717 -0.7299 -1.4544
 6935SOL    HW232265   0.560   4.689   7.968  1.2481 -1.1290  1.1369
 6936SOL     OW32266   3.529   4.221   2.009 -0.5415  0.3237  0.6901
 6936SOL    HW132267   3.472   4.166   1.955 -0.5951  1.2372 -0.1815
 6936SOL    HW232268   3.507   4.309   1.981 -0.7065  0.0860  0.0632
 6937SOL     OW32269   0.626   0.119   9.910  0.6967 -1.1512  0.3492
 6937SOL    HW132270   0.701   0.110   9.969 -0.6277 -1.5843  1.9651
 6937SOL    HW232271   0.650   0.189   9.850 -1.6354 -1.2878 -0.7391
 6938SOL     OW32272   2.871   0.430   4.509  0.2790 -0.2085  1.0152
 6938SOL    HW132273   2.944   0.441   4.448 -1.2184  0.7953 -0.5755
 6938SOL    HW232274   2.848   0.340   4.486 -2.4310  0.6772  0.2619
 6939SOL     OW32275   4.614   1.146   6.482 -0.3507 -0.1083 -0.7916
 6939SOL    HW132276   4.665   1.066   6.471  0.4206  0.3419 -0.4558
 6939SOL    HW232277   4.547   1.126   6.548 -0.2489 -3.0517 -1.5524
 6940SOL     OW32278   0.886   3.234  13.393  0.1845  0.2247 -0.1357
 6940SOL    HW132279   0.954   3.185  13.439  0.4102  0.7074  0.0494
 6940SOL    HW232280   0.902   3.219  13.300 -0.4245 -2.1382  0.1562
 6941SOL     OW32281   4.528   1.187   6.052 -0.5549  0.2683  0.6374
 6941SOL    HW132282   4.520   1.210   6.145 -0.9926  1.1528  0.3801
 6941SOL    HW232283   4.508   1.270   6.008  3.2306  1.0141  0.3050
 6942SOL     OW32284   4.429   1.036  15.154  0.3031 -0.3266 -0.5713
 6942SOL    HW132285   4.374   0.959  15.169  0.6888 -0.5753 -0.4451
 6942SOL    HW232286   4.505   0.991  15.117  0.1357 -1.0389 -0.0547
 6943SOL     OW32287   3.284   4.367   0.154  0.3922 -0.5213 -0.1449
 6943SOL    HW132288   3.368   4.372   0.199  0.5861  0.4968 -0.6182
 6943SOL    HW232289   3.276   4.457   0.122  0.6376 -0.2166  0.6477
 6944SOL     OW32290   0.658   4.414   1.696  0.6929  0.0533  0.8983
 6944SOL    HW132291   0.636   4.502   1.728 -0.4086 -0.0490  0.4110
 6944SOL    HW232292   0.677   4.355   1.769  1.6796  0.0248  0.6198
 6945SOL     OW32293   2.970   0.917   8.632  0.0741  0.2863 -0.2786
 6945SOL    HW132294   2.910   0.911   8.706  2.0154  0.9519  1.3776
 6945SOL    HW232295   2.941   0.993   8.582  0.5496  0.0384 -0.9291
 6946SOL     OW32296   3.272   2.632   3.450  0.4752  0.3092 -0.6265
 6946SOL    HW132297   3.199   2.684   3.415  0.7042  0.2630 -1.1676
 6946SOL    HW232298   3.225   2.549   3.464 -0.6965  1.1010  0.1151
 6947SOL     OW32299   2.541   2.017   1.756  0.2073 -0.5085 -0.2907
 6947SOL    HW132300   2.536   1.939   1.700 -0.0054  1.2493 -2.7225
 6947SOL    HW232301   2.588   1.985   1.833  1.4350 -3.8989 -2.4009
 6948SOL     OW32302   4.716   3.514   8.132  0.8497 -0.5496 -0.8261
 6948SOL    HW132303   0.074   3.557   8.112  0.8986 -0.2799 -0.0472
 6948SOL    HW232304   4.698   3.481   8.044 -1.1130 -1.5333 -0.0381
 6949SOL     OW32305   2.337   0.227   6.232 -0.2971  0.5847  0.2148
 6949SOL    HW132306   2.286   0.193   6.306 -0.4875  0.9914  0.2709
 6949SOL    HW232307   2.418   0.178   6.249  0.0206  1.1360  0.2696
 6950SOL     OW32308   2.547   4.667   1.968  0.0567  0.1612 -0.0484
 6950SOL    HW132309   2.552   4.597   1.903  0.7833  1.4897 -1.4191
 6950SOL    HW232310   2.531   0.011   1.904 -0.7573 -2.0579 -2.2362
 6951SOL     OW32311   4.659   2.429   6.219  0.4521 -0.2727 -0.1447
 6951SOL    HW132312   4.649   2.392   6.132  0.9422  1.7200 -1.0573
 6951SOL    HW232313   4.578   2.478   6.231  0.6998  0.2005 -0.4131
 6952SOL     OW32314   2.748   3.717   8.481  0.5767  0.1712 -0.1231
 6952SOL    HW132315   2.658   3.688   8.498  1.0771 -2.0404 -1.3809
 6952SOL    HW232316   2.717   3.789   8.426  0.5219 -0.7800 -1.3194
 6953SOL     OW32317   0.113   2.063   3.034  0.3653  0.4654 -0.0689
 6953SOL    HW132318   0.020   2.054   3.055  0.1265  2.3046 -0.3939
 6953SOL    HW232319   0.110   2.017   2.951 -0.0025  1.3386 -0.5392
 6954SOL     OW32320   4.681   2.328   8.765  0.5388 -0.2120  0.3858
 6954SOL    HW132321   4.611   2.272   8.797  2.1896 -1.9156  1.0256
 6954SOL    HW232322   4.717   2.274   8.694  0.9577 -2.8506  2.6145
 6955SOL     OW32323   1.259   2.057   9.698  0.1994  0.8443  0.1609
 6955SOL    HW132324   1.334   2.019   9.743  1.1822  0.3172 -1.9550
 6955SOL    HW232325   1.293   2.134   9.653 -0.7249  1.8443  1.1572
 6956SOL     OW32326   0.248   4.140   7.613 -0.0830  0.0251  0.2735
 6956SOL    HW132327   0.324   4.187   7.645  0.9344 -0.0852 -2.0359
 6956SOL    HW232328   0.190   4.214   7.595  0.8332  0.6393 -0.0972
 6957SOL     OW32329   1.467   2.709   3.243  0.1143  0.7920  0.2307
 6957SOL    HW132330   1.444   2.657   3.166  2.0867 -0.6448  0.6194
 6957SOL    HW232331   1.453   2.797   3.207  0.4917 -0.0139 -1.8813
 6958SOL     OW32332   0.408   3.132   1.017  0.6302 -0.0696  0.0578
 6958SOL    HW132333   0.315   3.130   0.994  0.4609 -0.9259  0.8406
 6958SOL    HW232334   0.413   3.189   1.094  0.9931  0.6873 -0.5136
 6959SOL     OW32335   2.416   3.932   5.573  0.0285  0.1098 -0.2563
 6959SOL    HW132336   2.408   4.025   5.552 -0.2387 -0.0555 -0.8679
 6959SOL    HW232337   2.474   3.898   5.505 -0.5459 -1.9149  0.2631
 6960SOL     OW32338   2.321   0.060   7.979 -0.0986  0.0128  0.2121
 6960SOL    HW132339   2.337   0.093   8.067 -1.5858 -0.3531  0.6151
 6960SOL    HW232340   2.286   0.138   7.935  3.6427  0.9261 -1.1411
 6961SOL     OW32341   4.664   3.118   2.365 -0.0572 -0.3386  0.7141
 6961SOL    HW132342   4.725   3.178   2.322  0.3183 -0.2873  1.3154
 6961SOL    HW232343   4.723   3.062   2.416  0.1829 -0.8272 -0.1095
 6962SOL     OW32344   3.379   1.051   3.283 -0.0301 -1.0483  0.1832
 6962SOL    HW132345   3.313   1.030   3.217 -0.4419 -3.5114  1.3615
 6962SOL    HW232346   3.374   0.981   3.349 -3.0504  0.0156  1.0624
 6963SOL     OW32347   4.507   0.599  10.841  0.3528 -0.2261 -0.4743
 6963SOL    HW132348   4.562   0.521  10.851  3.6741  2.1236 -0.5569
 6963SOL    HW232349   4.434   0.571  10.787 -0.9270  0.4037  0.9363
 6964SOL     OW32350   3.794   1.606   8.998  0.1727 -0.0326 -0.0873
 6964SOL    HW132351   3.721   1.545   8.986 -0.8222  1.0891  0.3458
 6964SOL    HW232352   3.794   1.645   8.911  0.5510 -0.9784 -0.5127
 6965SOL     OW32353   2.754   2.896   6.715 -0.1150  0.3205 -0.9050
 6965SOL    HW132354   2.798   2.975   6.745 -0.9737 -0.6156  2.7806
 6965SOL    HW232355   2.829   2.851   6.674  0.5521  0.4661  0.1707
 6966SOL     OW32356   4.004   1.235  15.810 -0.4718  0.3547  0.0983
 6966SOL    HW132357   4.086   1.282  15.793  1.0458 -2.6769 -0.9378
 6966SOL    HW232358   3.945   1.295  15.765 -0.5433 -0.3856 -0.8057
 6967SOL     OW32359   1.449   0.818   5.879  0.2132  0.0601  1.2431
 6967SOL    HW132360   1.467   0.864   5.797 -0.3244 -0.9613  0.5458
 6967SOL    HW232361   1.484   0.731   5.860  0.1764  0.3951 -0.3394
 6968SOL     OW32362   3.581   3.907   4.223 -0.3360 -0.0202  0.3366
 6968SOL    HW132363   3.497   3.867   4.246 -0.1784 -0.8225 -0.4705
 6968SOL    HW232364   3.614   3.910   4.313 -1.2736  1.1049  0.6457
 6969SOL     OW32365   1.694   1.260   8.148 -0.0809  0.1431  0.1883
 6969SOL    HW132366   1.736   1.238   8.232  0.6030  4.9137  1.0734
 6969SOL    HW232367   1.765   1.295   8.095 -1.2186  1.2786 -0.5745
 6970SOL     OW32368   0.598   2.526  16.308 -0.1097 -0.2530  0.2331
 6970SOL    HW132369   0.623   2.445  16.263  0.9729  1.1861 -1.7758
 6970SOL    HW232370   0.665   2.527  16.377  1.7890  0.1892 -1.5920
 6971SOL     OW32371   1.678   1.611   4.642  0.6780 -0.0691  0.4239
 6971SOL    HW132372   1.608   1.675   4.629 -0.5640 -2.0528 -2.8523
 6971SOL    HW232373   1.626   1.540   4.604  0.9883 -1.5192  2.7372
 6972SOL     OW32374   3.105   1.928   2.729  0.1748  0.2128  1.0255
 6972SOL    HW132375   3.011   1.940   2.712  0.7496  2.2753 -0.7034
 6972SOL    HW232376   3.144   1.978   2.658 -0.4377  0.4457  0.8527
 6973SOL     OW32377   1.882   3.281   5.037  0.0695 -0.1296 -0.5938
 6973SOL    HW132378   1.867   3.347   4.969 -0.4577 -0.1201 -0.4733
 6973SOL    HW232379   1.924   3.218   4.978 -2.7191 -1.3364 -1.2911
 6974SOL     OW32380   4.696   2.387   5.580  0.4204  0.4136  0.5129
 6974SOL    HW132381   0.044   2.366   5.522 -0.8140 -1.8568 -0.2309
 6974SOL    HW232382   4.700   2.303   5.626  1.9491 -0.6334 -1.5460
 6975SOL     OW32383   2.687   1.464   4.226  0.4224  0.1789  0.0961
 6975SOL    HW132384   2.725   1.480   4.140 -0.7641  0.8735 -0.3097
 6975SOL    HW232385   2.644   1.379   4.219 -0.5345  0.5307  1.6123
 6976SOL     OW32386   0.014   3.125   4.829 -0.1444  0.5503 -0.4668
 6976SOL    HW132387   4.719   3.052   4.887 -1.2104 -0.7695 -2.4708
 6976SOL    HW232388   0.075   3.175   4.882  1.7610 -2.1321 -0.1450
 6977SOL     OW32389   1.160   1.198   6.969 -0.8231 -0.2882 -0.3227
 6977SOL    HW132390   1.071   1.170   6.990 -0.0826 -0.1896  2.8960
 6977SOL    HW232391   1.210   1.179   7.048  2.5292  1.9269 -1.8989
 6978SOL     OW32392   2.545   1.999   4.639 -0.2295 -1.1434  0.4862
 6978SOL    HW132393   2.536   1.911   4.675 -0.9633 -2.6051 -3.2662
 6978SOL    HW232394   2.523   1.996   4.546  1.8064 -0.9077 -0.0112
 6979SOL     OW32395   0.226   2.591   6.463  0.2801 -0.4606  0.4984
 6979SOL    HW132396   0.303   2.541   6.435  1.4574  2.4332 -1.4079
 6979SOL    HW232397   0.171   2.522   6.500 -1.8828  1.2704  0.5515
 6980SOL     OW32398   2.301   3.570   1.779  0.0534  0.4742  0.0202
 6980SOL    HW132399   2.310   3.508   1.852  0.3823  1.5161  0.8656
 6980SOL    HW232400   2.207   3.555   1.770 -0.0976  0.3572  1.7495
 6981SOL     OW32401   0.930   2.346   2.617  0.3107  0.2560 -0.2118
 6981SOL    HW132402   0.971   2.262   2.634  0.2575  0.4220  0.7644
 6981SOL    HW232403   0.977   2.395   2.685 -0.5683  1.1486 -0.2329
 6982SOL     OW32404   3.225   1.474   6.512  0.5011 -0.0235 -0.3484
 6982SOL    HW132405   3.236   1.472   6.417 -0.3721  1.8583 -0.4768
 6982SOL    HW232406   3.291   1.416   6.550 -0.0194  0.2762  1.0052
 6983SOL     OW32407   2.437   2.246   6.322 -0.2615  0.4454 -0.3693
 6983SOL    HW132408   2.454   2.152   6.322 -1.1820  0.2784 -1.8655
 6983SOL    HW232409   2.448   2.262   6.228 -0.3348 -1.0720 -0.6404
 6984SOL     OW32410   1.837   4.570   9.443  0.0150  0.1971  0.0393
 6984SOL    HW132411   1.745   4.544   9.441  0.0269  0.2126 -1.0107
 6984SOL    HW232412   1.860   4.529   9.526 -1.6980 -0.0101  0.4136
 6985SOL     OW32413   0.563   4.143   3.428  0.5407  0.6256 -0.5761
 6985SOL    HW132414   0.596   4.156   3.517 -1.0317  0.4016  0.0243
 6985SOL    HW232415   0.478   4.186   3.437  0.9082  0.8109  2.0199
 6986SOL     OW32416   0.334   2.301  17.642  0.2482 -0.0117  0.2979
 6986SOL    HW132417   0.263   2.342  17.593  0.3302 -1.2394 -0.8490
 6986SOL    HW232418   0.290   2.219  17.665 -2.2628  0.3693 -3.1852
 6987SOL     OW32419   2.655   3.775   4.307 -0.0270  0.0700  0.2215
 6987SOL    HW132420   2.595   3.766   4.233 -0.4507  2.3283  0.3042
 6987SOL    HW232421   2.652   3.691   4.354 -2.2719  0.3344  0.5225
 6988SOL     OW32422   1.425   2.300   5.192 -0.2391 -0.2124 -0.4550
 6988SOL    HW132423   1.429   2.395   5.190  0.7221 -0.2805 -1.5231
 6988SOL    HW232424   1.444   2.284   5.099  1.2868 -0.9315 -0.0371
 6989SOL     OW32425   2.647   3.523   2.317  0.2625 -0.0742  0.4933
 6989SOL    HW132426   2.708   3.475   2.374  1.4426 -1.1284 -1.6363
 6989SOL    HW232427   2.589   3.452   2.291  0.8734  0.3212 -1.9804
 6990SOL     OW32428   2.426   4.657   4.793 -0.1198  0.0275  0.4595
 6990SOL    HW132429   2.505   4.655   4.846  2.2301  1.0403 -2.9861
 6990SOL    HW232430   2.383   4.595   4.851  1.2737 -1.1012  0.2801
 6991SOL     OW32431   2.175   3.646   6.157  0.1633  0.4510 -0.0048
 6991SOL    HW132432   2.245   3.581   6.162  0.0046  0.2687 -0.1710
 6991SOL    HW232433   2.231   3.705   6.106 -0.8732  0.3735 -1.2356
 6992SOL     OW32434   3.914   1.107   2.454 -0.2509 -0.8918 -0.3657
 6992SOL    HW132435   3.941   1.157   2.531 -1.3211 -1.8296  0.6102
 6992SOL    HW232436   3.878   1.169   2.390 -1.8419 -0.5667  0.8566
 6993SOL     OW32437   0.918   0.326   3.028 -0.0566 -0.2308  0.0114
 6993SOL    HW132438   0.980   0.283   2.969 -3.0337 -2.6147 -1.3895
 6993SOL    HW232439   0.839   0.314   2.976  1.2281  0.4005 -2.1169
 6994SOL     OW32440   2.085   1.665   5.158  0.2232 -0.0479  0.1700
 6994SOL    HW132441   2.097   1.677   5.253 -0.8254  0.0578  0.2900
 6994SOL    HW232442   2.171   1.629   5.136  0.1475  0.0618 -0.2855
 6995SOL     OW32443   4.439   3.915  11.559  0.0113 -0.3170  0.8365
 6995SOL    HW132444   4.508   3.944  11.500 -2.2732 -0.5476 -1.9841
 6995SOL    HW232445   4.433   3.819  11.563  1.7107 -0.4815 -0.4671
 6996SOL     OW32446   4.628   2.825  16.834 -0.4953  0.3622 -0.1188
 6996SOL    HW132447   4.539   2.859  16.830 -0.8335 -0.3996  1.0749
 6996SOL    HW232448   4.607   2.733  16.815 -0.7703  0.2302  0.8739
 6997SOL     OW32449   1.204   4.018   4.487 -0.6434  0.3320 -0.5094
 6997SOL    HW132450   1.199   4.103   4.531  2.0075 -0.6021  1.5816
 6997SOL    HW232451   1.148   4.030   4.410 -0.3327 -0.1370 -0.8118
 6998SOL     OW32452   1.280   0.688  17.204  0.5379 -0.5141 -0.0866
 6998SOL    HW132453   1.229   0.650  17.276 -2.0909 -1.4273 -2.4208
 6998SOL    HW232454   1.207   0.723  17.153  0.8413 -0.4571 -0.4735
 6999SOL     OW32455   3.831   2.673   3.193 -0.6895  0.0098  0.0017
 6999SOL    HW132456   3.912   2.719   3.169 -0.2953 -1.5725 -1.6801
 6999SOL    HW232457   3.818   2.616   3.117  0.4668 -0.8309  0.4403
 7000SOL     OW32458   1.247   0.201   8.490  0.5507 -0.1071  0.6180
 7000SOL    HW132459   1.265   0.251   8.411  0.4038  0.6764  1.0799
 7000SOL    HW232460   1.282   0.116   8.464  3.0354  0.5041  2.0002
 7001SOL     OW32461   4.158   2.192   6.948  0.1149  0.4112 -0.1053
 7001SOL    HW132462   4.102   2.123   6.913 -2.8625  2.3902  0.8272
 7001SOL    HW232463   4.228   2.192   6.882  0.8689  0.7287  0.6986
 7002SOL     OW32464   3.182   0.223   6.701 -0.1198 -0.5921 -0.1015
 7002SOL    HW132465   3.223   0.138   6.687  1.6637  0.1451  0.6620
 7002SOL    HW232466   3.242   0.263   6.763 -1.2000 -0.6300  0.9542
 7003SOL     OW32467   2.740   0.877   7.826  0.7443  0.4678  0.2613
 7003SOL    HW132468   2.668   0.825   7.861  0.9407  0.2827  0.3883
 7003SOL    HW232469   2.759   0.835   7.743 -1.0767  0.8493 -0.3429
 7004SOL     OW32470   2.876   1.197  16.371 -0.1403 -0.5814  0.0861
 7004SOL    HW132471   2.938   1.241  16.313 -0.1285  1.6677  1.8089
 7004SOL    HW232472   2.910   1.107  16.370 -0.3535 -0.6959  4.2462
 7005SOL     OW32473   2.382   3.601  14.474  0.5136 -0.5695 -0.1510
 7005SOL    HW132474   2.473   3.628  14.458  0.0214  0.5253 -1.0744
 7005SOL    HW232475   2.329   3.681  14.479 -1.4955 -1.7870 -2.1203
 7006SOL     OW32476   4.342   0.180   2.981  0.2143  0.1873  0.4150
 7006SOL    HW132477   4.411   0.199   2.918  0.2412  0.1689  0.4388
 7006SOL    HW232478   4.264   0.214   2.936  1.8180  1.2360 -1.5390
 7007SOL     OW32479   1.709   3.745   8.502 -0.4492 -0.0085  0.4855
 7007SOL    HW132480   1.653   3.811   8.544 -3.0291 -1.7778 -0.1820
 7007SOL    HW232481   1.657   3.692   8.441  1.0131  0.1746 -0.9173
 7008SOL     OW32482   0.764   2.226   8.474  0.8230  0.0032  0.0064
 7008SOL    HW132483   0.711   2.252   8.549  1.3155 -0.8290  0.6397
 7008SOL    HW232484   0.753   2.131   8.474  4.6933 -0.4587  1.8828
 7009SOL     OW32485   1.407   2.869   6.095  0.2953  0.5317 -0.9559
 7009SOL    HW132486   1.377   2.780   6.073 -0.0513  0.2152  0.8341
 7009SOL    HW232487   1.499   2.851   6.111  0.5245  0.5115 -2.3025
 7010SOL     OW32488   1.740   3.556   3.285  0.2750  0.3125 -0.3872
 7010SOL    HW132489   1.768   3.529   3.372  3.7411  1.3797 -1.1824
 7010SOL    HW232490   1.814   3.610   3.260  0.4844  0.4879  0.6526
 7011SOL     OW32491   2.098   4.364   6.925  0.3659  0.0248 -0.4673
 7011SOL    HW132492   2.003   4.363   6.919  0.3877  1.1638 -1.0700
 7011SOL    HW232493   2.114   4.449   6.965 -0.2012 -0.3934  0.6558
 7012SOL     OW32494   0.048   0.033   9.993  0.4967 -0.4795 -0.1499
 7012SOL    HW132495   0.059   4.716   9.907 -0.1510  0.0239 -0.4862
 7012SOL    HW232496   0.137   0.028  10.026  0.6256  2.9787 -0.0214
 7013SOL     OW32497   2.461   3.152   7.537 -0.3769  0.5170  0.2688
 7013SOL    HW132498   2.532   3.112   7.586  0.5646  0.1712 -1.3801
 7013SOL    HW232499   2.500   3.177   7.453  2.4206 -0.6502  1.2508
 7014SOL     OW32500   3.571   3.908   1.923 -0.2798  0.0634  0.0034
 7014SOL    HW132501   3.625   3.831   1.906  1.8887  1.5520  0.1663
 7014SOL    HW232502   3.513   3.890   1.998  3.6352 -1.4294  2.6440
 7015SOL     OW32503   2.010   4.387   4.554 -0.1544 -0.0026  0.0721
 7015SOL    HW132504   1.995   4.292   4.546  0.0790 -0.1010  0.7305
 7015SOL    HW232505   1.924   4.414   4.587  0.6244  2.6640 -0.1072
 7016SOL     OW32506   1.277   3.264   9.865  0.2778  0.5652  0.3132
 7016SOL    HW132507   1.189   3.294   9.841  0.4727 -0.5003 -1.7812
 7016SOL    HW232508   1.290   3.294   9.955 -1.6225  0.2360  0.6841
 7017SOL     OW32509   1.164   2.786   4.255 -0.0696  0.4444 -0.1318
 7017SOL    HW132510   1.200   2.841   4.325  0.2700 -0.6002  0.5258
 7017SOL    HW232511   1.084   2.834   4.235  0.7398  0.9141 -2.1823
 7018SOL     OW32512   1.325   2.491  12.943 -0.0339 -0.1480  0.1874
 7018SOL    HW132513   1.352   2.413  12.894  1.5397 -2.0821  4.1077
 7018SOL    HW232514   1.253   2.519  12.887 -1.1711 -0.5651  1.4384
 7019SOL     OW32515   1.551   4.312  17.560 -0.2374  0.3121 -0.5299
 7019SOL    HW132516   1.459   4.338  17.548 -0.0129  2.1645  1.7455
 7019SOL    HW232517   1.565   4.274  17.473  2.4262 -1.2039  0.5901
 7020SOL     OW32518   1.064   1.022   5.689 -0.1078 -0.1727  0.3383
 7020SOL    HW132519   1.053   1.116   5.682  0.3238 -0.0670  1.0869
 7020SOL    HW232520   1.159   1.010   5.693 -0.1870 -0.9274  0.1386
 7021SOL     OW32521   4.288   4.383  12.650 -0.6942 -0.2734  0.6969
 7021SOL    HW132522   4.347   4.376  12.725  2.1852  2.9906 -1.2981
 7021SOL    HW232523   4.346   4.368  12.576 -1.5855 -1.2842  0.1893
 7022SOL     OW32524   2.849   3.150  11.272 -0.5971 -0.6707  0.5111
 7022SOL    HW132525   2.803   3.069  11.252 -1.7149  0.1112 -0.1310
 7022SOL    HW232526   2.775   3.205  11.301  0.9250  0.9167  1.3919
 7023SOL     OW32527   0.062   0.782   6.799 -0.6636  0.0406  0.6032
 7023SOL    HW132528   0.060   0.686   6.790  0.5080  0.1657 -0.9390
 7023SOL    HW232529   0.139   0.793   6.856 -0.1474  2.6449 -0.6401
 7024SOL     OW32530   2.320   3.716   2.763  0.6404  0.3632 -0.5661
 7024SOL    HW132531   2.304   3.751   2.675 -3.1121  0.4399  0.1357
 7024SOL    HW232532   2.416   3.718   2.760  0.6368 -0.1583 -0.9539
 7025SOL     OW32533   4.618   0.620   9.997 -0.4337 -0.0572 -0.2080
 7025SOL    HW132534   4.648   0.691   9.940  0.7195  0.5086  1.0879
 7025SOL    HW232535   4.527   0.649   9.997 -1.0601 -2.0490  2.0490
 7026SOL     OW32536   2.242   3.032   7.166 -0.7543  0.1669 -0.1649
 7026SOL    HW132537   2.217   3.109   7.217 -0.2337 -2.3913  3.9678
 7026SOL    HW232538   2.181   2.969   7.204 -1.4506  1.5486  1.0063
 7027SOL     OW32539   0.443   4.131   5.995  0.7015 -0.7647  0.2047
 7027SOL    HW132540   0.375   4.180   6.040  0.6086 -1.2644  0.6123
 7027SOL    HW232541   0.524   4.181   6.006  0.1351 -0.3644  2.5365
 7028SOL     OW32542   0.543   4.249   4.136  0.0292  0.0402 -0.1311
 7028SOL    HW132543   0.524   4.271   4.227 -0.4218  1.3660 -0.5506
 7028SOL    HW232544   0.463   4.285   4.096  1.0086  1.0373 -1.1780
 7029SOL     OW32545   2.432   2.651  15.012 -0.4244 -0.7954 -0.6853
 7029SOL    HW132546   2.415   2.607  14.929  2.0306  0.7809 -2.0208
 7029SOL    HW232547   2.373   2.607  15.073 -1.9746  0.4678 -1.2491
 7030SOL     OW32548   1.505   0.749  10.349  0.2084  0.1165  0.2558
 7030SOL    HW132549   1.461   0.804  10.284  1.1545 -0.5182 -0.9202
 7030SOL    HW232550   1.568   0.810  10.387  0.6446 -1.0171  1.3684
 7031SOL     OW32551   4.448   2.030  10.357 -0.0950  0.1346 -0.5058
 7031SOL    HW132552   4.445   2.027  10.453 -3.8600 -3.2814 -0.7026
 7031SOL    HW232553   4.463   1.938  10.337 -0.7742  0.4608 -2.5574
 7032SOL     OW32554   4.239   2.510   7.541 -0.1170  0.1816  0.2213
 7032SOL    HW132555   4.236   2.423   7.502 -1.1018  0.5941 -0.6019
 7032SOL    HW232556   4.331   2.512   7.566 -0.0953 -4.2625  0.5102
 7033SOL     OW32557   0.247   3.695   8.257  0.0433  0.0282  0.1545
 7033SOL    HW132558   0.274   3.726   8.343 -0.7046  0.3321  0.2784
 7033SOL    HW232559   0.333   3.674   8.220  0.5735  2.8902 -0.2257
 7034SOL     OW32560   2.396   1.563  11.401  0.2340  0.6233 -0.2755
 7034SOL    HW132561   2.307   1.547  11.430  0.4998 -2.4520 -1.1721
 7034SOL    HW232562   2.432   1.610  11.476 -0.1780 -2.5190  1.9086
 7035SOL     OW32563   4.155   4.591   2.110 -0.4247 -0.0641  0.1645
 7035SOL    HW132564   4.189   4.673   2.146 -1.2473  0.4446 -0.2247
 7035SOL    HW232565   4.223   4.524   2.115 -1.5351 -1.1390  1.0117
 7036SOL     OW32566   0.560   4.484  10.905  0.0223 -0.6615 -0.6623
 7036SOL    HW132567   0.529   4.534  10.829 -1.4828  0.5192  0.7288
 7036SOL    HW232568   0.571   4.397  10.866 -1.8680 -1.2247  0.0546
 7037SOL     OW32569   0.866   4.498  12.783 -0.4137 -0.2761 -0.7157
 7037SOL    HW132570   0.939   4.490  12.721 -1.2358 -0.1696 -1.6876
 7037SOL    HW232571   0.912   4.474  12.864  0.6485 -0.2256 -1.3053
 7038SOL     OW32572   1.444   2.320   6.700  0.2240 -0.5576  0.1608
 7038SOL    HW132573   1.486   2.306   6.616  1.8664  0.9369  0.7349
 7038SOL    HW232574   1.356   2.325   6.664 -0.4937  2.5765  2.3018
 7039SOL     OW32575   2.764   0.676   7.100  0.0057  0.0396 -0.4727
 7039SOL    HW132576   2.787   0.735   7.027 -1.9140 -0.7816 -1.7358
 7039SOL    HW232577   2.823   0.606   7.071 -1.2707 -1.0484 -0.4389
 7040SOL     OW32578   1.259   0.973   5.057  0.0005  0.0926  0.3959
 7040SOL    HW132579   1.210   1.049   5.026 -1.0460 -0.7524  0.0034
 7040SOL    HW232580   1.316   0.962   4.980 -1.4032  1.2003 -0.7999
 7041SOL     OW32581   1.007   0.002   1.006 -0.3361 -0.2987 -0.2781
 7041SOL    HW132582   1.012   0.019   0.912 -0.2487 -2.4432 -0.6543
 7041SOL    HW232583   0.915   4.701   1.010  0.0078 -1.7490 -1.8858
 7042SOL     OW32584   0.105   3.458   6.713  0.0912  0.0629  0.1271
 7042SOL    HW132585   0.124   3.504   6.631 -1.3163 -1.8070 -1.2418
 7042SOL    HW232586   0.095   3.535   6.769  2.2770  0.5424 -0.1496
 7043SOL     OW32587   3.701   4.229   6.957 -0.3321  0.0776  0.2070
 7043SOL    HW132588   3.722   4.304   7.012  1.8845 -0.5584  0.2154
 7043SOL    HW232589   3.649   4.170   7.011  0.9013  0.5733  1.9366
 7044SOL     OW32590   0.338   2.908   3.134  0.1944 -0.0684 -0.1161
 7044SOL    HW132591   0.349   2.917   3.229  0.3246  1.1280 -0.2437
 7044SOL    HW232592   0.394   2.832   3.119  0.2333  0.0879 -0.7458
 7045SOL     OW32593   3.373   3.072   4.921 -0.8845  0.0240  0.1438
 7045SOL    HW132594   3.313   3.138   4.957 -0.5863  0.1971  0.3185
 7045SOL    HW232595   3.427   3.055   4.998  1.7953 -0.6039 -1.8991
 7046SOL     OW32596   3.706   3.510   2.486  0.1259  0.4413 -0.0470
 7046SOL    HW132597   3.627   3.526   2.538  0.3136  0.3193  0.2758
 7046SOL    HW232598   3.718   3.598   2.451 -0.7447  0.1489 -1.1132
 7047SOL     OW32599   3.100   0.856   6.893 -0.1770 -0.3848 -0.0345
 7047SOL    HW132600   3.114   0.912   6.816  0.1208 -0.5230 -0.0803
 7047SOL    HW232601   3.046   0.784   6.861 -0.7056  1.1177 -2.5164
 7048SOL     OW32602   3.530   0.215   3.972 -0.0204 -0.1498  0.7100
 7048SOL    HW132603   3.553   0.225   4.064  0.2473 -1.1914  0.7504
 7048SOL    HW232604   3.610   0.181   3.932 -0.3469  1.3109 -1.2044
 7049SOL     OW32605   0.473   0.680  12.226 -0.1370 -0.1240  0.0505
 7049SOL    HW132606   0.403   0.623  12.194  0.9373 -0.6164 -1.4171
 7049SOL    HW232607   0.446   0.699  12.316  0.8988 -0.9040  0.5243
 7050SOL     OW32608   1.626   0.860   0.273 -0.1244  0.5305 -0.2474
 7050SOL    HW132609   1.552   0.853   0.332  2.3604  1.3503  2.9777
 7050SOL    HW232610   1.677   0.780   0.291  0.0505  0.1816 -2.2421
 7051SOL     OW32611   3.973   4.675   7.066  0.1205 -0.0713 -0.1724
 7051SOL    HW132612   3.886   4.715   7.073  0.4019  0.5254 -0.1250
 7051SOL    HW232613   3.979   4.700   6.974  0.5860 -1.9385 -0.6491
 7052SOL     OW32614   0.812   4.021   7.732 -0.3311  0.2132 -0.1022
 7052SOL    HW132615   0.873   4.063   7.671  2.6689 -0.5202  2.3906
 7052SOL    HW232616   0.864   4.037   7.810 -0.9770  0.1252  0.3448
 7053SOL     OW32617   0.644   4.366   8.235 -0.3499 -0.4667 -0.4160
 7053SOL    HW132618   0.581   4.335   8.171 -0.7551 -3.4189  1.3985
 7053SOL    HW232619   0.592   4.431   8.282  1.2033  1.8560 -1.9372
 7054SOL     OW32620   2.393   2.627   1.939  0.1883  0.4999 -0.1613
 7054SOL    HW132621   2.406   2.682   1.861  1.2358 -0.0590 -0.3750
 7054SOL    HW232622   2.430   2.546   1.905  0.3446 -0.0701  1.3963
 7055SOL     OW32623   2.837   1.125   0.924 -0.2545 -0.3970  0.5385
 7055SOL    HW132624   2.792   1.143   1.006 -1.7607 -1.9515  0.0651
 7055SOL    HW232625   2.783   1.172   0.861  0.8510  0.9258  0.5813
 7056SOL     OW32626   0.246   3.426   8.344 -0.2525 -0.0237  0.1730
 7056SOL    HW132627   0.194   3.502   8.319 -0.8657 -0.9247 -1.2676
 7056SOL    HW232628   0.298   3.464   8.416 -1.7322 -1.1854  1.8615
 7057SOL     OW32629   0.561   1.042  11.489  0.1191 -0.0332 -0.0240
 7057SOL    HW132630   0.582   1.136  11.493  0.2500 -0.1047  0.8050
 7057SOL    HW232631   0.624   1.028  11.418 -0.1302 -2.4892  0.2352
 7058SOL     OW32632   3.472   2.111   8.042  0.5227  0.3641  0.3371
 7058SOL    HW132633   3.531   2.175   8.082 -0.2862 -0.2639  2.5221
 7058SOL    HW232634   3.443   2.166   7.969 -1.2788 -0.3783  0.4798
 7059SOL     OW32635   3.847   3.168   7.231  0.1854 -0.2568  0.2042
 7059SOL    HW132636   3.843   3.091   7.175 -0.5575  0.4489 -0.7122
 7059SOL    HW232637   3.941   3.183   7.226  0.2240 -1.3951 -2.2909
 7060SOL     OW32638   1.536   3.033   8.051 -0.2251 -0.7683 -0.4456
 7060SOL    HW132639   1.533   2.955   7.996 -0.8168 -0.6561 -0.5648
 7060SOL    HW232640   1.559   3.003   8.139 -0.7781  0.2991  0.0673
 7061SOL     OW32641   2.111   1.066   3.970  0.1422 -0.0053 -0.3108
 7061SOL    HW132642   2.058   1.066   4.049  0.0080  0.7993 -0.3993
 7061SOL    HW232643   2.094   0.977   3.938 -0.3049 -0.6963  1.9006
 7062SOL     OW32644   0.056   2.906   6.188 -0.1383  1.0980  0.1798
 7062SOL    HW132645   0.096   2.820   6.172 -0.1572  1.2283 -0.5840
 7062SOL    HW232646   4.700   2.892   6.140  0.3386  0.9258 -0.5738
 7063SOL     OW32647   1.585   1.275  10.211  0.0556  0.5128  0.0509
 7063SOL    HW132648   1.657   1.248  10.155 -0.4106 -1.2057  0.2676
 7063SOL    HW232649   1.539   1.339  10.157  0.8267 -0.5562 -1.8575
 7064SOL     OW32650   0.170   2.586  15.792 -0.8727 -0.1774 -0.5377
 7064SOL    HW132651   0.119   2.613  15.716  0.3802  2.3365 -0.4768
 7064SOL    HW232652   0.174   2.673  15.831  4.5406 -0.5168 -0.3743
 7065SOL     OW32653   3.137   4.056   8.317  0.0283 -0.3942 -0.3144
 7065SOL    HW132654   3.173   4.119   8.254  0.0383  1.3598  1.4482
 7065SOL    HW232655   3.212   4.018   8.362 -0.7592  0.3096  1.5763
 7066SOL     OW32656   2.238   2.056  15.400 -0.3526 -0.4699 -0.1779
 7066SOL    HW132657   2.185   2.017  15.469 -1.5199 -1.2618 -1.5102
 7066SOL    HW232658   2.196   2.139  15.382  0.5643  0.1558  0.5446
 7067SOL     OW32659   1.470   0.013  11.660 -0.6137 -0.5933  0.1594
 7067SOL    HW132660   1.375   0.026  11.661 -0.6780 -1.1976  1.2792
 7067SOL    HW232661   1.492   0.007  11.753  1.1826 -0.5194 -0.2539
 7068SOL     OW32662   1.995   0.866   5.890 -0.1466 -0.2188 -0.0202
 7068SOL    HW132663   2.090   0.873   5.884  0.0914 -2.3321  1.3175
 7068SOL    HW232664   1.985   0.848   5.983  0.8446 -0.4155  0.0458
 7069SOL     OW32665   2.446   2.282  14.108  0.1589 -0.2792  0.8239
 7069SOL    HW132666   2.502   2.228  14.053  1.0755  2.9724 -1.4344
 7069SOL    HW232667   2.394   2.217  14.155 -1.4809  1.1634  1.0269
 7070SOL     OW32668   3.750   2.089  17.168 -0.2530  0.0471 -0.0661
 7070SOL    HW132669   3.708   2.044  17.241  0.7443  3.9465  2.8860
 7070SOL    HW232670   3.767   2.016  17.109  1.5484 -0.9714  1.7380
 7071SOL     OW32671   2.461   0.505   4.295  0.3090  0.0158  0.6206
 7071SOL    HW132672   2.410   0.574   4.337  0.0741 -0.3700  0.9758
 7071SOL    HW232673   2.475   0.438   4.363  0.5385  0.0248  0.5846
 7072SOL     OW32674   4.576   2.280  10.397 -0.4396 -0.1527  0.4972
 7072SOL    HW132675   4.650   2.231  10.433 -0.9143 -1.2518 -0.0251
 7072SOL    HW232676   4.514   2.215  10.364 -1.6650  0.2541  1.9669
 7073SOL     OW32677   3.606   3.724  15.000 -0.1933 -0.0029  0.1774
 7073SOL    HW132678   3.621   3.750  14.909 -0.3247  2.0370  0.7509
 7073SOL    HW232679   3.549   3.794  15.032  0.4776  0.6738 -0.1060
 7074SOL     OW32680   3.916   0.650   4.253  0.0038  0.6412 -0.0406
 7074SOL    HW132681   3.941   0.601   4.332  0.7394  1.8204  0.4637
 7074SOL    HW232682   4.007   0.671   4.233  0.2533 -1.0844 -0.7098
 7075SOL     OW32683   3.458   4.343   1.677 -0.6076 -0.4538  0.2485
 7075SOL    HW132684   3.410   4.281   1.622 -3.2249  2.8985 -1.2630
 7075SOL    HW232685   3.429   4.322   1.765 -2.1231  1.3999  0.1953
 7076SOL     OW32686   4.163   2.256   8.207  0.0986  0.2633 -0.0346
 7076SOL    HW132687   4.164   2.289   8.117  0.0031  1.8672  0.5567
 7076SOL    HW232688   4.215   2.175   8.198  0.1308  0.6625 -3.6019
 7077SOL     OW32689   4.337   4.087   6.110  0.6252 -0.1813  0.2559
 7077SOL    HW132690   4.325   4.099   6.016 -0.2808  1.9336  0.6430
 7077SOL    HW232691   4.424   4.127   6.119 -0.1729  1.0972  2.3286
 7078SOL     OW32692   1.226   4.018   7.244  0.2855 -0.4094  0.6132
 7078SOL    HW132693   1.201   4.076   7.172 -0.7487 -1.1528  0.3757
 7078SOL    HW232694   1.147   3.965   7.250 -0.6337  0.8648 -0.1487
 7079SOL     OW32695   4.058   2.853   1.561  0.2431  0.0952  0.2714
 7079SOL    HW132696   3.989   2.791   1.538 -0.7273  1.6644 -1.0672
 7079SOL    HW232697   4.110   2.795   1.616  1.8852  1.3507  0.0586
 7080SOL     OW32698   0.431   4.124   6.444 -0.1628 -0.9261 -0.0749
 7080SOL    HW132699   0.370   4.197   6.438  1.2541  0.3067  0.2827
 7080SOL    HW232700   0.375   4.062   6.398 -2.1228 -0.1814  1.3273
 7081SOL     OW32701   0.457   2.449  14.702  0.3586  0.3094 -0.3760
 7081SOL    HW132702   0.527   2.499  14.662  0.7768 -0.0419 -0.0831
 7081SOL    HW232703   0.480   2.460  14.794  1.6716  0.8216 -0.7690
 7082SOL     OW32704   3.877   2.158   5.042  0.1140  0.4334  0.2348
 7082SOL    HW132705   3.867   2.143   4.948  1.2836 -0.0527  0.1880
 7082SOL    HW232706   3.880   2.254   5.049 -2.2893  0.4844  0.6531
 7083SOL     OW32707   0.032   1.506   9.315 -0.1872  0.7337  0.2822
 7083SOL    HW132708   4.675   1.550   9.336  0.0870  1.0552  0.6733
 7083SOL    HW232709   0.021   1.423   9.362  0.6004 -0.7780 -2.1772
 7084SOL     OW32710   0.913   3.331   5.039  0.1354 -1.0892  0.0060
 7084SOL    HW132711   0.847   3.354   5.104  1.0999  0.8246  0.3056
 7084SOL    HW232712   0.876   3.380   4.966 -2.4103 -0.2945  1.8302
 7085SOL     OW32713   2.100   4.485   2.089 -0.0709  0.0383 -0.4124
 7085SOL    HW132714   2.140   4.567   2.061 -0.6018  0.4218 -0.0594
 7085SOL    HW232715   2.165   4.423   2.059  1.0662  1.6845 -1.3220
 7086SOL     OW32716   1.851   1.134   6.041 -0.2169 -0.2541 -0.4115
 7086SOL    HW132717   1.931   1.188   6.040  1.0068 -2.0600 -0.5199
 7086SOL    HW232718   1.789   1.204   6.059 -0.2279 -0.3069 -0.2415
 7087SOL     OW32719   3.980   0.617   3.174  0.5042  0.3653  0.0435
 7087SOL    HW132720   4.001   0.696   3.123 -0.4777  1.6217  1.6024
 7087SOL    HW232721   4.058   0.563   3.159  0.4151  0.1808  0.2448
 7088SOL     OW32722   3.923   2.801  11.817 -0.0215  0.0834 -0.0568
 7088SOL    HW132723   3.933   2.851  11.737  1.9092  1.4301  1.0212
 7088SOL    HW232724   3.947   2.711  11.795  1.7285  0.2972  0.9745
 7089SOL     OW32725   2.096   2.076   5.706 -0.1647  0.8448 -0.2992
 7089SOL    HW132726   2.067   2.146   5.648  0.9995  1.0125 -0.6774
 7089SOL    HW232727   2.039   2.006   5.672 -1.1528  1.1889  0.6517
 7090SOL     OW32728   0.469   0.995  12.914 -0.4733  0.1206 -0.6130
 7090SOL    HW132729   0.504   0.907  12.924 -0.2811  0.2215 -0.4089
 7090SOL    HW232730   0.515   1.031  12.838 -1.2485 -1.6738 -1.9267
 7091SOL     OW32731   2.068   2.914   5.593  0.1975  0.0296  0.1700
 7091SOL    HW132732   2.002   2.958   5.646  2.1978  1.9433  1.0846
 7091SOL    HW232733   2.021   2.903   5.510  1.5673  1.6306 -0.8150
 7092SOL     OW32734   2.568   2.995   3.213 -0.9464  0.4659  0.0426
 7092SOL    HW132735   2.566   2.934   3.140  1.4757  0.5753 -0.1012
 7092SOL    HW232736   2.475   3.019   3.214 -0.3086  3.0080 -3.5319
 7093SOL     OW32737   3.047   2.014   2.187 -0.4391  0.6638 -0.0247
 7093SOL    HW132738   2.977   2.068   2.150  0.4536  2.1844  0.4771
 7093SOL    HW232739   2.991   1.943   2.218  1.6796 -0.8628  0.3610
 7094SOL     OW32740   0.886   4.229   7.230  0.3983  0.3980 -0.0472
 7094SOL    HW132741   0.827   4.168   7.275  0.4596  0.5995  0.3043
 7094SOL    HW232742   0.936   4.167   7.178 -0.8463 -0.5668 -0.1103
 7095SOL     OW32743   0.018   2.054   9.268  0.2930 -0.0150 -0.0793
 7095SOL    HW132744   4.651   2.046   9.290  0.5376 -3.9209 -0.4956
 7095SOL    HW232745   0.035   1.983   9.205 -0.1616 -0.8462  0.7438
 7096SOL     OW32746   1.650   4.424   3.391 -0.4184 -0.5225 -0.2617
 7096SOL    HW132747   1.638   4.342   3.344  3.5811 -1.3772  0.2752
 7096SOL    HW232748   1.561   4.457   3.406  0.0989  0.4493  0.6756
 7097SOL     OW32749   0.642   4.384   2.801  0.1770  0.2602 -0.3367
 7097SOL    HW132750   0.686   4.457   2.759 -0.6217  0.9345 -0.0004
 7097SOL    HW232751   0.567   4.372   2.742 -0.1569 -1.0251  0.3398
 7098SOL     OW32752   3.326   1.026   9.720  0.2789 -0.3169 -0.3084
 7098SOL    HW132753   3.275   1.004   9.642  2.3912  0.1245 -1.8084
 7098SOL    HW232754   3.322   1.122   9.719  2.4178 -0.2291  0.5025
 7099SOL     OW32755   2.956   4.051  13.245  0.0450  0.6775 -0.2304
 7099SOL    HW132756   2.943   3.982  13.310 -0.9802  4.2414  3.2925
 7099SOL    HW232757   2.968   3.995  13.168 -0.6466  0.8341 -0.4473
 7100SOL     OW32758   4.426   3.437   6.545 -0.1424  0.8011 -0.1845
 7100SOL    HW132759   4.401   3.347   6.526  0.2027  0.9055 -1.1169
 7100SOL    HW232760   4.463   3.417   6.630 -2.6064  5.6255  2.0892
 7101SOL     OW32761   1.306   3.151   5.173 -0.2118 -0.4733  0.1712
 7101SOL    HW132762   1.272   3.192   5.094 -0.1095 -2.0737 -0.6912
 7101SOL    HW232763   1.393   3.190   5.167 -0.3913 -0.1437 -0.3006
 7102SOL     OW32764   3.864   0.915   8.225 -0.0987  0.0285 -0.1311
 7102SOL    HW132765   3.806   0.956   8.289  0.7291  0.5818  0.2592
 7102SOL    HW232766   3.862   0.822   8.248 -0.7261  0.2150  0.5590
 7103SOL     OW32767   4.496   4.565   7.528 -0.4932  0.3147  0.0721
 7103SOL    HW132768   4.537   4.650   7.514  0.7531 -0.1141  1.0865
 7103SOL    HW232769   4.448   4.573   7.610 -1.7288 -0.2103 -0.5976
 7104SOL     OW32770   0.651   0.257   9.675  0.3446 -0.9301  0.0172
 7104SOL    HW132771   0.623   0.347   9.687  1.8149 -0.6047  1.0456
 7104SOL    HW232772   0.576   0.218   9.629 -0.5028  1.4359 -0.5713
 7105SOL     OW32773   1.236   4.214  12.716 -0.6526  0.1044  0.3371
 7105SOL    HW132774   1.266   4.290  12.666 -1.3437  0.3058  0.2277
 7105SOL    HW232775   1.292   4.142  12.686 -2.0562 -0.2437 -1.4590
 7106SOL     OW32776   4.198   1.982   7.697  0.1923  0.3975  0.2560
 7106SOL    HW132777   4.109   1.962   7.726 -0.0103 -0.4163 -0.9669
 7106SOL    HW232778   4.230   1.899   7.663 -0.2944  0.3815 -0.1544
 7107SOL     OW32779   1.129   1.103   2.179  0.1493  0.2587 -0.0757
 7107SOL    HW132780   1.131   1.113   2.084  2.7234 -0.2961 -0.0822
 7107SOL    HW232781   1.183   1.175   2.210  0.6290 -0.2620  0.3034
 7108SOL     OW32782   1.059   4.633   8.630  0.4096 -0.3022  0.1181
 7108SOL    HW132783   1.016   4.572   8.690 -0.8032  0.9758  0.5426
 7108SOL    HW232784   1.148   4.609   8.653  1.3358  1.1785 -1.8762
 7109SOL     OW32785   2.425   1.285   2.836 -0.5432  0.1758  0.2619
 7109SOL    HW132786   2.473   1.301   2.755 -1.1618 -0.6234 -0.2674
 7109SOL    HW232787   2.333   1.295   2.809 -0.5414 -1.2989 -0.3053
 7110SOL     OW32788   3.305   0.021   3.939 -0.5911  0.5543 -0.3667
 7110SOL    HW132789   3.213   0.038   3.918 -0.6579  0.2520 -0.3300
 7110SOL    HW232790   3.333   0.101   3.982  2.8640  1.4222 -4.1749
 7111SOL     OW32791   3.450   4.526  10.102 -0.0138 -0.3058 -0.2422
 7111SOL    HW132792   3.514   4.592  10.078  0.4282 -0.4736  0.4615
 7111SOL    HW232793   3.376   4.531  10.042 -1.7633  1.6784  2.0529
 7112SOL     OW32794   0.293   0.148  10.124  0.2742  0.4004 -0.2654
 7112SOL    HW132795   0.385   0.168  10.141  0.9498 -1.8921 -1.1972
 7112SOL    HW232796   0.302   0.055  10.105 -1.7687  0.6789 -2.5361
 7113SOL     OW32797   3.686   3.158   2.687 -0.1625  0.1901 -0.8653
 7113SOL    HW132798   3.730   3.109   2.756  1.4209  1.8971 -0.6636
 7113SOL    HW232799   3.609   3.186   2.736  0.7510 -0.4019  0.8783
 7114SOL     OW32800   4.334   1.219  16.670  0.0347  0.0788  0.4762
 7114SOL    HW132801   4.304   1.253  16.585  1.2057  0.7212  0.3240
 7114SOL    HW232802   4.420   1.188  16.644 -0.3747 -1.2218  0.7074
 7115SOL     OW32803   1.329   1.262  15.915  0.1245 -0.4443 -0.2047
 7115SOL    HW132804   1.347   1.260  16.009 -0.7893 -3.1499 -0.0834
 7115SOL    HW232805   1.235   1.249  15.906 -0.3160  0.7355  2.6178
 7116SOL     OW32806   4.655   2.291   5.947  0.1888  0.1640 -1.0828
 7116SOL    HW132807   4.574   2.341   5.957 -0.5914 -1.5787  1.5214
 7116SOL    HW232808   4.621   2.205   5.920  0.0986 -1.7178  4.9178
 7117SOL     OW32809   3.738   0.076   7.896  0.3358 -0.0985  0.2013
 7117SOL    HW132810   3.647   0.068   7.868  0.2883 -2.6282  1.1605
 7117SOL    HW232811   3.764   4.710   7.902  3.5653  0.9607  2.2725
 7118SOL     OW32812   4.528   1.249   8.283 -0.1265 -0.1278  0.3407
 7118SOL    HW132813   4.607   1.298   8.305  0.0980 -0.9516  1.3258
 7118SOL    HW232814   4.524   1.176   8.344  0.1082 -0.9072 -0.5783
 7119SOL     OW32815   1.460   3.636   2.168  0.3940  0.9127  0.3530
 7119SOL    HW132816   1.542   3.658   2.211  0.9243  0.3409 -0.3764
 7119SOL    HW232817   1.425   3.723   2.147  1.8156  1.6544  1.0516
 7120SOL     OW32818   2.729   0.698   1.542 -0.0520 -0.0829 -0.4422
 7120SOL    HW132819   2.822   0.681   1.557  0.6029  2.6332 -1.4859
 7120SOL    HW232820   2.729   0.650   1.459 -1.4840 -1.7568  0.5004
 7121SOL     OW32821   4.630   4.333   6.386  0.6016 -0.4243 -0.1273
 7121SOL    HW132822   4.666   4.419   6.367  0.8803 -0.3000  1.0118
 7121SOL    HW232823   4.620   4.329   6.481 -0.9455 -0.5357 -0.2862
 7122SOL     OW32824   0.677   4.429  14.525  0.1190  0.2684 -0.3335
 7122SOL    HW132825   0.644   4.463  14.442 -1.0032  0.8684  0.3517
 7122SOL    HW232826   0.765   4.466  14.517 -0.8890  2.4967 -1.1489
 7123SOL     OW32827   2.057   4.143  10.141  0.7846 -0.1936 -0.0971
 7123SOL    HW132828   2.136   4.100  10.173  0.6663  0.1006  0.5757
 7123SOL    HW232829   2.089   4.229  10.166 -2.2446  1.1413 -0.8219
 7124SOL     OW32830   1.228   3.899   7.635  0.2340  0.3316 -0.1620
 7124SOL    HW132831   1.209   3.829   7.698  1.7734  2.2854  2.4796
 7124SOL    HW232832   1.243   3.975   7.691  2.9893  0.7441 -1.4885
 7125SOL     OW32833   3.565   0.000   1.553 -0.3851 -0.2392  0.5141
 7125SOL    HW132834   3.565   0.029   1.461  0.6546 -1.7892  0.0241
 7125SOL    HW232835   3.651   4.683   1.559 -0.9865 -1.6950 -1.2464
 7126SOL     OW32836   1.592   2.082  15.655 -0.3589 -0.1361 -0.6873
 7126SOL    HW132837   1.658   2.147  15.680 -1.9531  2.8101 -4.0800
 7126SOL    HW232838   1.609   2.092  15.561 -1.2751 -0.3484 -0.8698
 7127SOL     OW32839   3.027   1.878   8.062  0.2564  0.3352 -0.0271
 7127SOL    HW132840   3.119   1.855   8.048  0.1291 -0.8747  1.1753
 7127SOL    HW232841   3.022   1.974   8.060 -1.3437  0.2841  1.4081
 7128SOL     OW32842   4.143   1.108  16.428  0.0074  0.4799 -0.0264
 7128SOL    HW132843   4.117   1.190  16.470 -0.3699 -0.5069  1.6871
 7128SOL    HW232844   4.163   1.139  16.340 -0.0092  2.7137  0.7627
 7129SOL     OW32845   0.581   3.477   6.800  0.3166  0.5002  0.0243
 7129SOL    HW132846   0.659   3.423   6.813 -1.6093 -1.9945  1.2822
 7129SOL    HW232847   0.515   3.432   6.853  1.3214 -1.6791 -0.5558
 7130SOL     OW32848   2.109   3.949   8.014 -0.0607  0.5738  0.0231
 7130SOL    HW132849   2.174   3.879   8.022  0.1203  0.6614 -0.6733
 7130SOL    HW232850   2.050   3.908   7.950 -1.1940  2.2700 -0.0081
 7131SOL     OW32851   3.824   2.523   4.360 -0.1436  0.5328 -0.3563
 7131SOL    HW132852   3.853   2.447   4.410 -0.5509  0.4694 -0.2182
 7131SOL    HW232853   3.829   2.497   4.268 -0.6535  2.6570 -0.9810
 7132SOL     OW32854   1.441   3.392   7.477  0.3903 -0.1005 -1.0234
 7132SOL    HW132855   1.481   3.479   7.480 -0.0014  0.0139  0.6039
 7132SOL    HW232856   1.501   3.339   7.530  2.3102  0.9764 -2.0999
 7133SOL     OW32857   1.960   3.328   8.506 -0.2164 -0.0999  0.1408
 7133SOL    HW132858   2.018   3.253   8.497  2.0378  1.8597 -1.5922
 7133SOL    HW232859   2.002   3.393   8.450  0.1753  0.9498  1.6418
 7134SOL     OW32860   0.882   0.301   9.538  0.0815 -0.5469 -0.3103
 7134SOL    HW132861   0.803   0.270   9.582 -0.6779 -2.1119 -2.7426
 7134SOL    HW232862   0.873   0.264   9.450  1.3337  0.4640 -0.8606
 7135SOL     OW32863   2.029   1.833  11.285 -0.0269 -0.1633 -0.2105
 7135SOL    HW132864   2.086   1.903  11.254  0.7264 -0.6941 -0.0033
 7135SOL    HW232865   1.964   1.878  11.340  0.1177 -0.4728  0.2172
 7136SOL     OW32866   2.645   3.709  14.407 -0.2503 -0.3527  0.2444
 7136SOL    HW132867   2.722   3.658  14.384 -0.8629 -0.1496 -2.2538
 7136SOL    HW232868   2.643   3.766  14.330 -0.7897 -0.7532 -0.0429
 7137SOL     OW32869   1.695   1.607   9.299 -0.5814 -0.4635  0.4568
 7137SOL    HW132870   1.669   1.626   9.389  4.6438  1.9528  1.5142
 7137SOL    HW232871   1.767   1.545   9.315  1.3573  1.8489  0.7818
 7138SOL     OW32872   1.831   1.825  10.679  0.0524 -0.1278  0.1814
 7138SOL    HW132873   1.804   1.856  10.766  0.1839  0.1605  0.1223
 7138SOL    HW232874   1.761   1.760  10.673  0.2038 -0.1191 -1.6416
 7139SOL     OW32875   3.900   0.861  15.663 -0.0885 -0.5384  0.4348
 7139SOL    HW132876   3.959   0.905  15.602 -1.7078  1.6565  0.4607
 7139SOL    HW232877   3.941   0.883  15.747  2.1625 -0.1497 -0.7656
 7140SOL     OW32878   0.128   1.869  12.767 -0.0992 -1.0310  0.0386
 7140SOL    HW132879   0.163   1.898  12.851 -0.4442 -0.2148 -0.1060
 7140SOL    HW232880   0.125   1.958  12.731 -1.6682 -1.6677 -1.4035
 7141SOL     OW32881   3.629   2.293  10.521 -0.3015 -0.5943 -0.2504
 7141SOL    HW132882   3.537   2.317  10.517  0.3589  2.4462  2.1100
 7141SOL    HW232883   3.616   2.220  10.581  2.2340 -1.6696 -1.0132
 7142SOL     OW32884   2.887   2.679   2.174 -0.2017 -0.3291 -0.5598
 7142SOL    HW132885   2.847   2.684   2.087  1.7489 -0.4668 -1.4850
 7142SOL    HW232886   2.891   2.771   2.203 -0.9805 -0.7159  0.7747
 7143SOL     OW32887   0.597   0.401  10.186  0.2971 -0.0834 -0.0591
 7143SOL    HW132888   0.538   0.412  10.261 -2.6270  0.8107 -2.4650
 7143SOL    HW232889   0.681   0.439  10.212  0.7639  0.5186 -2.5047
 7144SOL     OW32890   1.813   0.272   7.695 -0.3408 -0.2500  0.4976
 7144SOL    HW132891   1.784   0.192   7.739 -1.0213  0.4729  1.3526
 7144SOL    HW232892   1.790   0.249   7.605  1.1171 -0.6418  0.2239
 7145SOL     OW32893   0.924   2.861  15.119  0.1085 -0.5367 -0.0141
 7145SOL    HW132894   0.972   2.799  15.064  1.2876  0.6386 -0.3110
 7145SOL    HW232895   0.836   2.843  15.086  0.2607  2.3873 -2.0245
 7146SOL     OW32896   4.324   0.022   6.595 -0.2806  0.4055  0.0378
 7146SOL    HW132897   4.360   0.026   6.684 -1.8324 -0.7099  0.7299
 7146SOL    HW232898   4.334   4.653   6.581  0.7513  0.6806 -1.0562
 7147SOL     OW32899   2.013   0.204  11.360  0.0679 -0.5337 -0.1500
 7147SOL    HW132900   2.031   0.208  11.454 -0.8635  0.4795 -0.0137
 7147SOL    HW232901   2.084   0.157  11.318 -0.0523 -0.8977  0.0474
 7148SOL     OW32902   2.815   2.109   8.305  0.0738  0.3670  0.1366
 7148SOL    HW132903   2.721   2.126   8.304  0.2386  1.2497 -0.0943
 7148SOL    HW232904   2.836   2.138   8.393  0.3509  0.0767  0.1681
 7149SOL     OW32905   1.068   0.936   3.964 -0.4515 -0.4352  0.1714
 7149SOL    HW132906   1.099   0.954   3.876 -0.2441 -1.2926  0.0741
 7149SOL    HW232907   0.972   0.936   3.962 -0.3997  2.7052 -2.2025
 7150SOL     OW32908   4.451   0.503   7.573  0.1949  0.0811 -0.3092
 7150SOL    HW132909   4.404   0.429   7.611 -0.5630  2.2400  2.9527
 7150SOL    HW232910   4.544   0.482   7.584  0.5277  1.0942 -1.2154
 7151SOL     OW32911   2.627   2.651   6.088  0.4884 -0.5477 -0.2279
 7151SOL    HW132912   2.584   2.668   6.172  0.8453  0.2517 -0.2013
 7151SOL    HW232913   2.629   2.556   6.078  3.8243 -0.2116 -2.7174
 7152SOL     OW32914   2.572   3.157   8.362 -0.0892  0.3507 -0.4171
 7152SOL    HW132915   2.640   3.203   8.313  0.0499 -0.7827 -1.2859
 7152SOL    HW232916   2.571   3.072   8.318 -1.6424 -0.1717  0.6212
 7153SOL     OW32917   0.687   4.126   7.435  0.4525 -0.2732  0.3461
 7153SOL    HW132918   0.614   4.139   7.374  1.5242  0.2124 -0.8209
 7153SOL    HW232919   0.648   4.046   7.471 -1.0715  1.5503  2.8072
 7154SOL     OW32920   1.924   1.790   7.985 -0.3354 -0.0019  0.8117
 7154SOL    HW132921   1.974   1.842   7.921  0.7725 -1.6804  0.3220
 7154SOL    HW232922   1.992   1.771   8.049 -0.5907 -4.8887 -0.3955
 7155SOL     OW32923   0.447   1.413  10.471 -0.7042 -0.6492  0.4819
 7155SOL    HW132924   0.381   1.478  10.495 -0.5875  0.9554 -3.5545
 7155SOL    HW232925   0.528   1.460  10.492 -0.9476  0.2540 -0.6375
 7156SOL     OW32926   1.290   4.453   2.708 -0.2850 -0.3606 -0.4135
 7156SOL    HW132927   1.230   4.442   2.634 -1.3476 -0.4440  0.4633
 7156SOL    HW232928   1.336   4.535   2.691  2.7919 -2.2482 -1.1437
 7157SOL     OW32929   3.773   1.862  14.200  0.7171  0.1750  0.1615
 7157SOL    HW132930   3.706   1.919  14.238  0.4254 -0.9798  1.3907
 7157SOL    HW232931   3.830   1.925  14.156 -1.1052  1.0800 -0.8785
 7158SOL     OW32932   0.663   4.209   3.691  0.3567 -0.5606  0.2603
 7158SOL    HW132933   0.664   4.155   3.770 -1.0972 -0.2312  0.5068
 7158SOL    HW232934   0.734   4.272   3.704  1.0942 -1.6168  1.3332
 7159SOL     OW32935   0.814   4.113  16.911  0.4152  0.0436 -0.0165
 7159SOL    HW132936   0.835   4.049  16.843 -2.4507 -0.8522 -0.0393
 7159SOL    HW232937   0.751   4.163  16.859  1.3577  1.1314 -0.1044
 7160SOL     OW32938   4.540   1.207   9.599 -0.0698  0.1550 -0.4845
 7160SOL    HW132939   4.587   1.133   9.639 -0.0495  0.8668  0.8220
 7160SOL    HW232940   4.516   1.262   9.674 -0.8227 -1.4722  0.4765
 7161SOL     OW32941   3.359   4.716   2.642 -0.7216  0.6554  0.0028
 7161SOL    HW132942   3.276   0.031   2.618 -0.9470  1.3492  2.0021
 7161SOL    HW232943   3.421   0.032   2.582 -0.6306  1.2312  0.4915
 7162SOL     OW32944   4.472   1.661   7.007  0.5151 -0.4271  0.2048
 7162SOL    HW132945   4.506   1.738   7.053  2.0357 -0.5268 -0.7596
 7162SOL    HW232946   4.455   1.697   6.920  0.2121 -0.4233  0.2679
 7163SOL     OW32947   2.093   0.961  16.981 -0.0173 -0.0150  0.2357
 7163SOL    HW132948   2.030   0.977  16.911  1.1239 -2.1165 -1.2625
 7163SOL    HW232949   2.085   1.043  17.030  0.3360 -0.1251  0.4739
 7164SOL     OW32950   2.049   2.513   0.898  0.6102  0.3213 -0.0542
 7164SOL    HW132951   2.071   2.551   0.984  1.1265 -0.7331  0.2835
 7164SOL    HW232952   2.140   2.493   0.875  0.4319  0.0207 -0.4940
 7165SOL     OW32953   3.903   1.077   1.707 -0.7073  0.7156  0.3483
 7165SOL    HW132954   3.859   1.117   1.781 -2.7090  0.3652 -0.6610
 7165SOL    HW232955   3.990   1.118   1.714  0.1499 -0.8903 -0.7373
 7166SOL     OW32956   1.248   1.716   9.688 -0.0531 -0.1072  0.0025
 7166SOL    HW132957   1.167   1.669   9.669 -0.1766  0.0707  0.0888
 7166SOL    HW232958   1.296   1.647   9.735  0.7471  0.6732  0.3459
 7167SOL     OW32959   0.720   3.745  10.383 -0.6599  0.2059 -0.7567
 7167SOL    HW132960   0.759   3.743  10.471 -0.8839  1.8240 -0.6144
 7167SOL    HW232961   0.728   3.836  10.354  1.8336  0.5637  1.0402
 7168SOL     OW32962   2.508   0.881   4.677 -0.1299  0.8207  0.2335
 7168SOL    HW132963   2.531   0.952   4.616 -0.3037 -1.6662 -2.7125
 7168SOL    HW232964   2.428   0.838   4.647 -0.0142  1.3061 -0.7759
 7169SOL     OW32965   2.888   1.495   6.251 -0.1493 -0.0316 -0.0359
 7169SOL    HW132966   2.949   1.427   6.281  0.6489  0.4739 -0.5074
 7169SOL    HW232967   2.806   1.457   6.282  0.2924 -1.4087 -0.5790
 7170SOL     OW32968   2.495   3.040  11.131  0.1673 -0.1012  0.0486
 7170SOL    HW132969   2.584   3.023  11.162  0.6265 -0.2149 -1.3308
 7170SOL    HW232970   2.479   3.130  11.158 -0.4737  0.7602 -3.2454
 7171SOL     OW32971   0.516   4.006   1.466  0.3636 -0.1500 -0.1128
 7171SOL    HW132972   0.608   4.033   1.472  0.6260 -0.5291 -2.2603
 7171SOL    HW232973   0.479   4.069   1.404  1.9880 -0.2856 -1.2399
 7172SOL     OW32974   3.538   0.513   1.226 -0.5312 -0.0711 -0.1072
 7172SOL    HW132975   3.477   0.525   1.153  1.3972  1.8167 -1.3847
 7172SOL    HW232976   3.593   0.588   1.206  0.1749 -0.3604  0.7844
 7173SOL     OW32977   0.021   0.401   4.042  0.2029 -0.1249 -0.2238
 7173SOL    HW132978   4.685   0.431   3.975  1.0673  0.6390 -0.6771
 7173SOL    HW232979   0.073   0.338   3.993 -3.0894 -1.3217 -2.1737
 7174SOL     OW32980   1.571   1.026   6.799  1.1104 -0.1664  0.2545
 7174SOL    HW132981   1.502   0.962   6.814  1.3755 -0.3487  0.7335
 7174SOL    HW232982   1.636   1.007   6.867  1.6151  1.2041  0.1505
 7175SOL     OW32983   3.210   3.071   2.657  0.0703  0.1399 -0.2323
 7175SOL    HW132984   3.245   2.982   2.659 -0.9694 -0.2371  1.1682
 7175SOL    HW232985   3.213   3.087   2.562 -1.3331 -1.9858 -0.6534
 7176SOL     OW32986   3.270   0.252   7.043 -0.3278 -0.0728  0.1921
 7176SOL    HW132987   3.270   0.321   6.977  0.7306 -1.4167 -1.2073
 7176SOL    HW232988   3.299   0.297   7.122  2.3216 -0.4787 -0.5596
 7177SOL     OW32989   3.327   1.629   8.804  1.1157  0.2775 -0.2266
 7177SOL    HW132990   3.373   1.702   8.762  0.1833  0.2034 -1.4005
 7177SOL    HW232991   3.310   1.571   8.729  1.1396 -0.1320  0.0860
 7178SOL     OW32992   2.759   4.203  13.137 -0.5439 -0.3749 -0.1249
 7178SOL    HW132993   2.756   4.266  13.209 -4.1312 -1.2309  0.4681
 7178SOL    HW232994   2.830   4.145  13.166 -0.8458 -1.3360 -1.3204
 7179SOL     OW32995   0.559   2.887   8.362 -0.7578  0.6824 -0.3907
 7179SOL    HW132996   0.590   2.797   8.375  0.7078  1.2520  0.0260
 7179SOL    HW232997   0.585   2.917   8.449 -1.5402 -1.0692  0.4733
 7180SOL     OW32998   0.586   2.489  11.766 -0.4189 -0.2578 -0.0190
 7180SOL    HW132999   0.598   2.584  11.768  1.8760 -0.5691  1.0657
 7180SOL    HW233000   0.617   2.479  11.675  1.1778  0.6559  0.4258
 7181SOL     OW33001   4.537   1.549  14.139 -0.7016  0.0221 -0.5390
 7181SOL    HW133002   4.443   1.552  14.154 -0.5698  1.8286 -0.1001
 7181SOL    HW233003   4.574   1.527  14.224  0.7664  1.3628 -0.8240
 7182SOL     OW33004   0.069   1.175   0.061 -0.6339  0.0264 -0.4049
 7182SOL    HW133005   4.707   1.212   0.074 -0.9490 -0.8279 -0.1204
 7182SOL    HW233006   0.109   1.179   0.148  1.2738  0.9958 -1.3221
 7183SOL     OW33007   3.192   1.369  12.701  0.4388  0.0221 -0.6044
 7183SOL    HW133008   3.245   1.429  12.754  0.6950 -0.9073  0.2161
 7183SOL    HW233009   3.256   1.312  12.658  1.9265  1.5324 -0.3574
 7184SOL     OW33010   1.687   2.121   4.275 -0.3671 -0.2022 -0.5477
 7184SOL    HW133011   1.675   2.159   4.363 -1.0339 -0.5339 -0.4923
 7184SOL    HW233012   1.725   2.200   4.235 -0.6600  0.4844  0.5095
 7185SOL     OW33013   3.979   0.875  13.020 -0.4857 -0.9753 -0.0704
 7185SOL    HW133014   3.899   0.853  13.067 -0.5692 -0.8372 -0.1465
 7185SOL    HW233015   4.050   0.825  13.060 -0.7599 -1.4085 -0.1256
 7186SOL     OW33016   4.544   4.547   3.309 -0.1788  0.0249  0.3626
 7186SOL    HW133017   4.625   4.594   3.331  0.1714 -0.0665 -0.7524
 7186SOL    HW233018   4.506   4.599   3.239 -0.2325 -0.4995  0.0022
 7187SOL     OW33019   3.731   1.850   6.188  0.1305 -0.3288  0.5823
 7187SOL    HW133020   3.782   1.930   6.190 -1.3323  0.5745  1.8176
 7187SOL    HW233021   3.644   1.885   6.209 -0.7868 -1.4181 -1.3372
 7188SOL     OW33022   4.670   3.813   8.813  0.2366 -1.0225  0.0670
 7188SOL    HW133023   4.706   3.809   8.724  1.6965 -2.1374  0.7039
 7188SOL    HW233024   4.577   3.813   8.792  0.6671  1.0941 -1.9033
 7189SOL     OW33025   1.072   3.188   7.932  0.1107 -0.4357 -0.5965
 7189SOL    HW133026   1.039   3.261   7.984 -0.5751  0.2727 -2.0445
 7189SOL    HW233027   0.999   3.127   7.937 -0.6907  0.5278 -0.5474
 7190SOL     OW33028   0.235   2.290   8.848  0.1877 -0.3232 -0.7004
 7190SOL    HW133029   0.281   2.290   8.764 -0.1632  1.3292 -0.8905
 7190SOL    HW233030   0.145   2.316   8.828 -0.1990 -1.4326 -0.3974
 7191SOL     OW33031   3.872   1.172   7.204  0.1597  0.5663 -0.0342
 7191SOL    HW133032   3.794   1.213   7.168 -0.2120  0.8290  1.0649
 7191SOL    HW233033   3.932   1.179   7.130  0.6698  0.0571  0.3311
 7192SOL     OW33034   0.442   1.434   1.678 -0.1955  0.2922  0.4482
 7192SOL    HW133035   0.427   1.339   1.683  1.1376 -0.0447 -1.9577
 7192SOL    HW233036   0.361   1.461   1.637  0.6932  2.2941  0.0349
 7193SOL     OW33037   3.726   2.953  13.601  0.1416  0.0682  0.1837
 7193SOL    HW133038   3.731   3.047  13.617 -0.6104  0.4339 -1.6437
 7193SOL    HW233039   3.640   2.937  13.562  0.1909  1.0347 -0.3325
 7194SOL     OW33040   1.579   2.482   8.233  0.1192 -0.6587 -0.7058
 7194SOL    HW133041   1.618   2.469   8.319 -2.3578  0.4759  0.5830
 7194SOL    HW233042   1.640   2.437   8.175  3.1289  1.5062  0.8206
 7195SOL     OW33043   1.935   0.472   0.586 -0.3600  0.3918  0.5582
 7195SOL    HW133044   2.022   0.497   0.616 -0.1993  2.1115 -1.3662
 7195SOL    HW233045   1.958   0.420   0.509  0.1537  2.2592 -0.5525
 7196SOL     OW33046   2.575   1.992   3.865 -0.0431 -0.6687  0.6103
 7196SOL    HW133047   2.520   1.945   3.802  0.4635  0.8957 -0.9753
 7196SOL    HW233048   2.510   2.040   3.918 -1.1476  1.2105 -2.4445
 7197SOL     OW33049   4.657   2.201   6.369  0.2693 -0.0662  0.0344
 7197SOL    HW133050   4.674   2.271   6.306  0.8414  0.0148  0.2777
 7197SOL    HW233051   4.590   2.238   6.425  0.8687 -0.4016  0.9661
 7198SOL     OW33052   3.189   1.762   3.622  0.0863  0.6092  0.2366
 7198SOL    HW133053   3.182   1.667   3.612 -0.9780  0.4873  2.0676
 7198SOL    HW233054   3.284   1.770   3.612 -0.1077  2.3550 -0.2062
 7199SOL     OW33055   1.533   1.752   3.086 -0.6445 -0.4853  0.0704
 7199SOL    HW133056   1.476   1.758   3.163 -2.5001  0.1790 -1.3498
 7199SOL    HW233057   1.612   1.711   3.121  0.7851 -0.5787 -3.2730
 7200SOL     OW33058   0.112   0.680  17.109  0.1834  0.2737  0.1820
 7200SOL    HW133059   0.062   0.598  17.104  1.8567 -0.7504  0.0591
 7200SOL    HW233060   0.191   0.645  17.149  1.1855  1.9497 -0.3604
 7201SOL     OW33061   2.547   2.997   5.486  0.6225  0.4686 -0.2056
 7201SOL    HW133062   2.471   3.054   5.470  0.1712  0.2986  1.3457
 7201SOL    HW233063   2.593   3.044   5.555 -2.0210  2.2510  0.3561
 7202SOL     OW33064   3.191   2.976   0.179  0.0456 -0.4339  0.0153
 7202SOL    HW133065   3.226   3.004   0.095 -4.2536 -0.6500 -1.8415
 7202SOL    HW233066   3.254   3.017   0.238 -1.5977  0.4117  1.1750
 7203SOL     OW33067   2.353   3.129  14.791  0.5120 -0.1773  0.0329
 7203SOL    HW133068   2.351   3.058  14.856 -0.7963  1.7384  2.1109
 7203SOL    HW233069   2.355   3.208  14.846 -1.0377 -0.5770  0.6561
 7204SOL     OW33070   2.041   3.252   9.985 -0.4183 -0.1625 -0.6621
 7204SOL    HW133071   2.080   3.339   9.984  0.5871 -0.6092  1.2774
 7204SOL    HW233072   2.078   3.233  10.071 -0.3618 -0.6275 -0.7843
 7205SOL     OW33073   0.435   2.391   3.354 -0.3764 -0.3396 -0.6870
 7205SOL    HW133074   0.360   2.418   3.301 -1.5815 -0.2128  1.0803
 7205SOL    HW233075   0.397   2.409   3.440  0.2719  0.1643 -0.5135
 7206SOL     OW33076   2.622   2.009  13.482 -0.3589  0.1998 -0.1321
 7206SOL    HW133077   2.662   1.923  13.497 -0.9810 -0.7820 -4.0564
 7206SOL    HW233078   2.536   2.004  13.524 -0.7462  0.5982 -0.8675
 7207SOL     OW33079   3.997   0.533   5.198  0.0189 -0.8892  0.5308
 7207SOL    HW133080   3.902   0.523   5.188 -0.0904  0.9912 -0.4884
 7207SOL    HW233081   4.026   0.586   5.123  0.7350 -1.4376  0.4209
 7208SOL     OW33082   3.396   4.363   5.232 -0.2135  0.0294  0.4249
 7208SOL    HW133083   3.394   4.270   5.255 -1.7429  0.1260  0.7350
 7208SOL    HW233084   3.355   4.391   5.314 -1.8780  1.8249 -1.0143
 7209SOL     OW33085   2.575   4.462   5.125  0.0603  0.0477  0.1493
 7209SOL    HW133086   2.490   4.434   5.159  0.0261 -0.1557 -0.1021
 7209SOL    HW233087   2.606   4.378   5.091 -2.9282 -1.6962  1.7492
 7210SOL     OW33088   0.583   1.396  16.353  0.1824 -0.3102  0.4854
 7210SOL    HW133089   0.576   1.483  16.393 -0.3604  0.6227 -1.6163
 7210SOL    HW233090   0.529   1.338  16.407  1.1338 -1.6782 -0.0455
 7211SOL     OW33091   4.070   3.584   6.840  0.0680 -0.3454  0.4276
 7211SOL    HW133092   4.053   3.560   6.748 -1.5044  0.3693  0.5209
 7211SOL    HW233093   3.981   3.568   6.872  0.3642 -0.2338  1.2876
 7212SOL     OW33094   3.009   3.791   8.595 -0.0198 -0.4537 -0.2219
 7212SOL    HW133095   2.926   3.745   8.580 -0.8512  1.4039 -1.3302
 7212SOL    HW233096   2.997   3.805   8.689  0.3218  0.2658 -0.2880
 7213SOL     OW33097   2.813   3.610   2.891 -0.0767  0.4989  0.4571
 7213SOL    HW133098   2.875   3.651   2.831  1.8218 -3.4263 -0.2699
 7213SOL    HW233099   2.865   3.535   2.922 -0.2297 -0.1014 -0.7302
 7214SOL     OW33100   2.033   1.373   2.156 -0.4921  0.2399  0.3175
 7214SOL    HW133101   2.127   1.354   2.159 -0.4192  0.8427  1.7657
 7214SOL    HW233102   2.027   1.414   2.242  2.1931  0.2088  0.5277
 7215SOL     OW33103   1.082   1.040   6.046 -0.0676 -0.4326  0.1821
 7215SOL    HW133104   1.103   1.119   6.097  1.9515  0.1446 -1.5549
 7215SOL    HW233105   1.012   1.064   5.985 -1.5856  0.8976  2.3932
 7216SOL     OW33106   0.811   4.605   5.338 -0.2250  0.2441  0.3240
 7216SOL    HW133107   0.775   4.635   5.421 -0.6100 -2.3714  1.1040
 7216SOL    HW233108   0.844   4.685   5.299 -0.7047  0.4004  0.2379
 7217SOL     OW33109   3.453   0.052   5.406  0.1021 -0.3814 -0.0403
 7217SOL    HW133110   3.476   0.057   5.313  0.5348  0.2832  0.1033
 7217SOL    HW233111   3.541   0.075   5.435  0.7387 -0.1908 -2.1577
 7218SOL     OW33112   2.375   0.041   5.189  0.5912  0.5872  0.0926
 7218SOL    HW133113   2.431   0.117   5.175  0.1420  1.1472  1.3317
 7218SOL    HW233114   2.302   0.071   5.134  0.5441  0.2328 -0.0389
 7219SOL     OW33115   3.192   1.888   4.532  0.1069  0.1168  0.2563
 7219SOL    HW133116   3.102   1.920   4.539 -0.3330 -0.7401 -1.5873
 7219SOL    HW233117   3.186   1.822   4.601 -1.3549 -0.4364 -0.3979
 7220SOL     OW33118   2.758   1.917   6.057  0.4917  0.1291 -0.3337
 7220SOL    HW133119   2.677   1.893   6.014  0.9700 -0.3688 -0.9560
 7220SOL    HW233120   2.776   2.007   6.032  0.4557  0.7539  1.8374
 7221SOL     OW33121   3.629   1.389   7.591 -0.2874 -0.2951 -0.3948
 7221SOL    HW133122   3.660   1.311   7.546 -2.5137 -2.1696  1.3346
 7221SOL    HW233123   3.590   1.440   7.521 -2.6470  0.3215  1.3678
 7222SOL     OW33124   3.677   4.178   5.412 -0.0361  0.2118  0.1836
 7222SOL    HW133125   3.689   4.121   5.488 -0.5096 -0.0188  0.0847
 7222SOL    HW233126   3.646   4.255   5.459  0.4258  0.1165  0.6462
 7223SOL     OW33127   1.060   4.565   7.692  0.0140  0.2730  0.2965
 7223SOL    HW133128   0.976   4.597   7.661  0.0711  0.0371 -0.1019
 7223SOL    HW233129   1.064   4.474   7.662  2.3108  0.3149  0.4714
 7224SOL     OW33130   3.021   1.521   7.047  0.0521 -0.4848  0.5006
 7224SOL    HW133131   3.004   1.566   6.964 -0.2635  1.1730  1.4484
 7224SOL    HW233132   2.979   1.439   7.024 -4.0288  1.4727  0.8459
 7225SOL     OW33133   4.539   0.933  16.599 -0.9696  0.1133 -0.1501
 7225SOL    HW133134   4.596   1.005  16.573 -0.4861  0.2372  1.2994
 7225SOL    HW233135   4.530   0.952  16.692 -0.1738 -0.5153  0.0575
 7226SOL     OW33136   1.032   3.116   7.147  0.2643  0.6072  0.5398
 7226SOL    HW133137   0.984   3.034   7.160  0.7139 -0.1295 -2.3990
 7226SOL    HW233138   1.031   3.142   7.239 -1.5055 -1.4364  1.1129
 7227SOL     OW33139   2.602   0.446   4.563  0.4083  0.3762  0.2919
 7227SOL    HW133140   2.694   0.434   4.540  0.6981  0.8425  1.2049
 7227SOL    HW233141   2.587   0.400   4.646 -0.4416  0.1499  0.0108
 7228SOL     OW33142   2.955   1.558  12.541  0.0329  0.4930  0.0507
 7228SOL    HW133143   2.911   1.550  12.625  1.2159  3.7511  0.9662
 7228SOL    HW233144   2.974   1.652  12.538  1.6039  0.1877  0.5586
 7229SOL     OW33145   2.626   1.548   9.295  0.0712  0.4144  0.3477
 7229SOL    HW133146   2.666   1.477   9.245  2.7411  2.9023 -1.0861
 7229SOL    HW233147   2.663   1.626   9.253 -1.2422  1.4047  1.0372
 7230SOL     OW33148   4.287   3.531   0.858 -0.2692  0.4674 -0.1967
 7230SOL    HW133149   4.381   3.548   0.855 -0.6533  3.0985  1.9250
 7230SOL    HW233150   4.252   3.578   0.783  1.5520  1.0274 -0.7030
 7231SOL     OW33151   1.728   1.502  11.048  0.3510 -0.0931 -0.0213
 7231SOL    HW133152   1.759   1.412  11.055 -3.0184 -1.3717 -1.4709
 7231SOL    HW233153   1.696   1.513  11.138  0.6838  0.2852  0.0542
 7232SOL     OW33154   3.773   3.725   7.197 -0.3366  0.3830 -0.0045
 7232SOL    HW133155   3.774   3.673   7.277  0.7325  0.6789  0.1701
 7232SOL    HW233156   3.730   3.663   7.138 -2.1488  0.7814  0.8862
 7233SOL     OW33157   1.272   3.731   6.180 -0.0138  0.0550  0.2655
 7233SOL    HW133158   1.216   3.806   6.199  1.1918  0.7666  0.9840
 7233SOL    HW233159   1.344   3.772   6.131 -0.0128 -1.5164 -1.0628
 7234SOL     OW33160   2.705   0.088   6.288  0.1472  0.2849  0.4509
 7234SOL    HW133161   2.673   0.177   6.272 -0.5259 -0.2754 -1.2422
 7234SOL    HW233162   2.799   0.106   6.277  0.0578  0.1128 -0.5632
 7235SOL     OW33163   2.792   4.248   5.995  0.1873 -0.2925 -0.3747
 7235SOL    HW133164   2.794   4.155   6.018  2.7316 -0.1458  0.0082
 7235SOL    HW233165   2.705   4.266   6.031 -0.0431 -1.5538 -0.2979
 7236SOL     OW33166   2.336   0.319   2.689  0.0796  0.2758 -0.0953
 7236SOL    HW133167   2.269   0.346   2.753 -0.4096  1.2004 -1.0018
 7236SOL    HW233168   2.347   0.229   2.720  2.4918  1.3721  2.2762
 7237SOL     OW33169   2.213   2.365   1.162 -0.5876  0.1166 -0.1627
 7237SOL    HW133170   2.199   2.459   1.167  1.1857  0.3576  0.4050
 7237SOL    HW233171   2.125   2.331   1.173 -1.7288  2.5758 -1.6979
 7238SOL     OW33172   2.198   2.544   5.421  0.1573  0.4299 -0.2511
 7238SOL    HW133173   2.255   2.614   5.390  0.2130  0.5992  0.2347
 7238SOL    HW233174   2.208   2.564   5.514 -2.1387  0.4235  0.0022
 7239SOL     OW33175   1.101   1.600   7.104  0.2715 -0.0127  0.1027
 7239SOL    HW133176   1.084   1.692   7.122 -1.2031  0.0590 -1.6503
 7239SOL    HW233177   1.189   1.601   7.066  1.1565 -1.9547  2.0905
 7240SOL     OW33178   1.147   2.301  11.400 -0.1807  0.0561 -0.0063
 7240SOL    HW133179   1.182   2.387  11.379  0.2133  0.0123  0.4525
 7240SOL    HW233180   1.074   2.295  11.339  0.2911 -1.9395 -0.3826
 7241SOL     OW33181   1.794   0.758   5.017 -0.1844 -0.3120  0.4066
 7241SOL    HW133182   1.814   0.831   4.958  0.3193 -0.1671  0.7527
 7241SOL    HW233183   1.756   0.701   4.951  1.6674  0.7249 -1.5674
 7242SOL     OW33184   3.044   4.020   2.578 -0.4439  0.1123  0.1412
 7242SOL    HW133185   3.062   4.110   2.551  4.2855 -0.1294  2.4771
 7242SOL    HW233186   2.981   3.992   2.512 -0.1586 -0.0596 -0.0603
 7243SOL     OW33187   2.690   3.138   1.749 -0.2979  0.0423 -0.8317
 7243SOL    HW133188   2.674   3.045   1.763  0.0320  0.2300  0.8336
 7243SOL    HW233189   2.606   3.169   1.784  0.7794  0.5642  1.2774
 7244SOL     OW33190   2.295   3.149   6.362 -0.3398  0.3578 -0.3255
 7244SOL    HW133191   2.372   3.202   6.340  0.3604 -1.2890 -1.8784
 7244SOL    HW233192   2.293   3.144   6.457  0.8025 -0.0441 -0.3254
 7245SOL     OW33193   4.526   3.737   4.030 -0.1462 -0.3370 -0.4247
 7245SOL    HW133194   4.455   3.680   4.060 -1.7404  2.9473  1.9565
 7245SOL    HW233195   4.599   3.679   4.054 -0.0806 -1.2110 -2.7313
 7246SOL     OW33196   0.287   4.240   2.954 -0.4770 -0.1643  0.3470
 7246SOL    HW133197   0.369   4.261   2.997 -0.2538 -0.8197  0.2514
 7246SOL    HW233198   0.319   4.224   2.865 -0.4589 -0.4372  0.4005
 7247SOL     OW33199   4.078   2.742   8.463 -0.3065  0.2115  0.4029
 7247SOL    HW133200   4.103   2.677   8.528  1.5042 -0.4796 -0.9954
 7247SOL    HW233201   4.104   2.823   8.508 -2.6615 -0.0369  2.2200
 7248SOL     OW33202   3.111   3.725   6.959 -0.1821 -0.3502  0.0377
 7248SOL    HW133203   3.086   3.755   7.047  0.5759  2.2875 -0.6427
 7248SOL    HW233204   3.055   3.786   6.911 -0.2270  0.7223  1.4437
 7249SOL     OW33205   1.627   3.003   6.845  0.0292 -0.2805  0.0837
 7249SOL    HW133206   1.643   2.935   6.780  1.2685  0.8591 -0.8040
 7249SOL    HW233207   1.698   2.985   6.905 -0.4599  2.1838  1.4026
 7250SOL     OW33208   0.274   0.778  13.540  0.2481  0.2816 -0.1686
 7250SOL    HW133209   0.272   0.763  13.634  2.1669  1.1330  0.0166
 7250SOL    HW233210   0.351   0.833  13.523  1.1252 -0.9307 -0.1966
 7251SOL     OW33211   2.213   0.337   2.277  0.1286  0.1705  0.2567
 7251SOL    HW133212   2.256   0.401   2.221  0.6987  0.9900  1.6531
 7251SOL    HW233213   2.273   0.263   2.273 -1.1368 -0.8147 -0.8497
 7252SOL     OW33214   0.502   2.945   9.105  0.3567  0.2635  0.4172
 7252SOL    HW133215   0.430   2.883   9.092 -0.7383  1.4880  0.7059
 7252SOL    HW233216   0.448   3.018   9.133 -0.6917  0.9255 -3.2864
 7253SOL     OW33217   3.054   3.744   6.220  0.1978  0.1158  0.0018
 7253SOL    HW133218   3.070   3.727   6.313 -0.1104  0.3553  0.0976
 7253SOL    HW233219   3.035   3.837   6.230  2.0104  0.5940 -1.0489
 7254SOL     OW33220   1.138   1.642   0.332 -0.3439  0.4219 -0.5683
 7254SOL    HW133221   1.226   1.608   0.349  0.3512  2.1670 -0.5905
 7254SOL    HW233222   1.118   1.693   0.411 -1.7239  0.9476 -1.2586
 7255SOL     OW33223   0.649   4.566   2.005 -0.2626  0.1217  0.0347
 7255SOL    HW133224   0.727   4.597   1.959 -1.1105  0.9174 -0.8811
 7255SOL    HW233225   0.669   4.473   1.999  1.2987  0.3283  2.0636
 7256SOL     OW33226   4.090   4.598   7.795  0.4286  0.4413  0.5284
 7256SOL    HW133227   4.094   4.693   7.782  0.9483  0.7032  2.5590
 7256SOL    HW233228   3.995   4.592   7.808  0.7606 -3.2851  1.2305
 7257SOL     OW33229   0.357   2.511   1.469 -0.0300  0.4262 -0.1027
 7257SOL    HW133230   0.270   2.474   1.454 -1.0010  2.0953  1.3527
 7257SOL    HW233231   0.408   2.432   1.454 -1.9535 -1.0159  0.8805
 7258SOL     OW33232   2.556   1.309  13.137  0.2170 -0.3304 -0.5186
 7258SOL    HW133233   2.469   1.346  13.152 -0.5919 -3.0222  1.4892
 7258SOL    HW233234   2.561   1.257  13.217  1.4976  1.3052  0.4621
 7259SOL     OW33235   1.827   4.360   6.951 -0.0613  0.2861  0.1187
 7259SOL    HW133236   1.748   4.363   7.005  1.5475  0.3362  2.4498
 7259SOL    HW233237   1.833   4.265   6.939  1.2598  0.2364  1.1482
 7260SOL     OW33238   3.193   0.681   6.056  0.3535 -0.0401 -0.0590
 7260SOL    HW133239   3.099   0.674   6.069  0.1985  0.8261 -0.7563
 7260SOL    HW233240   3.198   0.610   5.992 -0.1535 -1.6394  1.6592
 7261SOL     OW33241   2.463   0.743   4.022  0.3040  0.1596  0.2638
 7261SOL    HW133242   2.383   0.705   3.986 -0.7092  0.5259  2.1250
 7261SOL    HW233243   2.443   0.836   4.024 -1.5651 -0.2203 -1.3788
 7262SOL     OW33244   1.021   1.684  12.104 -0.2099 -0.2881  0.1162
 7262SOL    HW133245   1.019   1.779  12.116 -0.4323 -0.3136  0.2729
 7262SOL    HW233246   0.933   1.662  12.132 -1.1986  2.9369 -0.4234
 7263SOL     OW33247   0.514   1.709   3.809 -0.0472 -0.0202  0.1394
 7263SOL    HW133248   0.516   1.721   3.904  0.2155  1.0045  0.0036
 7263SOL    HW233249   0.431   1.754   3.793 -0.8775 -1.1830  1.1642
 7264SOL     OW33250   4.580   1.737   4.821 -0.2964 -0.5550 -0.2480
 7264SOL    HW133251   4.537   1.652   4.831 -1.2620 -0.1355 -0.8792
 7264SOL    HW233252   4.507   1.796   4.802  0.0937  0.3921  1.1694
 7265SOL     OW33253   2.495   1.909   2.951  0.1951  0.0184  0.0230
 7265SOL    HW133254   2.457   1.863   3.026 -0.3186 -0.9623 -0.8310
 7265SOL    HW233255   2.562   1.844   2.935 -1.7098 -1.6791 -1.1030
 7266SOL     OW33256   2.828   2.033   9.574  0.5992  0.2405  0.6581
 7266SOL    HW133257   2.911   2.037   9.526  1.0390  0.3882  1.4278
 7266SOL    HW233258   2.839   2.081   9.656 -1.2248  2.1670 -0.2275
 7267SOL     OW33259   3.149   1.291   7.530 -0.0001 -0.1508  0.2837
 7267SOL    HW133260   3.086   1.276   7.459  1.3441  0.5009 -1.0549
 7267SOL    HW233261   3.084   1.305   7.599 -0.9496  0.5578 -0.7472
 7268SOL     OW33262   3.968   2.246   7.677 -0.1781  0.0943 -0.0580
 7268SOL    HW133263   3.982   2.156   7.707 -1.3784 -0.2210 -0.4772
 7268SOL    HW233264   4.013   2.297   7.745  0.1183  0.7628 -0.7609
 7269SOL     OW33265   3.070   4.368   5.045  0.2211  0.4969 -0.1484
 7269SOL    HW133266   3.087   4.460   5.063 -0.1740  0.4656  0.3772
 7269SOL    HW233267   3.029   4.377   4.959  3.3789 -0.1931 -1.7412
 7270SOL     OW33268   2.505   2.273  15.153  0.8557  0.0022 -0.4582
 7270SOL    HW133269   2.478   2.186  15.183  0.3473  1.1574  2.4307
 7270SOL    HW233270   2.454   2.285  15.073 -0.3338 -1.5496  0.0680
 7271SOL     OW33271   0.266   0.142   0.243  0.0365  0.4846 -0.6414
 7271SOL    HW133272   0.253   0.064   0.190  0.1162 -0.0355  0.1094
 7271SOL    HW233273   0.179   0.143   0.282  1.1788 -1.9804  1.8683
 7272SOL     OW33274   4.550   1.781   5.964 -0.2902 -0.6116  0.5860
 7272SOL    HW133275   4.601   1.701   5.980  0.5020 -0.1340  0.4495
 7272SOL    HW233276   4.502   1.783   6.047 -0.8395 -0.9736  0.2776
 7273SOL     OW33277   2.816   3.345   2.439 -0.2199 -0.1592 -0.1206
 7273SOL    HW133278   2.800   3.342   2.533  1.4936  3.9086  0.3263
 7273SOL    HW233279   2.848   3.256   2.426  0.7817  0.8748 -4.8801
 7274SOL     OW33280   3.890   0.206  12.601  0.1648 -0.0944 -0.2096
 7274SOL    HW133281   3.864   0.265  12.532  0.3466 -0.7114 -0.8054
 7274SOL    HW233282   3.977   0.187  12.566  0.3292  1.5575 -0.6598
 7275SOL     OW33283   2.648   3.466   6.778 -0.1315 -0.3206 -0.5065
 7275SOL    HW133284   2.622   3.391   6.832  0.0552  0.9655  1.3241
 7275SOL    HW233285   2.639   3.537   6.841  0.2176 -2.3698  1.8402
 7276SOL     OW33286   3.547   0.290   7.555  0.0910 -0.9095  0.0189
 7276SOL    HW133287   3.608   0.309   7.626 -1.7152  1.4090  0.9297
 7276SOL    HW233288   3.469   0.329   7.593  0.2160 -1.7734  1.1700
 7277SOL     OW33289   3.378   1.512   2.065 -0.1708 -0.0946  0.0840
 7277SOL    HW133290   3.391   1.451   2.137  0.2292  0.9135  0.8647
 7277SOL    HW233291   3.338   1.464   1.993 -0.3209  0.7275 -0.3922
 7278SOL     OW33292   2.429   3.299  11.166  0.2877 -0.2437  0.2958
 7278SOL    HW133293   2.455   3.335  11.081 -1.9440  0.8837  0.0914
 7278SOL    HW233294   2.421   3.383  11.212 -0.7102  0.7435 -1.6744
 7279SOL     OW33295   3.903   2.382   6.111 -0.0800 -0.1998 -0.3446
 7279SOL    HW133296   3.937   2.365   6.199  0.9582 -0.0180 -0.7057
 7279SOL    HW233297   3.825   2.436   6.124  0.1330 -0.0483  0.2978
 7280SOL     OW33298   3.704   1.505   7.819 -0.2599 -0.0138  0.2521
 7280SOL    HW133299   3.783   1.463   7.853 -0.8598 -0.7539  0.7435
 7280SOL    HW233300   3.701   1.471   7.730 -0.7924  1.2133 -0.2083
 7281SOL     OW33301   1.795   2.559  16.769  0.1145 -0.6039  0.2106
 7281SOL    HW133302   1.844   2.537  16.689 -1.7133 -2.4965 -0.3829
 7281SOL    HW233303   1.836   2.642  16.795 -2.3965  1.0078 -0.9582
 7282SOL     OW33304   2.801   2.617   3.509  0.1276  0.1342  0.3973
 7282SOL    HW133305   2.749   2.693   3.534 -0.4156  0.4656 -1.7363
 7282SOL    HW233306   2.757   2.598   3.426  0.4313  1.0888  0.0208
 7283SOL     OW33307   3.949   0.699   7.790  0.3888 -0.1385 -0.0059
 7283SOL    HW133308   3.927   0.792   7.791  2.1395  0.2931 -3.2564
 7283SOL    HW233309   3.859   0.668   7.800  1.3188 -2.6959  0.5005
 7284SOL     OW33310   1.340   2.701   2.073 -0.4020  0.6829  0.1438
 7284SOL    HW133311   1.366   2.763   2.005  0.4278 -0.1034 -0.2521
 7284SOL    HW233312   1.317   2.623   2.023 -0.1580  0.3526  0.5449
 7285SOL     OW33313   3.806   4.508  16.193 -0.3310 -0.4183  0.2743
 7285SOL    HW133314   3.881   4.492  16.136 -0.4195  1.6207 -0.4338
 7285SOL    HW233315   3.729   4.491  16.139 -1.8665  1.2508  1.9141
 7286SOL     OW33316   1.670   1.968  10.154 -0.2437  0.4997 -0.4903
 7286SOL    HW133317   1.705   1.890  10.198 -0.4108  1.6850  1.7567
 7286SOL    HW233318   1.732   1.979  10.082 -3.2937  1.1167 -2.9911
 7287SOL     OW33319   3.043   4.476   7.845  0.1794  0.8207  0.4505
 7287SOL    HW133320   3.079   4.404   7.896  0.5122 -0.3298 -1.4212
 7287SOL    HW233321   2.970   4.431   7.802  0.8525  1.8893 -1.8735
 7288SOL     OW33322   3.316   3.031   7.397  0.1520  0.6516  0.4289
 7288SOL    HW133323   3.320   2.945   7.355 -2.5206 -0.3515  2.1900
 7288SOL    HW233324   3.350   3.006   7.483  2.3652  1.2650 -0.2739
 7289SOL     OW33325   0.501   0.239   3.183 -0.1690 -0.2855 -0.2054
 7289SOL    HW133326   0.498   0.235   3.279  1.6007  1.4718 -0.0572
 7289SOL    HW233327   0.544   0.324   3.170  0.2602 -0.5002 -0.2058
 7290SOL     OW33328   1.309   1.706  12.091  0.1120  0.0456 -0.5498
 7290SOL    HW133329   1.214   1.697  12.099  0.3656 -1.3364  0.7778
 7290SOL    HW233330   1.321   1.796  12.122 -1.3546  0.0790 -0.0794
 7291SOL     OW33331   1.030   0.350  14.550  0.0733  0.2027 -0.3703
 7291SOL    HW133332   1.092   0.333  14.621  1.3299  0.2809 -1.4381
 7291SOL    HW233333   0.974   0.420  14.585  1.7041  1.8979 -1.1218
 7292SOL     OW33334   1.491   1.863   7.424 -0.1096 -0.1161  0.1404
 7292SOL    HW133335   1.427   1.910   7.477  2.0319  0.6357  2.0794
 7292SOL    HW233336   1.442   1.784   7.402  0.5228 -0.9582  1.7152
 7293SOL     OW33337   1.515   3.860  11.991 -0.4281 -0.0710  0.1222
 7293SOL    HW133338   1.475   3.947  11.984  0.3879  0.1954 -1.1722
 7293SOL    HW233339   1.533   3.828  11.903 -3.2154  1.0455 -0.8354
 7294SOL     OW33340   4.003   4.334  10.127 -0.3672 -0.0584 -0.5206
 7294SOL    HW133341   4.092   4.301  10.114  0.0153  0.2703  1.3027
 7294SOL    HW233342   3.996   4.321  10.221  3.4358  2.9912  0.2068
 7295SOL     OW33343   0.979   2.324  11.202 -0.4935  0.2176  0.2221
 7295SOL    HW133344   0.899   2.365  11.234  0.7898  0.5337  2.9886
 7295SOL    HW233345   1.005   2.389  11.137  1.2209 -0.6301  0.0495
 7296SOL     OW33346   0.220   3.010   0.752  0.1236 -0.3183 -0.3702
 7296SOL    HW133347   0.126   2.996   0.763  0.6434 -2.1590  1.7095
 7296SOL    HW233348   0.264   2.944   0.806 -0.2885  0.6295  1.1044
 7297SOL     OW33349   4.548   3.017   8.528 -0.0238  0.3323  0.1985
 7297SOL    HW133350   4.635   2.976   8.536 -1.2184 -2.4661 -1.1524
 7297SOL    HW233351   4.497   2.969   8.593 -0.7652 -1.0969 -1.4558
 7298SOL     OW33352   2.953   0.421   3.815 -0.1037 -0.3040  0.1509
 7298SOL    HW133353   2.888   0.383   3.756  0.1680  0.3595 -0.5713
 7298SOL    HW233354   2.918   0.507   3.836 -1.9108 -0.4130 -2.3652
 7299SOL     OW33355   0.716   3.566   5.759  0.4981 -0.0971  0.0098
 7299SOL    HW133356   0.701   3.616   5.839 -0.1205  1.0361 -0.8192
 7299SOL    HW233357   0.730   3.480   5.800  0.6326  0.5521  1.3542
 7300SOL     OW33358   1.394   2.403   2.745  0.1603 -0.0480 -0.5882
 7300SOL    HW133359   1.336   2.369   2.813  0.4093 -0.7005 -0.7077
 7300SOL    HW233360   1.444   2.326   2.719 -3.6727 -3.2324  1.5538
 7301SOL     OW33361   2.583   2.998   2.789  0.5398 -0.5435 -0.4740
 7301SOL    HW133362   2.605   3.017   2.698  1.3912 -0.0158 -0.1605
 7301SOL    HW233363   2.594   3.087   2.823 -1.2863  0.3310 -2.1892
 7302SOL     OW33364   0.043   2.452  15.327 -0.0990 -0.0917 -0.4682
 7302SOL    HW133365   4.693   2.401  15.358 -1.3624  1.4936 -0.9698
 7302SOL    HW233366   0.058   2.401  15.248 -1.8429 -1.8270  0.3241
 7303SOL     OW33367   0.839   2.448   4.696 -0.1829  0.0379  0.2566
 7303SOL    HW133368   0.840   2.520   4.759 -0.5187 -2.0101  2.5644
 7303SOL    HW233369   0.746   2.443   4.673  0.1505  0.1650 -1.1197
 7304SOL     OW33370   3.630   4.132   8.819  0.3976 -0.6749 -0.0514
 7304SOL    HW133371   3.560   4.159   8.878  0.8429 -1.3460  0.7770
 7304SOL    HW233372   3.643   4.210   8.765 -2.4863 -2.0545 -2.7713
 7305SOL     OW33373   4.580   1.933   3.976  0.0161 -0.5057 -0.2447
 7305SOL    HW133374   4.547   2.017   3.944  2.0205  0.1650 -0.5665
 7305SOL    HW233375   4.673   1.951   3.989  0.3470 -0.4477 -2.8176
 7306SOL     OW33376   3.078   2.752   6.153  0.0191  0.4806  0.1429
 7306SOL    HW133377   3.000   2.800   6.127 -0.9916  0.1207  2.5128
 7306SOL    HW233378   3.123   2.752   6.068  1.5120 -0.7649  0.9267
 7307SOL     OW33379   1.950   2.409  11.383  0.6094  0.1049 -0.1092
 7307SOL    HW133380   2.031   2.450  11.352  1.7985 -1.6105  0.7634
 7307SOL    HW233381   1.924   2.468  11.454  1.0125  0.6099 -0.3759
 7308SOL     OW33382   4.297   1.733   4.229 -0.0267 -0.2559  0.2710
 7308SOL    HW133383   4.284   1.792   4.155  0.8899 -1.3974 -0.7968
 7308SOL    HW233384   4.303   1.801   4.296  0.1522  0.5015 -0.5121
 7309SOL     OW33385   0.894   2.846   7.108  0.5797  0.0431 -0.3337
 7309SOL    HW133386   0.853   2.905   7.045  1.4992 -0.3980 -1.3425
 7309SOL    HW233387   0.858   2.762   7.081  0.3738  0.3708 -1.0833
 7310SOL     OW33388   2.241   3.465   3.630  0.1555  0.2142  0.0795
 7310SOL    HW133389   2.180   3.418   3.574  1.8892 -1.9550  0.0322
 7310SOL    HW233390   2.225   3.432   3.719  0.3929 -2.0891 -0.7478
 7311SOL     OW33391   0.802   1.919   7.517  0.2025 -0.2314 -0.2512
 7311SOL    HW133392   0.716   1.877   7.509 -0.1311 -0.1333  2.8702
 7311SOL    HW233393   0.853   1.845   7.484 -0.0036 -0.4249 -0.1343
 7312SOL     OW33394   4.446   1.912  17.670 -0.3636 -0.3649  0.3117
 7312SOL    HW133395   4.466   1.890   0.059 -2.0388  0.6681  0.9138
 7312SOL    HW233396   4.515   1.972  17.642 -2.1290  1.8060  0.6815
 7313SOL     OW33397   1.297   3.662  12.326  0.3276 -0.1722 -0.2398
 7313SOL    HW133398   1.355   3.732  12.354 -0.7121  0.5401  0.1373
 7313SOL    HW233399   1.360   3.601  12.289  1.0463  0.9125 -0.7965
 7314SOL     OW33400   0.871   1.241   8.712 -0.2797  0.9101  0.3185
 7314SOL    HW133401   0.882   1.293   8.792  0.1515  0.6700  0.4115
 7314SOL    HW233402   0.872   1.155   8.755 -1.7185  1.7818  2.1093
 7315SOL     OW33403   4.557   4.507   8.049  0.2161  0.5677  0.0029
 7315SOL    HW133404   4.492   4.439   8.069  1.7777 -0.3646  1.8831
 7315SOL    HW233405   4.621   4.469   7.989 -0.9224 -0.8551 -0.3061
 7316SOL     OW33406   1.361   0.977  17.172 -0.0358  0.1558 -0.2327
 7316SOL    HW133407   1.365   0.894  17.220 -0.9583  0.1311 -0.1898
 7316SOL    HW233408   1.278   0.976  17.125  0.0005 -0.8539 -0.2745
 7317SOL     OW33409   3.983   0.199   7.555  0.2795 -0.3210  0.3353
 7317SOL    HW133410   3.986   0.277   7.611  0.4939  0.2306 -0.4500
 7317SOL    HW233411   4.065   0.159   7.583  0.0002 -0.4510  0.9706
 7318SOL     OW33412   0.380   2.871   3.490  0.4339  0.2839  0.7840
 7318SOL    HW133413   0.289   2.853   3.466  0.3371  1.0409  0.5886
 7318SOL    HW233414   0.415   2.788   3.523  0.1647  0.1078  0.6213
 7319SOL     OW33415   2.104   3.413   7.030  0.4051  0.1943 -0.3305
 7319SOL    HW133416   2.167   3.378   6.966  1.4403  0.1963  0.6942
 7319SOL    HW233417   2.035   3.367   6.981 -1.7448  1.5023  1.4954
 7320SOL     OW33418   0.952   2.518  15.041 -0.6515 -0.4895 -0.2647
 7320SOL    HW133419   0.916   2.492  14.956  0.0521  0.4831 -0.8535
 7320SOL    HW233420   0.881   2.489  15.099 -1.2092 -1.9426 -1.6369
 7321SOL     OW33421   3.395   2.703   9.830  0.6337 -0.6245  0.1306
 7321SOL    HW133422   3.309   2.705   9.787  0.8371 -0.5538 -0.2708
 7321SOL    HW233423   3.430   2.779   9.784  0.7338 -1.0070 -0.4306
 7322SOL     OW33424   0.230   3.652   5.215 -0.1631 -0.0596  0.3835
 7322SOL    HW133425   0.237   3.628   5.122 -0.4220  0.3308  0.2613
 7322SOL    HW233426   0.309   3.611   5.250  0.9256  2.4365  0.8302
 7323SOL     OW33427   4.637   0.428  10.182 -0.3245 -0.6704  0.3356
 7323SOL    HW133428   4.671   0.356  10.129  0.6077  1.6469 -2.2105
 7323SOL    HW233429   4.633   0.502  10.122  0.8332  0.7462  2.0115
 7324SOL     OW33430   2.069   3.245   5.418  0.2168 -0.0278  1.1357
 7324SOL    HW133431   2.010   3.170   5.424 -1.5215  1.4683  2.8176
 7324SOL    HW233432   2.072   3.267   5.512  0.5918  1.7670  0.7059
 7325SOL     OW33433   2.951   4.696   8.921  0.2907 -0.1105  0.1199
 7325SOL    HW133434   2.872   0.014   8.891  0.1438  0.9743  2.0711
 7325SOL    HW233435   2.962   0.015   9.005 -1.1653  1.0199 -0.2893
 7326SOL     OW33436   0.686   2.495   3.367 -0.2354 -0.2219 -0.0101
 7326SOL    HW133437   0.708   2.544   3.447 -0.4734  1.0772 -0.7430
 7326SOL    HW233438   0.594   2.470   3.372 -0.5713  0.9572 -0.3617
 7327SOL     OW33439   1.559   1.821   2.468 -0.1554 -0.1583 -0.7479
 7327SOL    HW133440   1.654   1.830   2.457  0.1048 -0.7171  0.9346
 7327SOL    HW233441   1.559   1.748   2.531 -0.5549  0.8189  0.3764
 7328SOL     OW33442   1.921   2.364   9.246  1.0594  0.3232  0.3889
 7328SOL    HW133443   1.869   2.323   9.315 -0.0222 -1.1241 -1.2811
 7328SOL    HW233444   2.008   2.366   9.287 -0.2780  2.3372  3.1190
 7329SOL     OW33445   4.408   3.819   5.848  0.3204  0.3218  0.0716
 7329SOL    HW133446   4.453   3.775   5.776  1.4024  1.5048  0.0294
 7329SOL    HW233447   4.335   3.864   5.805 -0.1392  0.4643  0.9896
 7330SOL     OW33448   4.066   3.616   4.497  0.0048 -0.0771  0.5531
 7330SOL    HW133449   4.050   3.686   4.434  0.3589  0.0617  0.6160
 7330SOL    HW233450   4.007   3.649   4.565 -0.0614  0.3488  0.2877
 7331SOL     OW33451   0.267   2.854  11.098  0.1715  0.5078  0.8717
 7331SOL    HW133452   0.310   2.802  11.030  0.8861  0.1987  1.5571
 7331SOL    HW233453   0.289   2.942  11.068  0.4216 -0.3172 -1.3056
 7332SOL     OW33454   1.177   0.963   3.711  0.8318  0.2485  0.3950
 7332SOL    HW133455   1.098   0.935   3.664  0.9203  0.3223  0.2023
 7332SOL    HW233456   1.245   0.933   3.650 -0.4175  0.8059 -1.2737
 7333SOL     OW33457   0.106   4.080  13.276  0.3033  0.0936 -0.3392
 7333SOL    HW133458   0.016   4.110  13.290 -0.5675 -3.6293  2.2711
 7333SOL    HW233459   0.090   3.988  13.299  1.3084  0.0096  0.0063
 7334SOL     OW33460   4.521   4.619   4.362  0.4850 -0.1705  0.0215
 7334SOL    HW133461   4.426   4.617   4.354  0.4323  1.0618  0.3582
 7334SOL    HW233462   4.539   4.612   4.268  0.0719  1.2469 -0.1687
 7335SOL     OW33463   3.429   2.497   3.136  0.1301 -0.2537 -0.9673
 7335SOL    HW133464   3.337   2.512   3.160  0.6372  1.6357 -0.2544
 7335SOL    HW233465   3.464   2.449   3.211  0.6134  0.3677 -0.8019
 7336SOL     OW33466   1.800   4.468   5.363 -0.0018 -0.6610 -0.0280
 7336SOL    HW133467   1.819   4.542   5.306  0.7298  0.1323  1.2404
 7336SOL    HW233468   1.730   4.424   5.315 -0.5691  0.1609  0.0270
 7337SOL     OW33469   1.347   0.195   2.146 -0.0641 -0.1720 -0.0393
 7337SOL    HW133470   1.370   0.102   2.148 -0.1336 -0.1793  0.4867
 7337SOL    HW233471   1.252   0.181   2.143 -0.3759  2.0437 -0.6095
 7338SOL     OW33472   1.406   1.580   0.345  0.4150 -0.5979  0.3653
 7338SOL    HW133473   1.430   1.538   0.428 -0.2929  1.6267  1.6842
 7338SOL    HW233474   1.498   1.607   0.335 -0.4617  2.4880  0.9403
 7339SOL     OW33475   0.003   2.287   7.299 -0.3011 -0.4270 -0.4300
 7339SOL    HW133476   0.029   2.379   7.298 -3.8985  0.6279  0.9668
 7339SOL    HW233477   0.081   2.240   7.271 -1.0490 -0.1272 -2.9664
 7340SOL     OW33478   1.745   0.472   4.821  0.4937 -0.5435  0.2374
 7340SOL    HW133479   1.735   0.390   4.771  0.3320 -0.2253 -0.2486
 7340SOL    HW233480   1.789   0.444   4.901  1.1839  1.6736  0.6179
 7341SOL     OW33481   0.306   1.973   0.369 -0.4660 -0.6389  0.3984
 7341SOL    HW133482   0.397   1.992   0.345 -0.3720 -2.2930 -0.5472
 7341SOL    HW233483   0.292   2.035   0.440  0.3791 -1.2338  1.0782
 7342SOL     OW33484   3.531   3.751  12.461 -0.2742  0.3659  0.3994
 7342SOL    HW133485   3.546   3.657  12.469  0.5887  0.6854  2.5917
 7342SOL    HW233486   3.536   3.779  12.552  2.1843  1.1359  0.0214
 7343SOL     OW33487   2.481   4.670  14.313  0.5890 -0.0617 -0.0687
 7343SOL    HW133488   2.551   4.610  14.338  1.2344  1.3880  1.6213
 7343SOL    HW233489   2.514   4.682  14.224 -1.0223  2.0528 -0.3737
 7344SOL     OW33490   4.616   3.264   2.031 -0.0767 -0.0877 -0.1144
 7344SOL    HW133491   4.525   3.291   2.019  0.2291  0.9947  0.0909
 7344SOL    HW233492   4.650   3.286   1.945 -0.1294  2.4899  0.5385
 7345SOL     OW33493   0.922   3.895   2.808  0.4360  0.0411 -0.2219
 7345SOL    HW133494   0.886   3.978   2.778 -1.6141 -0.9995 -0.5958
 7345SOL    HW233495   0.889   3.895   2.898  0.6725  0.3838 -0.1364
 7346SOL     OW33496   3.717   2.184   2.479  0.1701 -0.3711  0.1565
 7346SOL    HW133497   3.640   2.149   2.524 -0.9141 -0.1014 -1.4555
 7346SOL    HW233498   3.687   2.170   2.389 -2.7373 -1.8390  1.3257
 7347SOL     OW33499   2.485   1.237   3.076  0.4907  0.6359  0.2553
 7347SOL    HW133500   2.575   1.209   3.064 -0.0992  0.0396 -2.6484
 7347SOL    HW233501   2.464   1.252   2.984 -0.4627  2.1749  0.7190
 7348SOL     OW33502   2.531   0.017  17.107 -0.3281  0.1665 -0.0567
 7348SOL    HW133503   2.542   4.674  17.042 -0.6062  1.1260 -1.1059
 7348SOL    HW233504   2.497   4.691  17.180  0.0767 -0.0952 -0.0480
 7349SOL     OW33505   1.677   1.776   9.557  0.2568  0.0700 -0.2841
 7349SOL    HW133506   1.730   1.829   9.497  0.7075 -0.4903 -0.3822
 7349SOL    HW233507   1.588   1.789   9.526  0.1926 -0.6752 -0.4028
 7350SOL     OW33508   2.537   3.735  15.788  0.0397  0.0121 -0.2183
 7350SOL    HW133509   2.470   3.728  15.856 -1.3411  1.8376 -1.3844
 7350SOL    HW233510   2.546   3.645  15.758  0.9434 -0.2805  0.9468
 7351SOL     OW33511   3.646   0.697   8.361  0.5593  0.0853  0.0866
 7351SOL    HW133512   3.592   0.657   8.429  0.1833  1.4169  0.5688
 7351SOL    HW233513   3.599   0.776   8.335 -0.2696 -1.0289 -1.7834
 7352SOL     OW33514   2.266   2.567   3.528 -0.2413  0.7116  0.1041
 7352SOL    HW133515   2.281   2.647   3.476 -1.4415  0.1617 -1.0925
 7352SOL    HW233516   2.272   2.502   3.458 -0.3495 -0.5765  1.2898
 7353SOL     OW33517   1.278   2.528   9.117 -1.0098 -0.1452  0.2210
 7353SOL    HW133518   1.229   2.607   9.097  1.6661  1.5059  0.1701
 7353SOL    HW233519   1.253   2.471   9.044 -0.2006  1.6218 -1.4227
 7354SOL     OW33520   3.081   0.695   1.826 -0.1635 -0.6367  0.2842
 7354SOL    HW133521   3.089   0.696   1.731 -0.6171 -2.1000  0.2153
 7354SOL    HW233522   3.168   0.660   1.845  0.3095  0.8431  0.8361
 7355SOL     OW33523   3.136   2.806   6.457  0.1318 -0.0343 -0.0877
 7355SOL    HW133524   3.118   2.764   6.373  0.5810  0.7936 -0.5984
 7355SOL    HW233525   3.054   2.856   6.458 -0.5312 -1.1280  0.7921
 7356SOL     OW33526   3.976   0.511   3.908 -0.0206  0.7070  0.2721
 7356SOL    HW133527   3.955   0.501   3.816  1.2217 -3.0424  0.3553
 7356SOL    HW233528   4.069   0.493   3.891 -0.1377  0.4606 -0.0985
 7357SOL     OW33529   1.843   2.762  13.769 -0.3094 -0.3637 -0.7887
 7357SOL    HW133530   1.926   2.740  13.727  0.6864  2.1294 -0.1175
 7357SOL    HW233531   1.803   2.675  13.778 -3.0188  0.8783 -0.9863
 7358SOL     OW33532   2.368   0.973   1.737  0.0712 -0.5208 -0.0429
 7358SOL    HW133533   2.449   0.926   1.755  0.9231  1.1920  0.5743
 7358SOL    HW233534   2.316   0.929   1.805 -0.0500 -1.0254 -0.4592
 7359SOL     OW33535   3.483   3.179   6.471  0.2240  0.2052 -0.0195
 7359SOL    HW133536   3.522   3.097   6.502  0.5756  0.0112 -0.9853
 7359SOL    HW233537   3.547   3.238   6.511 -0.7785  1.1828  0.1518
 7360SOL     OW33538   0.083   4.564   5.424 -0.2776 -0.1399 -0.0534
 7360SOL    HW133539   0.014   4.620   5.388 -0.6465 -2.2018 -2.5237
 7360SOL    HW233540   0.054   4.562   5.515 -1.8451 -0.0247 -0.5403
 7361SOL     OW33541   1.254   3.986   6.916  0.1432  0.4307 -0.0343
 7361SOL    HW133542   1.317   3.915   6.926 -0.1584  0.2183  0.3718
 7361SOL    HW233543   1.167   3.958   6.943 -0.1602 -0.3266 -1.8131
 7362SOL     OW33544   1.012   1.240   9.536 -0.1229 -0.1713  0.4400
 7362SOL    HW133545   0.967   1.166   9.576 -2.1578  1.0172  0.3480
 7362SOL    HW233546   0.945   1.308   9.526 -0.4152 -0.6431 -0.7746
 7363SOL     OW33547   0.958   1.440   9.208  0.0335  0.3624  0.4031
 7363SOL    HW133548   0.868   1.425   9.180  0.9194  0.9711 -2.7246
 7363SOL    HW233549   0.967   1.520   9.155 -0.4124 -0.6370 -1.1615
 7364SOL     OW33550   1.990   4.088   7.163 -0.1030 -1.4538  0.2428
 7364SOL    HW133551   1.904   4.066   7.199 -0.6573  0.8426  0.3150
 7364SOL    HW233552   2.043   4.010   7.180 -0.2011 -0.8742  3.2918
 7365SOL     OW33553   2.015   4.088   4.581 -0.0016  0.1542 -0.2219
 7365SOL    HW133554   1.947   4.035   4.621  0.2129  0.4980  0.5872
 7365SOL    HW233555   1.985   4.086   4.490  1.3756 -4.5835 -0.5629
 7366SOL     OW33556   4.222   2.371   5.581 -0.3467  0.3359 -0.1666
 7366SOL    HW133557   4.288   2.304   5.599  0.7275  1.2960 -0.5561
 7366SOL    HW233558   4.261   2.449   5.622 -2.1595 -0.3907  2.9531
 7367SOL     OW33559   1.633   1.857   4.371 -0.1933 -0.3816  0.4447
 7367SOL    HW133560   1.607   1.888   4.458 -1.4285  0.9792 -0.4134
 7367SOL    HW233561   1.638   1.947   4.337  0.9956 -0.0584  1.4485
 7368SOL     OW33562   4.167   0.176   1.418 -0.0708 -0.5224 -0.2767
 7368SOL    HW133563   4.257   0.157   1.442 -0.2524  0.6639  1.3052
 7368SOL    HW233564   4.172   0.148   1.326 -1.1069 -0.7804 -0.2531
 7369SOL     OW33565   2.404   2.143  12.333  0.1181 -0.1958  0.0966
 7369SOL    HW133566   2.320   2.108  12.363  1.3013 -0.1379  3.4793
 7369SOL    HW233567   2.448   2.187  12.405 -1.7326 -0.2307  1.2302
 7370SOL     OW33568   3.794   0.486   0.341 -0.5121  0.0484  0.8025
 7370SOL    HW133569   3.864   0.494   0.405 -1.7042  0.0340  2.1005
 7370SOL    HW233570   3.812   0.566   0.291  1.7468  0.4431  2.2828
 7371SOL     OW33571   0.584   3.193  10.473  0.0881  0.2220  0.2343
 7371SOL    HW133572   0.519   3.212  10.406 -0.6016  0.5384  0.9859
 7371SOL    HW233573   0.591   3.282  10.508  0.0365  1.4605 -2.9320
 7372SOL     OW33574   4.395   3.001   2.853 -0.0504 -0.4289 -0.0707
 7372SOL    HW133575   4.399   3.006   2.757 -0.4923 -2.0078 -0.1861
 7372SOL    HW233576   4.304   2.977   2.870 -0.2373  0.6215  0.3716
 7373SOL     OW33577   0.663   1.487   4.663  0.2916  0.0552  0.1141
 7373SOL    HW133578   0.608   1.457   4.735  0.5873 -1.2741 -0.2218
 7373SOL    HW233579   0.715   1.408   4.646 -0.7835 -0.6791  0.2597
 7374SOL     OW33580   2.427   3.200   1.841  0.0615 -0.1081  0.0280
 7374SOL    HW133581   2.396   3.268   1.900  2.0387  0.2815  0.6149
 7374SOL    HW233582   2.410   3.118   1.887 -0.2720 -0.4169 -0.6412
 7375SOL     OW33583   1.527   2.756   9.869 -0.3311 -0.6919 -0.3035
 7375SOL    HW133584   1.542   2.732   9.960 -1.4288  1.1089  0.3628
 7375SOL    HW233585   1.527   2.672   9.824  0.2195 -0.2451 -1.1636
 7376SOL     OW33586   1.327   4.612   1.787 -0.2651  0.0304 -0.2934
 7376SOL    HW133587   1.332   4.556   1.710  2.6113  0.6150 -0.5408
 7376SOL    HW233588   1.408   4.592   1.834  0.3052 -0.1019 -1.3181
 7377SOL     OW33589   0.247   0.330   6.758  0.2393  0.0001 -0.0450
 7377SOL    HW133590   0.334   0.368   6.768  0.4818 -0.8969  1.1597
 7377SOL    HW233591   0.219   0.387   6.686 -1.0554 -0.9374 -0.2874
 7378SOL     OW33592   2.577   1.162   8.708 -0.1997  0.3684  0.5958
 7378SOL    HW133593   2.659   1.153   8.660 -0.2867 -0.7013  0.6556
 7378SOL    HW233594   2.612   1.164   8.797  2.1256  1.8273 -0.3409
 7379SOL     OW33595   1.757   1.539   8.619  0.2718  0.3203 -0.0063
 7379SOL    HW133596   1.713   1.519   8.536 -0.3826 -0.7509  0.5980
 7379SOL    HW233597   1.684   1.555   8.679  0.6621  1.4518  0.1597
 7380SOL     OW33598   4.462   4.092   4.887  0.1809 -0.0373  0.1754
 7380SOL    HW133599   4.457   4.094   4.792  0.9221  2.0103  0.1683
 7380SOL    HW233600   4.488   4.184   4.901  1.4888 -0.6041  1.5879
 7381SOL     OW33601   4.424   3.362  11.935  0.1958  0.1768 -0.2394
 7381SOL    HW133602   4.337   3.349  11.974  0.9581  1.8363  2.0041
 7381SOL    HW233603   4.443   3.450  11.969  3.2740 -0.7351  0.3342
 7382SOL     OW33604   3.474   2.632  12.166  0.2609 -0.2659 -0.2786
 7382SOL    HW133605   3.462   2.723  12.192 -1.9243 -0.4043 -0.7821
 7382SOL    HW233606   3.488   2.589  12.250  0.5687  0.6083  0.1181
 7383SOL     OW33607   1.846   0.266   3.086 -0.6828  0.7212 -0.3706
 7383SOL    HW133608   1.934   0.233   3.067 -0.7875 -0.0701  0.4859
 7383SOL    HW233609   1.840   0.345   3.033  1.4928  1.6020  0.6804
 7384SOL     OW33610   0.339   3.846   4.599 -0.6047  0.2178 -1.2906
 7384SOL    HW133611   0.303   3.761   4.573 -0.4731  0.5326 -2.5056
 7384SOL    HW233612   0.275   3.871   4.667  0.1799  0.6608 -0.7167
 7385SOL     OW33613   0.199   4.271   7.280  0.0986 -1.0110  0.2856
 7385SOL    HW133614   0.175   4.179   7.269 -0.7135 -0.5908 -1.3855
 7385SOL    HW233615   0.111   4.304   7.294  0.5204 -0.4627  1.6567
 7386SOL     OW33616   0.909   4.232   4.269 -0.6986 -0.1871  0.1131
 7386SOL    HW133617   0.920   4.148   4.314  0.2323  0.1907  0.5902
 7386SOL    HW233618   0.901   4.285   4.348  1.3751  0.6692 -0.2427
 7387SOL     OW33619   2.293   4.500   3.830  0.2996  0.0605 -0.1001
 7387SOL    HW133620   2.260   4.503   3.740  0.5227  3.9126 -0.0845
 7387SOL    HW233621   2.358   4.570   3.830  1.5998 -1.1703  0.5560
 7388SOL     OW33622   1.166   0.278   4.996  0.3787  0.3319  0.3826
 7388SOL    HW133623   1.101   0.220   4.956  2.3197 -1.6849  0.1189
 7388SOL    HW233624   1.124   0.362   5.015 -1.9575 -0.4968 -1.0987
 7389SOL     OW33625   4.470   1.122   7.021  0.3806 -0.5140 -0.0207
 7389SOL    HW133626   4.565   1.129   7.005  0.2565  0.3701 -0.3628
 7389SOL    HW233627   4.471   1.088   7.110 -3.0772  2.4919  1.1324
 7390SOL     OW33628   2.712   2.482   3.729 -0.1071 -0.3640  0.4018
 7390SOL    HW133629   2.745   2.539   3.659  0.5974 -0.5347  0.5972
 7390SOL    HW233630   2.664   2.417   3.678 -2.7882  1.1192  1.0297
 7391SOL     OW33631   2.195   3.580  17.278  0.0278 -0.4543 -0.1547
 7391SOL    HW133632   2.271   3.526  17.258 -0.8167 -2.1801  1.2383
 7391SOL    HW233633   2.139   3.520  17.328 -1.5067  0.6751 -0.4835
 7392SOL     OW33634   0.470   2.070   4.470 -0.1982 -0.1957 -0.4563
 7392SOL    HW133635   0.527   1.995   4.485  0.0857  0.1001 -0.0429
 7392SOL    HW233636   0.524   2.128   4.417 -1.7349  1.0402 -0.6504
 7393SOL     OW33637   2.050   3.195   7.297  0.8675  0.0753 -0.1641
 7393SOL    HW133638   1.969   3.165   7.339  0.8697  0.0981 -0.1431
 7393SOL    HW233639   2.047   3.285   7.330 -0.9401  0.5778 -1.6556
 7394SOL     OW33640   3.655   1.060   2.549  0.4674 -0.3221  0.4964
 7394SOL    HW133641   3.747   1.080   2.533  0.2770 -0.7178 -1.0924
 7394SOL    HW233642   3.650   1.021   2.636  0.1625 -1.3234  0.0311
 7395SOL     OW33643   1.692   2.543   1.975 -0.1568 -0.0581 -0.9692
 7395SOL    HW133644   1.669   2.623   1.928 -2.6153  0.6604  1.4309
 7395SOL    HW233645   1.649   2.472   1.928  0.5376 -2.1214  1.4915
 7396SOL     OW33646   2.773   2.301   5.238 -0.4488 -0.0643  0.4953
 7396SOL    HW133647   2.862   2.305   5.201 -1.0338 -0.8228 -1.0014
 7396SOL    HW233648   2.737   2.374   5.187  1.1826 -0.1026 -0.7461
 7397SOL     OW33649   0.454   3.592   3.817  0.0428 -0.9799 -0.0612
 7397SOL    HW133650   0.424   3.648   3.746  0.6581 -1.9321 -1.0659
 7397SOL    HW233651   0.528   3.557   3.767  0.4152 -4.1367  2.6885
 7398SOL     OW33652   4.337   0.678   8.480 -0.0610 -0.2692 -0.4013
 7398SOL    HW133653   4.368   0.593   8.448  1.4966  1.1645 -2.7767
 7398SOL    HW233654   4.330   0.722   8.395  0.4828  0.6076 -0.0002
 7399SOL     OW33655   2.950   1.560   9.403 -0.0218  0.2198 -0.8849
 7399SOL    HW133656   2.856   1.575   9.412 -0.0715 -1.7511  2.0978
 7399SOL    HW233657   2.948   1.521   9.315 -2.9392  0.0236 -0.7262
 7400SOL     OW33658   1.501   3.040   2.593  0.3122 -0.5958  0.4748
 7400SOL    HW133659   1.495   3.135   2.581  1.3053 -0.7768 -1.4396
 7400SOL    HW233660   1.502   3.009   2.503  1.2079 -0.5874  0.4895
 7401SOL     OW33661   4.381   2.802   4.175 -0.5540 -0.8437 -0.3849
 7401SOL    HW133662   4.428   2.775   4.097 -0.0555 -2.4423  0.4634
 7401SOL    HW233663   4.403   2.742   4.246  0.3463  0.4781  0.4643
 7402SOL     OW33664   1.028   4.111  14.657 -0.1070 -0.7840 -0.2881
 7402SOL    HW133665   1.028   4.155  14.742 -3.2228 -0.6141 -0.3758
 7402SOL    HW233666   1.104   4.053  14.667  0.2001 -0.7644 -2.7228
 7403SOL     OW33667   4.146   2.195   9.605 -0.0987  0.0140  0.1626
 7403SOL    HW133668   4.089   2.205   9.529 -1.6263  1.3662  1.5077
 7403SOL    HW233669   4.088   2.171   9.676  0.7967 -1.8093  0.2962
 7404SOL     OW33670   2.598   2.575   3.309  0.3715 -0.2331  0.3572
 7404SOL    HW133671   2.586   2.480   3.300  1.4860 -0.3808  0.3386
 7404SOL    HW233672   2.620   2.610   3.223 -4.0798 -1.3073 -1.1971
 7405SOL     OW33673   3.361   3.546   9.589 -0.0898  0.3296  0.4940
 7405SOL    HW133674   3.269   3.526   9.576  0.3184 -1.3891  0.2865
 7405SOL    HW233675   3.391   3.558   9.499 -1.1820  1.0394  0.2328
 7406SOL     OW33676   3.288   0.261  16.139  0.2647  0.1326 -0.5598
 7406SOL    HW133677   3.259   0.352  16.147  0.5999  0.3430 -1.7736
 7406SOL    HW233678   3.250   0.220  16.216  0.4975 -0.4110 -0.7367
 7407SOL     OW33679   2.046   2.002   4.660  0.2286 -0.2477  0.2013
 7407SOL    HW133680   2.130   1.956   4.652  0.6634  0.6237 -0.1965
 7407SOL    HW233681   2.064   2.085   4.704  1.7508 -0.0471 -0.7888
 7408SOL     OW33682   0.003   0.092   6.986 -0.4195 -0.1726 -0.8746
 7408SOL    HW133683   0.096   0.082   6.968  0.3267  1.3090  2.2267
 7408SOL    HW233684   4.716   0.063   7.076  0.7523 -0.6445 -0.8616
 7409SOL     OW33685   0.215   3.848   2.524  0.3884 -0.8317 -0.1396
 7409SOL    HW133686   0.208   3.825   2.431  0.5801  0.1459 -0.3989
 7409SOL    HW233687   0.237   3.771   2.576  2.1752  0.0047  0.3245
 7410SOL     OW33688   3.778   2.397   4.730  0.0336 -0.0218  0.2033
 7410SOL    HW133689   3.851   2.403   4.668 -0.7230  1.2680 -0.5624
 7410SOL    HW233690   3.702   2.390   4.673 -0.1316  1.2321  0.2687
 7411SOL     OW33691   1.423   3.599  10.232 -0.2976 -0.0619  0.5490
 7411SOL    HW133692   1.452   3.690  10.233  1.1952 -0.5528  0.6173
 7411SOL    HW233693   1.510   3.561  10.220 -0.3238  0.1365 -0.3175
 7412SOL     OW33694   2.819   1.039   4.746 -0.1875  0.7647 -0.0593
 7412SOL    HW133695   2.737   0.995   4.771  0.5020  0.1455  1.0898
 7412SOL    HW233696   2.810   1.022   4.652  2.0107 -1.4179  0.1388
 7413SOL     OW33697   0.978   2.295   3.438 -0.5728  0.7752 -0.2469
 7413SOL    HW133698   0.972   2.315   3.345 -0.7473  1.0153 -0.1868
 7413SOL    HW233699   0.899   2.243   3.454  0.5313 -0.1637  2.0880
 7414SOL     OW33700   2.835   3.932   7.399 -0.1630  0.9233  0.6126
 7414SOL    HW133701   2.917   3.955   7.443  0.5319  1.4780 -0.9817
 7414SOL    HW233702   2.811   3.853   7.449  1.0054 -0.6097 -1.2318
 7415SOL     OW33703   0.973   2.834   5.505 -0.2235  0.0203  0.2054
 7415SOL    HW133704   1.008   2.796   5.425  0.3208  1.7670 -0.3819
 7415SOL    HW233705   0.931   2.760   5.549  3.4255 -1.1779  1.6375
 7416SOL     OW33706   3.438   0.600  17.516  1.0083 -0.1220 -0.7563
 7416SOL    HW133707   3.528   0.605  17.547  1.4322  0.2087 -2.0279
 7416SOL    HW233708   3.446   0.639  17.429  0.6941 -1.2063 -1.2676
 7417SOL     OW33709   2.651   2.352   6.077 -0.2128 -0.7030  0.3789
 7417SOL    HW133710   2.736   2.348   6.120  0.0263  0.9058  0.0777
 7417SOL    HW233711   2.672   2.365   5.984 -0.9626  3.2524  0.7331
 7418SOL     OW33712   0.245   3.589   4.973 -0.1360 -0.1903 -0.0185
 7418SOL    HW133713   0.156   3.553   4.974 -0.4188  0.5254  0.0369
 7418SOL    HW233714   0.294   3.535   4.911  2.2407  2.3887 -0.3622
 7419SOL     OW33715   4.123   1.644   8.680  0.4799  0.0153  0.2915
 7419SOL    HW133716   4.071   1.673   8.605  1.2876  0.6402 -0.0233
 7419SOL    HW233717   4.085   1.558   8.697  1.1960 -0.1792  0.8976
 7420SOL     OW33718   4.130   0.621  10.961 -0.1217 -0.0693 -0.1472
 7420SOL    HW133719   4.091   0.538  10.936  1.8114 -1.1345  0.4041
 7420SOL    HW233720   4.203   0.585  11.011 -0.0546 -1.1823 -1.0297
 7421SOL     OW33721   1.367   2.801   4.968  0.2213  0.4656  0.3001
 7421SOL    HW133722   1.335   2.716   4.939  0.2791  0.1470  1.1923
 7421SOL    HW233723   1.462   2.796   4.956  0.3363 -1.0733  1.8528
 7422SOL     OW33724   3.864   3.322  16.597 -0.4666  0.1429 -0.3929
 7422SOL    HW133725   3.842   3.335  16.504  2.3070  0.7864 -0.9516
 7422SOL    HW233726   3.896   3.409  16.620 -0.9117  0.4003 -0.7375
 7423SOL     OW33727   3.075   4.100  17.174  0.1442  0.2536 -0.0136
 7423SOL    HW133728   3.078   4.193  17.195 -1.9518  0.6204 -1.3666
 7423SOL    HW233729   3.141   4.101  17.104 -1.8008 -0.2581 -1.8454
 7424SOL     OW33730   4.152   0.703   8.015 -0.3405 -0.4708 -0.4111
 7424SOL    HW133731   4.100   0.625   7.992 -0.9185 -0.1786 -0.1164
 7424SOL    HW233732   4.095   0.773   7.982 -0.5103 -0.6539 -0.5081
 7425SOL     OW33733   4.275   0.299   5.705 -0.3307  0.0241  0.2050
 7425SOL    HW133734   4.276   0.233   5.775 -1.5604  1.2841  1.4104
 7425SOL    HW233735   4.340   0.360   5.738  1.2545 -1.2472 -0.5791
 7426SOL     OW33736   0.347   0.736   1.826 -0.0359 -0.1832 -0.0643
 7426SOL    HW133737   0.254   0.733   1.803  0.0615  1.6249 -0.7227
 7426SOL    HW233738   0.364   0.826   1.797 -1.9115 -0.1291 -0.9807
 7427SOL     OW33739   2.296   1.575   5.026 -0.8199 -0.3243  0.4671
 7427SOL    HW133740   2.337   1.492   5.050 -1.6254 -0.7175  0.4462
 7427SOL    HW233741   2.260   1.564   4.938 -3.5909  1.0808  1.4342
 7428SOL     OW33742   1.145   2.162  13.323  0.2138  0.6780  0.3746
 7428SOL    HW133743   1.066   2.211  13.299  0.7130  0.0371 -2.5285
 7428SOL    HW233744   1.125   2.086  13.269 -0.2677  1.6229 -0.7703
 7429SOL     OW33745   3.221   0.253  16.396  0.5585 -0.0797 -0.6849
 7429SOL    HW133746   3.169   0.320  16.353 -0.2329  0.2208  0.7354
 7429SOL    HW233747   3.223   0.282  16.487 -2.1240 -1.1376 -0.2754
 7430SOL     OW33748   1.704   0.179  17.140  0.0441 -0.8139  0.1576
 7430SOL    HW133749   1.762   0.233  17.086  2.2776 -1.3287  2.0642
 7430SOL    HW233750   1.658   0.128  17.073 -1.9590 -0.4652  1.2460
 7431SOL     OW33751   2.835   0.519   7.816  0.0791 -0.0539  0.2461
 7431SOL    HW133752   2.902   0.549   7.756  0.7848  1.1417  1.6353
 7431SOL    HW233753   2.763   0.541   7.757  1.1719 -0.6721 -1.2953
 7432SOL     OW33754   3.512   1.814   7.228 -0.6246 -0.1310 -0.0647
 7432SOL    HW133755   3.584   1.849   7.280 -1.6577  0.3697  1.0385
 7432SOL    HW233756   3.564   1.776   7.157  0.2655  0.1706  0.4179
 7433SOL     OW33757   0.033   4.622   1.856 -0.4943 -0.0645  1.0243
 7433SOL    HW133758   0.008   4.599   1.946 -0.9109 -2.0829  0.3946
 7433SOL    HW233759   0.033   4.532   1.823  1.9287  0.0980  0.6063
 7434SOL     OW33760   2.507   0.408   8.766 -0.2155  0.3065 -0.2215
 7434SOL    HW133761   2.534   0.464   8.694 -1.5919 -1.9780 -2.5256
 7434SOL    HW233762   2.422   0.373   8.740 -0.7271  2.1591 -1.0063
 7435SOL     OW33763   3.453   1.310  11.278 -0.4754  0.2305 -0.2125
 7435SOL    HW133764   3.416   1.227  11.248  2.1237 -1.9243  2.5027
 7435SOL    HW233765   3.377   1.366  11.258 -1.9928 -0.8969  2.4498
 7436SOL     OW33766   2.806   3.653   8.129 -0.3828  0.9758 -0.2379
 7436SOL    HW133767   2.779   3.742   8.105  0.8569  1.2239 -0.7144
 7436SOL    HW233768   2.835   3.659   8.220 -0.9412  1.4714 -0.0850
 7437SOL     OW33769   3.295   0.824  15.641  0.0617 -0.1288  0.3167
 7437SOL    HW133770   3.230   0.757  15.660  1.3202 -1.2101  0.7658
 7437SOL    HW233771   3.259   0.890  15.701  0.4703  0.2606  0.1330
 7438SOL     OW33772   0.161   0.741   9.547 -0.5986 -0.5053  0.1959
 7438SOL    HW133773   0.159   0.703   9.459  0.1823 -1.5072  0.6085
 7438SOL    HW233774   0.131   0.831   9.537  2.6685  0.4552 -1.0793
 7439SOL     OW33775   3.096   4.029   7.272 -0.3216  0.4923  0.1523
 7439SOL    HW133776   3.008   3.995   7.283 -0.2184  0.4000  0.6690
 7439SOL    HW233777   3.078   4.123   7.274  0.4112  0.6056  1.1358
 7440SOL     OW33778   4.194   4.217  12.174 -0.3724 -0.5820  0.1254
 7440SOL    HW133779   4.115   4.186  12.219 -2.2318  1.6515 -1.5858
 7440SOL    HW233780   4.239   4.140  12.140  0.1869 -0.7659  1.2627
 7441SOL     OW33781   4.209   3.656  12.379  0.3049  0.0362  0.4188
 7441SOL    HW133782   4.170   3.728  12.330  1.2576  0.3878  0.1890
 7441SOL    HW233783   4.299   3.682  12.399 -0.5058 -0.4088  4.7073
 7442SOL     OW33784   1.880   3.697   8.747 -0.1809  0.4863  0.1937
 7442SOL    HW133785   1.966   3.713   8.709 -0.6547  1.4626 -0.4669
 7442SOL    HW233786   1.827   3.689   8.668 -0.2560  0.5737  0.2347
 7443SOL     OW33787   2.796   4.225   3.695  0.1910 -0.5052 -0.0770
 7443SOL    HW133788   2.762   4.142   3.660 -0.5139 -0.5397  0.6879
 7443SOL    HW233789   2.891   4.218   3.691  0.2772  0.3270  0.6820
 7444SOL     OW33790   1.368   4.535   1.281  0.1333 -1.1729  0.4613
 7444SOL    HW133791   1.429   4.490   1.224 -0.1709 -0.0885 -0.7063
 7444SOL    HW233792   1.290   4.539   1.226  1.6541  0.5656 -1.5615
 7445SOL     OW33793   3.806   2.510   5.151 -0.3143  0.3132  0.0365
 7445SOL    HW133794   3.877   2.574   5.160 -1.3124  1.1774  1.9055
 7445SOL    HW233795   3.806   2.470   5.238  0.5663 -0.8343 -0.5026
 7446SOL     OW33796   3.550   3.350   2.080  0.1726 -0.2336  0.6894
 7446SOL    HW133797   3.638   3.387   2.086  0.0370  0.7211 -3.5371
 7446SOL    HW233798   3.551   3.295   2.159  2.3097 -1.3137 -0.0881
 7447SOL     OW33799   0.318   0.514  12.747 -0.2350  0.0931 -0.5510
 7447SOL    HW133800   0.380   0.574  12.788 -1.1738  1.8119 -1.6652
 7447SOL    HW233801   0.336   0.446  12.812  0.4254  0.3524 -0.4712
 7448SOL     OW33802   1.263   4.186   3.734  0.5532  0.5648  0.2718
 7448SOL    HW133803   1.318   4.112   3.708 -1.3808 -1.6772  2.4882
 7448SOL    HW233804   1.279   4.255   3.670  0.8023  1.6437  1.5149
 7449SOL     OW33805   4.091   1.336   5.287  0.2083  0.0314  0.9436
 7449SOL    HW133806   4.167   1.387   5.316 -0.9780  1.7165  1.0648
 7449SOL    HW233807   4.017   1.383   5.324 -2.1061 -3.5514  0.8843
 7450SOL     OW33808   2.784   0.051  14.228 -0.5313  0.2531 -0.4728
 7450SOL    HW133809   2.869   0.095  14.220 -0.2414 -0.1244  0.5536
 7450SOL    HW233810   2.820   4.718  14.295  2.4473  2.4689 -0.1179
 7451SOL     OW33811   0.768   4.314   2.476 -0.2146  0.3346 -0.4824
 7451SOL    HW133812   0.700   4.380   2.460  0.6843  1.0031 -1.5744
 7451SOL    HW233813   0.720   4.243   2.519 -1.4687 -0.0015 -2.4631
 7452SOL     OW33814   4.574   2.813   4.751 -0.3674 -0.4289  0.3959
 7452SOL    HW133815   4.623   2.748   4.801  0.1138 -0.1923  0.2277
 7452SOL    HW233816   4.650   2.855   4.711 -0.5322 -0.8162 -0.3357
 7453SOL     OW33817   3.421   0.358   9.537  0.3616 -0.6362 -0.6677
 7453SOL    HW133818   3.475   0.436   9.553 -0.3182 -0.9471  3.0087
 7453SOL    HW233819   3.485   0.290   9.557 -0.9942 -2.1740 -1.5416
 7454SOL     OW33820   3.429   3.916   7.266 -0.2973  1.7455 -0.5366
 7454SOL    HW133821   3.355   3.965   7.302 -1.5756  1.2984 -2.5126
 7454SOL    HW233822   3.503   3.976   7.268  0.5890  0.7457 -3.5056
 7455SOL     OW33823   2.689   3.591  12.542  0.3797  0.1126  0.1312
 7455SOL    HW133824   2.611   3.594  12.486  1.0470  0.2692 -0.7873
 7455SOL    HW233825   2.654   3.588  12.632 -1.4180 -0.2971 -0.5810
 7456SOL     OW33826   3.484   4.068   5.246 -0.2972  0.2769 -0.5880
 7456SOL    HW133827   3.482   3.989   5.300 -1.9216  0.6395 -0.0947
 7456SOL    HW233828   3.546   4.125   5.292  0.4515  0.2519 -1.5822
 7457SOL     OW33829   3.302   0.823   4.163  0.1900 -0.2198  0.3697
 7457SOL    HW133830   3.315   0.729   4.168  1.0637 -0.2237 -2.0755
 7457SOL    HW233831   3.304   0.842   4.069 -2.0127 -1.8197  0.0144
 7458SOL     OW33832   2.858   1.981   6.710 -0.2954  0.2093 -0.4623
 7458SOL    HW133833   2.877   2.012   6.621 -0.4915 -0.0783 -0.6011
 7458SOL    HW233834   2.763   1.989   6.713 -0.1627  0.2203  3.6184
 7459SOL     OW33835   4.432   3.011   3.807 -0.1833 -0.2345 -0.8679
 7459SOL    HW133836   4.426   3.093   3.856  1.4975 -0.5947 -0.0835
 7459SOL    HW233837   4.443   3.040   3.717  1.0867 -0.6050 -0.8255
 7460SOL     OW33838   4.283   1.672  17.641  0.4935 -0.0937 -0.0610
 7460SOL    HW133839   4.326   1.757  17.641  0.6044 -0.1583  2.5055
 7460SOL    HW233840   4.328   1.633   0.013  0.0711 -1.2242 -0.3878
 7461SOL     OW33841   2.290   1.191  12.993  0.3548 -0.0920 -0.6497
 7461SOL    HW133842   2.327   1.208  13.079  1.4632 -0.9201 -0.9654
 7461SOL    HW233843   2.303   1.274  12.946 -0.5357  0.9290  0.8966
 7462SOL     OW33844   4.243   1.408  17.533  0.1958 -0.0561 -0.2420
 7462SOL    HW133845   4.250   1.486  17.588  2.1775 -1.3723  1.3493
 7462SOL    HW233846   4.171   1.438  17.477 -0.2045  0.1206  0.3696
 7463SOL     OW33847   1.683   1.145   1.817  0.2704 -0.1246  0.2332
 7463SOL    HW133848   1.759   1.143   1.760  0.8944 -0.7484  1.0917
 7463SOL    HW233849   1.726   1.192   1.888 -2.8849  0.5234  1.7335
 7464SOL     OW33850   0.856   0.083   1.979 -0.0787 -0.0342  0.3199
 7464SOL    HW133851   0.945   0.050   1.985  0.2958  0.9108 -0.0816
 7464SOL    HW233852   0.833   0.049   1.892  0.6458  1.1593 -0.3274
 7465SOL     OW33853   2.267   2.167   8.026 -0.2061 -0.3823 -0.1017
 7465SOL    HW133854   2.342   2.112   8.048 -1.2375 -1.3505  1.0306
 7465SOL    HW233855   2.305   2.254   8.033 -0.2128 -0.3636 -0.3182
 7466SOL     OW33856   3.515   4.490   1.950  0.4717  0.1974  0.8344
 7466SOL    HW133857   3.498   4.584   1.955 -0.4282  0.0685  0.2849
 7466SOL    HW233858   3.473   4.465   2.032  1.4009 -2.7505  0.4134
 7467SOL     OW33859   3.170   0.916   9.052  0.9219 -0.6813  0.0158
 7467SOL    HW133860   3.116   0.864   8.993  1.4813  0.6722 -1.6756
 7467SOL    HW233861   3.253   0.916   9.006 -0.5735  0.5955 -2.6751
 7468SOL     OW33862   0.579   2.323   6.584 -0.3003 -0.2828 -0.4032
 7468SOL    HW133863   0.538   2.238   6.567 -0.0734 -0.7418  1.3424
 7468SOL    HW233864   0.562   2.331   6.678  2.0216 -1.3136  0.0989
 7469SOL     OW33865   1.585   2.038   1.216 -0.0906  0.5507  0.3106
 7469SOL    HW133866   1.592   1.965   1.155  1.7847  0.5158  0.5925
 7469SOL    HW233867   1.528   2.104   1.175  1.2989  0.4375 -1.7887
 7470SOL     OW33868   0.069   0.593   9.331  0.0238 -0.6166 -0.1506
 7470SOL    HW133869   0.046   0.585   9.238 -0.9284 -0.3614  0.0656
 7470SOL    HW233870   0.070   0.502   9.360 -1.6531 -0.7581 -0.4945
 7471SOL     OW33871   1.546   0.219   6.620 -0.1755 -0.3200 -0.3618
 7471SOL    HW133872   1.620   0.240   6.563  0.0336 -2.4695 -0.8444
 7471SOL    HW233873   1.486   0.294   6.621  0.5167  0.2433 -0.0793
 7472SOL     OW33874   2.367   3.439   1.981  0.0484 -0.0555  0.1856
 7472SOL    HW133875   2.359   3.416   2.074 -1.4270  0.2542  0.1222
 7472SOL    HW233876   2.432   3.509   1.988  1.3343 -1.2394  0.1328
 7473SOL     OW33877   4.426   0.696   3.281 -0.0468 -0.2082  0.0653
 7473SOL    HW133878   4.414   0.745   3.200  1.1080 -0.3320 -0.1937
 7473SOL    HW233879   4.366   0.626   3.255 -1.6755  1.3675 -0.3576
 7474SOL     OW33880   0.946   3.580   5.992  0.2108 -0.2842 -0.1302
 7474SOL    HW133881   0.928   3.605   6.082 -0.1191 -2.6082  0.4567
 7474SOL    HW233882   1.036   3.552   6.005 -0.1472 -0.7557  1.3449
 7475SOL     OW33883   0.015   2.484  14.418 -0.7713  0.1399 -0.3672
 7475SOL    HW133884   0.103   2.518  14.437 -0.1133 -1.6631 -0.1719
 7475SOL    HW233885   4.693   2.562  14.388  0.7604  0.7186 -1.2948
 7476SOL     OW33886   2.208   2.742  17.163 -0.1359  0.2082 -0.1921
 7476SOL    HW133887   2.233   2.755  17.255  0.3925 -0.7766 -0.1972
 7476SOL    HW233888   2.245   2.655  17.147 -2.0593 -0.6741  0.1504
 7477SOL     OW33889   2.609   2.233   4.763 -0.3897  0.1397  0.1819
 7477SOL    HW133890   2.558   2.237   4.844 -0.9578 -1.7050 -0.0925
 7477SOL    HW233891   2.574   2.147   4.739  1.6378 -1.1303  1.7839
 7478SOL     OW33892   0.515   4.581   9.923 -0.0519  0.0801 -0.4776
 7478SOL    HW133893   0.521   4.666   9.881  1.0190 -0.3879 -1.2738
 7478SOL    HW233894   0.601   4.587   9.966 -0.7953  0.2399  1.0018
 7479SOL     OW33895   2.951   0.770   5.091 -0.5308 -0.3245  0.0165
 7479SOL    HW133896   2.970   0.847   5.146 -0.3789 -1.0388  0.9639
 7479SOL    HW233897   2.915   0.804   5.010  0.3743  0.6997  0.0396
 7480SOL     OW33898   0.225   2.929   5.355  0.1330  0.5196 -0.1236
 7480SOL    HW133899   0.272   2.896   5.278  1.2472 -1.3756  1.3693
 7480SOL    HW233900   0.250   3.021   5.361  1.3212  0.0494  2.2816
 7481SOL     OW33901   2.145   2.121   5.342 -0.3832  0.0228  0.0980
 7481SOL    HW133902   2.199   2.050   5.378 -1.0128  1.2636  3.4512
 7481SOL    HW233903   2.081   2.080   5.284  0.9568 -1.1995 -0.5314
 7482SOL     OW33904   3.997   1.759   4.982 -0.1503  0.4319 -0.3560
 7482SOL    HW133905   4.090   1.779   4.998 -0.2952 -0.5876  1.7505
 7482SOL    HW233906   3.994   1.666   4.959 -0.5451  0.1432  0.8993
 7483SOL     OW33907   0.682   3.441   7.712 -0.1074  0.4667  0.3512
 7483SOL    HW133908   0.649   3.446   7.622  0.9900 -0.0422 -0.0782
 7483SOL    HW233909   0.625   3.503   7.758 -2.2396 -1.1133 -0.1674
 7484SOL     OW33910   4.505   3.997  12.525  0.1988 -0.0168  0.2036
 7484SOL    HW133911   4.511   3.997  12.430 -1.8263 -1.6722  0.0879
 7484SOL    HW233912   4.417   4.026  12.547  0.3755  1.8352 -1.5637
 7485SOL     OW33913   4.552   2.326   9.625 -0.3089 -0.1538  0.1841
 7485SOL    HW133914   4.482   2.331   9.560 -0.5000 -2.1440  0.2249
 7485SOL    HW233915   4.517   2.261   9.687 -0.3905 -0.4350 -0.1622
 7486SOL     OW33916   4.162   4.577   7.464  0.0487  0.3019 -0.3859
 7486SOL    HW133917   4.110   4.513   7.512 -0.2372  0.5054 -0.4206
 7486SOL    HW233918   4.241   4.570   7.518  0.2483  1.1975 -0.5534
 7487SOL     OW33919   3.764   1.770   7.674 -0.1315  0.0743 -0.1603
 7487SOL    HW133920   3.820   1.730   7.607  2.0135  0.3098  1.4963
 7487SOL    HW233921   3.718   1.692   7.707 -0.1645  0.6677  1.1850
 7488SOL     OW33922   1.198   3.684  14.729 -0.1160 -0.0355  0.1157
 7488SOL    HW133923   1.264   3.732  14.778  0.2680 -0.7774  0.3200
 7488SOL    HW233924   1.244   3.698  14.646  0.9393  0.9128  0.8555
 7489SOL     OW33925   2.349   2.200   7.540 -0.5319 -0.1617  0.5712
 7489SOL    HW133926   2.298   2.204   7.621 -1.1669 -1.1711  0.2279
 7489SOL    HW233927   2.282   2.196   7.472  0.3338 -2.1023 -0.1870
 7490SOL     OW33928   0.533   2.041  17.495  0.9167 -0.2207  0.5082
 7490SOL    HW133929   0.449   2.005  17.465  2.0191 -0.3650 -2.3989
 7490SOL    HW233930   0.574   1.963  17.533  2.7981  1.0791  1.1389
 7491SOL     OW33931   3.488   1.519  14.306 -0.4343  0.2660  0.8598
 7491SOL    HW133932   3.424   1.489  14.370  0.8572  1.7848  2.8649
 7491SOL    HW233933   3.501   1.611  14.327  2.5830 -0.1761  0.9653
 7492SOL     OW33934   4.053   1.995   4.614 -0.1785 -0.2251 -0.9938
 7492SOL    HW133935   4.018   2.069   4.663 -2.7579 -0.8372 -1.9142
 7492SOL    HW233936   4.107   1.943   4.674 -0.6541 -1.0687 -1.3082
 7493SOL     OW33937   0.664   4.031  16.536 -0.5460  0.6718  0.4834
 7493SOL    HW133938   0.705   3.967  16.594  1.2664 -1.0976 -2.7901
 7493SOL    HW233939   0.576   3.995  16.526 -0.2520  0.3831 -1.0508
 7494SOL     OW33940   3.981   0.874  13.614  0.4616  0.0574  0.4362
 7494SOL    HW133941   4.037   0.831  13.549 -0.5801  1.1065 -1.1845
 7494SOL    HW233942   3.947   0.798  13.662  1.0928 -0.0996  0.6346
 7495SOL     OW33943   3.302   3.774   4.278 -0.4947  0.0285  0.6850
 7495SOL    HW133944   3.335   3.733   4.359  0.5476 -1.5820 -0.5478
 7495SOL    HW233945   3.228   3.719   4.252  0.9893 -1.5015 -0.2929
 7496SOL     OW33946   4.379   1.532  15.279 -0.4002 -0.0133  0.1927
 7496SOL    HW133947   4.405   1.580  15.200  1.4710 -1.0480  0.1758
 7496SOL    HW233948   4.460   1.537  15.329  0.5729 -2.1786 -1.1371
 7497SOL     OW33949   3.822   3.530  13.944 -0.0671 -0.4443 -0.5151
 7497SOL    HW133950   3.910   3.543  13.979  0.1912 -0.2712 -1.2103
 7497SOL    HW233951   3.838   3.542  13.850  1.8613 -0.7513 -0.2298
 7498SOL     OW33952   0.663   3.642   8.411 -0.1718  0.1155 -0.5836
 7498SOL    HW133953   0.586   3.669   8.361 -1.8505  1.0353  2.5349
 7498SOL    HW233954   0.696   3.564   8.367  2.1922  1.6106 -1.5014
 7499SOL     OW33955   3.571   1.490   6.292  0.7451 -0.7408 -0.4481
 7499SOL    HW133956   3.482   1.455   6.290  0.6876 -0.7106  1.5081
 7499SOL    HW233957   3.588   1.554   6.223  0.0353  0.7065  0.7328
 7500SOL     OW33958   0.594   0.414  11.677 -0.0079 -0.0013 -0.9242
 7500SOL    HW133959   0.500   0.402  11.692  0.6569 -1.4087  2.0066
 7500SOL    HW233960   0.602   0.509  11.671  1.1201 -0.0622 -0.2596
 7501SOL     OW33961   1.385   3.521   3.969  0.6573  0.0699  0.3006
 7501SOL    HW133962   1.319   3.462   4.004 -0.4025 -0.9023 -3.3325
 7501SOL    HW233963   1.348   3.544   3.884  2.9324 -1.9309 -1.2389
 7502SOL     OW33964   0.493   4.285   7.705 -0.0085  0.2836 -0.3189
 7502SOL    HW133965   0.516   4.201   7.743  1.0263  1.5245  1.7838
 7502SOL    HW233966   0.564   4.336   7.744  0.4675  1.2592 -2.4556
 7503SOL     OW33967   2.468   0.649   6.004  0.5274 -0.0936  0.1527
 7503SOL    HW133968   2.533   0.578   6.004  0.1450 -0.4529  2.3044
 7503SOL    HW233969   2.398   0.615   5.948  0.0347  1.3703 -0.1150
 7504SOL     OW33970   3.342   2.943  11.661 -0.6645  0.3551 -0.2875
 7504SOL    HW133971   3.334   2.948  11.756 -0.1340 -0.4512 -0.2011
 7504SOL    HW233972   3.291   2.867  11.632  0.7033 -1.1133  1.1927
 7505SOL     OW33973   1.292   1.627   9.328 -0.2330  0.1406 -0.1469
 7505SOL    HW133974   1.352   1.626   9.254  0.3664 -0.7917  0.3500
 7505SOL    HW233975   1.256   1.539   9.343 -0.8203  0.2176 -1.1124
 7506SOL     OW33976   3.243   4.403   3.590 -0.2169 -0.3918  0.2917
 7506SOL    HW133977   3.292   4.341   3.536  0.5447  0.3205  0.1639
 7506SOL    HW233978   3.296   4.411   3.669 -0.3164  2.3222  0.0665
 7507SOL     OW33979   4.570   2.941   6.848  0.0282  0.4879 -0.0770
 7507SOL    HW133980   4.582   3.017   6.905 -1.2184  0.2327  0.5200
 7507SOL    HW233981   4.594   2.971   6.761 -0.8671 -0.2471 -0.5742
 7508SOL     OW33982   4.258   2.163   4.441 -0.3160  1.0195  0.0658
 7508SOL    HW133983   4.200   2.088   4.427 -0.0313  1.4203 -3.3147
 7508SOL    HW233984   4.271   2.161   4.536  0.4890  2.8557 -0.0104
 7509SOL     OW33985   2.917   1.440   6.558  0.3085 -0.1778  0.1994
 7509SOL    HW133986   2.993   1.479   6.514 -0.0659  1.2069  0.7907
 7509SOL    HW233987   2.861   1.517   6.555  4.5560  2.9504  1.7163
 7510SOL     OW33988   0.406   0.451   5.954 -0.2145 -0.2857  0.1705
 7510SOL    HW133989   0.463   0.472   5.880 -0.5328 -1.9007 -0.5100
 7510SOL    HW233990   0.335   0.420   5.899  0.3235  1.4584 -1.5232
 7511SOL     OW33991   3.170   4.130  13.402 -0.2896  0.7159  0.1130
 7511SOL    HW133992   3.128   4.112  13.319  0.0253 -0.1179  0.1342
 7511SOL    HW233993   3.179   4.040  13.431 -2.9985 -0.3975 -2.5816
 7512SOL     OW33994   4.308   3.215   1.936  0.4320 -0.1427 -0.1116
 7512SOL    HW133995   4.339   3.254   1.854 -0.0016  1.9864  0.7272
 7512SOL    HW233996   4.257   3.141   1.904  2.5114 -0.8338 -1.8318
 7513SOL     OW33997   4.214   3.267   2.536  0.7123  0.4277 -0.4891
 7513SOL    HW133998   4.133   3.317   2.522  1.1138  1.0341 -0.6147
 7513SOL    HW233999   4.268   3.345   2.550  0.1696  1.1037 -2.1408
 7514SOL     OW34000   0.019   3.821   5.425 -0.4563 -0.1828 -0.3827
 7514SOL    HW134001   0.083   3.793   5.490  0.6870 -0.3370 -1.5880
 7514SOL    HW234002   4.669   3.832   5.484 -0.2466  2.4906 -0.6285
 7515SOL     OW34003   1.812   1.925   9.394 -0.0147 -0.3353  0.0888
 7515SOL    HW134004   1.762   1.995   9.435 -2.6603 -1.4183 -1.2918
 7515SOL    HW234005   1.886   1.973   9.356  0.6671 -1.3504  0.1390
 7516SOL     OW34006   4.208   1.921   0.356  0.0664  0.1377  0.1384
 7516SOL    HW134007   4.262   1.876   0.421  0.0798 -0.6653 -0.4184
 7516SOL    HW234008   4.223   2.012   0.382  0.1205  0.0864  0.2874
 7517SOL     OW34009   2.066   3.258   5.686  0.2208  0.4239 -0.1377
 7517SOL    HW134010   2.002   3.258   5.758  2.2070  0.0931  1.6210
 7517SOL    HW234011   2.097   3.349   5.691  0.6836  0.3517 -1.9700
 7518SOL     OW34012   1.207   2.488  13.993  0.2665 -0.2165  0.3936
 7518SOL    HW134013   1.291   2.454  14.023  0.9354  2.1111  1.1153
 7518SOL    HW234014   1.182   2.418  13.932  0.5856 -1.3732  1.5966
 7519SOL     OW34015   0.176   4.349   1.536  0.0618 -0.1701  0.3838
 7519SOL    HW134016   0.271   4.356   1.528 -0.1819  0.4412 -1.7797
 7519SOL    HW234017   0.142   4.385   1.455  1.8102 -1.8484 -1.0850
 7520SOL     OW34018   1.455   3.193   4.434 -0.0611  0.5066  0.4184
 7520SOL    HW134019   1.459   3.264   4.370  1.9243  0.2115  0.2147
 7520SOL    HW234020   1.472   3.243   4.514  3.6204 -0.4767  0.2389
 7521SOL     OW34021   4.587   2.476   1.719  0.6537 -0.5015 -0.4370
 7521SOL    HW134022   4.590   2.503   1.811 -1.1240  0.1922 -0.5921
 7521SOL    HW234023   4.647   2.542   1.682 -2.9519  1.2878 -3.0528
 7522SOL     OW34024   3.772   0.520   4.925 -0.3177  0.3227  0.0878
 7522SOL    HW134025   3.784   0.425   4.922  0.6799  0.4066  1.5537
 7522SOL    HW234026   3.727   0.539   4.843 -0.0997  1.8131  0.3175
 7523SOL     OW34027   0.839   1.191  13.671  0.2521  0.6381 -0.0436
 7523SOL    HW134028   0.798   1.136  13.738  1.1517 -0.4441 -0.3899
 7523SOL    HW234029   0.875   1.127  13.609 -0.1281 -0.9078  1.3109
 7524SOL     OW34030   1.101   4.521   3.668  0.0225 -0.3136 -0.2098
 7524SOL    HW134031   1.178   4.474   3.636 -0.8734 -3.4316  2.1435
 7524SOL    HW234032   1.131   4.524   3.759 -0.3135  0.5087 -0.1311
 7525SOL     OW34033   2.765   2.267   6.889  0.1493 -0.4967  0.4374
 7525SOL    HW134034   2.740   2.355   6.918 -1.7969 -0.5306 -1.1300
 7525SOL    HW234035   2.678   2.227   6.894  0.1569 -0.3731  1.4423
 7526SOL     OW34036   4.485   1.236  14.027 -0.0328  0.3975  0.4913
 7526SOL    HW134037   4.438   1.319  14.017 -2.9407 -1.4861 -1.3547
 7526SOL    HW234038   4.412   1.174  14.026  0.7310 -0.5109  1.8579
 7527SOL     OW34039   2.227   1.235   3.749  0.2489 -0.0415  0.0286
 7527SOL    HW134040   2.230   1.176   3.824  0.3347  0.4037  0.3778
 7527SOL    HW234041   2.135   1.260   3.741  0.6833  0.8806 -1.9930
 7528SOL     OW34042   0.691   3.979   5.738  0.3589  0.3100  0.2271
 7528SOL    HW134043   0.639   3.936   5.669  0.9589 -1.4981  0.9060
 7528SOL    HW234044   0.658   3.934   5.816 -1.0483  0.5191 -0.2481
 7529SOL     OW34045   2.213   3.857  17.357  0.3530 -0.3571 -0.1626
 7529SOL    HW134046   2.189   3.767  17.337 -0.0710 -0.0551 -1.0065
 7529SOL    HW234047   2.181   3.869  17.447  1.3237  2.0079 -0.1386
 7530SOL     OW34048   4.053   0.524  13.872 -0.5540  0.7520  0.1864
 7530SOL    HW134049   3.997   0.470  13.816  1.0399  1.1427 -1.7920
 7530SOL    HW234050   4.089   0.596  13.821 -1.6547  1.9197  1.0830
 7531SOL     OW34051   4.111   3.083   3.187 -0.7526  0.2326 -0.1892
 7531SOL    HW134052   4.056   3.161   3.190 -0.3874  0.4299  1.0941
 7531SOL    HW234053   4.069   3.049   3.107 -1.4068  0.5188  0.0354
 7532SOL     OW34054   0.066   0.725   4.220 -0.2593 -0.2963 -0.3497
 7532SOL    HW134055   4.722   0.739   4.156 -1.0408  0.1026  0.5944
 7532SOL    HW234056   0.049   0.642   4.265 -1.0733 -1.5801 -3.0342
 7533SOL     OW34057   2.195   0.526   7.766 -0.1213 -0.3541  0.0289
 7533SOL    HW134058   2.151   0.442   7.778 -1.5628  0.5482  1.1060
 7533SOL    HW234059   2.267   0.501   7.709 -0.9718  0.1576 -1.2633
 7534SOL     OW34060   3.748   2.866   9.468  0.2171 -0.6608  0.1527
 7534SOL    HW134061   3.745   2.942   9.527  1.3752 -1.3729  1.1292
 7534SOL    HW234062   3.813   2.902   9.407  0.3016  0.9987  1.2062
 7535SOL     OW34063   2.592   4.645   5.368  0.4353  0.3632  0.1275
 7535SOL    HW134064   2.554   4.638   5.280  2.6703 -1.3369 -0.7033
 7535SOL    HW234065   2.559   0.005   5.396 -0.9068  0.9545 -3.2260
 7536SOL     OW34066   3.925   1.836   5.604 -0.2847  0.4979 -0.0568
 7536SOL    HW134067   3.853   1.886   5.643  0.9801  3.3711 -1.4368
 7536SOL    HW234068   3.891   1.814   5.517 -0.2584 -1.0839  0.3367
 7537SOL     OW34069   2.568   4.056   4.324  0.6397 -0.0234 -0.4852
 7537SOL    HW134070   2.599   3.980   4.372  0.2256 -0.4349 -0.8714
 7537SOL    HW234071   2.603   4.128   4.376  0.9702  1.9365 -3.3732
 7538SOL     OW34072   1.582   0.591   1.930  0.0940 -0.3666 -0.5040
 7538SOL    HW134073   1.579   0.504   1.970 -1.5493  0.7221  1.7303
 7538SOL    HW234074   1.632   0.643   1.993  0.8243 -1.5310 -0.1113
 7539SOL     OW34075   0.275   3.421  12.800 -0.2404 -0.2155 -0.4007
 7539SOL    HW134076   0.249   3.508  12.771  0.1815 -0.0367 -0.2500
 7539SOL    HW234077   0.246   3.380  12.719 -0.4454  0.5296 -0.7011
 7540SOL     OW34078   1.354   1.942  17.087  0.0143  0.0807 -0.0739
 7540SOL    HW134079   1.312   1.891  17.156 -1.1377  0.3977 -0.5415
 7540SOL    HW234080   1.447   1.936  17.110 -0.3160  0.4352  1.3379
 7541SOL     OW34081   0.178   3.757   2.266  0.4632 -0.3602 -0.2969
 7541SOL    HW134082   0.103   3.699   2.259 -0.3484  0.1561  3.9867
 7541SOL    HW234083   0.142   3.838   2.229 -0.3953  0.7403  2.9248
 7542SOL     OW34084   0.292   2.880   7.616  0.9088  1.2222 -0.1221
 7542SOL    HW134085   0.309   2.794   7.577 -0.2339 -0.1722  2.4907
 7542SOL    HW234086   0.221   2.914   7.561  1.0608 -0.0256 -1.0941
 7543SOL     OW34087   3.427   2.499  13.201 -0.5872 -0.0888 -0.4694
 7543SOL    HW134088   3.439   2.435  13.131 -0.1129  0.0090 -0.4810
 7543SOL    HW234089   3.458   2.576  13.153 -0.1595 -0.2691 -0.4858
 7544SOL     OW34090   4.687   0.817   1.845  0.0497  0.4249 -0.7298
 7544SOL    HW134091   4.621   0.788   1.783 -0.5998 -1.9517  1.0687
 7544SOL    HW234092   4.646   0.792   1.928 -0.2106 -2.1845 -1.6591
 7545SOL     OW34093   4.049   1.032   2.781  0.0229  0.3574 -0.5626
 7545SOL    HW134094   4.129   1.010   2.733 -0.6159 -0.7976 -1.0928
 7545SOL    HW234095   4.019   1.097   2.717 -0.8800 -0.9306 -1.4488
 7546SOL     OW34096   3.707   0.604   7.850  0.4553  0.3788  0.2974
 7546SOL    HW134097   3.647   0.637   7.783 -1.0282 -0.1739  1.3742
 7546SOL    HW234098   3.660   0.619   7.932  1.6471 -0.0654  1.0761
 7547SOL     OW34099   1.838   3.107   9.338  0.1874 -0.2117 -0.5402
 7547SOL    HW134100   1.895   3.056   9.280  0.0859  1.2025 -1.8769
 7547SOL    HW234101   1.903   3.136   9.402  1.2757 -1.2631 -1.1693
 7548SOL     OW34102   0.820   3.340   4.240 -0.9600 -0.1490  0.1608
 7548SOL    HW134103   0.753   3.273   4.225  0.2058 -1.5032  0.9590
 7548SOL    HW234104   0.787   3.413   4.188 -1.9298 -0.4573  0.3422
 7549SOL     OW34105   0.185   3.845   7.992  0.1919  0.2303  0.9151
 7549SOL    HW134106   0.181   3.751   7.974  0.7728  0.4022 -0.1000
 7549SOL    HW234107   0.271   3.865   7.955  0.7927 -2.8909  0.5937
 7550SOL     OW34108   3.761   1.847   4.394  0.6098  0.0517 -0.6315
 7550SOL    HW134109   3.804   1.771   4.433 -0.7618 -0.7961 -0.7715
 7550SOL    HW234110   3.798   1.833   4.306 -1.3709  1.0574 -1.6316
 7551SOL     OW34111   1.048   4.223  14.912 -0.5087  0.2017  0.0421
 7551SOL    HW134112   1.117   4.162  14.937 -1.0902 -0.6851 -0.4843
 7551SOL    HW234113   1.050   4.281  14.988  1.0091  1.0814 -0.6639
 7552SOL     OW34114   3.370   3.975   8.577  0.4619  0.4114  0.2953
 7552SOL    HW134115   3.433   3.952   8.645  0.6416  0.6372  0.2067
 7552SOL    HW234116   3.335   3.889   8.555 -0.9032  1.0665 -0.0384
 7553SOL     OW34117   3.449   1.391   2.832  0.4695 -0.2031 -0.2993
 7553SOL    HW134118   3.361   1.365   2.859  0.5923 -0.0183  0.2832
 7553SOL    HW234119   3.470   1.466   2.888  1.0192  0.9165 -1.9972
 7554SOL     OW34120   4.430   3.295   0.292 -0.3794  0.6931  0.1443
 7554SOL    HW134121   4.433   3.230   0.362  1.1174  1.4172  0.7725
 7554SOL    HW234122   4.394   3.365   0.347  0.4748 -0.0364  1.6364
 7555SOL     OW34123   1.284   3.753   9.092  0.2383 -0.1821  0.4059
 7555SOL    HW134124   1.197   3.778   9.123  0.9102  2.2841  0.3013
 7555SOL    HW234125   1.293   3.809   9.015 -3.2204 -0.4062 -0.1715
 7556SOL     OW34126   1.887   3.335  15.632  0.6429  0.3611 -0.0104
 7556SOL    HW134127   1.844   3.323  15.548 -0.4405 -3.6149  1.1250
 7556SOL    HW234128   1.971   3.372  15.605  0.5571 -0.0041 -0.7685
 7557SOL     OW34129   4.464   0.473   5.850 -0.1075 -0.7205  0.3089
 7557SOL    HW134130   4.489   0.563   5.870  0.0118 -1.2770  2.6436
 7557SOL    HW234131   4.420   0.460   5.934 -0.5880 -2.7005 -0.2464
 7558SOL     OW34132   0.898   2.445   4.161  0.3232 -0.7519  0.0451
 7558SOL    HW134133   0.874   2.509   4.228 -0.2964 -1.2008  0.2567
 7558SOL    HW234134   0.844   2.469   4.086 -0.6914  0.1916  1.0675
 7559SOL     OW34135   0.574   3.839   7.408  0.0795 -0.0193 -0.3408
 7559SOL    HW134136   0.484   3.869   7.397  0.5987  2.3453  1.6880
 7559SOL    HW234137   0.589   3.837   7.503  0.2297  0.5522 -0.3474
 7560SOL     OW34138   0.061   4.508   3.682 -0.0536 -0.2587 -0.0571
 7560SOL    HW134139   0.139   4.563   3.678 -0.0974 -0.3608 -2.0557
 7560SOL    HW234140   0.090   4.417   3.672 -1.3007 -0.8744  1.7558
 7561SOL     OW34141   1.100   1.799   9.375 -0.1291  0.0545 -0.3154
 7561SOL    HW134142   1.031   1.740   9.406  0.9567 -0.8548  0.4101
 7561SOL    HW234143   1.166   1.747   9.329  1.3344  2.0636 -0.4489
 7562SOL     OW34144   3.029   2.415   8.190  0.0819 -0.1256 -0.3184
 7562SOL    HW134145   3.017   2.461   8.273 -3.1088  0.2477 -1.0046
 7562SOL    HW234146   3.039   2.479   8.119  2.0405 -1.5546 -1.3522
 7563SOL     OW34147   4.486   0.791   1.651 -0.2978  0.3572 -0.1379
 7563SOL    HW134148   4.407   0.737   1.657  0.1251 -0.4219 -1.4427
 7563SOL    HW234149   4.474   0.829   1.564 -0.3319  0.9506  0.1323
 7564SOL     OW34150   2.234   4.032   9.205  0.0199  0.3464 -0.0185
 7564SOL    HW134151   2.234   3.939   9.182 -0.1674 -0.2592  2.5039
 7564SOL    HW234152   2.322   4.047   9.171 -0.4931 -0.5733 -1.7887
 7565SOL     OW34153   0.648   1.018   4.343  0.4109 -0.3946  0.6677
 7565SOL    HW134154   0.623   1.109   4.354  0.9202 -0.0652 -0.8949
 7565SOL    HW234155   0.582   0.979   4.285 -0.1461  3.2501 -1.1149
 7566SOL     OW34156   4.375   0.132  17.082 -0.1680 -0.0739 -0.2335
 7566SOL    HW134157   4.411   0.154  16.997  0.2129 -0.0297 -0.0623
 7566SOL    HW234158   4.386   0.037  17.080 -0.2067 -0.0771 -0.2966
 7567SOL     OW34159   2.669   4.002   3.583  0.8732 -0.1079 -0.3564
 7567SOL    HW134160   2.678   3.912   3.614  0.8241 -0.3649 -1.0685
 7567SOL    HW234161   2.700   4.012   3.492 -0.7951  2.3434 -0.6691
 7568SOL     OW34162   2.531   2.119   8.338  0.1297  0.1882 -0.5667
 7568SOL    HW134163   2.515   2.208   8.368  1.0714  0.5110 -1.0271
 7568SOL    HW234164   2.447   2.076   8.355 -0.0908 -0.3981 -3.1633
 7569SOL     OW34165   1.522   0.757  10.701 -0.3336 -0.0908 -0.1323
 7569SOL    HW134166   1.562   0.812  10.769  0.5694 -0.9902  0.0570
 7569SOL    HW234167   1.559   0.671  10.715 -2.1314 -0.9996 -0.9287
 7570SOL     OW34168   1.877   2.130   3.346  0.5605  0.2644 -0.1998
 7570SOL    HW134169   1.928   2.181   3.410 -0.8085  1.0893  0.2422
 7570SOL    HW234170   1.843   2.061   3.402 -1.3276  1.8579  0.6347
 7571SOL     OW34171   2.946   3.117  14.256  0.1978  0.1709  0.3791
 7571SOL    HW134172   2.959   3.203  14.216  1.0848  0.2935  0.9327
 7571SOL    HW234173   2.851   3.104  14.246  0.0622  1.1929  0.3324
 7572SOL     OW34174   3.272   3.581   0.946  0.1834  0.8391 -0.0298
 7572SOL    HW134175   3.264   3.647   0.877 -1.4548  2.6020  1.8332
 7572SOL    HW234176   3.243   3.497   0.910  1.2096  0.5395 -0.1584
 7573SOL     OW34177   4.042   3.202   4.504  0.0903 -0.2555 -0.5177
 7573SOL    HW134178   4.075   3.135   4.444  0.9168  0.6632 -1.0679
 7573SOL    HW234179   3.989   3.252   4.442  0.5506 -0.0261 -0.7272
 7574SOL     OW34180   2.515   1.388   2.345 -0.3871 -0.3863 -0.5678
 7574SOL    HW134181   2.442   1.398   2.283  1.0595 -2.2251 -2.5834
 7574SOL    HW234182   2.579   1.336   2.296  1.7098 -0.0256  1.8010
 7575SOL     OW34183   4.298   0.236   5.121 -0.2018  0.7726  0.3044
 7575SOL    HW134184   4.348   0.171   5.170 -1.2985  0.1064  0.5512
 7575SOL    HW234185   4.261   0.279   5.198 -1.8016  0.5132 -0.3206
 7576SOL     OW34186   2.059   3.334  13.284 -0.1545  0.1475 -0.0872
 7576SOL    HW134187   2.090   3.245  13.264  0.3763  0.4665 -0.7021
 7576SOL    HW234188   1.977   3.327  13.333 -1.5758 -0.7241 -2.5841
 7577SOL     OW34189   1.421   4.621  11.279  0.1973 -0.3956 -0.4399
 7577SOL    HW134190   1.368   4.552  11.239 -0.1616 -0.4536  0.1385
 7577SOL    HW234191   1.404   4.690  11.214 -0.0328 -0.3228 -0.3024
 7578SOL     OW34192   3.271   0.502   0.678 -0.3138  0.1945 -0.1281
 7578SOL    HW134193   3.290   0.582   0.628 -1.2064  1.7581  2.0055
 7578SOL    HW234194   3.184   0.530   0.706 -2.0228 -3.1508 -2.0730
 7579SOL     OW34195   3.622   2.207  10.256 -0.6184  0.0975 -0.2026
 7579SOL    HW134196   3.539   2.196  10.210 -1.1849 -0.5434  0.9665
 7579SOL    HW234197   3.589   2.220  10.345  1.2421  1.4794  0.2816
 7580SOL     OW34198   2.590   1.017   3.667  0.6356  0.5623  0.3422
 7580SOL    HW134199   2.583   1.076   3.592  2.1172  1.0673  0.5992
 7580SOL    HW234200   2.581   1.074   3.744 -0.0258  0.3680  0.4084
 7581SOL     OW34201   4.520   1.995  14.740 -0.1038 -0.4364 -0.5885
 7581SOL    HW134202   4.442   1.982  14.793  1.4603 -1.8479  1.3738
 7581SOL    HW234203   4.516   2.082  14.701 -2.5446 -1.0541 -1.6683
 7582SOL     OW34204   0.498   3.658   4.085  0.9237  0.2530 -0.0880
 7582SOL    HW134205   0.476   3.633   3.996  1.1692  3.0699 -0.9278
 7582SOL    HW234206   0.466   3.748   4.088 -0.8185 -0.4320  2.5908
 7583SOL     OW34207   0.616   0.208   2.083  0.2744  0.3861  0.0442
 7583SOL    HW134208   0.693   0.180   2.035 -0.9808 -1.6272 -0.8034
 7583SOL    HW234209   0.602   0.134   2.142  1.0589 -1.4634 -2.1256
 7584SOL     OW34210   3.705   2.192   5.769 -0.5281  0.3159 -0.4293
 7584SOL    HW134211   3.627   2.151   5.731 -0.7764  0.9472 -0.6125
 7584SOL    HW234212   3.656   2.261   5.815 -1.7689  0.3244 -1.7446
 7585SOL     OW34213   2.759   0.904   2.320  0.0453 -0.9525  0.5999
 7585SOL    HW134214   2.840   0.868   2.283  0.7169 -0.7600  1.8949
 7585SOL    HW234215   2.801   0.984   2.352 -2.0476 -0.3276  1.7779
 7586SOL     OW34216   2.813   4.041   2.928 -0.0710  0.3800  0.3596
 7586SOL    HW134217   2.722   4.026   2.954 -0.3655 -1.0616 -1.4787
 7586SOL    HW234218   2.800   4.081   2.842  1.4806 -0.3419 -0.2103
 7587SOL     OW34219   3.766   3.288   3.960  0.0526  0.0757  0.4231
 7587SOL    HW134220   3.815   3.358   3.916  1.2890 -1.2966 -0.4072
 7587SOL    HW234221   3.748   3.238   3.879  0.2804  1.6922 -0.6246
 7588SOL     OW34222   0.968   3.964  12.608 -0.0911  0.2430  0.3830
 7588SOL    HW134223   1.013   3.879  12.612  2.0220  1.3112 -0.3241
 7588SOL    HW234224   1.018   3.995  12.532 -0.9203 -2.2149 -1.1458
 7589SOL     OW34225   4.469   4.086   6.915 -0.5649  0.1305  0.5458
 7589SOL    HW134226   4.408   4.159   6.919 -0.4018  0.2455  0.9198
 7589SOL    HW234227   4.540   4.122   6.967  0.3160  1.0698 -1.2906
 7590SOL     OW34228   1.731   0.004   8.669  0.2168 -0.1383 -0.4144
 7590SOL    HW134229   1.687   0.086   8.693 -0.6921 -0.8815  0.4641
 7590SOL    HW234230   1.662   4.684   8.621 -0.9225  1.3045 -0.1482
 7591SOL     OW34231   4.206   2.756   5.853 -0.1387  0.2469  0.2784
 7591SOL    HW134232   4.250   2.716   5.778 -0.7721  0.6229 -0.3007
 7591SOL    HW234233   4.234   2.701   5.926  0.0375 -0.3544 -0.2423
 7592SOL     OW34234   2.307   2.740   8.377  0.2247 -0.3219 -0.0216
 7592SOL    HW134235   2.232   2.718   8.432  0.6611  1.7487  1.4132
 7592SOL    HW234236   2.318   2.661   8.325  2.1616  1.1389 -1.8708
 7593SOL     OW34237   2.420   2.406   1.605  0.1176 -0.3589 -0.0348
 7593SOL    HW134238   2.496   2.418   1.661  0.2131 -2.1164  0.2005
 7593SOL    HW234239   2.354   2.429   1.670 -0.3467 -4.1505  0.8245
 7594SOL     OW34240   0.492   1.129   8.277  0.0683  0.2590 -0.4742
 7594SOL    HW134241   0.510   1.172   8.361 -0.0305  1.1574 -0.9154
 7594SOL    HW234242   0.507   1.204   8.220  3.6341 -0.7342 -0.8236
 7595SOL     OW34243   0.787   0.642   8.217  0.4618  0.2467  0.0704
 7595SOL    HW134244   0.784   0.552   8.184  1.3710  0.5281 -0.7754
 7595SOL    HW234245   0.698   0.643   8.252  0.9993 -1.4823  1.4971
 7596SOL     OW34246   3.306   4.614   0.063 -0.6724  0.2029 -0.1553
 7596SOL    HW134247   3.375   4.674   0.034  0.5026 -1.9865 -1.8430
 7596SOL    HW234248   3.290   4.643   0.153 -1.7673 -0.0544 -0.2626
 7597SOL     OW34249   0.527   1.718  12.263  0.3240  0.2685 -0.2882
 7597SOL    HW134250   0.489   1.805  12.275  0.2765 -0.0259  1.7238
 7597SOL    HW234251   0.449   1.669  12.235  1.3874 -1.0613 -0.9013
 7598SOL     OW34252   3.094   3.335   4.821  0.5050  0.0097 -0.5569
 7598SOL    HW134253   3.011   3.365   4.858  0.1134 -0.8220 -0.7546
 7598SOL    HW234254   3.133   3.285   4.893 -0.3250  0.9479  0.5471
 7599SOL     OW34255   3.567   1.150   6.271  0.1430  0.2987  0.4497
 7599SOL    HW134256   3.590   1.058   6.259  2.9320  0.9223  1.1125
 7599SOL    HW234257   3.583   1.198   6.190 -0.8314  0.9471  0.6419
 7600SOL     OW34258   3.341   4.417   6.578 -0.5212 -0.0166  0.4307
 7600SOL    HW134259   3.299   4.349   6.631 -1.7957  0.2865 -0.2002
 7600SOL    HW234260   3.355   4.367   6.498 -1.2532  0.0708  0.2482
 7601SOL     OW34261   2.190   2.451  13.702  0.4339 -0.2120  0.1264
 7601SOL    HW134262   2.283   2.458  13.725 -0.4875  0.7225  3.4994
 7601SOL    HW234263   2.148   2.436  13.787 -1.0699  1.6115 -0.2951
 7602SOL     OW34264   3.165   4.527  10.502  0.5836  0.1982  0.5306
 7602SOL    HW134265   3.239   4.570  10.461  0.7295  0.7496  1.3791
 7602SOL    HW234266   3.128   4.600  10.552 -1.7352  0.4389 -1.5334
 7603SOL     OW34267   3.014   1.521   2.209 -0.7076 -0.3804  0.1838
 7603SOL    HW134268   3.005   1.581   2.282  0.2007 -0.0132 -0.0096
 7603SOL    HW234269   3.051   1.570   2.136 -0.8960 -0.6860 -0.1193
 7604SOL     OW34270   1.905   3.102   3.075 -0.0749 -0.3276  0.1008
 7604SOL    HW134271   1.845   3.173   3.095 -0.2545 -0.7419  1.0333
 7604SOL    HW234272   1.939   3.127   2.989 -0.8232  1.5739  0.3814
 7605SOL     OW34273   3.338   3.931  13.704  0.2682 -0.1993 -0.0896
 7605SOL    HW134274   3.425   3.893  13.709  0.8490  0.6158 -4.1621
 7605SOL    HW234275   3.323   3.932  13.609  2.7370 -2.7401 -0.4915
 7606SOL     OW34276   2.444   4.638   6.985 -0.0084 -0.2916  0.2418
 7606SOL    HW134277   2.414   4.690   6.910 -0.2906 -0.1976  0.4191
 7606SOL    HW234278   2.472   4.706   7.045 -1.7836  0.3817  0.3183
 7607SOL     OW34279   2.954   2.881   1.935  0.7167 -0.1403 -0.3376
 7607SOL    HW134280   3.029   2.937   1.912  0.3948 -0.9902 -3.5003
 7607SOL    HW234281   2.890   2.945   1.965 -0.1647 -1.1337 -0.1169
 7608SOL     OW34282   3.607   0.653   3.365  0.4232  0.2376  0.3390
 7608SOL    HW134283   3.690   0.700   3.360  0.5603  0.1595  1.8175
 7608SOL    HW234284   3.637   0.590   3.431 -0.9168 -1.5206 -0.7415
 7609SOL     OW34285   0.782   2.971  13.988 -0.7015 -0.4883 -0.7547
 7609SOL    HW134286   0.793   3.021  13.907 -0.3938  0.4115 -0.1640
 7609SOL    HW234287   0.695   3.007  14.005 -0.1204 -0.5163  2.3445
 7610SOL     OW34288   2.836   1.925   1.337  0.2378  0.1351  1.0470
 7610SOL    HW134289   2.749   1.966   1.338 -0.0107 -0.3396 -1.8752
 7610SOL    HW234290   2.897   1.991   1.369  2.5489 -1.8419  0.7267
 7611SOL     OW34291   3.747   3.097   3.201  0.3575 -0.2523  0.6469
 7611SOL    HW134292   3.719   3.141   3.281  0.9064 -1.8663  1.7386
 7611SOL    HW234293   3.756   3.007   3.232 -2.5329 -1.5756 -2.2278
 7612SOL     OW34294   0.535   1.460   7.566  0.4425 -0.1467  0.4103
 7612SOL    HW134295   0.454   1.418   7.537 -0.3112  1.4397  0.1711
 7612SOL    HW234296   0.551   1.510   7.486 -0.7220  1.8511  1.4195
 7613SOL     OW34297   1.700   3.687   2.284 -0.3688  0.2150  0.1601
 7613SOL    HW134298   1.704   3.672   2.378  1.0812  0.4751  0.1315
 7613SOL    HW234299   1.784   3.652   2.256 -0.1361  1.2598 -0.4743
 7614SOL     OW34300   4.261   4.259   7.751  0.2101 -0.4553  0.1962
 7614SOL    HW134301   4.352   4.243   7.774  0.9500  1.9695 -1.0865
 7614SOL    HW234302   4.218   4.193   7.805  1.0887 -0.0413  1.4013
 7615SOL     OW34303   1.896   3.158   4.428 -0.3644 -0.6383 -1.1967
 7615SOL    HW134304   1.853   3.219   4.368 -0.8369  0.7563  0.5631
 7615SOL    HW234305   1.939   3.220   4.487  1.9173 -1.2325 -2.2458
 7616SOL     OW34306   3.073   1.155   8.182  0.2963  0.5766  0.2053
 7616SOL    HW134307   3.018   1.118   8.112  0.4849  0.3092  0.1979
 7616SOL    HW234308   3.156   1.162   8.136  0.2233 -0.3789 -0.0734
 7617SOL     OW34309   3.898   4.305   8.342  0.1150  0.0673 -0.1799
 7617SOL    HW134310   3.887   4.379   8.282 -1.6255  0.7182  0.9471
 7617SOL    HW234311   3.858   4.344   8.419  0.6764 -0.3091  0.3030
 7618SOL     OW34312   3.073   1.316   0.912  0.9470  0.3576  0.5278
 7618SOL    HW134313   2.999   1.254   0.920  1.8961 -0.6114  1.8893
 7618SOL    HW234314   3.096   1.331   1.004  0.6982 -1.2567  0.8694
 7619SOL     OW34315   0.447   0.487   5.050 -0.1777  0.4103 -0.1205
 7619SOL    HW134316   0.425   0.403   5.011 -1.1707  1.8049 -2.5824
 7619SOL    HW234317   0.361   0.531   5.057  0.0537  0.5034  2.1951
 7620SOL     OW34318   0.079   2.896   3.016  0.0354 -0.2351  0.1408
 7620SOL    HW134319   0.149   2.880   3.078  0.8055 -2.0097 -1.1833
 7620SOL    HW234320   0.118   2.969   2.968  0.4694 -1.5170 -1.4560
 7621SOL     OW34321   1.520   2.699   8.066  0.1499  0.5132  0.2785
 7621SOL    HW134322   1.608   2.729   8.089  0.3054  0.5936 -0.4275
 7621SOL    HW234323   1.509   2.619   8.117  0.9425  0.2134 -0.0279
 7622SOL     OW34324   4.344   2.383  16.778 -0.7063 -0.2141  0.0637
 7622SOL    HW134325   4.427   2.358  16.738 -0.7418 -0.7900  0.3385
 7622SOL    HW234326   4.371   2.359  16.867  1.1231 -0.0737 -0.4638
 7623SOL     OW34327   0.710   1.189  17.176 -0.2155 -0.0148  0.0725
 7623SOL    HW134328   0.774   1.119  17.190  1.0710  1.8282  3.3373
 7623SOL    HW234329   0.649   1.184  17.249 -1.1000  0.4041 -0.6437
 7624SOL     OW34330   0.496   3.063  16.384  0.5069 -0.0742  0.0147
 7624SOL    HW134331   0.403   3.074  16.365  0.4740 -0.0788  0.1744
 7624SOL    HW234332   0.534   3.149  16.402  0.8303 -0.0551 -0.7592
 7625SOL     OW34333   2.975   4.069  10.218  0.1182  0.2230 -0.1588
 7625SOL    HW134334   3.021   4.134  10.166 -1.4636 -0.3564 -2.2750
 7625SOL    HW234335   2.938   4.115  10.294  0.2387  0.8522 -0.4896
 7626SOL     OW34336   0.281   3.328   8.975 -0.6017 -0.2630 -0.0736
 7626SOL    HW134337   0.250   3.307   9.063 -0.5766 -1.9004 -0.4623
 7626SOL    HW234338   0.292   3.424   8.977 -0.1173 -0.2917 -1.5809
 7627SOL     OW34339   3.226   2.544   9.517  0.1777 -0.1570 -0.3634
 7627SOL    HW134340   3.148   2.559   9.465 -0.6965 -0.4941  0.8523
 7627SOL    HW234341   3.195   2.495   9.593 -0.0568 -0.9182 -0.9486
 7628SOL     OW34342   0.579   4.241   5.575 -0.0263  0.3175  0.4240
 7628SOL    HW134343   0.630   4.183   5.632 -1.1652 -0.4567  0.6660
 7628SOL    HW234344   0.620   4.234   5.489  2.7197 -0.8876  1.8380
 7629SOL     OW34345   3.168   2.235  13.100  0.9290 -0.4010  0.1774
 7629SOL    HW134346   3.219   2.167  13.055 -0.7733 -0.6370 -1.3780
 7629SOL    HW234347   3.160   2.311  13.043 -0.9410 -1.1947 -0.6183
 7630SOL     OW34348   2.200   3.220   1.013  0.0494  0.0285 -0.5582
 7630SOL    HW134349   2.117   3.227   0.965  0.3860  0.3156 -1.1099
 7630SOL    HW234350   2.187   3.153   1.080 -1.7948  0.3628 -0.5893
 7631SOL     OW34351   3.505   3.227  10.354 -0.7649  0.9661  0.1638
 7631SOL    HW134352   3.543   3.301  10.401  1.1739  0.5867 -0.8145
 7631SOL    HW234353   3.504   3.170  10.432  2.8600  0.1623 -0.3814
 7632SOL     OW34354   1.260   0.208   6.399 -0.0894  0.1963  0.7119
 7632SOL    HW134355   1.313   0.282   6.369 -0.8861  0.1430 -0.7788
 7632SOL    HW234356   1.193   0.205   6.331  0.3120 -1.2251  0.3807
 7633SOL     OW34357   3.593   0.508   8.102  0.2267  0.2116 -0.2383
 7633SOL    HW134358   3.583   0.428   8.154 -1.9251  2.0951  2.2878
 7633SOL    HW234359   3.604   0.574   8.171 -0.6414 -0.4059  0.4939
 7634SOL     OW34360   1.851   0.048   6.758 -0.8606  0.6594  0.5163
 7634SOL    HW134361   1.816   0.137   6.760 -0.5959  0.7602  0.6269
 7634SOL    HW234362   1.911   0.055   6.832 -0.5074 -0.7592  0.3547
 7635SOL     OW34363   0.127   2.926   9.270  0.3636  0.6342 -0.5569
 7635SOL    HW134364   0.186   2.851   9.272 -0.8434 -0.2933 -0.1757
 7635SOL    HW234365   0.050   2.874   9.249 -0.6923  1.6840  0.7071
 7636SOL     OW34366   1.852   3.454   4.818  0.1241  0.2979 -0.6407
 7636SOL    HW134367   1.804   3.455   4.735 -0.1895 -2.0706 -0.4987
 7636SOL    HW234368   1.895   3.539   4.816 -0.5669  0.6921  1.3855
 7637SOL     OW34369   0.449   2.409   6.358 -0.2184 -0.1563 -0.2152
 7637SOL    HW134370   0.397   2.334   6.387  0.6051 -0.5325  0.2761
 7637SOL    HW234371   0.525   2.392   6.414  0.7309  1.8274 -0.9221
 7638SOL     OW34372   3.740   0.719   5.816 -0.7346 -0.3383  0.5828
 7638SOL    HW134373   3.829   0.740   5.845 -0.5145 -0.5669  0.0764
 7638SOL    HW234374   3.718   0.799   5.769 -2.6190 -0.7627  0.7442
 7639SOL     OW34375   0.589   3.533   2.174  0.2434  0.1254  0.7226
 7639SOL    HW134376   0.667   3.522   2.228 -0.8602 -0.2219  2.2285
 7639SOL    HW234377   0.632   3.546   2.089 -0.4256 -2.0937  0.0260
 7640SOL     OW34378   0.272   3.788  17.517  0.5280  0.4448 -0.2217
 7640SOL    HW134379   0.320   3.865  17.548  0.7959  1.0459 -2.0881
 7640SOL    HW234380   0.337   3.719  17.527 -0.0926  0.1830  1.8975
 7641SOL     OW34381   1.647   4.149   6.676 -0.1124 -0.0846  0.7934
 7641SOL    HW134382   1.639   4.176   6.767 -1.0963  0.4991  0.5346
 7641SOL    HW234383   1.630   4.055   6.680 -2.6843  0.3700  0.7603
 7642SOL     OW34384   2.676   2.454   8.124  0.2937 -0.4907  0.3921
 7642SOL    HW134385   2.752   2.509   8.105  1.4647 -2.4028 -0.4443
 7642SOL    HW234386   2.677   2.380   8.063  2.2196 -1.5837  1.7184
 7643SOL     OW34387   1.616   1.268   5.114  0.2847  0.5409 -0.1277
 7643SOL    HW134388   1.612   1.338   5.049 -0.3782 -0.2978 -0.9966
 7643SOL    HW234389   1.527   1.289   5.140 -1.0011 -3.3109 -1.5047
 7644SOL     OW34390   1.106   0.968  17.073 -0.1387  0.2902  0.0140
 7644SOL    HW134391   1.050   0.910  17.022  0.7961 -1.1558  0.6171
 7644SOL    HW234392   1.078   0.947  17.162  1.4905 -0.4350  0.3621
 7645SOL     OW34393   4.172   1.368  16.494 -0.0871 -0.0163  0.5849
 7645SOL    HW134394   4.088   1.401  16.527 -0.4581  0.0194 -0.3809
 7645SOL    HW234395   4.205   1.445  16.449  0.8371  0.1202  1.4992
 7646SOL     OW34396   2.926   2.419  10.720 -0.2463 -0.1154  0.3503
 7646SOL    HW134397   2.963   2.505  10.742  1.3327 -0.6931 -0.0579
 7646SOL    HW234398   2.831   2.431  10.728 -0.3036  0.9567 -2.2157
 7647SOL     OW34399   0.560   0.887   6.869  0.3301 -0.2317 -0.4942
 7647SOL    HW134400   0.583   0.834   6.792  4.1536  0.5423  0.1084
 7647SOL    HW234401   0.480   0.926   6.835  0.9574  1.0123 -0.5404
 7648SOL     OW34402   2.973   0.319   8.660 -0.6932 -0.2230 -0.2261
 7648SOL    HW134403   2.878   0.323   8.648 -0.9316 -1.1135  1.3398
 7648SOL    HW234404   3.008   0.328   8.571  1.5608  2.0055  0.9140
 7649SOL     OW34405   0.947   4.521   5.114 -0.6323 -0.0264  0.2347
 7649SOL    HW134406   1.033   4.534   5.154 -1.2601 -2.8391  2.5445
 7649SOL    HW234407   0.886   4.547   5.182 -2.4996 -2.2858 -0.5439
 7650SOL     OW34408   1.678   2.375   4.169  0.6998  0.5797 -0.0507
 7650SOL    HW134409   1.617   2.380   4.095 -0.9878 -1.0327  1.2273
 7650SOL    HW234410   1.654   2.451   4.222 -0.9577  0.1383 -0.1593
 7651SOL     OW34411   4.364   1.985   8.730 -0.3409  0.3836 -0.7395
 7651SOL    HW134412   4.378   1.891   8.732  0.0542  0.4155 -1.9431
 7651SOL    HW234413   4.331   1.991   8.820 -1.2956 -0.1110 -1.0638
 7652SOL     OW34414   2.644   2.548   8.613  0.7195 -0.1754  0.0977
 7652SOL    HW134415   2.678   2.476   8.667 -1.3798 -0.9916  0.3327
 7652SOL    HW234416   2.585   2.601   8.667 -0.3701 -0.2517 -1.0385
 7653SOL     OW34417   1.636   2.714   4.946 -0.4782 -0.1145 -0.4293
 7653SOL    HW134418   1.655   2.661   4.869 -0.3064 -0.9167  0.1626
 7653SOL    HW234419   1.693   2.790   4.932  0.8494 -1.2319 -1.0297
 7654SOL     OW34420   3.595   4.605   0.514  0.8172 -0.3283  0.3795
 7654SOL    HW134421   3.651   4.679   0.491 -1.8705  0.8880 -2.2374
 7654SOL    HW234422   3.534   4.651   0.571  1.5590 -1.0024  1.7387
 7655SOL     OW34423   0.354   1.513   6.953  0.1823  0.3691  0.2051
 7655SOL    HW134424   0.430   1.569   6.941 -0.3935  1.2138  0.5132
 7655SOL    HW234425   0.319   1.525   6.865 -0.4269  0.8172  0.5027
 7656SOL     OW34426   4.224   2.665   5.407  0.4065 -0.0536  0.1526
 7656SOL    HW134427   4.132   2.677   5.384  0.0195  0.3036  1.8530
 7656SOL    HW234428   4.249   2.591   5.352 -0.9050 -0.6103  0.2869
 7657SOL     OW34429   1.274   0.935   1.731 -0.2204  0.0586  0.2667
 7657SOL    HW134430   1.238   1.008   1.680 -2.6457 -1.6957 -0.5040
 7657SOL    HW234431   1.276   0.864   1.668  1.2608 -0.7624  1.2240
 7658SOL     OW34432   0.754   3.999   0.529 -0.1369  0.0547 -0.2354
 7658SOL    HW134433   0.699   3.998   0.451  0.3267 -1.2580 -0.5400
 7658SOL    HW234434   0.718   3.925   0.577  0.0127 -1.0860 -1.8854
 7659SOL     OW34435   2.289   2.142   3.245 -0.4373 -0.4530 -0.6173
 7659SOL    HW134436   2.230   2.215   3.264  1.5172  0.2587  2.6384
 7659SOL    HW234437   2.227   2.096   3.188 -0.8832 -3.3893  2.2626
 7660SOL     OW34438   2.361   2.883   8.892  0.0970 -0.4856 -0.5457
 7660SOL    HW134439   2.439   2.911   8.940  0.4949 -0.3137 -1.2976
 7660SOL    HW234440   2.409   2.837   8.823  0.8679  0.7127 -0.7907
 7661SOL     OW34441   4.575   0.570   6.298 -0.0961 -0.4715 -0.1733
 7661SOL    HW134442   4.663   0.584   6.262  0.4370 -1.5528  0.6958
 7661SOL    HW234443   4.532   0.655   6.290  0.8204 -0.3146 -3.4457
 7662SOL     OW34444   2.869   3.070   5.395 -0.1840 -0.4696 -0.1095
 7662SOL    HW134445   2.940   3.135   5.388 -0.0230 -0.7336 -0.9739
 7662SOL    HW234446   2.844   3.079   5.487  1.8841 -0.9521  0.5094
 7663SOL     OW34447   0.359   0.320   8.850  0.1204  0.4704  0.1741
 7663SOL    HW134448   0.388   0.387   8.788 -2.9357  0.3461 -1.4025
 7663SOL    HW234449   0.285   0.280   8.804  0.5054  0.1510 -0.1646
 7664SOL     OW34450   3.089   2.889   8.749 -0.7169 -0.0517  0.2524
 7664SOL    HW134451   3.157   2.923   8.807 -1.5704  1.3854  0.4168
 7664SOL    HW234452   3.074   2.808   8.798 -2.1817 -0.5429 -1.0324
 7665SOL     OW34453   2.798   1.439   0.455  0.0117  0.8323  0.4676
 7665SOL    HW134454   2.867   1.484   0.406  0.4505  1.9319  2.0901
 7665SOL    HW234455   2.853   1.374   0.499  0.1591  1.0336  0.5846
 7666SOL     OW34456   1.655   0.188   5.710  0.4834  0.1302  0.5243
 7666SOL    HW134457   1.736   0.239   5.709 -0.1073  1.0793  1.3859
 7666SOL    HW234458   1.668   0.108   5.660  0.4034 -0.3300  1.2428
 7667SOL     OW34459   0.623   1.281   8.531 -0.6545 -0.3397  0.2273
 7667SOL    HW134460   0.603   1.330   8.611 -1.0343  2.6509 -1.6917
 7667SOL    HW234461   0.709   1.247   8.554 -0.6297 -0.5918 -0.2285
 7668SOL     OW34462   3.946   1.907   8.918 -0.2381  0.1159  0.0265
 7668SOL    HW134463   3.899   1.989   8.902 -1.7622 -0.5695  0.8877
 7668SOL    HW234464   3.914   1.845   8.853 -2.6876  0.4572  0.8955
 7669SOL     OW34465   4.327   1.419  14.561  0.1386 -0.1307  0.2044
 7669SOL    HW134466   4.351   1.462  14.478  4.0054  1.2682  2.0497
 7669SOL    HW234467   4.300   1.333  14.531 -1.3351  1.4810 -3.1848
 7670SOL     OW34468   4.445   0.481   7.905 -0.3319  0.5475  0.2313
 7670SOL    HW134469   4.384   0.443   7.842  1.5740 -2.0638 -0.0803
 7670SOL    HW234470   4.462   0.408   7.965 -0.0283  2.1499  2.0770
 7671SOL     OW34471   1.454   3.212   0.475  0.1740  0.1611  0.6863
 7671SOL    HW134472   1.505   3.250   0.404  0.5151 -0.6745  0.4851
 7671SOL    HW234473   1.375   3.265   0.473 -1.7837 -2.8581 -2.3169
 7672SOL     OW34474   1.248   4.334   2.213  0.0554 -0.4611  0.1324
 7672SOL    HW134475   1.176   4.282   2.249  0.6063 -0.6894  0.8981
 7672SOL    HW234476   1.219   4.351   2.123 -3.9424 -3.4357  0.8723
 7673SOL     OW34477   0.974   1.574   8.487  0.7480 -0.7231 -0.3254
 7673SOL    HW134478   0.886   1.596   8.519  0.2820 -1.5101 -1.0767
 7673SOL    HW234479   0.973   1.479   8.500 -3.2100 -0.6199  0.0889
 7674SOL     OW34480   3.997   0.533   4.521  0.5777 -0.3154  0.0906
 7674SOL    HW134481   4.085   0.517   4.555 -0.5265 -0.1368  3.0735
 7674SOL    HW234482   3.975   0.596   4.590 -0.0275 -0.8388  0.3788
 7675SOL     OW34483   3.268   2.161   0.015  0.4694 -0.3617  0.2629
 7675SOL    HW134484   3.274   2.133   0.107  0.7265  0.9224  0.6367
 7675SOL    HW234485   3.223   2.245   0.026 -2.1597 -1.4253 -2.5585
 7676SOL     OW34486   4.616   2.028   0.908 -0.3674  0.4867  0.3889
 7676SOL    HW134487   4.675   2.064   0.974  0.7118  0.4402 -0.5371
 7676SOL    HW234488   4.659   2.066   0.831 -2.2079  1.0188 -0.3768
 7677SOL     OW34489   1.144   0.403   6.979  0.3993 -0.0480 -0.0097
 7677SOL    HW134490   1.068   0.366   7.024  0.1792 -1.3219 -1.4248
 7677SOL    HW234491   1.218   0.354   7.016  0.1972  0.1599  0.6616
 7678SOL     OW34492   3.955   1.491   7.970  0.3470 -0.0685 -0.4875
 7678SOL    HW134493   3.984   1.582   7.960 -1.0898  0.4740  0.1529
 7678SOL    HW234494   4.024   1.430   7.945  1.1044  0.7878 -0.4636
 7679SOL     OW34495   0.593   2.270  17.597 -0.0578 -0.2317 -0.0525
 7679SOL    HW134496   0.580   2.184  17.557  2.9662 -0.5831 -0.2889
 7679SOL    HW234497   0.500   2.291  17.605  0.1617 -0.5490  3.3496
 7680SOL     OW34498   0.911   1.996   9.855  0.3380  0.1247 -0.1257
 7680SOL    HW134499   0.893   2.089   9.841 -1.2995 -0.1889 -0.1525
 7680SOL    HW234500   0.822   1.970   9.879 -0.1937 -1.8770 -4.1433
 7681SOL     OW34501   0.792   3.027   5.408  0.0160  0.3985 -0.0150
 7681SOL    HW134502   0.773   2.981   5.326 -0.9622  0.5894  0.1140
 7681SOL    HW234503   0.854   2.967   5.450  0.1747 -0.1788 -1.0755
 7682SOL     OW34504   0.146   3.191   0.529 -0.3828  0.7003  0.6116
 7682SOL    HW134505   0.194   3.154   0.455 -1.1913  0.4236  0.2267
 7682SOL    HW234506   0.176   3.145   0.608  0.3741  0.4884  0.2040
 7683SOL     OW34507   0.043   2.139   7.878  0.1655  0.3110  0.1891
 7683SOL    HW134508   4.700   2.076   7.855  0.1320  0.7221 -0.8328
 7683SOL    HW234509   0.058   2.176   7.791  1.6606 -0.7240  0.0132
 7684SOL     OW34510   2.510   0.676   8.835  0.5696  0.4240  0.6466
 7684SOL    HW134511   2.552   0.707   8.915 -1.8819  1.9475  1.3644
 7684SOL    HW234512   2.531   0.583   8.824  0.8408  0.7192 -1.4805
 7685SOL     OW34513   2.194   4.394   2.627 -0.3416 -0.5039  0.2474
 7685SOL    HW134514   2.223   4.435   2.545  1.2107 -0.8675  0.6235
 7685SOL    HW234515   2.206   4.302   2.602  0.7465 -1.0379  2.7718
 7686SOL     OW34516   1.972   3.680   3.266 -0.2446 -0.0391  0.0559
 7686SOL    HW134517   2.024   3.727   3.330 -0.7791  0.5371  0.0665
 7686SOL    HW234518   2.041   3.630   3.223  0.4088  1.7726 -0.9843
 7687SOL     OW34519   4.516   1.901   7.103  0.4979  0.2769 -0.5674
 7687SOL    HW134520   4.444   1.941   7.152  0.1541  1.5760 -2.1030
 7687SOL    HW234521   4.562   1.985   7.092 -0.7567  1.3821  2.7598
 7688SOL     OW34522   1.385   3.255   2.036 -0.0452 -0.0668 -0.1836
 7688SOL    HW134523   1.466   3.286   1.996 -0.7103 -0.6714 -2.0548
 7688SOL    HW234524   1.433   3.188   2.085  0.8309  0.5583 -0.1800
 7689SOL     OW34525   2.908   4.527   3.835  0.2743 -0.4022  0.3286
 7689SOL    HW134526   2.944   4.495   3.918  0.8791  0.5427  0.4224
 7689SOL    HW234527   2.981   4.581   3.804 -0.4212  0.7467  0.6895
 7690SOL     OW34528   3.540   2.677   3.419  0.5552  0.1363 -0.3504
 7690SOL    HW134529   3.446   2.668   3.438  0.6792 -1.6984 -0.6190
 7690SOL    HW234530   3.572   2.649   3.505  0.7501  3.6096  0.6731
 7691SOL     OW34531   3.193   3.304   2.822  0.3590  0.1242 -0.1869
 7691SOL    HW134532   3.212   3.390   2.784 -0.2961  0.4912  0.3230
 7691SOL    HW234533   3.179   3.251   2.744  0.1679 -0.0479 -0.0335
 7692SOL     OW34534   4.124   2.109   5.410  0.4775 -0.1798  0.0630
 7692SOL    HW134535   4.037   2.130   5.446  0.8938  0.1359  0.9084
 7692SOL    HW234536   4.142   2.179   5.348 -1.2006 -2.2388 -2.7474
 7693SOL     OW34537   2.665   1.909   1.974 -0.1062 -0.2597  0.3446
 7693SOL    HW134538   2.714   1.832   1.946 -1.1014 -1.0824  0.8828
 7693SOL    HW234539   2.730   1.950   2.032  1.2763 -2.1918  0.1689
 7694SOL     OW34540   2.508   0.471   3.528 -0.3249  0.0168  0.2547
 7694SOL    HW134541   2.565   0.400   3.500 -1.2198 -0.7053  0.2435
 7694SOL    HW234542   2.502   0.463   3.623 -1.0813 -0.8504  0.1334
 7695SOL     OW34543   4.492   0.276   2.427 -0.1652 -0.2321  0.6514
 7695SOL    HW134544   4.477   0.333   2.351  1.8068 -0.5529  0.0170
 7695SOL    HW234545   4.442   0.197   2.405 -0.2841 -0.1553  0.6442
 7696SOL     OW34546   3.450   2.313  10.002 -0.4075 -0.4509 -0.1616
 7696SOL    HW134547   3.388   2.267  10.059 -0.3322 -0.1082  0.1932
 7696SOL    HW234548   3.480   2.384  10.058 -3.8447 -0.8489  2.2073
 7697SOL     OW34549   2.551   2.146   3.365 -0.1839  0.2031 -0.1633
 7697SOL    HW134550   2.595   2.206   3.305  1.0114 -0.6751 -0.1617
 7697SOL    HW234551   2.464   2.141   3.324 -0.3285 -1.8804  0.3920
 7698SOL     OW34552   0.126   0.733   3.001  0.3360 -0.2466 -0.1492
 7698SOL    HW134553   0.201   0.783   3.031  0.9091 -0.5123 -1.1430
 7698SOL    HW234554   0.084   0.703   3.081 -0.9321 -1.3336 -1.2074
 7699SOL     OW34555   2.763   2.314  14.701 -0.5885  0.2800  0.1975
 7699SOL    HW134556   2.801   2.260  14.769 -1.7712 -0.6576  0.1162
 7699SOL    HW234557   2.842   2.349  14.660  0.8956  0.9195  3.6771
 7700SOL     OW34558   2.510   1.047  14.628 -0.1455  0.3153 -0.2653
 7700SOL    HW134559   2.492   1.108  14.557 -1.2454  1.5910  1.1032
 7700SOL    HW234560   2.531   0.964  14.586 -0.2319 -0.9681  2.2174
 7701SOL     OW34561   3.142   1.883   8.937  0.2073  0.1400 -0.9647
 7701SOL    HW134562   3.219   1.939   8.943 -0.0959  0.3898  0.5013
 7701SOL    HW234563   3.092   1.938   8.997  0.3752 -0.0192 -0.6833
 7702SOL     OW34564   4.649   0.450   6.827 -0.1828 -0.0041 -0.1998
 7702SOL    HW134565   4.684   0.375   6.874 -3.3430 -1.2533  0.1382
 7702SOL    HW234566   4.647   0.424   6.735 -1.7239 -0.8794  0.0770
 7703SOL     OW34567   4.723   2.518   7.528  0.3232  0.6506 -0.3061
 7703SOL    HW134568   0.071   2.538   7.587 -0.3460  0.1935  0.6960
 7703SOL    HW234569   4.694   2.437   7.570 -2.5874  0.2841 -3.0932
 7704SOL     OW34570   2.949   4.497   4.525  0.1717 -0.4479 -0.7213
 7704SOL    HW134571   3.026   4.475   4.473 -0.4204 -1.8474 -1.0143
 7704SOL    HW234572   2.885   4.466   4.461 -0.5589  0.7117 -0.5669
 7705SOL     OW34573   2.161   3.919  17.053 -0.2809  0.2719  0.0716
 7705SOL    HW134574   2.068   3.941  17.061  0.2191  2.5244 -0.3428
 7705SOL    HW234575   2.204   3.927  17.138 -1.2354 -0.8351  0.6594
 7706SOL     OW34576   1.284   4.672   2.942 -0.1278 -0.3460 -0.3478
 7706SOL    HW134577   1.279   4.634   3.030 -0.0264  1.3998  0.4201
 7706SOL    HW234578   1.379   4.660   2.936 -0.1428 -0.1616 -0.9345
 7707SOL     OW34579   4.661   4.177  12.648  0.2615 -0.1812 -0.2573
 7707SOL    HW134580   4.639   4.171  12.741 -2.2052 -1.3226 -0.9208
 7707SOL    HW234581   4.590   4.130  12.604  1.5675  1.0646 -3.7023
 7708SOL     OW34582   4.692   4.234   1.986  0.2635  0.1504  0.5778
 7708SOL    HW134583   4.660   4.144   1.995  1.5661 -0.4832 -0.9410
 7708SOL    HW234584   4.701   4.256   1.893 -0.5608  1.7967  0.9021
 7709SOL     OW34585   1.353   0.206   5.444 -0.4987 -0.0752 -0.0626
 7709SOL    HW134586   1.359   0.111   5.438 -2.0758 -0.3670  2.8729
 7709SOL    HW234587   1.273   0.209   5.392 -0.2207  1.2358 -0.4165
 7710SOL     OW34588   1.385   2.231   8.725 -0.6331  0.0383 -0.0068
 7710SOL    HW134589   1.471   2.250   8.762 -0.0297  0.3919 -1.6081
 7710SOL    HW234590   1.356   2.322   8.720  1.5222  0.5399 -3.1367
 7711SOL     OW34591   0.037   1.847   6.950 -0.0112 -0.3820  0.0237
 7711SOL    HW134592   0.008   1.789   6.879  1.7454 -0.9518 -0.2503
 7711SOL    HW234593   4.715   1.921   6.913  0.7271  1.0930  2.0298
 7712SOL     OW34594   2.077   1.967   3.705 -0.1357  0.0568 -0.6053
 7712SOL    HW134595   2.100   2.044   3.654 -3.0530 -0.0378 -2.0806
 7712SOL    HW234596   2.049   2.004   3.789  3.2087 -0.1985  0.6059
 7713SOL     OW34597   4.389   0.305   3.848  0.6248  0.5371 -0.1820
 7713SOL    HW134598   4.413   0.226   3.800 -2.0965 -0.7638  0.5782
 7713SOL    HW234599   4.410   0.269   3.935  0.6640 -1.1480 -0.8775
 7714SOL     OW34600   3.078   3.009  15.588 -0.0881  0.3613  0.7149
 7714SOL    HW134601   3.166   3.021  15.623  0.3509  1.3803 -0.7183
 7714SOL    HW234602   3.069   3.053  15.503  1.7801 -0.0945  0.2958
 7715SOL     OW34603   2.700   3.725   4.716  0.4639  1.0471 -0.5953
 7715SOL    HW134604   2.648   3.803   4.737 -0.3666 -0.0378  1.3735
 7715SOL    HW234605   2.735   3.718   4.805 -0.1500 -1.3326 -0.5444
 7716SOL     OW34606   3.638   4.437   8.052 -0.0076  0.0445  0.1604
 7716SOL    HW134607   3.549   4.470   8.061 -0.2861 -0.8515  0.6799
 7716SOL    HW234608   3.622   4.405   7.964  0.0664  2.0931 -0.6010
 7717SOL     OW34609   3.343   3.883  12.055 -0.1265  0.1213  0.3910
 7717SOL    HW134610   3.430   3.880  12.016 -0.0490 -0.2021  0.5887
 7717SOL    HW234611   3.362   3.919  12.142  1.2590  1.3435 -0.4058
 7718SOL     OW34612   0.896   0.138   5.284  0.2648  0.6314  0.0008
 7718SOL    HW134613   0.851   0.220   5.265 -2.2791 -0.5606  0.9340
 7718SOL    HW234614   0.987   0.168   5.295 -0.1598  2.2050 -0.8129
 7719SOL     OW34615   0.931   1.044   5.157 -0.1196  0.3306 -0.5583
 7719SOL    HW134616   0.952   1.027   5.249 -0.0013  0.0272 -0.6401
 7719SOL    HW234617   0.996   1.110   5.134 -1.4456  1.6819 -0.3844
 7720SOL     OW34618   4.342   0.458   1.969 -0.4541 -0.2788  0.3321
 7720SOL    HW134619   4.412   0.426   1.913 -0.6282  1.6426 -0.9972
 7720SOL    HW234620   4.345   0.551   1.947 -1.0344 -0.1054  0.9740
 7721SOL     OW34621   3.719   1.491   4.212  0.2518  0.2713 -0.6938
 7721SOL    HW134622   3.642   1.516   4.160 -0.9434  0.3593  1.1289
 7721SOL    HW234623   3.792   1.502   4.151 -0.6041 -0.7710 -1.9297
 7722SOL     OW34624   1.577   3.353  16.582  0.0001  0.1764 -0.4361
 7722SOL    HW134625   1.614   3.378  16.666  2.0297 -0.7806 -1.0498
 7722SOL    HW234626   1.653   3.307  16.546  0.7453  0.5878  0.6378
 7723SOL     OW34627   3.666   0.388   0.657 -0.5197 -0.1351 -0.1288
 7723SOL    HW134628   3.675   0.444   0.734  0.1741 -0.4079 -0.0128
 7723SOL    HW234629   3.740   0.409   0.599 -0.3410 -0.0565  0.1279
 7724SOL     OW34630   1.616   1.902  17.294  1.1165  0.1133 -0.1606
 7724SOL    HW134631   1.611   1.822  17.346 -0.4848 -0.0893 -0.6278
 7724SOL    HW234632   1.708   1.919  17.274  1.9722 -2.1253  1.9097
 7725SOL     OW34633   4.091   4.369   5.536  0.2903  0.0935 -0.2136
 7725SOL    HW134634   4.123   4.389   5.448 -1.5600  0.2129 -0.8779
 7725SOL    HW234635   4.033   4.445   5.543  0.0541 -0.1435  0.3863
 7726SOL     OW34636   1.280   1.589   0.676  0.6986  0.2088 -0.6299
 7726SOL    HW134637   1.368   1.556   0.658  0.6277  0.6731 -1.7642
 7726SOL    HW234638   1.239   1.508   0.647  0.1893  0.3660 -0.3597
 7727SOL     OW34639   0.616   3.819   1.894  0.3148 -0.1362  1.1848
 7727SOL    HW134640   0.649   3.754   1.832 -0.3000  1.7461 -1.0904
 7727SOL    HW234641   0.547   3.774   1.942  0.0677 -1.1617 -0.1271
 7728SOL     OW34642   4.433   3.268  16.638 -0.6803 -0.0843 -0.0347
 7728SOL    HW134643   4.507   3.323  16.664  0.3817 -0.6331 -1.9044
 7728SOL    HW234644   4.364   3.329  16.613 -1.5238 -0.4027  1.5096
 7729SOL     OW34645   0.956   4.306   5.294 -0.6456  0.0692 -0.3238
 7729SOL    HW134646   0.958   4.340   5.204  0.3962 -0.0922 -0.3625
 7729SOL    HW234647   1.021   4.236   5.294 -1.2397 -0.4938 -1.4519
 7730SOL     OW34648   0.882   1.567   1.247  0.4351  0.2803  0.4551
 7730SOL    HW134649   0.865   1.564   1.341 -1.3185 -1.5534  0.0820
 7730SOL    HW234650   0.827   1.495   1.216  1.1056 -0.2740  0.5356
 7731SOL     OW34651   2.497   3.459   5.515 -0.4819  0.1915  0.1413
 7731SOL    HW134652   2.563   3.437   5.582 -0.4270 -1.2238 -0.3673
 7731SOL    HW234653   2.550   3.509   5.453  0.6907 -1.6567 -0.3584
 7732SOL     OW34654   3.808   3.606   6.857  0.3610 -0.1220 -0.4887
 7732SOL    HW134655   3.751   3.583   6.930  1.9840  0.5282  0.9994
 7732SOL    HW234656   3.751   3.580   6.785  1.5924  0.4159 -1.6613
 7733SOL     OW34657   3.701   0.963   5.707  0.1905  0.2592 -0.0302
 7733SOL    HW134658   3.759   1.012   5.648 -2.2767  2.6357 -0.5012
 7733SOL    HW234659   3.649   1.037   5.739  0.4339 -0.6400  2.4259
 7734SOL     OW34660   2.933   4.086   1.157 -0.2133 -0.1055  0.0768
 7734SOL    HW134661   2.868   4.016   1.150 -2.3632  1.8065  0.8768
 7734SOL    HW234662   2.955   4.107   1.067 -1.8840 -1.4393 -0.6354
 7735SOL     OW34663   0.138   3.355   7.431 -0.2542 -0.0060 -0.0198
 7735SOL    HW134664   0.178   3.440   7.415  0.0492 -0.4793 -1.8221
 7735SOL    HW234665   0.212   3.304   7.463  0.5927 -0.6504 -2.9949
 7736SOL     OW34666   2.247   1.998   8.348 -0.5834 -0.0814  1.1677
 7736SOL    HW134667   2.168   1.999   8.295 -1.0813 -0.1077  1.9181
 7736SOL    HW234668   2.232   1.914   8.392 -1.1618 -0.3345  0.4870
 7737SOL     OW34669   4.335   4.088   9.839 -0.7385  0.0251  0.2556
 7737SOL    HW134670   4.283   4.092   9.759 -1.2215  0.0160  0.5687
 7737SOL    HW234671   4.408   4.143   9.810 -0.0129  0.0326  2.0706
 7738SOL     OW34672   0.790   4.008  14.715 -0.5769  0.3507  0.9534
 7738SOL    HW134673   0.858   4.071  14.689 -0.3435 -1.1348 -2.0910
 7738SOL    HW234674   0.749   4.055  14.787 -1.2987  2.9916 -1.1772
 7739SOL     OW34675   4.542   0.219  16.819 -0.4811  0.1986  0.4232
 7739SOL    HW134676   4.561   0.313  16.813  1.5279 -0.2806 -0.6193
 7739SOL    HW234677   4.468   0.214  16.758 -0.3461  1.9343  0.1049
 7740SOL     OW34678   3.431   1.446  12.049  0.0307 -0.3071  0.1098
 7740SOL    HW134679   3.512   1.493  12.067  0.4175 -0.2915 -1.6723
 7740SOL    HW234680   3.420   1.393  12.129  1.9667  1.1240  1.3175
 7741SOL     OW34681   0.656   1.687   8.490  0.1049  0.1790  0.2027
 7741SOL    HW134682   0.655   1.626   8.416 -1.5811  0.1709  0.2428
 7741SOL    HW234683   0.569   1.674   8.529 -0.7549 -0.1058 -1.8190
 7742SOL     OW34684   3.076   0.885  13.712  0.1919 -0.4067  0.4918
 7742SOL    HW134685   3.050   0.906  13.623  0.0694  1.2390  0.9149
 7742SOL    HW234686   2.998   0.849  13.754  0.9421 -1.3399  1.1015
 7743SOL     OW34687   0.804   0.879  15.623  0.2695 -0.6314 -0.6707
 7743SOL    HW134688   0.847   0.929  15.554 -1.4818  1.5927 -0.1231
 7743SOL    HW234689   0.727   0.924  15.657  0.5631  1.0573 -2.2501
 7744SOL     OW34690   1.223   2.396  14.657 -0.1187  0.1726 -0.0272
 7744SOL    HW134691   1.200   2.445  14.736 -1.5272  0.5047 -0.6556
 7744SOL    HW234692   1.150   2.421  14.601 -0.4307 -1.2148 -0.2465
 7745SOL     OW34693   0.613   3.291   1.982  0.2632 -0.0694 -0.4745
 7745SOL    HW134694   0.682   3.340   2.026 -0.7348 -0.2324  1.2795
 7745SOL    HW234695   0.557   3.367   1.961 -0.3364 -0.6011 -0.7911
 7746SOL     OW34696   4.456   4.084   3.093  0.0065  0.7531  0.2663
 7746SOL    HW134697   4.541   4.042   3.102 -0.3894 -0.2122 -0.5856
 7746SOL    HW234698   4.458   4.158   3.154  2.2684  0.7995  0.1270
 7747SOL     OW34699   0.391   0.180   3.729 -0.0751  0.4619 -0.9708
 7747SOL    HW134700   0.397   0.154   3.821 -1.2925 -2.0733 -1.5906
 7747SOL    HW234701   0.386   0.275   3.739  2.4753  0.2086  2.9064
 7748SOL     OW34702   0.714   0.131   1.292 -0.2685  0.1065  0.5156
 7748SOL    HW134703   0.746   0.076   1.364  0.1060  0.2041  0.4234
 7748SOL    HW234704   0.648   0.072   1.256  1.7251 -1.6784 -0.2043
 7749SOL     OW34705   0.154   1.504   1.619  0.1320  0.1114  0.7539
 7749SOL    HW134706   0.145   1.588   1.664 -0.0999  0.1575  0.6215
 7749SOL    HW234707   0.070   1.511   1.574  0.4158 -2.2554 -0.1452
 7750SOL     OW34708   3.600   1.239   4.173  0.9394 -0.0070 -0.4206
 7750SOL    HW134709   3.653   1.306   4.216  0.9609 -0.5934  0.4600
 7750SOL    HW234710   3.561   1.282   4.097 -0.1640 -1.2935 -0.5732
 7751SOL     OW34711   4.327   4.206  13.098  0.2153  0.3814  0.2197
 7751SOL    HW134712   4.305   4.195  13.191  1.1296 -1.6323  0.2108
 7751SOL    HW234713   4.392   4.138  13.081 -1.2395 -1.3801  1.7244
 7752SOL     OW34714   3.798   2.957   7.994  0.0539  0.1964  0.6205
 7752SOL    HW134715   3.724   3.017   7.999  0.7076  0.7928  3.1946
 7752SOL    HW234716   3.869   3.020   7.984  0.6572 -0.2075  2.2516
 7753SOL     OW34717   2.214   0.042   2.027  0.3613  0.1164 -0.6543
 7753SOL    HW134718   2.292   0.066   1.976 -1.0360 -1.7471 -3.6706
 7753SOL    HW234719   2.244   0.046   2.118 -2.8517 -0.4232  0.4028
 7754SOL     OW34720   3.706   3.277  13.661 -0.1358 -0.5484 -0.0916
 7754SOL    HW134721   3.763   3.315  13.728  0.9862  0.3160 -1.5373
 7754SOL    HW234722   3.667   3.362  13.642 -0.9512 -1.0477 -0.6282
 7755SOL     OW34723   3.807   4.525   9.122 -0.1889  0.1663  0.5630
 7755SOL    HW134724   3.814   4.571   9.206 -0.5807  0.9725  0.1486
 7755SOL    HW234725   3.811   4.435   9.155 -1.1301  0.4442  1.4343
 7756SOL     OW34726   1.687   4.246   2.105  0.2563  0.3424 -0.3401
 7756SOL    HW134727   1.610   4.275   2.154 -0.5160 -0.5607 -1.0114
 7756SOL    HW234728   1.671   4.152   2.097  3.3080 -0.3056  1.5670
 7757SOL     OW34729   2.151   0.710   9.087 -0.2854 -0.0654 -0.4703
 7757SOL    HW134730   2.179   0.732   8.998 -1.0496  1.7576 -0.2624
 7757SOL    HW234731   2.086   0.778   9.105 -1.7764 -1.6637  0.1625
 7758SOL     OW34732   1.883   4.569   8.354  0.1028  0.0471  0.6345
 7758SOL    HW134733   1.926   4.542   8.273  1.0704  0.5607  0.9643
 7758SOL    HW234734   1.929   4.522   8.423  0.7016  0.2434  0.3773
 7759SOL     OW34735   3.428   3.386   3.514 -0.1329 -0.7075 -0.0234
 7759SOL    HW134736   3.363   3.328   3.474 -0.9346  1.7820 -2.3627
 7759SOL    HW234737   3.379   3.436   3.580  1.3376  1.3728 -0.4873
 7760SOL     OW34738   1.653   3.398   6.151 -0.0429 -0.0553  0.9641
 7760SOL    HW134739   1.668   3.315   6.107  2.7001  0.1893  1.4687
 7760SOL    HW234740   1.709   3.400   6.229  1.1595 -2.1505  0.1459
 7761SOL     OW34741   3.398   1.304   4.857  0.2337 -0.1243 -0.3103
 7761SOL    HW134742   3.335   1.235   4.834  0.6395 -0.4901 -0.3275
 7761SOL    HW234743   3.473   1.245   4.858 -1.4386 -2.2567  0.8296
 7762SOL     OW34744   1.686   0.426   3.640  0.1504  0.4658 -0.4795
 7762SOL    HW134745   1.665   0.426   3.547 -0.5266 -2.3550 -0.3321
 7762SOL    HW234746   1.595   0.423   3.670  0.2147  3.2699 -0.0360
 7763SOL     OW34747   0.002   0.647   2.571  0.3132 -0.3699 -0.2660
 7763SOL    HW134748   0.070   0.611   2.514 -0.1668 -1.1647 -0.3483
 7763SOL    HW234749   0.048   0.633   2.653  0.5752  1.7654 -0.0614
 7764SOL     OW34750   3.080   3.506   3.795  0.3783 -0.4003 -0.0134
 7764SOL    HW134751   3.041   3.437   3.741 -0.7885  0.8690 -0.8161
 7764SOL    HW234752   3.050   3.588   3.755  0.2970 -0.0316  0.8138
 7765SOL     OW34753   1.567   3.167  16.262  0.1383  0.6496 -0.4591
 7765SOL    HW134754   1.519   3.165  16.179 -0.2766 -2.8560 -0.1501
 7765SOL    HW234755   1.514   3.101  16.308  2.1390 -1.0257 -0.5364
 7766SOL     OW34756   0.448   4.482   6.716 -0.2388  0.4801 -0.5646
 7766SOL    HW134757   0.369   4.471   6.663 -1.4489  0.8809  1.1778
 7766SOL    HW234758   0.469   4.575   6.711 -2.1707  0.8504 -1.6042
 7767SOL     OW34759   0.245   1.829   9.115  1.1044 -0.2534 -0.5881
 7767SOL    HW134760   0.322   1.885   9.112  1.0597 -0.1108  0.9060
 7767SOL    HW234761   0.229   1.814   9.208 -0.5816 -2.4893 -1.2274
 7768SOL     OW34762   3.445   2.168   2.965 -0.2529  0.0572 -0.1480
 7768SOL    HW134763   3.396   2.159   2.884 -0.0243 -0.4489 -0.2306
 7768SOL    HW234764   3.518   2.222   2.935  0.4249 -0.0052  1.3767
 7769SOL     OW34765   2.011   4.454   7.619 -0.0946  0.4222 -0.2336
 7769SOL    HW134766   2.053   4.389   7.563  0.6383 -0.4509  1.3447
 7769SOL    HW234767   1.938   4.488   7.568  0.5385  1.5616 -0.3857
 7770SOL     OW34768   3.444   2.249   5.252  0.0134 -0.3530  0.0253
 7770SOL    HW134769   3.492   2.169   5.275  1.6337  0.4794 -0.5201
 7770SOL    HW234770   3.359   2.225   5.290 -0.0714  0.1977  0.1842
 7771SOL     OW34771   4.192   0.874   1.441  0.0432 -0.0148  0.4604
 7771SOL    HW134772   4.202   0.965   1.469  0.5396 -0.2148  0.9249
 7771SOL    HW234773   4.099   0.859   1.424  0.4296 -0.2254 -1.4819
 7772SOL     OW34774   3.179   3.021   8.273 -0.2890  0.3706  0.6510
 7772SOL    HW134775   3.274   3.017   8.262  0.0331 -0.3295  3.5768
 7772SOL    HW234776   3.154   3.109   8.246  1.0661 -0.4327 -3.2614
 7773SOL     OW34777   1.636   0.504   8.516  0.2171  0.0788 -0.0985
 7773SOL    HW134778   1.656   0.447   8.442  0.6463 -0.5620  0.5094
 7773SOL    HW234779   1.712   0.561   8.529 -0.7969  1.2219  0.9204
 7774SOL     OW34780   0.468   1.584  13.549  0.0787 -0.9882  0.1901
 7774SOL    HW134781   0.556   1.601  13.517  0.6692 -1.2581  1.6775
 7774SOL    HW234782   0.484   1.506  13.602  1.6982 -2.3037 -2.2721
 7775SOL     OW34783   3.224   3.104   2.062 -0.1639  0.0337 -0.3032
 7775SOL    HW134784   3.193   3.114   1.972  0.2982 -0.1290 -0.4780
 7775SOL    HW234785   3.316   3.091   2.040 -0.2790 -1.5411  0.2075
 7776SOL     OW34786   0.847   0.673   7.343 -0.4617 -0.0585 -0.1094
 7776SOL    HW134787   0.775   0.648   7.400 -1.0080 -0.8599 -1.1414
 7776SOL    HW234788   0.812   0.684   7.254 -0.7561  0.2043  0.0382
 7777SOL     OW34789   3.093   0.021  10.635  0.3047  0.1077 -0.3009
 7777SOL    HW134790   3.178   0.054  10.666  0.6374 -0.3805 -0.6940
 7777SOL    HW234791   3.027   0.075  10.679  1.0250  0.2072  0.6562
 7778SOL     OW34792   1.432   2.838  13.228  0.4244  0.0507 -0.8921
 7778SOL    HW134793   1.519   2.816  13.259  1.2468  1.4846 -2.2207
 7778SOL    HW234794   1.410   2.930  13.241 -0.5765 -0.6263  2.1911
 7779SOL     OW34795   4.674   3.703   5.107 -1.3841  0.1900  0.6530
 7779SOL    HW134796   4.605   3.734   5.048  0.1553  0.6858 -0.8890
 7779SOL    HW234797   4.673   3.612   5.075 -0.9239  0.5064 -0.2557
 7780SOL     OW34798   1.333   3.616   3.259 -0.4710 -0.4049  0.0197
 7780SOL    HW134799   1.406   3.630   3.200 -1.0140  1.0442 -0.3259
 7780SOL    HW234800   1.344   3.691   3.318 -0.9803 -2.0248  2.1591
 7781SOL     OW34801   1.985   0.869  13.327 -0.5399 -0.2855  0.0273
 7781SOL    HW134802   2.038   0.794  13.298 -0.5400  0.4438 -1.8127
 7781SOL    HW234803   1.920   0.871  13.257 -0.8782  0.5679  0.3644
 7782SOL     OW34804   4.674   1.511  12.083 -0.0487  0.3284 -0.2596
 7782SOL    HW134805   4.682   1.606  12.087  0.8127  0.3031 -1.2554
 7782SOL    HW234806   4.674   1.501  11.988  1.0069  0.9089 -0.3241
 7783SOL     OW34807   1.037   0.470   7.415  0.6084 -0.1522  0.2626
 7783SOL    HW134808   0.983   0.541   7.381 -0.4530 -0.5862  1.0486
 7783SOL    HW234809   1.107   0.510   7.466 -0.4622  1.4908  0.4140
 7784SOL     OW34810   1.808   3.828   3.567  0.2671 -0.1460  0.7127
 7784SOL    HW134811   1.780   3.916   3.593  2.3591  1.2457 -1.8016
 7784SOL    HW234812   1.791   3.829   3.473  0.7169  0.3683  0.6379
 7785SOL     OW34813   0.314   2.330   4.475  0.4478 -0.3805 -0.0638
 7785SOL    HW134814   0.361   2.253   4.507  1.0484  0.7992  1.9046
 7785SOL    HW234815   0.224   2.298   4.473 -0.2610  1.6578 -1.6427
 7786SOL     OW34816   2.770   1.874  13.908  0.6444 -0.1366  0.5203
 7786SOL    HW134817   2.773   1.807  13.840  0.6383 -0.5791  0.9563
 7786SOL    HW234818   2.860   1.907  13.910  0.6755 -0.0024 -2.5778
 7787SOL     OW34819   2.723   2.195   9.230  0.0344  0.3280  0.2210
 7787SOL    HW134820   2.664   2.120   9.224  1.7605 -1.0304  0.3289
 7787SOL    HW234821   2.721   2.208   9.325 -0.1178  0.0182  0.2613
 7788SOL     OW34822   0.550   1.407  15.727 -0.1947  0.3245  0.3722
 7788SOL    HW134823   0.570   1.320  15.762 -1.1083 -0.2983 -0.6444
 7788SOL    HW234824   0.454   1.401  15.734 -0.3591 -0.8816 -2.5875
 7789SOL     OW34825   3.491   2.902   3.766  0.1597  0.1621  0.7470
 7789SOL    HW134826   3.521   2.854   3.844  1.3684 -0.7320 -0.2777
 7789SOL    HW234827   3.571   2.916   3.716 -0.5743 -0.8013 -0.6975
 7790SOL     OW34828   1.687   4.684   4.816  0.5786  0.4452 -0.3679
 7790SOL    HW134829   1.769   4.712   4.775  0.4086  1.2035 -0.1859
 7790SOL    HW234830   1.689   0.012   4.895  0.0494 -2.7328  1.8009
 7791SOL     OW34831   3.209   4.563   6.974  0.3646  0.0398 -0.7038
 7791SOL    HW134832   3.236   4.471   6.976 -0.3176 -0.1302  0.3443
 7791SOL    HW234833   3.290   4.614   6.966 -0.0741  0.6567 -1.1930
 7792SOL     OW34834   4.723   3.138  10.331 -0.0805 -0.3392  0.0184
 7792SOL    HW134835   0.064   3.084  10.374  0.5217  0.6368  0.3245
 7792SOL    HW234836   4.641   3.124  10.379 -1.5719 -1.3159 -2.8269
 7793SOL     OW34837   2.348   3.989   6.766  0.3324 -0.3695  0.0428
 7793SOL    HW134838   2.264   4.034   6.757  1.2956  1.5152  0.5598
 7793SOL    HW234839   2.356   3.934   6.688  0.7551  0.9768 -0.8568
 7794SOL     OW34840   2.059   2.255   2.604 -0.0523  0.0031 -0.1486
 7794SOL    HW134841   2.154   2.252   2.600  0.1025  0.9240  2.9327
 7794SOL    HW234842   2.053   2.180   2.664 -3.9270 -0.0020 -0.5054
 7795SOL     OW34843   4.566   1.356   1.803 -0.1268 -0.1808  0.0602
 7795SOL    HW134844   4.601   1.408   1.731 -1.7246  1.1264  0.2420
 7795SOL    HW234845   4.612   1.277   1.773 -0.7078 -0.3243 -0.4708
 7796SOL     OW34846   2.263   4.124   2.586  0.2671 -1.0040  0.2901
 7796SOL    HW134847   2.208   4.048   2.571  2.0560 -1.7963 -2.0656
 7796SOL    HW234848   2.333   4.076   2.630  3.2938  0.6256 -2.7534
 7797SOL     OW34849   4.656   3.261   6.584  0.7070  1.0545 -0.2752
 7797SOL    HW134850   4.697   3.336   6.543  1.4310  1.5251  1.3065
 7797SOL    HW234851   4.722   3.247   6.652  2.0356  1.2688 -1.5349
 7798SOL     OW34852   3.675   2.614   6.795  0.2960 -0.3197 -0.3470
 7798SOL    HW134853   3.657   2.535   6.744  0.3225 -1.2666  1.1003
 7798SOL    HW234854   3.715   2.571   6.871 -0.5331 -1.1270 -0.3546
 7799SOL     OW34855   3.521   4.025  15.292 -0.0598 -0.1478  0.6387
 7799SOL    HW134856   3.549   4.039  15.201 -0.0416  2.4418  1.0447
 7799SOL    HW234857   3.601   4.005  15.339  0.1313  0.7764  0.7000
 7800SOL     OW34858   3.909   4.358   6.460 -0.0433  0.2023 -0.5342
 7800SOL    HW134859   3.842   4.339   6.526  0.5970 -1.9288 -0.5097
 7800SOL    HW234860   3.960   4.426   6.504 -1.2309  2.7316 -3.0504
 7801SOL     OW34861   4.684   3.207   7.231  0.4474  0.0289  0.4228
 7801SOL    HW134862   4.614   3.223   7.293  1.7243  0.1341  1.8298
 7801SOL    HW234863   0.021   3.277   7.247  0.8333 -0.5519  1.4661
 7802SOL     OW34864   3.650   1.951   9.038 -0.3735 -0.3937  0.3731
 7802SOL    HW134865   3.665   2.027   8.982 -0.8794  0.3744  1.2786
 7802SOL    HW234866   3.701   1.967   9.118  2.7899  1.7493 -2.0974
 7803SOL     OW34867   1.968   3.409   0.298 -0.1915 -0.7603 -0.2132
 7803SOL    HW134868   1.882   3.434   0.332 -1.3901 -2.0367 -2.2809
 7803SOL    HW234869   1.941   3.411   0.207  1.2178 -2.0574 -0.6486
 7804SOL     OW34870   1.471   1.949   8.701 -0.3644  0.0541 -0.1225
 7804SOL    HW134871   1.427   2.035   8.706  0.0661  0.2476  0.3402
 7804SOL    HW234872   1.397   1.899   8.735  0.5309 -0.7052  0.7115
 7805SOL     OW34873   1.940   2.412   3.679  0.0061 -0.6753 -0.1605
 7805SOL    HW134874   1.866   2.363   3.716 -2.1084  3.0329  0.5059
 7805SOL    HW234875   1.883   2.489   3.670  1.8646  0.4960 -1.8881
 7806SOL     OW34876   2.923   1.152   6.601  0.1345 -0.8901  0.0625
 7806SOL    HW134877   3.011   1.138   6.637 -0.2057 -0.2165  1.1415
 7806SOL    HW234878   2.931   1.247   6.604 -1.9872 -0.7562  1.0047
 7807SOL     OW34879   1.966   2.567   1.952  0.6324 -0.4209  0.1690
 7807SOL    HW134880   1.972   2.482   1.995 -1.9100 -1.4321 -1.4436
 7807SOL    HW234881   1.875   2.588   1.969  0.9543  0.0765  1.2501
 7808SOL     OW34882   3.085   1.813  10.095 -0.0066 -0.5866 -0.8719
 7808SOL    HW134883   3.021   1.780  10.158 -0.5728 -0.6795 -1.4961
 7808SOL    HW234884   3.030   1.830  10.019  1.0084  0.4164 -1.3957
 7809SOL     OW34885   0.678   2.027  13.215  0.7444  0.0441 -0.3134
 7809SOL    HW134886   0.626   1.952  13.247  1.2877  0.0136  0.4889
 7809SOL    HW234887   0.631   2.044  13.134 -1.9242 -0.3171  1.1484
 7810SOL     OW34888   3.669   1.385   5.477 -0.0496 -0.1214 -0.6252
 7810SOL    HW134889   3.625   1.302   5.464 -1.3931  0.8979 -2.5732
 7810SOL    HW234890   3.594   1.445   5.476 -0.4061 -0.4885  2.5625
 7811SOL     OW34891   0.208   2.529   8.628  0.8205  0.2184  0.5259
 7811SOL    HW134892   0.140   2.556   8.567 -0.3654 -3.7726  0.0935
 7811SOL    HW234893   0.244   2.615   8.652  0.1228  0.8776 -0.7908
 7812SOL     OW34894   0.089   3.573   2.877  0.0037  0.2102 -0.1240
 7812SOL    HW134895   0.080   3.478   2.878  0.5892  0.1640  0.6501
 7812SOL    HW234896   4.723   3.600   2.891 -0.6114 -2.0180  0.0763
 7813SOL     OW34897   2.047   3.538   8.320  0.4606  0.0956 -0.0337
 7813SOL    HW134898   2.055   3.633   8.332 -0.6428  0.2712 -0.6951
 7813SOL    HW234899   1.997   3.534   8.239 -3.2163  0.3058  2.2486
 7814SOL     OW34900   1.996   4.170   8.186  0.0231 -0.3065  0.0678
 7814SOL    HW134901   1.996   4.079   8.156  1.6493 -0.6200  1.0682
 7814SOL    HW234902   2.034   4.158   8.273  0.2509 -1.4751 -0.1989
 7815SOL     OW34903   3.005   2.800   7.796  1.1583 -0.5049 -0.4343
 7815SOL    HW134904   3.018   2.813   7.702  0.5156  1.8826 -0.2043
 7815SOL    HW234905   2.947   2.874   7.819  1.3820 -0.5291  0.1958
 7816SOL     OW34906   4.679   0.455   9.703  0.5924  0.2957  0.0598
 7816SOL    HW134907   4.600   0.507   9.690  0.1670 -0.3958 -0.1779
 7816SOL    HW234908   4.640   0.377   9.744  0.8871  0.3670  0.4687
 7817SOL     OW34909   4.004   0.966   8.541 -0.5838 -0.5305  0.2087
 7817SOL    HW134910   4.047   0.900   8.596  1.8971  0.5843 -0.4052
 7817SOL    HW234911   3.945   1.017   8.598 -1.7318 -1.1781 -0.4167
 7818SOL     OW34912   3.577   1.991   6.654 -0.3757  0.3732  0.4464
 7818SOL    HW134913   3.561   2.033   6.739  0.8923  2.6926 -0.4592
 7818SOL    HW234914   3.486   1.964   6.644 -0.4934  1.4394 -1.2762
 7819SOL     OW34915   3.959   0.337   1.444 -0.3989  0.3293  0.3772
 7819SOL    HW134916   3.901   0.307   1.374  2.0308  1.7621 -2.2842
 7819SOL    HW234917   4.027   0.271   1.430  1.1592  1.9693  0.1658
 7820SOL     OW34918   3.162   0.520   6.946 -0.1361  0.5013 -0.7591
 7820SOL    HW134919   3.134   0.579   6.875 -0.0221 -3.3144 -3.9672
 7820SOL    HW234920   3.080   0.472   6.960  0.2283  0.0351 -0.2301
 7821SOL     OW34921   1.454   2.036  12.087  0.1335  0.1056  0.0804
 7821SOL    HW134922   1.533   2.085  12.063 -0.0095 -0.1925 -0.9786
 7821SOL    HW234923   1.421   2.032  11.997  1.7952  1.0467 -0.5831
 7822SOL     OW34924   0.593   0.680  13.287 -0.6491  0.3126  0.2824
 7822SOL    HW134925   0.600   0.587  13.308  2.9774  0.8423  1.3935
 7822SOL    HW234926   0.499   0.682  13.267 -1.0723  0.3400  2.3343
 7823SOL     OW34927   2.149   0.984  12.910 -0.0502 -0.6168 -0.3614
 7823SOL    HW134928   2.219   0.920  12.899 -1.4193 -2.1448 -0.2828
 7823SOL    HW234929   2.193   1.055  12.957  2.1741 -2.1642 -0.1348
 7824SOL     OW34930   1.629   3.682   9.078  0.0793  0.3345 -0.0670
 7824SOL    HW134931   1.718   3.697   9.109 -0.3588 -2.1757  2.4833
 7824SOL    HW234932   1.626   3.721   8.991 -0.4754  0.2434 -0.0862
 7825SOL     OW34933   3.251   1.635  12.168 -0.1151 -1.0345  0.4274
 7825SOL    HW134934   3.275   1.554  12.124  0.4413 -0.8969  0.4739
 7825SOL    HW234935   3.335   1.682  12.165 -1.3366  1.0014 -1.8237
 7826SOL     OW34936   0.476   4.599   3.406 -0.1478  0.7761 -0.1363
 7826SOL    HW134937   0.407   4.541   3.373  0.8010 -0.8503  0.6812
 7826SOL    HW234938   0.502   4.548   3.483 -0.3267 -1.9660 -1.8997
 7827SOL     OW34939   3.293   3.558   6.424  0.3968 -0.2771 -0.1338
 7827SOL    HW134940   3.366   3.583   6.481  0.5789  1.2802 -1.0339
 7827SOL    HW234941   3.219   3.610   6.456  0.9023 -1.4486  2.8878
 7828SOL     OW34942   2.204   1.712   5.471 -0.0113  0.0587 -0.3548
 7828SOL    HW134943   2.270   1.780   5.458 -1.1903  0.9028 -1.8213
 7828SOL    HW234944   2.253   1.638   5.508 -0.5654 -1.2379 -2.2369
 7829SOL     OW34945   0.154   1.714   8.316 -0.4445 -0.2668 -0.2478
 7829SOL    HW134946   0.126   1.774   8.385  1.7162 -0.2335  0.6173
 7829SOL    HW234947   0.153   1.768   8.237 -0.6745  2.0460  1.3397
 7830SOL     OW34948   1.346   1.419  13.361 -0.2008  0.3255  0.4652
 7830SOL    HW134949   1.377   1.329  13.363  1.7622  1.0471  3.1913
 7830SOL    HW234950   1.328   1.430  13.268 -0.3324 -0.2077  0.4315
 7831SOL     OW34951   0.519   3.542  10.356 -0.0057 -0.1846  0.2356
 7831SOL    HW134952   0.593   3.603  10.360  1.3091 -1.6656 -1.6284
 7831SOL    HW234953   0.541   3.473  10.419 -1.7765  0.3423  1.4256
 7832SOL     OW34954   2.795   2.300  15.579  0.2665 -0.2203  0.1184
 7832SOL    HW134955   2.858   2.235  15.610  0.8749  1.8325  3.2028
 7832SOL    HW234956   2.844   2.382  15.573 -1.9006  1.1481  1.0657
 7833SOL     OW34957   3.088   1.150  15.513 -0.1345  0.2083  0.1412
 7833SOL    HW134958   3.128   1.182  15.594  0.5110 -0.1822 -0.0176
 7833SOL    HW234959   3.134   1.066  15.507  0.6811  0.6807 -0.2856
 7834SOL     OW34960   3.266   1.573   9.890 -0.0102 -0.2243  0.5897
 7834SOL    HW134961   3.352   1.613   9.877 -0.5070 -0.1945 -2.4810
 7834SOL    HW234962   3.196   1.628   9.857 -0.3553 -0.1650  1.4163
 7835SOL     OW34963   4.618   3.215   5.571  0.4304  0.1365  0.7825
 7835SOL    HW134964   4.655   3.248   5.490 -0.5083 -0.5336  0.0795
 7835SOL    HW234965   4.654   3.126   5.577 -0.7380 -0.4448 -0.8335
 7836SOL     OW34966   1.478   2.693   6.520 -0.0910  0.2690 -0.5711
 7836SOL    HW134967   1.442   2.769   6.565  1.6978  0.2773  0.8360
 7836SOL    HW234968   1.564   2.724   6.494 -0.6450  1.9556 -0.3503
 7837SOL     OW34969   1.838   2.700   8.657  0.2680  0.5379 -0.1636
 7837SOL    HW134970   1.855   2.678   8.749  1.9396  0.9708 -0.3803
 7837SOL    HW234971   1.761   2.756   8.669  0.1915  0.3303  0.3223
 7838SOL     OW34972   0.348   2.802   2.556  0.0568 -0.4019 -0.8268
 7838SOL    HW134973   0.412   2.854   2.605 -2.7730 -0.1236  2.5411
 7838SOL    HW234974   0.385   2.792   2.468 -2.0700 -0.2454 -1.7357
 7839SOL     OW34975   3.100   0.675   4.684  0.2692  0.0733  0.2602
 7839SOL    HW134976   3.125   0.590   4.647 -0.9456 -0.3844  0.4818
 7839SOL    HW234977   3.014   0.642   4.711  0.3079  0.6954  1.1464
 7840SOL     OW34978   2.991   4.227   8.117 -0.2524  0.4872  0.0208
 7840SOL    HW134979   2.952   4.295   8.171  0.2382  0.9625 -0.2281
 7840SOL    HW234980   2.938   4.155   8.153  2.0046 -0.3724  1.5945
 7841SOL     OW34981   1.503   3.616   8.379  0.3202 -0.7232  0.5762
 7841SOL    HW134982   1.527   3.529   8.413  0.0733 -0.8831  0.3437
 7841SOL    HW234983   1.408   3.604   8.382  0.3568 -0.8912  1.0171
 7842SOL     OW34984   2.304   2.841  11.183  0.1615  0.1830 -0.0174
 7842SOL    HW134985   2.311   2.773  11.116  0.3794 -0.7921  0.9991
 7842SOL    HW234986   2.373   2.898  11.150  1.3550  0.4152  2.9170
 7843SOL     OW34987   4.047   4.436  11.174 -0.1181  0.1110  0.5185
 7843SOL    HW134988   3.982   4.393  11.230 -0.2135  0.1298  0.4216
 7843SOL    HW234989   4.125   4.382  11.190 -0.4866 -0.1417  1.4433
 7844SOL     OW34990   3.863   0.326   2.878  0.3608  0.2388  0.0907
 7844SOL    HW134991   3.816   0.407   2.859  0.3799  0.2930  0.2747
 7844SOL    HW234992   3.883   0.303   2.787  0.5644 -0.1074  0.2252
 7845SOL     OW34993   1.784   4.278   3.073 -0.4285 -0.1283  0.0306
 7845SOL    HW134994   1.796   4.297   3.166 -0.2816 -0.5631  0.1010
 7845SOL    HW234995   1.690   4.261   3.069 -0.4242  0.0080 -0.6335
 7846SOL     OW34996   3.079   3.858   8.122  0.2224  0.0575 -0.4668
 7846SOL    HW134997   3.050   3.903   8.201  0.6335  0.8348 -0.7590
 7846SOL    HW234998   3.163   3.898   8.101  1.2097 -0.6510  2.1663
 7847SOL     OW34999   0.033   4.005  10.592 -0.6121 -0.2363  0.2890
 7847SOL    HW135000   4.673   4.041  10.616 -0.9662 -0.0640 -1.2357
 7847SOL    HW235001   0.075   4.019  10.677 -0.0018  3.2775 -0.5673
 7848SOL     OW35002   3.506   3.950   6.180 -0.3746 -0.2487 -0.3475
 7848SOL    HW135003   3.511   3.856   6.162  2.0058  0.2152 -2.0147
 7848SOL    HW235004   3.554   3.960   6.262 -1.4201 -3.4685  0.6761
 7849SOL     OW35005   0.911   4.387   2.017 -0.2601  0.2302 -0.2031
 7849SOL    HW135006   0.964   4.325   1.966  3.1249  3.5220 -0.6979
 7849SOL    HW235007   0.828   4.340   2.018 -0.7265  1.0245 -1.1283
 7850SOL     OW35008   4.586   0.437   6.537 -0.1253 -0.0789 -0.2351
 7850SOL    HW135009   4.570   0.473   6.449 -0.0820  3.1486  1.0781
 7850SOL    HW235010   4.503   0.394   6.557 -0.7257 -0.7568 -4.1303
 7851SOL     OW35011   2.956   0.878  11.743 -0.2127 -0.1321  0.0709
 7851SOL    HW135012   2.872   0.832  11.745  0.4890 -1.3763  1.2952
 7851SOL    HW235013   3.015   0.802  11.747 -2.1162 -1.6099  0.0270
 7852SOL     OW35014   4.697   3.946   6.687  0.0021  0.2191 -0.0819
 7852SOL    HW135015   4.713   3.873   6.628  1.9204  0.3212  0.3011
 7852SOL    HW235016   4.646   3.907   6.759  0.4246  1.1323  0.7143
 7853SOL     OW35017   3.687   3.307  15.096  0.4222 -0.3488 -0.6490
 7853SOL    HW135018   3.650   3.248  15.030 -0.7317 -0.7624  0.3820
 7853SOL    HW235019   3.751   3.245  15.131  0.4691 -1.4618 -2.6907
 7854SOL     OW35020   0.513   1.031   2.317 -0.5855  0.2555  0.5829
 7854SOL    HW135021   0.463   1.021   2.236 -0.7415  0.7934  0.6111
 7854SOL    HW235022   0.475   0.955   2.361  0.2213 -0.4223  0.1104
 7855SOL     OW35023   3.717   0.106   8.488 -0.0851 -0.8520 -0.1496
 7855SOL    HW135024   3.684   0.019   8.465  2.8101 -2.8354  3.1414
 7855SOL    HW235025   3.745   0.087   8.577 -0.3723  0.1394  0.1480
 7856SOL     OW35026   0.383   4.545   1.972 -0.2964 -0.2265  0.5510
 7856SOL    HW135027   0.383   4.451   1.955 -1.4563 -0.3961  1.4654
 7856SOL    HW235028   0.476   4.559   1.988 -0.5185  2.2083 -0.2974
 7857SOL     OW35029   3.476   4.717  16.543 -0.3103  0.1373 -0.3779
 7857SOL    HW135030   3.515   0.034  16.466 -0.1844 -2.8924 -1.9830
 7857SOL    HW235031   3.511   0.038  16.619 -2.3503  1.2875 -0.1479
 7858SOL     OW35032   0.177   2.254   2.083  0.6738 -0.0126  0.0160
 7858SOL    HW135033   0.176   2.323   2.017 -0.7935 -0.5317 -0.5103
 7858SOL    HW235034   0.087   2.225   2.095  0.5903  0.4349  0.4693
 7859SOL     OW35035   1.473   2.602  11.349 -0.5747  0.8410 -0.3988
 7859SOL    HW135036   1.567   2.604  11.365 -0.4486 -0.7685 -0.9257
 7859SOL    HW235037   1.443   2.572  11.434 -1.0702  2.4446 -0.0180
 7860SOL     OW35038   3.144   3.696   5.119 -0.3801  0.4719  0.0991
 7860SOL    HW135039   3.131   3.791   5.112  2.0910  0.7348 -0.7793
 7860SOL    HW235040   3.114   3.678   5.030  1.2593 -0.3849 -0.2714
 7861SOL     OW35041   0.558   3.812   0.065  0.1207  0.2412 -0.8715
 7861SOL    HW135042   0.496   3.868   0.019 -0.8374 -1.5944 -1.7813
 7861SOL    HW235043   0.634   3.822   0.007  0.9303  1.0451  0.3151
 7862SOL     OW35044   2.459   1.719  13.637  0.3057 -0.3066  0.4632
 7862SOL    HW135045   2.377   1.746  13.677  0.3931  0.3519  0.1979
 7862SOL    HW235046   2.500   1.667  13.706  2.1478 -0.7838 -0.9641
 7863SOL     OW35047   1.050   1.520   0.102 -0.0615 -0.1995  0.0441
 7863SOL    HW135048   1.046   1.564   0.186  0.4748  2.1875 -1.1943
 7863SOL    HW235049   1.133   1.557   0.072  0.2382  0.9430  2.3107
 7864SOL     OW35050   1.348   2.166   5.733 -0.0233 -0.2760 -0.4099
 7864SOL    HW135051   1.267   2.213   5.715  0.5510  2.0928  3.2095
 7864SOL    HW235052   1.341   2.147   5.827  1.1573 -1.9551 -0.6508
 7865SOL     OW35053   2.436   3.941   6.465  0.4672  0.3126  0.7557
 7865SOL    HW135054   2.531   3.953   6.463  0.2976  1.4235 -0.6118
 7865SOL    HW235055   2.402   4.017   6.418  0.5615  0.2738  0.6259
 7866SOL     OW35056   2.835   0.603   3.178 -0.5075 -0.0546  0.0279
 7866SOL    HW135057   2.864   0.513   3.160 -0.1959 -0.0842  0.6641
 7866SOL    HW235058   2.740   0.595   3.173 -0.3831 -0.8680 -1.2640
 7867SOL     OW35059   1.183   2.135   8.553 -0.0367  0.2570  0.4522
 7867SOL    HW135060   1.257   2.174   8.600  0.2030 -1.7860  1.7870
 7867SOL    HW235061   1.122   2.122   8.626  1.5878 -0.2417  1.7072
 7868SOL     OW35062   2.882   3.239   1.421  0.4078 -0.1545 -0.3546
 7868SOL    HW135063   2.948   3.283   1.367 -0.2844 -0.3787 -1.3876
 7868SOL    HW235064   2.859   3.164   1.366 -0.4497  0.7793 -1.2734
 7869SOL     OW35065   2.606   2.929   1.988 -0.7999  0.6457 -0.2176
 7869SOL    HW135066   2.513   2.947   2.006 -0.5529  1.9331 -0.1959
 7869SOL    HW235067   2.611   2.898   1.898 -2.5990  0.1646 -0.1610
 7870SOL     OW35068   1.181   2.770   1.195 -0.3658 -1.0316 -0.5210
 7870SOL    HW135069   1.153   2.830   1.126  0.2417 -0.1269  0.0202
 7870SOL    HW235070   1.128   2.691   1.183 -0.9736 -0.6853 -0.1224
 7871SOL     OW35071   1.828   2.821   7.450 -0.7445  0.1837  0.1574
 7871SOL    HW135072   1.762   2.754   7.467  0.7155 -1.2000  0.3360
 7871SOL    HW235073   1.880   2.824   7.530 -0.8588  1.6570  0.1649
 7872SOL     OW35074   0.208   4.588   6.447 -0.4814  0.7739  0.3535
 7872SOL    HW135075   0.145   4.561   6.380 -0.2075 -2.0578  1.2342
 7872SOL    HW235076   0.162   4.661   6.487 -0.7111  0.7594  0.1133
 7873SOL     OW35077   2.031   2.412   2.148  0.0744  0.1257  0.2305
 7873SOL    HW135078   2.022   2.420   2.243 -0.0245 -0.8979  0.3120
 7873SOL    HW235079   2.099   2.345   2.139 -0.9988 -0.5774 -2.5217
 7874SOL     OW35080   2.595   3.183  12.542 -0.0243  0.6262  0.4140
 7874SOL    HW135081   2.559   3.094  12.539 -2.2311  1.5854 -1.2530
 7874SOL    HW235082   2.536   3.232  12.485  1.2883  0.4029 -1.1314
 7875SOL     OW35083   0.133   4.187   2.393 -0.3209  0.2998 -0.1673
 7875SOL    HW135084   0.042   4.209   2.373 -0.4279 -1.9345 -2.0124
 7875SOL    HW235085   0.180   4.271   2.385 -0.4685  0.2835 -1.2010
 7876SOL     OW35086   3.193   0.776   3.435  0.2798  0.0473  0.1206
 7876SOL    HW135087   3.115   0.729   3.406 -1.0163  1.3349  1.5803
 7876SOL    HW235088   3.154   0.818   3.512 -1.6886 -0.7194 -0.4770
 7877SOL     OW35089   2.480   3.482   9.916 -0.2257  0.1319  0.6846
 7877SOL    HW135090   2.447   3.459   9.830  3.3069 -1.1034 -0.3477
 7877SOL    HW235091   2.546   3.414   9.911  1.2456  1.7440 -2.0000
 7878SOL     OW35092   0.758   4.682   1.749  0.5361  0.0304 -0.3158
 7878SOL    HW135093   0.823   4.653   1.685  2.8264  0.8821  1.6303
 7878SOL    HW235094   0.702   0.010   1.694  0.6430  0.6746  0.1913
 7879SOL     OW35095   2.626   3.780   1.802 -0.0983  0.3245 -0.3304
 7879SOL    HW135096   2.572   3.822   1.735  1.0761  0.2630 -1.3169
 7879SOL    HW235097   2.672   3.854   1.842 -1.6585 -0.3560  2.6626
 7880SOL     OW35098   1.391   1.755   4.910  0.1956 -0.2468 -0.1565
 7880SOL    HW135099   1.412   1.779   4.820  2.0096  2.0874  0.9015
 7880SOL    HW235100   1.468   1.796   4.949 -0.0185  1.5807 -1.6738
 7881SOL     OW35101   2.603   3.440  17.035  0.6216 -0.0485  0.2188
 7881SOL    HW135102   2.590   3.382  16.961 -2.4852  1.5411 -0.4884
 7881SOL    HW235103   2.697   3.441  17.050  0.9958 -0.1562 -2.1503
 7882SOL     OW35104   3.947   2.002   6.345 -0.7273  0.0829 -0.1377
 7882SOL    HW135105   4.002   1.925   6.360  0.0795  0.8538  0.8999
 7882SOL    HW235106   3.885   2.002   6.418 -0.1708 -1.3917  0.3361
 7883SOL     OW35107   2.338   4.001  14.714  0.5185 -0.2145 -0.2684
 7883SOL    HW135108   2.381   4.087  14.716  1.0527 -0.4628 -1.3305
 7883SOL    HW235109   2.295   4.000  14.800 -0.8890  0.8242 -0.9370
 7884SOL     OW35110   1.220   0.370   3.532 -0.1781 -0.5629  0.2038
 7884SOL    HW135111   1.262   0.404   3.453 -0.7178 -0.4502 -0.0340
 7884SOL    HW235112   1.138   0.420   3.531 -0.5212 -1.1587 -1.3241
 7885SOL     OW35113   0.122   4.081   1.065 -0.1442 -0.4556  0.3429
 7885SOL    HW135114   0.196   4.020   1.067  0.7035  0.5477 -0.4504
 7885SOL    HW235115   0.084   4.070   1.152  0.7575  0.0150  0.7893
 7886SOL     OW35116   3.457   1.746   3.661 -0.2983 -0.5512  0.5197
 7886SOL    HW135117   3.474   1.653   3.676  2.5767  0.1170  1.3461
 7886SOL    HW235118   3.533   1.762   3.606 -2.1579  1.5140 -1.4263
 7887SOL     OW35119   3.383   0.900   2.926 -0.5155  0.9347  0.0549
 7887SOL    HW135120   3.424   0.846   2.994 -0.9866  0.8264  0.2527
 7887SOL    HW235121   3.315   0.937   2.982 -0.2474  2.7166 -0.7711
 7888SOL     OW35122   1.716   3.455  15.008  0.3242  0.6374  0.2197
 7888SOL    HW135123   1.724   3.405  14.927  0.0812  0.9065  0.0281
 7888SOL    HW235124   1.675   3.392  15.067 -0.5015  0.9015 -0.0742
 7889SOL     OW35125   4.197   4.672   8.358 -0.2535  0.2008  0.1578
 7889SOL    HW135126   4.106   4.691   8.380 -0.2437 -0.5741  0.8806
 7889SOL    HW235127   4.212   4.719   8.276 -0.7767 -1.3449 -0.8283
 7890SOL     OW35128   1.658   2.074   2.279  0.3548 -0.5401  0.1580
 7890SOL    HW135129   1.583   2.130   2.300  0.4099 -0.5868  0.4730
 7890SOL    HW235130   1.726   2.113   2.333  0.5181  0.8621 -1.0600
 7891SOL     OW35131   1.516   2.015   9.771  0.2561  0.0211  0.3853
 7891SOL    HW135132   1.571   2.027   9.694  2.0193  0.7533  1.7495
 7891SOL    HW235133   1.532   2.100   9.812  0.2163 -0.5843  1.6400
 7892SOL     OW35134   0.735   2.996   8.147 -0.3748 -0.0579  0.3558
 7892SOL    HW135135   0.646   2.972   8.172 -0.6904  0.7416  0.0228
 7892SOL    HW235136   0.776   2.916   8.180  0.8818  0.1414 -0.7074
 7893SOL     OW35137   3.725   3.787   2.749 -0.0723 -0.1085 -0.1306
 7893SOL    HW135138   3.775   3.851   2.698  0.6614 -0.5173  0.0899
 7893SOL    HW235139   3.674   3.745   2.680  2.3059  0.6130 -2.3344
 7894SOL     OW35140   0.340   0.143  17.283 -0.4063  0.1701 -0.1076
 7894SOL    HW135141   0.355   0.058  17.325 -0.9967  1.2752  2.3939
 7894SOL    HW235142   0.360   0.205  17.354 -3.1653  1.3811 -0.3555
 7895SOL     OW35143   2.944   1.430   1.280  0.4322 -0.2743 -0.3574
 7895SOL    HW135144   2.896   1.363   1.330  0.8436 -1.0058 -0.9397
 7895SOL    HW235145   3.007   1.370   1.241  1.1950 -0.0060  0.4794
 7896SOL     OW35146   1.804   2.299   7.104 -0.8329  0.1207  0.2093
 7896SOL    HW135147   1.767   2.296   7.192 -2.1225 -0.4962 -0.3661
 7896SOL    HW235148   1.729   2.323   7.050 -0.8795  0.4821  0.4308
 7897SOL     OW35149   1.508   1.422  12.317  0.5145 -0.2992 -0.2883
 7897SOL    HW135150   1.424   1.415  12.364 -1.0809  1.3568 -2.8829
 7897SOL    HW235151   1.541   1.505  12.351 -1.4915  0.7738 -0.9167
 7898SOL     OW35152   3.069   2.404   1.863 -0.3859  0.2548 -0.7280
 7898SOL    HW135153   3.080   2.436   1.953  2.5561 -2.0374 -0.2825
 7898SOL    HW235154   3.083   2.485   1.814 -1.2780 -0.6826 -2.4911
 7899SOL     OW35155   1.367   2.408   9.342  0.2624  0.6599  0.2227
 7899SOL    HW135156   1.343   2.446   9.258 -1.3677 -0.8905 -0.0081
 7899SOL    HW235157   1.370   2.490   9.392  0.6621  0.3718  0.6650
 7900SOL     OW35158   4.170   0.674   2.964 -0.3151  0.3747 -0.2913
 7900SOL    HW135159   4.170   0.618   2.887 -2.1837 -0.0353  0.0303
 7900SOL    HW235160   4.103   0.739   2.943 -0.6040 -0.0708 -0.7192
 7901SOL     OW35161   0.340   2.009   3.577 -0.1514 -0.0213 -0.0158
 7901SOL    HW135162   0.432   1.984   3.564  0.2183  1.4919 -0.3803
 7901SOL    HW235163   0.312   2.017   3.486 -1.3041 -1.9237  0.1768
 7902SOL     OW35164   3.320   0.357  12.544  0.2041 -0.2028  0.5199
 7902SOL    HW135165   3.330   0.452  12.540  1.5237 -0.3316  0.8603
 7902SOL    HW235166   3.382   0.334  12.613  0.3702 -0.5573  0.2514
 7903SOL     OW35167   1.721   1.371   5.582 -0.2731  0.1937  0.2773
 7903SOL    HW135168   1.718   1.280   5.611 -2.1478 -0.2467 -1.2639
 7903SOL    HW235169   1.634   1.366   5.540 -0.5799 -1.1318  1.0580
 7904SOL     OW35170   4.227   3.100   5.708 -0.0881 -0.1830  0.0171
 7904SOL    HW135171   4.244   3.162   5.636  1.6129  0.6460  1.1295
 7904SOL    HW235172   4.168   3.142   5.770 -1.5767 -2.2602  0.0117
 7905SOL     OW35173   2.163   0.849   2.832 -0.1835 -0.2691 -0.2891
 7905SOL    HW135174   2.169   0.890   2.918  0.2854  0.9335 -0.8910
 7905SOL    HW235175   2.119   0.768   2.859  1.4122 -0.9362  0.2736
 7906SOL     OW35176   1.668   4.047   5.489 -0.0669 -0.0797  0.0105
 7906SOL    HW135177   1.648   4.053   5.582 -0.0208  3.6899 -0.2226
 7906SOL    HW235178   1.701   3.960   5.466 -3.5997 -1.7541  1.2195
 7907SOL     OW35179   1.401   2.692   1.363 -0.4255 -0.4585  0.1131
 7907SOL    HW135180   1.454   2.619   1.333  1.5446  0.6674  0.8378
 7907SOL    HW235181   1.347   2.707   1.285 -0.1665  1.7385  0.3487
 7908SOL     OW35182   0.718   3.762   1.257  0.4054 -0.0075  0.7802
 7908SOL    HW135183   0.712   3.842   1.309  0.8118  0.1443  0.5920
 7908SOL    HW235184   0.665   3.783   1.181  0.8988  0.4457  0.5649
 7909SOL     OW35185   3.024   2.062  13.580  0.2440  0.4419  0.1223
 7909SOL    HW135186   3.103   2.105  13.546 -0.5600  0.2100 -2.0122
 7909SOL    HW235187   2.957   2.104  13.528  0.0496  0.3342  0.2874
 7910SOL     OW35188   3.754   1.831   6.843  0.2225  0.3899 -0.3338
 7910SOL    HW135189   3.669   1.802   6.809  0.6956  0.7061 -1.8066
 7910SOL    HW235190   3.749   1.812   6.937  2.8594 -2.5757 -0.7883
 7911SOL     OW35191   3.587   0.982   7.212  0.6749  0.6252 -0.9398
 7911SOL    HW135192   3.625   0.934   7.139  1.5582 -2.7672  1.7583
 7911SOL    HW235193   3.494   0.982   7.190 -0.5973  0.8499  4.2983
 7912SOL     OW35194   1.378   0.406   4.494  0.5598  0.4380 -0.0136
 7912SOL    HW135195   1.368   0.311   4.487  0.0894  0.3604  1.8393
 7912SOL    HW235196   1.290   0.434   4.469 -0.1011 -1.0982  0.5696
 7913SOL     OW35197   3.099   3.481  13.475  0.8349  0.2486  0.0329
 7913SOL    HW135198   3.016   3.481  13.522  0.7393 -0.0346 -0.1366
 7913SOL    HW235199   3.102   3.574  13.451  0.6671 -0.5913 -3.3154
 7914SOL     OW35200   3.976   0.911   8.983 -0.7002 -0.0050  0.2099
 7914SOL    HW135201   3.954   0.840   8.923  0.9003  0.2558 -0.6847
 7914SOL    HW235202   4.072   0.906   8.986 -0.6991  0.8334  1.8879
 7915SOL     OW35203   0.484   3.434  13.660  0.3208  0.3084  0.3068
 7915SOL    HW135204   0.442   3.378  13.726 -0.9036  0.9851  0.0899
 7915SOL    HW235205   0.430   3.423  13.582 -2.0633 -0.9574  2.1470
 7916SOL     OW35206   3.278   1.957   5.909  0.2788 -0.3231  0.0902
 7916SOL    HW135207   3.206   1.980   5.850 -1.3911 -1.7541  1.5697
 7916SOL    HW235208   3.253   1.873   5.948 -0.5991  0.5052  1.2977
 7917SOL     OW35209   4.519   3.489   7.377 -0.1518 -0.4260 -0.3363
 7917SOL    HW135210   4.472   3.409   7.354  2.3884 -1.7092 -1.0187
 7917SOL    HW235211   4.542   3.510   7.287  2.1443 -1.0360  0.1129
 7918SOL     OW35212   1.984   3.614  13.741 -0.2079  0.3021  0.5200
 7918SOL    HW135213   1.943   3.647  13.821 -1.2156  2.4378 -0.8831
 7918SOL    HW235214   2.068   3.662  13.741 -1.2917  2.2453 -1.5032
 7919SOL     OW35215   4.462   2.351   2.824 -0.3126  0.5268 -0.3996
 7919SOL    HW135216   4.531   2.415   2.806  0.6977 -0.3949  0.1888
 7919SOL    HW235217   4.392   2.403   2.784 -0.9415 -0.1579 -0.1992
 7920SOL     OW35218   0.004   0.894   2.778  0.4776  0.2777 -0.5537
 7920SOL    HW135219   0.025   0.854   2.863 -2.1387 -2.2606 -1.0825
 7920SOL    HW235220   4.635   0.886   2.765  0.4661  0.1769 -0.4146
 7921SOL     OW35221   0.094   1.626   6.283  0.2125  0.2530 -0.6179
 7921SOL    HW135222   0.036   1.619   6.207 -1.0006  2.4443  0.0956
 7921SOL    HW235223   0.175   1.609   6.236  0.1033 -2.2698  0.1186
 7922SOL     OW35224   3.520   3.053   4.119 -0.3524 -0.5035 -0.1456
 7922SOL    HW135225   3.472   3.123   4.074 -0.4965  0.3141  1.2733
 7922SOL    HW235226   3.462   2.978   4.106 -0.0268 -0.7699 -0.0317
 7923SOL     OW35227   2.861   0.305   3.041  0.2537 -0.7590  0.6668
 7923SOL    HW135228   2.872   0.292   2.947  1.4183 -1.2309  0.8653
 7923SOL    HW235229   2.942   0.271   3.079  0.4337 -1.1100 -0.0339
 7924SOL     OW35230   2.175   0.418  10.297 -0.2692 -0.3682  0.5727
 7924SOL    HW135231   2.153   0.487  10.236 -0.7493  2.1188  3.5517
 7924SOL    HW235232   2.262   0.386  10.271 -0.3795  0.2718 -0.5330
 7925SOL     OW35233   1.366   1.881   5.231  0.0733 -0.1707 -0.3855
 7925SOL    HW135234   1.332   1.888   5.142 -0.3211  0.6294 -0.1648
 7925SOL    HW235235   1.323   1.957   5.270 -0.7120 -0.8673  0.1199
 7926SOL     OW35236   0.609   3.234   2.529  0.0781 -0.0816  0.2335
 7926SOL    HW135237   0.621   3.166   2.462 -0.7503  0.9796 -0.9899
 7926SOL    HW235238   0.698   3.238   2.564 -0.7503 -0.6920  2.3732
 7927SOL     OW35239   0.129   4.037   8.613 -0.5317  0.5467 -0.1467
 7927SOL    HW135240   0.131   3.976   8.539  2.6751  2.5766 -1.7138
 7927SOL    HW235241   0.096   4.116   8.570 -1.8650  0.3556  0.5218
 7928SOL     OW35242   3.977   2.160   8.698 -0.0612 -0.2584  0.5379
 7928SOL    HW135243   4.064   2.135   8.667  0.8811  2.1275  1.2453
 7928SOL    HW235244   3.996   2.217   8.773 -2.4923  0.6100  0.4827
 7929SOL     OW35245   3.549   2.947   6.902  0.4162 -0.4608 -0.6143
 7929SOL    HW135246   3.502   2.967   6.821  0.0300  1.7382  0.1641
 7929SOL    HW235247   3.601   3.027   6.896  1.2059 -1.0211 -1.3076
 7930SOL     OW35248   2.222   3.101  11.320  0.0461  1.0487 -0.9824
 7930SOL    HW135249   2.281   3.059  11.257  0.9273  0.0867  0.4720
 7930SOL    HW235250   2.286   3.124  11.387  0.7542 -4.7755  0.4075
 7931SOL     OW35251   1.606   0.520   4.510  0.1095  0.2971  0.7093
 7931SOL    HW135252   1.672   0.452   4.500 -0.1394  0.2135 -0.3520
 7931SOL    HW235253   1.525   0.472   4.498 -0.2942  0.2168  3.6526
 7932SOL     OW35254   1.293   0.434  13.686  0.0518  0.2385  0.5011
 7932SOL    HW135255   1.333   0.351  13.662 -0.4527  0.1822 -0.1671
 7932SOL    HW235256   1.370   0.472  13.727  0.6834 -2.1270  1.4903
 7933SOL     OW35257   2.896   3.386  12.474  0.4004 -0.1952  0.5582
 7933SOL    HW135258   2.827   3.450  12.454  1.4508  0.3178 -1.4342
 7933SOL    HW235259   2.919   3.410  12.563  1.6589  2.0296 -0.3774
 7934SOL     OW35260   1.432   2.863   8.501 -0.1300 -0.6972 -0.2896
 7934SOL    HW135261   1.374   2.788   8.518 -1.3729  0.0469 -1.1964
 7934SOL    HW235262   1.371   2.937   8.498 -0.3580 -0.7677  2.3229
 7935SOL     OW35263   4.476   1.379   7.771  0.0871 -0.1341 -0.4115
 7935SOL    HW135264   4.510   1.333   7.848 -0.8985  0.9075  0.6342
 7935SOL    HW235265   4.508   1.467   7.791 -0.2041 -0.2157  0.4198
 7936SOL     OW35266   4.556   2.237   9.104 -0.3011  0.1488  0.5571
 7936SOL    HW135267   4.514   2.323   9.111  1.7500  0.9868  2.4306
 7936SOL    HW235268   4.542   2.210   9.194  1.1373  1.4882  1.1729
 7937SOL     OW35269   2.807   2.913   7.188 -0.1114 -0.1113 -0.3331
 7937SOL    HW135270   2.780   2.821   7.194 -0.7019 -0.0146 -1.5250
 7937SOL    HW235271   2.874   2.909   7.121 -0.2939  2.4448 -0.6620
 7938SOL     OW35272   4.326   3.011   5.983  0.1868  0.1960 -0.1421
 7938SOL    HW135273   4.387   3.022   5.910 -1.1806 -1.3319 -1.5121
 7938SOL    HW235274   4.283   2.935   5.944  0.9198  0.2211 -1.0005
 7939SOL     OW35275   2.819   2.075   7.094  0.3920 -0.0952 -0.2312
 7939SOL    HW135276   2.780   2.106   7.176  0.8208 -0.7338  0.2082
 7939SOL    HW235277   2.835   2.157   7.047 -0.0128  0.7415  1.0874
 7940SOL     OW35278   1.917   2.845   7.706 -0.1579 -1.2467 -0.1047
 7940SOL    HW135279   1.862   2.783   7.754 -1.0283  0.2344  0.8076
 7940SOL    HW235280   1.912   2.932   7.746  1.3024 -1.4933  0.6202
 7941SOL     OW35281   0.162   0.485   0.858  0.2825  0.0847 -0.2063
 7941SOL    HW135282   0.253   0.468   0.834  0.8799  1.9422  0.7456
 7941SOL    HW235283   0.155   0.462   0.950 -0.1095  0.8104 -0.0586
 7942SOL     OW35284   2.368   2.213   1.419  0.0831 -0.3292  0.3129
 7942SOL    HW135285   2.389   2.301   1.448 -0.7405 -0.1403  0.3464
 7942SOL    HW235286   2.423   2.208   1.341  2.7255 -1.2089  2.2742
 7943SOL     OW35287   0.590   0.775   2.909  0.4781 -0.9358  0.3378
 7943SOL    HW135288   0.644   0.846   2.945  0.0294  0.0460 -0.9047
 7943SOL    HW235289   0.623   0.768   2.819  1.3089  1.1338  0.4738
 7944SOL     OW35290   1.404   0.953   5.617  0.1437  0.0453  0.3779
 7944SOL    HW135291   1.492   0.931   5.586 -0.5394 -1.2173 -0.6710
 7944SOL    HW235292   1.365   0.865   5.621 -0.3185  0.1784 -1.1855
 7945SOL     OW35293   1.069   1.031  11.237  0.3598 -0.1059  0.1118
 7945SOL    HW135294   1.114   1.089  11.298  0.8905 -0.8351  0.4138
 7945SOL    HW235295   1.125   0.954  11.242 -0.3158 -0.7226 -1.8070
 7946SOL     OW35296   3.510   2.120   7.047 -0.3636  0.6504  0.2010
 7946SOL    HW135297   3.484   2.033   7.078 -0.4194  0.6663  0.1990
 7946SOL    HW235298   3.580   2.145   7.107 -0.4597 -0.9575  0.9716
 7947SOL     OW35299   0.685   4.190   5.335 -0.2000  0.4290  0.4008
 7947SOL    HW135300   0.719   4.142   5.259  0.8604  1.6968  0.0963
 7947SOL    HW235301   0.755   4.254   5.339 -1.3618  1.7812 -0.5546
 7948SOL     OW35302   0.162   4.034   8.199  0.3858  0.5014 -0.2837
 7948SOL    HW135303   0.179   3.971   8.129 -1.1066  1.0981 -1.1698
 7948SOL    HW235304   0.115   3.976   8.260  2.0473  0.0449  0.5685
 7949SOL     OW35305   0.207   1.293   3.355 -0.0539  0.3369  0.4461
 7949SOL    HW135306   0.165   1.362   3.303 -2.6123 -0.2791  1.6868
 7949SOL    HW235307   0.185   1.212   3.309 -0.3885 -0.5147  2.0951
 7950SOL     OW35308   0.347   2.569   6.862 -0.0253  0.1380 -0.1007
 7950SOL    HW135309   0.286   2.502   6.895 -0.3863  1.3247  1.6227
 7950SOL    HW235310   0.295   2.637   6.818 -1.1001 -1.1219 -0.7967
 7951SOL     OW35311   4.345   4.396   2.205 -0.0228 -0.0340 -0.2931
 7951SOL    HW135312   4.352   4.320   2.148  0.4092 -0.0579 -0.2066
 7951SOL    HW235313   4.330   4.344   2.285  0.6258 -0.2522 -0.3134
 7952SOL     OW35314   4.382   1.214   4.906  0.3958 -0.7999  0.1895
 7952SOL    HW135315   4.369   1.126   4.941 -0.3958  0.3952  2.9560
 7952SOL    HW235316   4.442   1.203   4.833 -0.2419  1.2511 -0.6354
 7953SOL     OW35317   2.921   3.480   8.839 -0.0129  0.1899 -0.1755
 7953SOL    HW135318   2.994   3.421   8.821  0.3417  1.5779 -3.3075
 7953SOL    HW235319   2.901   3.440   8.924 -0.0501 -0.1478 -0.3437
 7954SOL     OW35320   1.124   0.767   4.705  0.2607 -0.0842  0.0317
 7954SOL    HW135321   1.053   0.730   4.652 -0.7963  0.1383  1.2895
 7954SOL    HW235322   1.084   0.752   4.791  1.1223 -0.2530  0.4085
 7955SOL     OW35323   1.431   4.101   8.266 -0.0190  0.3918 -0.2022
 7955SOL    HW135324   1.450   4.187   8.302 -0.0044  0.1203  0.4310
 7955SOL    HW235325   1.518   4.063   8.273  0.2453  0.8483 -1.0864
 7956SOL     OW35326   1.368   0.511   5.245 -0.3882  0.3406  0.4099
 7956SOL    HW135327   1.324   0.541   5.165  1.2023 -0.4616 -0.7697
 7956SOL    HW235328   1.449   0.474   5.209  0.0041 -0.9221  2.6076
 7957SOL     OW35329   3.897   0.359  13.661  0.0602 -0.4592  0.1636
 7957SOL    HW135330   3.868   0.441  13.623  3.1939  0.1208 -0.9523
 7957SOL    HW235331   3.821   0.301  13.662  1.0541 -1.7777 -0.6354
 7958SOL     OW35332   1.095   1.459   2.143 -0.0237  0.2271 -0.5278
 7958SOL    HW135333   1.006   1.439   2.113  0.5212 -1.4344 -1.0525
 7958SOL    HW235334   1.139   1.489   2.064 -1.6683 -1.8341 -2.2290
 7959SOL     OW35335   3.104   3.086   4.004 -0.3591  0.5059 -0.4303
 7959SOL    HW135336   3.184   3.125   4.040 -0.5106  1.4305 -1.1072
 7959SOL    HW235337   3.121   2.992   3.997 -0.5351  0.4327  0.1211
 7960SOL     OW35338   0.329   4.049  11.839 -0.0923  0.4222 -0.3412
 7960SOL    HW135339   0.293   4.006  11.762 -0.5114  1.2070 -0.5865
 7960SOL    HW235340   0.361   4.134  11.807  1.3634  0.1117  0.2869
 7961SOL     OW35341   0.096   3.131  14.239  0.2631 -0.0183  0.2659
 7961SOL    HW135342   0.071   3.042  14.213  3.4300 -0.6017 -0.7376
 7961SOL    HW235343   0.021   3.172  14.283 -0.0042  2.0223 -2.0931
 7962SOL     OW35344   1.133   1.356   4.512  0.1009  0.0071 -0.2635
 7962SOL    HW135345   1.123   1.332   4.604 -0.9703 -0.6705 -0.5553
 7962SOL    HW235346   1.150   1.272   4.468  0.9562  0.0068  0.0720
 7963SOL     OW35347   3.535   3.470   4.868 -0.0627  0.2489 -0.2384
 7963SOL    HW135348   3.506   3.547   4.917 -1.6195 -0.4977  0.0236
 7963SOL    HW235349   3.623   3.497   4.845  0.9003 -2.5229  0.1813
 7964SOL     OW35350   1.502   3.693   5.300  0.3742 -0.2101  0.2092
 7964SOL    HW135351   1.511   3.604   5.334 -1.8110 -0.8726 -0.9789
 7964SOL    HW235352   1.448   3.736   5.367 -0.6055 -0.3577 -0.4760
 7965SOL     OW35353   3.759   2.230   6.888 -0.4827 -0.3322 -0.5405
 7965SOL    HW135354   3.771   2.321   6.916 -1.3645 -1.0062  1.9552
 7965SOL    HW235355   3.683   2.206   6.941 -1.1370  0.3435 -1.1594
 7966SOL     OW35356   4.490   3.512   8.304  0.2981  0.2760 -0.6950
 7966SOL    HW135357   4.563   3.518   8.242 -1.3637  1.6638 -2.5265
 7966SOL    HW235358   4.518   3.432   8.348  1.4558  1.7702  1.3453
 7967SOL     OW35359   0.733   4.332   1.448 -0.2817  0.3231 -0.3629
 7967SOL    HW135360   0.704   4.376   1.528  0.2964  1.6920 -0.8894
 7967SOL    HW235361   0.826   4.354   1.459 -0.3074  0.0933  0.2872
 7968SOL     OW35362   3.523   4.296   1.221 -0.0560  0.4327 -0.1841
 7968SOL    HW135363   3.564   4.356   1.283  1.8254 -2.2721  1.1751
 7968SOL    HW235364   3.473   4.247   1.286  0.1478  0.2035 -0.1993
 7969SOL     OW35365   2.157   2.607   2.920  0.6496  0.7079 -0.2775
 7969SOL    HW135366   2.215   2.676   2.890 -0.6630  1.6874 -0.5881
 7969SOL    HW235367   2.076   2.633   2.876  0.1487  1.4818  1.0930
 7970SOL     OW35368   0.991   2.116   2.845  0.3650  0.6471 -0.0756
 7970SOL    HW135369   0.988   2.034   2.795  0.9244  0.3050  0.4590
 7970SOL    HW235370   0.938   2.082   2.917 -0.6196  0.4969 -0.8674
 7971SOL     OW35371   0.900   0.782   3.232 -0.6705 -0.6422  0.2623
 7971SOL    HW135372   0.815   0.771   3.277 -0.3783 -1.0695  0.7056
 7971SOL    HW235373   0.881   0.731   3.153  0.5067  1.6061 -1.4480
 7972SOL     OW35374   2.429   2.682   5.853  0.2426 -0.6231 -0.2094
 7972SOL    HW135375   2.492   2.661   5.785  3.3642  0.7939  2.2449
 7972SOL    HW235376   2.491   2.715   5.918  0.3962  0.8667 -1.1122
 7973SOL     OW35377   3.089   0.412   0.241 -0.3357  0.2150 -0.1461
 7973SOL    HW135378   3.178   0.443   0.221 -0.8265  1.5823 -0.2279
 7973SOL    HW235379   3.036   0.491   0.246  0.3046  0.8742 -4.1854
 7974SOL     OW35380   0.516   4.092   4.549  0.3478  0.5116  0.0216
 7974SOL    HW135381   0.578   4.086   4.622 -1.7589 -0.4938  1.7287
 7974SOL    HW235382   0.454   4.024   4.572  1.1667 -0.6620 -1.2176
 7975SOL     OW35383   2.654   3.258   9.894  0.0390 -0.2756  0.4454
 7975SOL    HW135384   2.615   3.192   9.836 -0.2207  1.9816 -1.9281
 7975SOL    HW235385   2.682   3.200   9.965  0.9605 -1.1667 -0.6502
 7976SOL     OW35386   3.304   3.673   3.975  0.0884 -0.0345  0.0703
 7976SOL    HW135387   3.330   3.582   3.981 -2.2095 -0.8472 -2.2004
 7976SOL    HW235388   3.226   3.667   4.030  0.3523  0.7572  0.5370
 7977SOL     OW35389   2.133   2.239  15.204 -0.6969  0.0803  0.5274
 7977SOL    HW135390   2.064   2.264  15.142 -0.9459 -0.5272  0.5527
 7977SOL    HW235391   2.211   2.291  15.189 -1.6398  1.3970  0.2047
 7978SOL     OW35392   1.364   2.696  15.159  0.0680  0.0646 -0.1465
 7978SOL    HW135393   1.441   2.753  15.154 -0.6921  1.1723  0.6216
 7978SOL    HW235394   1.286   2.752  15.154 -2.1039 -2.8952  0.6490
 7979SOL     OW35395   3.195   4.062  12.408 -0.0452  0.0749 -0.1863
 7979SOL    HW135396   3.141   4.027  12.338  0.2119 -0.9822  0.1417
 7979SOL    HW235397   3.213   4.152  12.382 -1.3194 -0.2998 -2.3063
 7980SOL     OW35398   4.203   3.656   9.818 -0.1859 -1.0197  0.0827
 7980SOL    HW135399   4.137   3.600   9.776  0.3977 -0.1729 -1.9797
 7980SOL    HW235400   4.289   3.615   9.812 -0.1205 -0.7662 -0.7546
 7981SOL     OW35401   0.302   3.131   2.248 -0.3949  0.6623 -0.1200
 7981SOL    HW135402   0.255   3.208   2.217 -0.8890 -0.2749 -1.7271
 7981SOL    HW235403   0.383   3.136   2.197 -0.7753  0.6955 -0.7270
 7982SOL     OW35404   2.053   2.933   4.688 -0.5061  0.0372 -0.0222
 7982SOL    HW135405   2.054   2.975   4.601  0.5975  0.3119  0.1217
 7982SOL    HW235406   2.089   3.004   4.742  0.1751 -2.3898  2.6782
 7983SOL     OW35407   3.170   4.487   0.411  0.3097 -0.1674  0.1712
 7983SOL    HW135408   3.220   4.431   0.352 -1.8059  1.6478 -3.3324
 7983SOL    HW235409   3.192   4.578   0.390 -1.8528  0.2415 -0.3487
 7984SOL     OW35410   2.241   3.081   5.805  0.5258 -0.2036 -0.1127
 7984SOL    HW135411   2.190   3.144   5.754  0.7724  0.7594  0.8238
 7984SOL    HW235412   2.195   3.005   5.771  0.9656 -0.0685 -1.0113
 7985SOL     OW35413   0.997   3.045   2.030 -0.4281  0.1117 -0.1300
 7985SOL    HW135414   1.037   3.037   1.943 -0.5062 -2.2476  0.0315
 7985SOL    HW235415   1.074   3.067   2.082  0.2536  1.0126 -1.5338
 7986SOL     OW35416   3.536   1.174   5.263  0.3328  0.4085 -0.4363
 7986SOL    HW135417   3.523   1.125   5.182 -1.9425 -0.3452  0.3972
 7986SOL    HW235418   3.447   1.188   5.294 -0.3598 -1.3530 -1.6135
 7987SOL     OW35419   0.461   4.127   5.178  0.5866 -0.0104 -0.1933
 7987SOL    HW135420   0.524   4.190   5.212 -0.2340  2.8112 -3.9071
 7987SOL    HW235421   0.406   4.190   5.131 -0.4320 -0.6973  0.0591
 7988SOL     OW35422   2.224   1.669  11.820 -0.4208 -0.2379 -0.0997
 7988SOL    HW135423   2.196   1.760  11.834  0.0137  0.1875 -1.9381
 7988SOL    HW235424   2.318   1.689  11.815 -0.9470  2.7322  1.4208
 7989SOL     OW35425   1.047   0.161   2.621  0.4038 -0.6146 -0.3543
 7989SOL    HW135426   0.970   0.215   2.640  0.5642  0.0421 -1.5104
 7989SOL    HW235427   1.079   0.210   2.545 -0.5916  2.9497  1.5001
 7990SOL     OW35428   4.638   0.060   7.447  0.2871  0.1720 -0.1670
 7990SOL    HW135429   4.660   0.023   7.361 -0.4638 -1.0570  0.1775
 7990SOL    HW235430   4.596   0.143   7.423  1.8080  1.5541  2.0087
 7991SOL     OW35431   1.529   1.362   1.666  0.5686  0.2609 -0.3367
 7991SOL    HW135432   1.518   1.276   1.626 -1.9855 -0.5117  2.0416
 7991SOL    HW235433   1.553   1.332   1.753 -1.2551 -0.4114 -0.0682
 7992SOL     OW35434   4.569   0.261   9.225 -0.6996 -0.9940  0.8584
 7992SOL    HW135435   4.642   0.289   9.280 -0.3766  0.4516 -0.3021
 7992SOL    HW235436   4.590   0.311   9.146 -0.3785 -0.5498  1.2256
 7993SOL     OW35437   2.346   2.297   5.461 -0.2660 -0.2767 -0.3834
 7993SOL    HW135438   2.295   2.230   5.414 -0.2587 -0.0056 -0.7791
 7993SOL    HW235439   2.313   2.377   5.420 -1.5800  0.6318  2.4853
 7994SOL     OW35440   3.663   2.405   9.341 -0.2626 -0.6714 -0.3312
 7994SOL    HW135441   3.597   2.390   9.408 -0.3506  1.4273  0.0613
 7994SOL    HW235442   3.716   2.469   9.388 -2.0507 -0.6764  1.6884
 7995SOL     OW35443   3.009   4.356   2.606  1.0487  0.3426 -0.1498
 7995SOL    HW135444   2.936   4.329   2.661  0.1821 -0.2080 -1.5554
 7995SOL    HW235445   2.954   4.387   2.534 -0.2111  0.4521  0.8523
 7996SOL     OW35446   2.190   1.464   6.515 -0.2177 -0.4085 -0.3003
 7996SOL    HW135447   2.226   1.421   6.593 -0.9293 -0.9772 -0.2825
 7996SOL    HW235448   2.095   1.453   6.525  0.1094 -2.2027  0.9352
 7997SOL     OW35449   4.083   2.876   5.628  0.2120  0.0682  0.4387
 7997SOL    HW135450   4.128   2.960   5.636  0.1182  0.3424 -1.8223
 7997SOL    HW235451   4.128   2.839   5.704  0.7516 -1.0839 -0.4374
 7998SOL     OW35452   4.280   1.041   7.201  0.1247 -0.5174 -0.1781
 7998SOL    HW135453   4.336   1.090   7.262 -2.3829 -0.0873  1.7728
 7998SOL    HW235454   4.257   0.968   7.258 -2.8013  0.7000  0.1783
 7999SOL     OW35455   1.218   2.983   7.838  0.0866  0.5506  0.0994
 7999SOL    HW135456   1.182   3.064   7.872 -0.0322  0.6240 -0.2003
 7999SOL    HW235457   1.232   2.931   7.918 -1.7889  0.1151  0.1478
 8000SOL     OW35458   4.700   2.183  12.988  0.5763  0.2502  0.0244
 8000SOL    HW135459   4.671   2.261  13.036  0.8869  0.2032  0.2882
 8000SOL    HW235460   0.067   2.188  13.014  0.7132 -0.2520 -0.3676
 8001SOL     OW35461   4.039   3.658   9.513  0.0315 -1.0827  0.0726
 8001SOL    HW135462   4.032   3.614   9.429  0.4486 -0.9424 -0.0330
 8001SOL    HW235463   3.980   3.600   9.563  0.1859 -1.1834  0.1380
 8002SOL     OW35464   0.734   3.888   9.584 -0.5492  0.0655 -0.2646
 8002SOL    HW135465   0.772   3.954   9.641 -3.5238  1.4972  0.0559
 8002SOL    HW235466   0.645   3.907   9.613  0.0011 -0.2461  1.6126
 8003SOL     OW35467   2.969   2.912   8.151  0.4912 -0.2094  0.6930
 8003SOL    HW135468   2.956   2.950   8.064  1.4246 -1.7185 -0.0904
 8003SOL    HW235469   3.053   2.950   8.176  0.2430  1.4742 -0.9800
 8004SOL     OW35470   0.314   1.913  12.387 -0.0545 -0.4639 -0.5381
 8004SOL    HW135471   0.317   2.002  12.352  1.2924 -0.3155 -0.0334
 8004SOL    HW235472   0.220   1.893  12.380 -0.0239 -0.7717 -0.0924
 8005SOL     OW35473   3.141   3.443   6.873 -0.0170  0.2301  0.1307
 8005SOL    HW135474   3.127   3.538   6.867 -1.4508  0.2103  3.2880
 8005SOL    HW235475   3.114   3.426   6.963  1.5429 -1.1473  0.3246
 8006SOL     OW35476   4.305   1.027   7.779 -0.4040  0.0525  0.2359
 8006SOL    HW135477   4.236   0.963   7.796 -0.8100  1.0249  2.2470
 8006SOL    HW235478   4.320   1.048   7.871  0.6440 -3.5317  0.8864
 8007SOL     OW35479   0.803   0.963   7.761 -0.4860  0.1705 -0.5411
 8007SOL    HW135480   0.772   0.876   7.734  0.2137 -0.5770  1.0761
 8007SOL    HW235481   0.738   1.001   7.820 -1.8508 -2.0498 -0.6247
 8008SOL     OW35482   4.666   4.397  11.781  0.2081  0.0643 -0.0602
 8008SOL    HW135483   4.670   4.362  11.692 -0.3070  0.8461 -0.3906
 8008SOL    HW235484   4.578   4.435  11.785  0.8129  1.1889  2.4826
 8009SOL     OW35485   3.196   1.891  12.262  0.1174  0.1982  0.0259
 8009SOL    HW135486   3.282   1.901  12.303 -0.7684  1.6246  1.5394
 8009SOL    HW235487   3.193   1.801  12.230  1.3974  0.6136 -1.2725
 8010SOL     OW35488   3.438   2.782  15.504  0.0250  0.1116 -0.0902
 8010SOL    HW135489   3.391   2.746  15.429  0.7652 -0.1681 -0.4314
 8010SOL    HW235490   3.423   2.876  15.499  0.0157  0.0292 -1.6018
 8011SOL     OW35491   1.959   0.240   6.066 -0.0044  0.0035  0.8321
 8011SOL    HW135492   2.029   0.303   6.086  0.0615 -0.2149  1.2779
 8011SOL    HW235493   1.889   0.298   6.036  0.1059  0.6152  1.7503
 8012SOL     OW35494   1.718   4.392  10.074  0.2573 -0.1334  0.1426
 8012SOL    HW135495   1.651   4.424  10.014  1.1832 -1.3645 -1.5680
 8012SOL    HW235496   1.785   4.352  10.017  0.8228  2.3005 -0.9060
 8013SOL     OW35497   4.039   3.524   9.001 -0.1713 -0.1796 -0.2288
 8013SOL    HW135498   3.997   3.608   9.024  0.9839 -0.0784  1.4581
 8013SOL    HW235499   4.093   3.518   9.079  2.1527 -3.7040 -2.1565
 8014SOL     OW35500   1.917   3.692  15.570 -0.2561  0.4887  0.4997
 8014SOL    HW135501   1.834   3.668  15.530 -0.2365  3.3820 -1.2590
 8014SOL    HW235502   1.967   3.611  15.557  1.9171  2.1398 -1.3694
 8015SOL     OW35503   0.288   2.198   0.527 -0.6689  0.6288 -0.2283
 8015SOL    HW135504   0.349   2.199   0.453  3.4289 -1.8207  3.0999
 8015SOL    HW235505   0.348   2.214   0.600 -1.4315 -0.3367  0.6229
 8016SOL     OW35506   3.103   2.084   5.030 -0.4500  0.6871 -0.3422
 8016SOL    HW135507   3.180   2.035   5.058 -1.3596 -0.3433  0.3658
 8016SOL    HW235508   3.096   2.159   5.088 -0.4824  0.2445  0.2262
 8017SOL     OW35509   0.331   0.441  11.710 -0.4287  0.5099  0.0589
 8017SOL    HW135510   0.320   0.476  11.799  1.7298 -1.7205  1.1807
 8017SOL    HW235511   0.251   0.481  11.675 -0.8263  1.4538  2.0418
 8018SOL     OW35512   3.727   2.074   4.547  0.4599 -0.0465  0.2871
 8018SOL    HW135513   3.747   1.997   4.493  1.3373 -0.4359  1.1733
 8018SOL    HW235514   3.635   2.051   4.561  0.0323  1.9773  0.7533
 8019SOL     OW35515   0.368   1.959  12.933  0.1805  0.3047  0.0979
 8019SOL    HW135516   0.423   1.900  12.985 -0.5603 -0.4516  0.0180
 8019SOL    HW235517   0.299   1.980  12.996  1.9260  2.1182  1.3981
 8020SOL     OW35518   4.160   2.901   4.499 -0.0033 -0.0176  0.5886
 8020SOL    HW135519   4.251   2.874   4.511  0.1850  0.2040 -0.3562
 8020SOL    HW235520   4.151   2.930   4.408 -1.3132 -1.5608  0.2253
 8021SOL     OW35521   1.297   3.628   9.648  0.1476  0.1444 -0.5358
 8021SOL    HW135522   1.284   3.616   9.742 -3.0375  3.1824 -0.5630
 8021SOL    HW235523   1.232   3.571   9.607 -0.6279  0.1543  0.6815
 8022SOL     OW35524   2.240   1.828   8.804 -0.2567  0.3514  0.1586
 8022SOL    HW135525   2.167   1.768   8.819 -0.9273  0.3204 -3.2519
 8022SOL    HW235526   2.276   1.824   8.893  2.0823 -0.7671 -0.8707
 8023SOL     OW35527   1.662   2.357   6.515  0.3035 -0.2620 -0.3242
 8023SOL    HW135528   1.679   2.450   6.532  0.6485 -0.3180 -0.3627
 8023SOL    HW235529   1.673   2.313   6.599 -0.9643  0.1821  0.0772
 8024SOL     OW35530   2.408   2.790   2.197 -0.3317 -0.1888 -0.0626
 8024SOL    HW135531   2.444   2.737   2.125  0.1031  1.8861 -1.3495
 8024SOL    HW235532   2.398   2.721   2.263  3.0688 -1.4101 -0.7764
 8025SOL     OW35533   3.164   2.548   3.165 -0.6237 -0.3325  0.5590
 8025SOL    HW135534   3.125   2.517   3.247 -3.2646  0.2845 -0.4774
 8025SOL    HW235535   3.168   2.464   3.120 -1.7692 -0.2087  0.2439
 8026SOL     OW35536   1.637   3.157   6.034  0.1635 -0.1519 -0.0088
 8026SOL    HW135537   1.547   3.136   6.008  0.0926  0.1193  0.0218
 8026SOL    HW235538   1.636   3.117   6.122 -0.1002  3.7777  1.7580
 8027SOL     OW35539   1.818   4.349   3.985  0.6454 -0.4782 -0.0678
 8027SOL    HW135540   1.912   4.335   3.976  0.8568  1.6437 -1.3146
 8027SOL    HW235541   1.797   4.295   4.060  1.4145 -1.5254 -0.6092
 8028SOL     OW35542   1.689   3.591   4.618 -0.3225 -0.1363  0.4738
 8028SOL    HW135543   1.675   3.656   4.549  0.5767 -1.1622 -0.6711
 8028SOL    HW235544   1.653   3.643   4.690  0.9658 -0.7621  1.5795
 8029SOL     OW35545   4.467   2.670   8.410 -0.0519  0.1241  0.3316
 8029SOL    HW135546   4.483   2.743   8.351 -1.6802  0.8884  0.8508
 8029SOL    HW235547   4.407   2.617   8.358 -0.7111  0.7259  0.4842
 8030SOL     OW35548   4.067   4.253   9.683  0.5277 -0.6154  1.0023
 8030SOL    HW135549   4.013   4.297   9.617  1.0475  0.5439  1.3453
 8030SOL    HW235550   3.995   4.223   9.738  0.0566 -1.4178 -0.0616
 8031SOL     OW35551   1.217   4.279   8.563 -0.6327  0.9313 -0.2193
 8031SOL    HW135552   1.181   4.243   8.482  0.2507  2.7960 -1.4426
 8031SOL    HW235553   1.299   4.229   8.565 -2.5024 -2.1107 -0.5183
 8032SOL     OW35554   2.858   1.909   7.653 -0.2137  0.2204 -0.0334
 8032SOL    HW135555   2.831   1.878   7.567 -0.5159 -1.8290  0.7874
 8032SOL    HW235556   2.937   1.958   7.631 -0.7417  0.6596 -0.9411
 8033SOL     OW35557   0.392   3.784   8.477 -0.0140 -0.5292  0.2443
 8033SOL    HW135558   0.367   3.696   8.506 -0.5050  0.0140  1.5030
 8033SOL    HW235559   0.457   3.803   8.545  0.6103 -1.1188 -0.1886
 8034SOL     OW35560   0.649   1.518   7.292 -0.5290 -0.1307 -0.2026
 8034SOL    HW135561   0.727   1.471   7.263 -0.6878 -0.0603 -0.7293
 8034SOL    HW235562   0.587   1.446   7.282  0.8545 -1.2860 -0.4961
 8035SOL     OW35563   2.105   2.315  15.535 -0.1458 -0.4165  0.0485
 8035SOL    HW135564   2.167   2.383  15.508 -1.4980  1.5953  2.0553
 8035SOL    HW235565   2.017   2.348  15.513 -0.0176 -0.7149 -0.9176
 8036SOL     OW35566   1.262   4.269   5.504  0.1908  0.3376  0.0910
 8036SOL    HW135567   1.317   4.203   5.547 -0.8487  0.0769  1.0009
 8036SOL    HW235568   1.178   4.225   5.508  0.3317  0.1377  1.0470
 8037SOL     OW35569   1.438   2.276   3.781  0.3456  0.1949 -0.1781
 8037SOL    HW135570   1.484   2.227   3.850 -2.5036  0.3539  1.8640
 8037SOL    HW235571   1.419   2.205   3.720 -0.1113 -0.3602  0.6077
 8038SOL     OW35572   2.572   1.622  14.823  0.5412  0.1812  0.4107
 8038SOL    HW135573   2.546   1.649  14.911 -1.8467  4.5551 -1.6461
 8038SOL    HW235574   2.500   1.645  14.764  0.1770  1.3589  1.3312
 8039SOL     OW35575   3.519   3.969   8.303  0.0015  0.5156  0.0277
 8039SOL    HW135576   3.500   3.967   8.397 -1.0053  0.7839 -0.1714
 8039SOL    HW235577   3.599   4.021   8.300  0.4701 -0.1963  0.3373
 8040SOL     OW35578   2.257   1.621   2.535  0.5243 -0.5789  0.4181
 8040SOL    HW135579   2.185   1.657   2.587  1.0875  0.7552  0.2771
 8040SOL    HW235580   2.206   1.561   2.482  2.0097 -2.1560  0.7656
 8041SOL     OW35581   3.823   4.467   8.533 -0.5939  0.1092  0.0780
 8041SOL    HW135582   3.749   4.521   8.506 -0.1699  0.9639  0.5968
 8041SOL    HW235583   3.799   4.428   8.617 -2.8506 -0.1409 -0.6932
 8042SOL     OW35584   4.225   1.664  15.720  0.0199  0.6882  0.6861
 8042SOL    HW135585   4.145   1.703  15.756 -0.6967 -1.0315  0.9225
 8042SOL    HW235586   4.224   1.585  15.774 -1.3670 -0.1942 -0.6203
 8043SOL     OW35587   3.099   2.069   2.938 -0.0573 -0.1882  0.2110
 8043SOL    HW135588   3.124   2.012   3.011  0.0498 -1.0328 -0.4809
 8043SOL    HW235589   3.098   2.007   2.864  0.5609 -1.0306  0.9147
 8044SOL     OW35590   2.584   2.723   8.946 -0.3633 -0.0427  0.6660
 8044SOL    HW135591   2.552   2.633   8.959 -0.6799  0.0261  0.3587
 8044SOL    HW235592   2.560   2.751   9.035 -0.0051  1.1006  0.4013
 8045SOL     OW35593   4.273   0.939   6.923  0.3775  0.2441 -0.3530
 8045SOL    HW135594   4.319   1.010   6.969  0.9677  0.1697 -0.8328
 8045SOL    HW235595   4.199   0.940   6.983 -0.7890 -0.3909 -1.7890
 8046SOL     OW35596   3.201   1.473   9.500 -0.0130 -0.1887  0.7662
 8046SOL    HW135597   3.212   1.381   9.523  1.9452  0.1623  1.2826
 8046SOL    HW235598   3.107   1.478   9.481  0.1013  2.2095  0.8099
 8047SOL     OW35599   2.309   1.018   8.090  0.3240 -0.0593  0.1718
 8047SOL    HW135600   2.241   0.971   8.041 -0.3917  0.1702  0.9589
 8047SOL    HW235601   2.267   1.095   8.127 -1.6731 -0.7049 -0.7341
 8048SOL     OW35602   4.164   0.169  12.487  0.4502  0.2230  0.4578
 8048SOL    HW135603   4.197   0.080  12.494  0.7681  0.4359  1.5717
 8048SOL    HW235604   4.165   0.181  12.392  0.5814  0.6723  0.5180
 8049SOL     OW35605   3.258   1.161   0.812  0.3182  0.3146  0.1984
 8049SOL    HW135606   3.195   1.093   0.834 -0.7609  0.8579 -1.2260
 8049SOL    HW235607   3.203   1.232   0.844 -0.2337  0.6308 -1.4956
 8050SOL     OW35608   1.106   2.806   9.065 -0.1735 -0.1818  0.0067
 8050SOL    HW135609   1.054   2.884   9.044  0.0604  0.5553  2.1990
 8050SOL    HW235610   1.126   2.825   9.157  1.0850  1.9480 -0.6916
 8051SOL     OW35611   1.568   2.131  17.031 -0.7488 -0.1009  0.1677
 8051SOL    HW135612   1.598   2.216  16.999 -1.9449  0.3209  0.1602
 8051SOL    HW235613   1.530   2.097  16.949 -0.2429 -0.0556 -0.0851
 8052SOL     OW35614   1.075   2.219   9.543  0.1040 -0.5905 -0.3264
 8052SOL    HW135615   1.051   2.283   9.610  2.1193 -0.7756  0.5580
 8052SOL    HW235616   1.108   2.142   9.589  2.0315  1.3144  1.4429
 8053SOL     OW35617   0.520   0.703   7.765 -0.3582  0.4834 -0.0322
 8053SOL    HW135618   0.550   0.727   7.853 -2.3362  0.4564  0.6500
 8053SOL    HW235619   0.440   0.650   7.771 -0.7757  1.0717 -0.4438
 8054SOL     OW35620   3.565   1.412  15.312 -0.0020 -0.1778  0.0308
 8054SOL    HW135621   3.584   1.321  15.290 -1.2338 -0.5993  0.7061
 8054SOL    HW235622   3.533   1.434  15.224 -0.6519 -1.6603 -0.0963
 8055SOL     OW35623   2.346   2.319   4.342  0.4015 -0.2736 -0.8231
 8055SOL    HW135624   2.265   2.362   4.369  0.3837 -0.1435 -1.0788
 8055SOL    HW235625   2.377   2.368   4.266 -1.3750  1.5176 -0.4012
 8056SOL     OW35626   1.460   1.471   1.380  0.1811  0.2557  0.3337
 8056SOL    HW135627   1.388   1.498   1.436  1.3496  2.8185  0.5602
 8056SOL    HW235628   1.503   1.411   1.441 -1.3911  0.0149  1.2247
 8057SOL     OW35629   2.595   1.388  14.578 -0.0567 -0.0436 -0.3715
 8057SOL    HW135630   2.521   1.444  14.558 -0.6152 -0.8219 -0.4680
 8057SOL    HW235631   2.566   1.340  14.656  3.2884  0.1682  1.0132
 8058SOL     OW35632   2.541   4.420   6.874 -0.2168  0.0076  0.3757
 8058SOL    HW135633   2.497   4.371   6.943 -0.7975 -0.6784 -0.4749
 8058SOL    HW235634   2.506   4.503   6.906  1.7484  1.0162 -0.1399
 8059SOL     OW35635   3.162   0.732  14.886  0.0778 -0.1792  0.5058
 8059SOL    HW135636   3.183   0.745  14.793 -0.2670 -0.8696  0.3316
 8059SOL    HW235637   3.117   0.816  14.901  0.5869 -0.3352  2.8686
 8060SOL     OW35638   1.972   2.443  14.811 -0.1859  0.4887 -0.2389
 8060SOL    HW135639   2.038   2.509  14.788  0.8264 -1.0348 -1.7543
 8060SOL    HW235640   1.941   2.422  14.723 -0.2644 -2.5234  0.5078
 8061SOL     OW35641   3.438   0.821   9.854 -0.4942  0.6435 -0.5171
 8061SOL    HW135642   3.390   0.747   9.816 -0.2521  0.0872  0.2488
 8061SOL    HW235643   3.386   0.892   9.817  0.1457  0.7574 -1.1814
 8062SOL     OW35644   4.263   3.680  16.359  0.2357  0.0294  0.4709
 8062SOL    HW135645   4.253   3.591  16.326  2.4222 -0.8830  2.2522
 8062SOL    HW235646   4.348   3.703  16.320 -0.5352  2.3461  0.1352
 8063SOL     OW35647   3.109   0.541   6.336 -0.4642  0.4556  0.0672
 8063SOL    HW135648   3.055   0.532   6.258  2.3996  2.6753 -2.1619
 8063SOL    HW235649   3.159   0.459   6.336 -1.2680 -0.0295 -0.3002
 8064SOL     OW35650   1.202   0.609  15.736  0.7112 -0.8365 -0.0551
 8064SOL    HW135651   1.109   0.590  15.737  0.6136 -0.3559 -0.2141
 8064SOL    HW235652   1.206   0.675  15.805 -2.9527  1.3072 -1.8970
 8065SOL     OW35653   2.482   0.868   2.937  0.4366  0.1610 -0.4324
 8065SOL    HW135654   2.432   0.786   2.935 -0.5040  0.7620 -1.9376
 8065SOL    HW235655   2.446   0.931   2.874 -3.1329 -0.0012  1.4004
 8066SOL     OW35656   3.621   0.496   5.890 -0.0397  0.2064  0.1869
 8066SOL    HW135657   3.664   0.582   5.895 -0.6908  0.6019 -1.0461
 8066SOL    HW235658   3.693   0.440   5.921  0.4931  0.1720 -1.1364
 8067SOL     OW35659   1.308   2.178  15.244  0.4090 -0.0224  0.2645
 8067SOL    HW135660   1.309   2.218  15.331 -0.6717 -0.3249  0.4130
 8067SOL    HW235661   1.224   2.132  15.243  0.3789 -0.0012  1.3553
 8068SOL     OW35662   4.001   3.522   5.538  0.0749 -0.0120  0.1094
 8068SOL    HW135663   3.987   3.615   5.554  0.4475  0.1434 -0.4463
 8068SOL    HW235664   4.063   3.497   5.607 -0.0869  1.0604  0.6440
 8069SOL     OW35665   2.526   1.356   4.756  0.0698 -0.2813  0.2960
 8069SOL    HW135666   2.461   1.327   4.691  1.5828  0.4446 -1.5401
 8069SOL    HW235667   2.478   1.319   4.830  0.4572 -1.2204  0.0818
 8070SOL     OW35668   0.668   0.374   2.450 -0.1287 -0.3684  0.2615
 8070SOL    HW135669   0.590   0.358   2.504 -0.2093  1.6620  0.7415
 8070SOL    HW235670   0.623   0.434   2.390  3.1153  1.9595  0.2022
 8071SOL     OW35671   0.293   4.550   7.289 -0.4970  0.6949  0.2111
 8071SOL    HW135672   0.284   4.460   7.320 -0.6189  0.4033 -0.6557
 8071SOL    HW235673   0.346   4.537   7.210 -0.4320  0.1173  0.3476
 8072SOL     OW35674   1.157   2.301   1.940  0.6778 -0.0858  0.2828
 8072SOL    HW135675   1.169   2.349   1.858  0.3078  1.9051  1.3998
 8072SOL    HW235676   1.062   2.290   1.938  0.6441  0.4629 -1.0641
 8073SOL     OW35677   0.690   1.805   5.788 -0.6160 -0.0084 -0.1045
 8073SOL    HW135678   0.718   1.794   5.879 -0.2893  2.6822  0.1042
 8073SOL    HW235679   0.639   1.725   5.774 -0.8757  0.1989 -0.3376
 8074SOL     OW35680   2.656   2.480   4.680 -0.1745  0.9704  0.3177
 8074SOL    HW135681   2.616   2.410   4.731 -0.7384  0.4047 -0.9012
 8074SOL    HW235682   2.744   2.454   4.707  0.4937  0.3940 -2.4294
 8075SOL     OW35683   0.614   2.219   4.258  0.5585 -0.3482 -0.2106
 8075SOL    HW135684   0.571   2.300   4.234 -0.6255 -0.8543  0.1921
 8075SOL    HW235685   0.698   2.227   4.213 -0.0400 -0.3980 -1.3438
 8076SOL     OW35686   0.555   4.408   5.147 -0.0150 -0.3050 -0.4945
 8076SOL    HW135687   0.573   4.447   5.061  0.3443  1.8088  0.5314
 8076SOL    HW235688   0.633   4.431   5.198 -0.3550  1.9982 -1.0103
 8077SOL     OW35689   4.368   1.177  17.670  0.1654 -0.2264  0.1735
 8077SOL    HW135690   4.300   1.196   0.032  0.7303  0.4403  0.5707
 8077SOL    HW235691   4.339   1.226  17.593  0.7766  3.1299  2.0692
 8078SOL     OW35692   3.211   4.191   6.721  0.1169 -0.5469  0.0290
 8078SOL    HW135693   3.142   4.192   6.654  0.9510 -0.4872 -0.8283
 8078SOL    HW235694   3.167   4.233   6.795 -0.6186  0.1088 -0.7646
 8079SOL     OW35695   0.968   1.495   6.585 -0.1465  0.1699  0.0660
 8079SOL    HW135696   0.894   1.506   6.645  0.7828 -1.1088  1.4509
 8079SOL    HW235697   1.039   1.480   6.647 -1.0875 -0.7913  0.9072
 8080SOL     OW35698   4.103   3.721   5.965 -0.3094 -0.4409 -0.2483
 8080SOL    HW135699   4.063   3.805   5.985 -2.0622 -1.3589  0.1337
 8080SOL    HW235700   4.024   3.678   5.932  0.2980 -1.0252 -0.9492
 8081SOL     OW35701   3.016   1.426   0.657  0.0392  0.4584  0.2031
 8081SOL    HW135702   3.061   1.387   0.732  0.8758 -0.0767 -0.5834
 8081SOL    HW235703   3.088   1.417   0.595  0.5093 -2.8834  1.2194
 8082SOL     OW35704   4.056   1.136   6.783 -0.2586  0.4103  0.3235
 8082SOL    HW135705   4.086   1.133   6.874  0.3502  1.4101  0.1669
 8082SOL    HW235706   4.132   1.168   6.735  0.5498 -1.6568  0.2391
 8083SOL     OW35707   3.337   0.559   7.973 -0.0887  0.3008 -0.2200
 8083SOL    HW135708   3.330   0.621   8.045  0.9124  0.9602 -0.6961
 8083SOL    HW235709   3.412   0.511   8.009 -0.7912  0.4104  1.3452
 8084SOL     OW35710   4.187   2.607   7.229  0.0349  0.5072 -0.1872
 8084SOL    HW135711   4.101   2.615   7.269  1.8519  1.5665  3.4986
 8084SOL    HW235712   4.167   2.547   7.157  1.9489 -3.1004  2.2183
 8085SOL     OW35713   0.696   0.676  12.613 -0.1758 -0.9413  0.2674
 8085SOL    HW135714   0.640   0.730  12.669 -0.6280 -1.1149 -0.0185
 8085SOL    HW235715   0.718   0.732  12.538  0.0014 -0.4270  0.7013
 8086SOL     OW35716   1.975   4.202   9.591  0.5670 -0.7882  0.1745
 8086SOL    HW135717   2.041   4.135   9.610  1.7425  0.1629 -0.5505
 8086SOL    HW235718   2.019   4.244   9.517 -2.6266  2.5249  0.1537
 8087SOL     OW35719   0.945   0.314   7.137  0.8075 -0.0236  0.2354
 8087SOL    HW135720   0.942   0.342   7.228  1.8217 -0.7211  0.4708
 8087SOL    HW235721   0.943   0.219   7.134 -2.2921 -0.0129  2.0148
 8088SOL     OW35722   1.176   2.674   7.816 -0.2396  0.5851  0.3890
 8088SOL    HW135723   1.182   2.721   7.898 -0.9271  0.8738  0.2700
 8088SOL    HW235724   1.129   2.596   7.845  0.9816  0.8336  3.0157
 8089SOL     OW35725   3.035   2.621  11.160  0.0513 -0.6538 -0.7164
 8089SOL    HW135726   3.126   2.648  11.176 -0.5571  1.4895 -0.9041
 8089SOL    HW235727   3.018   2.656  11.073  4.6109 -0.9053 -1.7410
 8090SOL     OW35728   3.872   3.756   9.838 -0.5722  0.3729 -0.1209
 8090SOL    HW135729   3.780   3.770   9.864 -0.0739 -0.7581  2.2793
 8090SOL    HW235730   3.858   3.666   9.809  2.1570 -0.1480  0.2154
 8091SOL     OW35731   0.905   2.466  16.362  0.4040 -0.2051 -0.9112
 8091SOL    HW135732   0.894   2.439  16.453 -0.5851 -0.2695 -1.0561
 8091SOL    HW235733   1.000   2.461  16.347  0.6154 -1.0401  0.7116
 8092SOL     OW35734   0.077   0.181  10.334 -0.0055  0.1446  0.3556
 8092SOL    HW135735   0.135   0.173  10.258  1.2362 -0.9915  1.4117
 8092SOL    HW235736   0.045   0.270  10.325  0.4365  0.2640 -0.0502
 8093SOL     OW35737   4.617   0.252   5.760  0.7191 -0.1890  0.2088
 8093SOL    HW135738   4.703   0.291   5.744  0.7936 -0.9744 -1.2691
 8093SOL    HW235739   4.573   0.323   5.807  1.0693 -0.5724  1.1375
 8094SOL     OW35740   1.294   1.003   7.978 -0.0044 -0.0833 -0.0162
 8094SOL    HW135741   1.256   0.996   8.066  0.1478 -0.3160  0.0286
 8094SOL    HW235742   1.216   0.979   7.927  0.8809 -1.0386 -0.9093
 8095SOL     OW35743   2.408   0.661   7.495  0.4849 -0.5263 -0.2730
 8095SOL    HW135744   2.322   0.702   7.496  0.2307 -1.0533 -1.1194
 8095SOL    HW235745   2.443   0.687   7.410  0.9632  0.6296  0.2836
 8096SOL     OW35746   0.970   1.677   2.454 -0.3807 -0.1073 -0.4412
 8096SOL    HW135747   0.919   1.667   2.374 -1.0605 -0.7857  0.0755
 8096SOL    HW235748   0.929   1.624   2.522 -0.6856  0.6168 -0.0607
 8097SOL     OW35749   0.558   3.883   5.250 -0.5551 -0.1288 -0.3442
 8097SOL    HW135750   0.528   3.963   5.207  0.5183  1.3231  1.6164
 8097SOL    HW235751   0.632   3.854   5.197 -0.8131 -1.6769  0.1398
 8098SOL     OW35752   4.631   1.894   3.305 -0.0736 -0.0133  0.5001
 8098SOL    HW135753   4.612   1.917   3.214 -1.2918 -1.0889  0.4789
 8098SOL    HW235754   4.541   1.872   3.329  0.0362  0.6871  1.5520
 8099SOL     OW35755   3.229   3.071   2.347  0.0380  0.1403  0.4830
 8099SOL    HW135756   3.244   2.976   2.347  0.6339  0.2332  4.2474
 8099SOL    HW235757   3.229   3.082   2.252 -0.8554 -0.9230  0.3581
 8100SOL     OW35758   3.365   2.568   4.056  0.1773  0.3972  0.3457
 8100SOL    HW135759   3.358   2.535   4.146  0.4209 -0.5270  0.0254
 8100SOL    HW235760   3.353   2.484   4.013  1.8085  0.0054  0.6553
 8101SOL     OW35761   4.634   2.122   7.542  0.1117  0.7119 -0.0322
 8101SOL    HW135762   4.544   2.097   7.521  0.6018 -1.5169  0.5418
 8101SOL    HW235763   4.680   2.132   7.459 -0.8952  2.2231 -0.3868
 8102SOL     OW35764   1.475   4.171   8.772 -0.3458 -0.0453  0.0436
 8102SOL    HW135765   1.481   4.149   8.865 -1.8870  0.0813  0.1748
 8102SOL    HW235766   1.458   4.265   8.782  3.0563  0.3464  2.1544
 8103SOL     OW35767   2.174   2.104  14.106 -0.1039 -0.0111  0.1934
 8103SOL    HW135768   2.098   2.075  14.157  0.7658 -1.1986  0.7909
 8103SOL    HW235769   2.127   2.175  14.061 -0.7392  0.4166  1.4867
 8104SOL     OW35770   1.723   2.255   5.916 -0.0969 -0.0274  0.0952
 8104SOL    HW135771   1.680   2.307   5.848  0.0823 -1.3370 -1.0356
 8104SOL    HW235772   1.694   2.171   5.880  1.3047 -0.0702 -0.9259
 8105SOL     OW35773   0.569   1.248   3.563  0.1823 -0.0647 -0.2396
 8105SOL    HW135774   0.602   1.315   3.623  2.1098  0.4109 -1.8354
 8105SOL    HW235775   0.543   1.303   3.489  2.0944  0.1501 -0.7482
 8106SOL     OW35776   3.115   1.033   7.696 -0.6325 -0.2059 -0.2716
 8106SOL    HW135777   3.158   1.116   7.674 -1.4451  0.1503 -0.5164
 8106SOL    HW235778   3.158   0.983   7.627  0.1986 -1.4769  1.1499
 8107SOL     OW35779   0.927   0.467   5.006  0.0795  0.0129 -0.4342
 8107SOL    HW135780   0.849   0.492   4.957  2.1143  2.8818 -2.1653
 8107SOL    HW235781   0.890   0.416   5.079 -3.0295 -1.2691 -2.9154
 8108SOL     OW35782   2.031   3.406  17.394 -0.2119  0.2729  0.3525
 8108SOL    HW135783   1.947   3.438  17.362  0.4696  1.8974  0.2077
 8108SOL    HW235784   2.018   3.311  17.386 -1.2112  0.5596 -1.4225
 8109SOL     OW35785   2.942   2.996  15.978  0.0758  0.1452  0.3579
 8109SOL    HW135786   2.949   3.046  15.896  1.7129  0.7291  0.8464
 8109SOL    HW235787   2.847   2.999  15.992  0.4450  2.4199  2.4285
 8110SOL     OW35788   2.867   0.010   5.963 -0.3092  0.4207 -0.1070
 8110SOL    HW135789   2.898   4.662   5.910  0.1897  1.2663 -0.9679
 8110SOL    HW235790   2.931   0.008   6.034 -1.9240  4.3320  1.4467
 8111SOL     OW35791   1.783   3.856   3.311 -0.5908  0.0358 -0.0972
 8111SOL    HW135792   1.831   3.784   3.271 -0.3721  0.3142 -0.3389
 8111SOL    HW235793   1.732   3.890   3.238  0.5445  0.0112 -0.9067
 8112SOL     OW35794   2.223   1.585   4.086 -0.4682  0.1436 -0.0104
 8112SOL    HW135795   2.286   1.526   4.044  1.9523  2.8648 -0.2326
 8112SOL    HW235796   2.183   1.631   4.012 -0.3776  0.4915  0.1543
 8113SOL     OW35797   2.927   4.482   8.257 -0.0507  0.5912  0.2684
 8113SOL    HW135798   2.935   4.427   8.335 -2.5716 -1.4194 -0.8584
 8113SOL    HW235799   3.018   4.513   8.253 -0.5741  2.1289  0.3666
 8114SOL     OW35800   1.537   3.798   7.159 -0.5849  0.2153 -0.0603
 8114SOL    HW135801   1.483   3.874   7.185 -1.6320 -0.0549 -1.4779
 8114SOL    HW235802   1.503   3.736   7.224 -0.2754  0.5899  0.4656
 8115SOL     OW35803   3.013   3.413   5.570 -0.4636  0.0655  0.3764
 8115SOL    HW135804   3.039   3.359   5.645 -0.7574  0.3932  0.7121
 8115SOL    HW235805   3.092   3.466   5.564 -0.7049  0.9398  5.0151
 8116SOL     OW35806   3.834   3.523   2.070  0.2695  0.2419 -0.6577
 8116SOL    HW135807   3.832   3.615   2.042  2.6894  0.6182  0.4031
 8116SOL    HW235808   3.840   3.481   1.985  0.4176  1.8760 -1.4604
 8117SOL     OW35809   2.615   1.593   8.668  0.3014 -0.4218 -0.1056
 8117SOL    HW135810   2.661   1.648   8.604  2.1411 -2.5052 -0.6037
 8117SOL    HW235811   2.675   1.598   8.743  0.3175  2.3798 -0.2829
 8118SOL     OW35812   0.100   3.993   2.178  0.1517 -0.3115 -0.2146
 8118SOL    HW135813   0.145   4.006   2.094  1.4269 -2.1383  0.1977
 8118SOL    HW235814   0.123   4.074   2.225 -2.5114  0.1863  0.2472
 8119SOL     OW35815   3.794   2.838   6.679 -0.4051  0.2639  0.5349
 8119SOL    HW135816   3.743   2.777   6.731 -1.8380  0.7269 -0.3239
 8119SOL    HW235817   3.816   2.907   6.742 -1.5952  0.2770  0.9374
 8120SOL     OW35818   4.342   1.371   5.677  0.0747 -0.2000  0.1392
 8120SOL    HW135819   4.362   1.461   5.654 -2.1349 -0.1195 -1.5316
 8120SOL    HW235820   4.249   1.367   5.652  0.0826  0.2780  0.0307
 8121SOL     OW35821   2.834   3.704  15.780  0.1568  0.5392 -0.2825
 8121SOL    HW135822   2.747   3.742  15.789 -0.3213 -1.2956  2.5241
 8121SOL    HW235823   2.868   3.717  15.868 -1.8623 -1.9300  0.8486
 8122SOL     OW35824   0.369   3.715  13.720  0.4723 -0.2198  0.0856
 8122SOL    HW135825   0.456   3.689  13.691  1.0040  2.2556 -0.5681
 8122SOL    HW235826   0.353   3.775  13.647 -1.3836 -0.5710  0.2033
 8123SOL     OW35827   2.642   3.302  17.530  0.4115 -0.0937  0.5794
 8123SOL    HW135828   2.578   3.338  17.468  1.5120  0.6087 -0.1359
 8123SOL    HW235829   2.661   3.222  17.481 -0.9353 -0.0609  0.0024
 8124SOL     OW35830   4.351   4.627   5.623 -0.2974  0.5562 -0.0725
 8124SOL    HW135831   4.410   4.692   5.663 -1.2860 -0.2179  2.6355
 8124SOL    HW235832   4.388   4.616   5.535 -1.4554  0.4194 -0.5338
 8125SOL     OW35833   3.246   2.302   6.160  1.2040  0.0105 -0.7479
 8125SOL    HW135834   3.229   2.271   6.248  0.2077 -0.5968 -1.1529
 8125SOL    HW235835   3.185   2.375   6.152  1.5182  0.4564  1.0622
 8126SOL     OW35836   2.553   1.044  15.497  0.5954 -0.0306  0.2024
 8126SOL    HW135837   2.513   1.091  15.423  1.6677  0.9540  0.2554
 8126SOL    HW235838   2.489   0.973  15.497  1.9042 -1.2117 -1.1804
 8127SOL     OW35839   4.656   4.360   3.885  0.5792  0.2562  0.2088
 8127SOL    HW135840   4.713   4.395   3.816 -0.2529 -1.3893 -1.3246
 8127SOL    HW235841   4.569   4.368   3.845  0.9390 -1.6179 -0.9442
 8128SOL     OW35842   4.389   1.595  17.325  0.3550  0.1126 -0.9368
 8128SOL    HW135843   4.438   1.538  17.265 -0.6491 -1.3317 -0.3920
 8128SOL    HW235844   4.400   1.545  17.406 -0.0145  0.2810 -0.7824
 8129SOL     OW35845   1.738   1.069   7.154 -0.3726  0.3059 -0.3901
 8129SOL    HW135846   1.650   1.046   7.123  0.3128  0.5127 -2.4769
 8129SOL    HW235847   1.786   0.987   7.168 -0.7932  0.4762  2.0510
 8130SOL     OW35848   1.203   4.110   2.765 -0.2728  0.0393  0.2156
 8130SOL    HW135849   1.144   4.185   2.755  0.9245  0.8571 -0.6969
 8130SOL    HW235850   1.211   4.089   2.672  0.7936  2.1902 -0.1842
 8131SOL     OW35851   4.490   4.596   9.658  0.5846  0.5712 -0.4421
 8131SOL    HW135852   4.395   4.606   9.662  0.6952  0.9097  1.0141
 8131SOL    HW235853   4.505   4.501   9.654 -2.2655  0.1034 -0.0495
 8132SOL     OW35854   2.106   4.574  14.536  0.0115  0.2749  0.1000
 8132SOL    HW135855   2.153   4.491  14.543  0.4815  0.6568  1.4249
 8132SOL    HW235856   2.024   4.539  14.501 -0.6593 -0.7739  2.7134
 8133SOL     OW35857   1.676   4.513   7.373 -0.0995 -0.1934  0.9011
 8133SOL    HW135858   1.649   4.477   7.288  0.4314  0.6657  0.3677
 8133SOL    HW235859   1.730   4.440   7.402  1.3878  0.1648 -0.9737
 8134SOL     OW35860   3.444   4.074   4.039  0.2784  0.2947  0.1834
 8134SOL    HW135861   3.460   4.008   3.971 -2.7479  0.3351 -0.5726
 8134SOL    HW235862   3.479   4.029   4.116 -0.8306  3.0378  2.3165
 8135SOL     OW35863   0.372   2.581   4.623  0.9483  0.4568  0.1523
 8135SOL    HW135864   0.355   2.601   4.531 -0.2987 -0.0248  0.2797
 8135SOL    HW235865   0.348   2.489   4.618  0.7838  0.4354  1.3873
 8136SOL     OW35866   4.098   4.475  13.210 -0.3687  0.0014 -0.1926
 8136SOL    HW135867   4.023   4.516  13.253 -0.3155 -0.5901  0.4610
 8136SOL    HW235868   4.145   4.460  13.292  1.8145  1.1861 -1.2194
 8137SOL     OW35869   1.543   1.565   5.214  0.7563 -0.6953  0.1273
 8137SOL    HW135870   1.634   1.584   5.192 -0.1700  1.7809 -1.5766
 8137SOL    HW235871   1.538   1.608   5.300 -0.7028 -1.1821  0.2762
 8138SOL     OW35872   4.236   1.297   0.702 -0.0873 -0.5145 -0.5251
 8138SOL    HW135873   4.244   1.221   0.758  2.7593  0.6024  0.5658
 8138SOL    HW235874   4.310   1.282   0.643  0.9242 -2.1573  1.1878
 8139SOL     OW35875   0.708   0.578  17.129 -0.7822 -0.7918 -0.4717
 8139SOL    HW135876   0.694   0.545  17.040 -2.6413 -3.4044  0.7749
 8139SOL    HW235877   0.653   0.656  17.128  0.3386  0.0184  1.2753
 8140SOL     OW35878   0.450   3.146   4.983 -0.6432 -0.1935 -0.0775
 8140SOL    HW135879   0.512   3.184   4.920 -1.3645  2.0128  0.5635
 8140SOL    HW235880   0.463   3.216   5.047 -0.3647 -0.3434  0.0328
 8141SOL     OW35881   0.826   1.485   9.662  0.4837 -0.4443  0.1861
 8141SOL    HW135882   0.754   1.540   9.694  0.1686 -0.7077 -0.0678
 8141SOL    HW235883   0.842   1.427   9.737  2.1429 -0.5536 -0.2652
 8142SOL     OW35884   0.487   2.694   3.088 -0.1191 -0.2619  0.1031
 8142SOL    HW135885   0.489   2.679   2.994 -1.5237 -1.5562  0.2789
 8142SOL    HW235886   0.504   2.605   3.120 -2.9134 -0.6607  0.4329
 8143SOL     OW35887   2.027   0.599   8.819 -0.1805  0.2516  0.1192
 8143SOL    HW135888   2.099   0.658   8.841  1.9459 -2.6327  0.8483
 8143SOL    HW235889   2.017   0.545   8.897 -1.1216 -0.0838 -0.2401
 8144SOL     OW35890   4.284   2.885  16.985  0.0406 -0.2757 -0.2346
 8144SOL    HW135891   4.306   2.849  17.071 -0.5704  0.5808  0.2713
 8144SOL    HW235892   4.293   2.803  16.935 -1.8035 -0.1383 -0.7794
 8145SOL     OW35893   1.989   4.695   5.810  0.7951  0.3356  0.4808
 8145SOL    HW135894   2.077   4.682   5.774  0.5748  0.9018 -0.2651
 8145SOL    HW235895   1.971   0.055   5.770  3.7448  1.8343  2.3406
 8146SOL     OW35896   0.594   4.493   4.885 -0.1711  0.3383  0.4604
 8146SOL    HW135897   0.566   4.573   4.840 -0.4548  0.4356  0.8161
 8146SOL    HW235898   0.682   4.524   4.905  0.4881 -1.9486  1.0622
 8147SOL     OW35899   1.282   0.610  10.513 -0.2402 -0.5951 -0.1651
 8147SOL    HW135900   1.332   0.657  10.446 -1.4107  2.2091  0.9450
 8147SOL    HW235901   1.237   0.545  10.459  0.0947 -1.6302  0.8172
 8148SOL     OW35902   0.346   1.028   6.786  0.2032 -0.3086  0.5065
 8148SOL    HW135903   0.267   1.074   6.759  1.6434  0.2920 -2.7253
 8148SOL    HW235904   0.386   1.089   6.848  1.0011 -1.2793  0.9552
 8149SOL     OW35905   0.951   4.616   6.053 -0.6782 -0.4609 -0.5498
 8149SOL    HW135906   0.915   4.583   6.135 -2.4296 -0.0730 -1.1816
 8149SOL    HW235907   1.035   4.569   6.059 -0.8424 -0.3767  2.5367
 8150SOL     OW35908   0.140   4.267   6.981 -0.4174 -0.1729 -0.1615
 8150SOL    HW135909   0.138   4.356   6.947 -0.2690  0.0533  0.4341
 8150SOL    HW235910   0.227   4.263   7.019  0.9521  2.9073 -2.9504
 8151SOL     OW35911   0.409   1.563  13.304 -0.2314 -0.2375  0.4997
 8151SOL    HW135912   0.451   1.564  13.390 -1.4035  0.4518  1.0663
 8151SOL    HW235913   0.328   1.613  13.322 -0.2140  0.0707 -0.2890
 8152SOL     OW35914   1.642   2.490   8.514 -0.2676 -0.3407 -0.2890
 8152SOL    HW135915   1.637   2.396   8.529 -3.5014  0.0604  1.2718
 8152SOL    HW235916   1.684   2.522   8.594  0.6471  0.3254 -1.0374
 8153SOL     OW35917   0.012   2.960   5.507 -0.4174 -0.3289 -0.1168
 8153SOL    HW135918   0.093   2.952   5.457 -0.7112  3.4097 -1.2185
 8153SOL    HW235919   4.672   2.926   5.444 -0.9479 -0.0617  0.2896
 8154SOL     OW35920   4.285   1.819  11.686 -0.5180  0.8749 -0.7025
 8154SOL    HW135921   4.358   1.879  11.671  0.4138 -0.2037 -0.5396
 8154SOL    HW235922   4.242   1.829  11.601 -0.4480  0.5621 -0.7740
 8155SOL     OW35923   4.181   0.317  16.444 -0.2124 -0.1846 -0.1213
 8155SOL    HW135924   4.223   0.374  16.380 -0.3552  0.4183  0.3262
 8155SOL    HW235925   4.157   0.239  16.395  1.3419 -1.0875  0.5324
 8156SOL     OW35926   4.259   0.769   5.673 -0.0691  0.1041 -0.0956
 8156SOL    HW135927   4.220   0.702   5.729 -1.9209 -0.0454 -1.5595
 8156SOL    HW235928   4.188   0.818   5.632 -0.5140 -0.6624 -0.2381
 8157SOL     OW35929   0.797   1.817   5.511 -0.1906  0.3918 -0.0732
 8157SOL    HW135930   0.840   1.737   5.543  0.3050  1.5144  2.0644
 8157SOL    HW235931   0.758   1.855   5.590 -3.4980 -0.2113 -1.4491
 8158SOL     OW35932   3.358   1.113   6.484 -0.4840 -0.4331 -0.0354
 8158SOL    HW135933   3.404   1.044   6.531  1.8412  0.1162 -1.4611
 8158SOL    HW235934   3.432   1.163   6.448 -0.4086 -2.3647 -2.5381
 8159SOL     OW35935   3.389   0.469   4.375  0.0250 -0.6644 -0.3510
 8159SOL    HW135936   3.480   0.486   4.351  0.0782 -0.8912 -0.3086
 8159SOL    HW235937   3.349   0.455   4.289 -1.7524 -1.7961  0.6701
 8160SOL     OW35938   3.488   3.243   8.569  0.4390 -0.6222 -0.0455
 8160SOL    HW135939   3.410   3.281   8.610 -0.0607 -0.1238 -1.4682
 8160SOL    HW235940   3.448   3.173   8.517 -0.0192 -0.1545 -0.3232
 8161SOL     OW35941   3.601   1.378  16.067  0.0012 -0.4615  0.4473
 8161SOL    HW135942   3.658   1.453  16.052 -1.6689  0.1478 -2.7705
 8161SOL    HW235943   3.532   1.419  16.120  0.4182 -0.2742  0.8512
 8162SOL     OW35944   1.388   0.847   0.389 -0.3364  0.0707 -0.5812
 8162SOL    HW135945   1.315   0.834   0.450 -1.1030  0.3718 -1.4180
 8162SOL    HW235946   1.369   0.936   0.358  1.1205  1.0332  1.3461
 8163SOL     OW35947   1.313   2.496  11.164  0.5609  0.4371  0.1143
 8163SOL    HW135948   1.378   2.507  11.233 -0.8053 -2.5246  1.9011
 8163SOL    HW235949   1.338   2.405  11.145 -2.6176 -0.2562 -0.7404
 8164SOL     OW35950   3.738   1.816  10.216 -0.2807  0.3269 -0.1414
 8164SOL    HW135951   3.728   1.863  10.134 -0.0427  0.0792 -0.3132
 8164SOL    HW235952   3.696   1.732  10.195 -0.4463  0.6071 -0.8937
 8165SOL     OW35953   2.438   3.827  15.168  0.1220  0.0947 -0.0784
 8165SOL    HW135954   2.426   3.919  15.190  0.9766  0.4986 -1.3253
 8165SOL    HW235955   2.365   3.792  15.219  1.5525 -0.0167  1.8908
 8166SOL     OW35956   1.042   4.700   3.161 -0.0639 -0.0657  0.0231
 8166SOL    HW135957   1.092   4.620   3.143 -2.5334 -1.9261  1.3762
 8166SOL    HW235958   1.015   0.011   3.077  1.6423  0.5187 -0.2744
 8167SOL     OW35959   3.301   0.409   7.387 -0.0834 -0.0123  0.3232
 8167SOL    HW135960   3.211   0.431   7.410 -0.5206 -1.0496 -0.4030
 8167SOL    HW235961   3.348   0.452   7.459  0.5160  3.2626 -2.0196
 8168SOL     OW35962   3.520   3.951  16.455  0.1380  0.0925  0.1443
 8168SOL    HW135963   3.520   4.043  16.425 -0.0266 -0.6816 -2.2730
 8168SOL    HW235964   3.426   3.934  16.461  0.1230  0.2170  0.2703
 8169SOL     OW35965   3.953   0.145   4.883 -0.0495  0.3840  0.1086
 8169SOL    HW135966   3.919   0.060   4.912 -1.1394  1.8369  3.0439
 8169SOL    HW235967   3.879   0.204   4.868 -0.8691 -0.5417  0.5049
 8170SOL     OW35968   2.535   0.877   5.054  0.3310 -0.3757 -0.1487
 8170SOL    HW135969   2.594   0.853   4.983  0.0796  0.0407 -0.5031
 8170SOL    HW235970   2.457   0.890   4.999 -0.4615  0.3818  1.1539
 8171SOL     OW35971   1.987   3.907   2.079 -0.0746 -0.0270  0.3952
 8171SOL    HW135972   2.010   3.815   2.092  2.8209  0.2328 -2.6973
 8171SOL    HW235973   2.058   3.941   2.024  1.0109 -3.5311 -0.3588
 8172SOL     OW35974   3.879   1.400   2.435  0.1689 -0.0215 -0.1109
 8172SOL    HW135975   3.868   1.391   2.530  0.5318  1.2963  0.0671
 8172SOL    HW235976   3.799   1.447   2.411  1.2343  1.5054 -0.6922
 8173SOL     OW35977   3.361   0.397   6.807  0.6120 -0.5437  0.1131
 8173SOL    HW135978   3.293   0.450   6.849 -0.0829 -0.5335 -1.0366
 8173SOL    HW235979   3.392   0.452   6.735  0.1003 -0.9712 -0.4352
 8174SOL     OW35980   2.909   2.872  15.034  0.4616  0.2345  0.1195
 8174SOL    HW135981   2.976   2.804  15.025  1.3890  1.0031  1.1337
 8174SOL    HW235982   2.832   2.820  15.013  1.0751 -1.1514  1.2995
 8175SOL     OW35983   0.900   0.993  17.268  0.1192 -0.5585  0.3847
 8175SOL    HW135984   0.920   1.039  17.350 -1.3229 -1.5308  1.2970
 8175SOL    HW235985   0.878   0.906  17.300 -0.7024 -0.7071 -0.5808
 8176SOL     OW35986   1.463   1.959  12.479 -0.0010 -0.0735  0.4105
 8176SOL    HW135987   1.447   2.046  12.440 -1.8942  0.2049  1.8425
 8176SOL    HW235988   1.390   1.909  12.443 -0.2556  1.3613 -1.1132
 8177SOL     OW35989   3.900   1.508   5.418  0.3761 -0.2811 -0.1795
 8177SOL    HW135990   3.820   1.456   5.417  1.0857 -1.3694 -0.6913
 8177SOL    HW235991   3.864   1.596   5.414 -0.0479 -0.4321  0.2433
 8178SOL     OW35992   3.272   3.972   0.060 -0.8562  0.2530  0.2522
 8178SOL    HW135993   3.329   4.031   0.010 -1.0907  1.8660  1.8897
 8178SOL    HW235994   3.297   3.894   0.009  1.6950  0.4119  1.2523
 8179SOL     OW35995   1.433   2.489   2.390 -0.3413  0.1722 -0.5080
 8179SOL    HW135996   1.338   2.482   2.404 -0.3217 -0.0772 -0.5000
 8179SOL    HW235997   1.440   2.551   2.317 -0.9172 -0.3142 -0.9838
 8180SOL     OW35998   4.007   0.765   6.752 -0.2239  0.2171  0.2326
 8180SOL    HW135999   4.057   0.825   6.808 -0.7248  0.9093 -0.0585
 8180SOL    HW236000   4.083   0.736   6.701 -0.6170 -0.6519  0.1420
 8181SOL     OW36001   1.400   1.631  17.057  0.3753 -0.0443 -0.0288
 8181SOL    HW136002   1.327   1.675  17.015 -0.6236 -3.5969 -2.0174
 8181SOL    HW236003   1.370   1.639  17.148 -1.5581 -1.1901 -0.5518
 8182SOL     OW36004   1.523   3.950   8.581 -0.2269 -0.2560 -0.0299
 8182SOL    HW136005   1.436   3.946   8.542 -0.8797 -2.1080  1.6331
 8182SOL    HW236006   1.518   4.042   8.607 -0.9048 -0.2050 -0.3425
 8183SOL     OW36007   4.375   1.493  12.028 -0.0155  0.2599  0.5353
 8183SOL    HW136008   4.449   1.503  11.968  1.5748 -2.1107  2.0924
 8183SOL    HW236009   4.310   1.551  11.989  0.0019 -0.6920 -0.9055
 8184SOL     OW36010   0.459   2.647   3.632  0.1966 -0.5487 -0.6196
 8184SOL    HW136011   0.423   2.630   3.719 -1.0057 -0.0141 -1.0089
 8184SOL    HW236012   0.553   2.656   3.647 -0.5157  4.1910  0.7354
 8185SOL     OW36013   2.420   4.131   7.535 -0.4036  0.1082 -0.9307
 8185SOL    HW136014   2.427   4.222   7.565 -1.6791 -0.3098  0.6459
 8185SOL    HW236015   2.512   4.103   7.538  0.1755  1.6688 -4.1404
 8186SOL     OW36016   1.907   1.532  10.771  0.0302  0.6272  0.1294
 8186SOL    HW136017   1.831   1.588  10.781  0.1360  0.9183 -0.6962
 8186SOL    HW236018   1.914   1.493  10.858  1.2168 -0.4477 -0.4372
 8187SOL     OW36019   1.277   0.828  15.540 -0.7933 -0.6273 -0.4097
 8187SOL    HW136020   1.237   0.743  15.560  0.0349 -1.1051 -0.7844
 8187SOL    HW236021   1.248   0.882  15.614  2.5516  0.3779  0.1590
 8188SOL     OW36022   4.359   0.285   6.620 -0.4380 -0.3291 -0.1339
 8188SOL    HW136023   4.342   0.190   6.616 -1.4408 -0.0929 -1.6611
 8188SOL    HW236024   4.281   0.318   6.664  0.0799  1.6512 -0.7158
 8189SOL     OW36025   3.494   3.343   7.636  0.4360  0.1136 -0.2127
 8189SOL    HW136026   3.480   3.270   7.696 -3.6750  0.1369 -1.1575
 8189SOL    HW236027   3.565   3.387   7.683  1.9851 -2.8772  0.2332
 8190SOL     OW36028   4.116   3.417   6.601  1.0392 -0.5689  0.0245
 8190SOL    HW136029   4.186   3.371   6.555  1.0807 -0.7445  0.2587
 8190SOL    HW236030   4.124   3.500   6.556 -0.1386 -0.3606  0.2057
 8191SOL     OW36031   3.588   0.737   7.381  0.7714  0.2748  0.1373
 8191SOL    HW136032   3.526   0.712   7.312  1.3386 -1.2682  0.1906
 8191SOL    HW236033   3.599   0.822   7.337 -0.4388  0.5458  0.3450
 8192SOL     OW36034   4.420   0.552   7.043  0.1678 -0.3165 -0.3410
 8192SOL    HW136035   4.419   0.456   7.046 -0.0019 -0.3473 -1.4915
 8192SOL    HW236036   4.513   0.566   7.023  0.4016 -2.2544 -0.6114
 8193SOL     OW36037   2.298   1.511   7.158 -0.1577  0.1654 -0.0965
 8193SOL    HW136038   2.281   1.523   7.251 -2.8866 -0.3365 -0.5429
 8193SOL    HW236039   2.386   1.548   7.160  0.1029 -0.5527  1.7323
 8194SOL     OW36040   0.519   4.064   1.798 -0.6812 -0.3876 -0.0668
 8194SOL    HW136041   0.499   4.027   1.712 -3.2997 -1.3451  0.9397
 8194SOL    HW236042   0.559   3.984   1.833 -2.7625 -2.3869 -2.3190
 8195SOL     OW36043   3.213   3.642  13.199 -0.0603 -0.3526 -0.2090
 8195SOL    HW136044   3.193   3.549  13.204 -1.4745 -0.1342 -1.8241
 8195SOL    HW236045   3.164   3.676  13.274  2.4456  1.6273  0.5437
 8196SOL     OW36046   2.652   2.492   0.320 -0.3270  0.4582  0.0110
 8196SOL    HW136047   2.708   2.415   0.333  0.2077  0.9289  0.5085
 8196SOL    HW236048   2.689   2.550   0.387 -1.7869 -2.8201  3.6772
 8197SOL     OW36049   1.207   1.502   2.468 -0.3506  0.1045 -0.2489
 8197SOL    HW136050   1.154   1.569   2.424  0.7777  1.2682  0.1305
 8197SOL    HW236051   1.201   1.532   2.559  0.5492  1.1494 -0.5227
 8198SOL     OW36052   2.228   4.484  15.484 -0.3303 -0.0999 -0.3978
 8198SOL    HW136053   2.239   4.578  15.502  0.9916 -0.3153 -0.0788
 8198SOL    HW236054   2.186   4.450  15.563 -1.2192  4.0124  0.9476
 8199SOL     OW36055   4.244   4.112   4.629  0.1593 -0.1997 -0.4626
 8199SOL    HW136056   4.235   4.031   4.579 -0.2646 -1.0635  1.0171
 8199SOL    HW236057   4.175   4.113   4.695  0.5369 -0.3168 -0.0645
 8200SOL     OW36058   1.870   2.199  16.842  0.4706 -0.1801 -0.0682
 8200SOL    HW136059   1.920   2.278  16.861 -0.9262  0.7897 -0.3950
 8200SOL    HW236060   1.901   2.135  16.906  3.9725  1.2755 -0.3493
 8201SOL     OW36061   2.453   3.909   8.651  0.0051 -0.1991 -0.3187
 8201SOL    HW136062   2.365   3.947   8.649  1.0272  2.2514  1.8564
 8201SOL    HW236063   2.471   3.904   8.745  0.3440  2.0232 -0.2801
 8202SOL     OW36064   4.290   1.130   1.512  0.5006 -0.1215 -0.2789
 8202SOL    HW136065   4.329   1.113   1.426 -1.5652  0.1413 -1.2864
 8202SOL    HW236066   4.273   1.221   1.487 -0.3716 -0.5744 -1.3450
 8203SOL     OW36067   1.142   3.487   5.120 -0.1234  0.1130 -0.3006
 8203SOL    HW136068   1.053   3.477   5.155  0.1068 -1.8696 -0.2474
 8203SOL    HW236069   1.145   3.403   5.074  1.2208 -0.2152  0.3920
 8204SOL     OW36070   3.264   2.725  15.312 -0.7394 -0.0617  0.3967
 8204SOL    HW136071   3.177   2.764  15.316 -1.5022 -1.6042 -1.0447
 8204SOL    HW236072   3.246   2.631  15.312  1.5523 -0.4986  0.3130
 8205SOL     OW36073   2.325   2.667   5.023 -0.0604 -0.0894 -0.0057
 8205SOL    HW136074   2.340   2.648   4.930  1.4373 -0.0590  0.2251
 8205SOL    HW236075   2.234   2.694   5.036  0.6341  2.6289 -0.8956
 8206SOL     OW36076   3.898   4.564  10.060 -0.2291 -0.3262  0.1631
 8206SOL    HW136077   3.925   4.478  10.092 -2.0536 -1.0680 -0.2732
 8206SOL    HW236078   3.979   4.615  10.057 -1.0868  1.1022  1.9684
 8207SOL     OW36079   1.812   4.675   6.385  0.3055 -0.0196  0.0358
 8207SOL    HW136080   1.810   4.583   6.412 -0.2444  0.1082  0.4203
 8207SOL    HW236081   1.735   4.665   6.329  1.0048  0.9916 -1.1189
 8208SOL     OW36082   3.869   1.212   6.494  0.0576 -0.1621  0.0617
 8208SOL    HW136083   3.853   1.135   6.550 -2.3854  1.3754  1.4733
 8208SOL    HW236084   3.788   1.261   6.487 -0.2116 -0.4666  1.0507
 8209SOL     OW36085   0.657   2.365   9.247 -0.3510  0.0860 -0.1576
 8209SOL    HW136086   0.638   2.426   9.318 -1.5071  0.6479 -0.9550
 8209SOL    HW236087   0.569   2.333   9.228 -0.1508 -0.4851 -0.1188
 8210SOL     OW36088   1.292   2.037   7.546 -0.1123  0.4117 -0.4585
 8210SOL    HW136089   1.243   1.973   7.598  1.2800 -2.3262 -2.5132
 8210SOL    HW236090   1.244   2.116   7.572  1.8794  0.5925  2.7459
 8211SOL     OW36091   1.766   3.336   5.601 -0.4548 -0.7766 -1.1703
 8211SOL    HW136092   1.752   3.428   5.620 -0.1825 -0.5739 -1.9421
 8211SOL    HW236093   1.778   3.305   5.691 -0.2397 -1.1131 -1.3162
 8212SOL     OW36094   0.921   0.326  12.294 -0.4386 -0.0232  0.4146
 8212SOL    HW136095   1.012   0.297  12.303 -1.4707 -4.0923 -2.2706
 8212SOL    HW236096   0.931   0.415  12.328  1.6255 -0.4646  1.0032
 8213SOL     OW36097   0.593   1.927   3.522  0.1332  0.4523  0.4145
 8213SOL    HW136098   0.651   1.943   3.448 -0.6372 -0.8744 -0.4951
 8213SOL    HW236099   0.583   1.832   3.518 -0.5893  0.4971  1.0123
 8214SOL     OW36100   3.438   3.651   2.597  0.3632 -0.5319 -0.3658
 8214SOL    HW136101   3.409   3.739   2.621 -1.1793 -0.4955 -2.3871
 8214SOL    HW236102   3.357   3.626   2.552  0.5314  1.2623 -1.6659
 8215SOL     OW36103   2.404   3.040  10.867  0.2417 -0.4503 -0.1764
 8215SOL    HW136104   2.406   3.134  10.848  0.2074 -0.2746  0.6762
 8215SOL    HW236105   2.431   3.046  10.959 -1.2926  0.9562  0.1890
 8216SOL     OW36106   0.696   3.068   7.185  0.3198 -0.0690 -0.4926
 8216SOL    HW136107   0.762   3.072   7.115  3.9794 -1.9146  2.8668
 8216SOL    HW236108   0.620   3.054   7.129 -0.8177  0.4284  0.9477
 8217SOL     OW36109   2.530   2.014   9.308 -0.4433 -0.3281  0.6419
 8217SOL    HW136110   2.508   1.955   9.380  0.3645 -0.9702  0.3732
 8217SOL    HW236111   2.447   2.028   9.263  0.9759  1.2589 -1.4900
 8218SOL     OW36112   2.551   3.152   6.573  0.6924  0.0004 -0.2012
 8218SOL    HW136113   2.579   3.070   6.612 -0.6763 -0.5751 -0.4297
 8218SOL    HW236114   2.483   3.185   6.631  0.3343 -1.6237  0.2949
 8219SOL     OW36115   2.538   1.544   8.220 -0.0051 -0.0412  0.2691
 8219SOL    HW136116   2.552   1.453   8.247 -0.2296 -0.1463  0.0343
 8219SOL    HW236117   2.457   1.530   8.172  1.9527  1.1240 -3.4012
 8220SOL     OW36118   2.519   3.696   5.824  0.1484 -0.3601  0.0175
 8220SOL    HW136119   2.591   3.644   5.788 -0.1157 -1.7300  1.4597
 8220SOL    HW236120   2.448   3.659   5.772 -0.4022  0.5109  0.1418
 8221SOL     OW36121   2.861   2.826   5.283  0.4678 -0.0790  0.1425
 8221SOL    HW136122   2.907   2.892   5.334  0.3731  0.7129 -0.7900
 8221SOL    HW236123   2.774   2.863   5.296 -0.7419 -2.3540 -1.4541
 8222SOL     OW36124   1.966   2.041  17.072 -0.1828  0.4884  0.4607
 8222SOL    HW136125   1.940   1.968  17.128  2.4831 -0.7818  0.0506
 8222SOL    HW236126   2.026   1.994  17.014 -0.5331 -0.7146  1.0911
 8223SOL     OW36127   0.790   1.298   8.203  0.5456 -0.0216 -0.0661
 8223SOL    HW136128   0.813   1.287   8.295 -0.4564 -0.4347  0.1334
 8223SOL    HW236129   0.725   1.368   8.210 -0.0363 -0.5505 -0.1679
 8224SOL     OW36130   1.470   0.330   3.043 -0.1832 -0.0276 -0.1213
 8224SOL    HW136131   1.397   0.326   3.104 -0.0424  0.5730  0.0875
 8224SOL    HW236132   1.471   0.241   3.006  0.2236  0.9031 -2.3500
 8225SOL     OW36133   0.040   1.909   0.334  0.1551 -0.1474 -0.6258
 8225SOL    HW136134   0.119   1.958   0.358 -1.1542  1.4328  0.4941
 8225SOL    HW236135   4.705   1.973   0.372 -0.4977 -0.7411 -0.6743
 8226SOL     OW36136   0.236   2.145   8.368  0.6041  0.1907  0.2182
 8226SOL    HW136137   0.218   2.224   8.317 -1.5599 -0.3854  0.1162
 8226SOL    HW236138   0.147   2.111   8.369  1.3322 -1.8497 -3.2248
 8227SOL     OW36139   4.155   2.689   6.486 -0.6126  0.1019 -0.7542
 8227SOL    HW136140   4.239   2.731   6.469 -0.2868 -0.1971  0.0986
 8227SOL    HW236141   4.098   2.765   6.485 -2.1998 -1.1479 -4.0925
 8228SOL     OW36142   3.051   0.513   9.611  0.2314  0.2235  0.3917
 8228SOL    HW136143   3.092   0.452   9.551 -0.1208 -0.4968  0.8801
 8228SOL    HW236144   2.963   0.527   9.574  0.8437 -0.4842 -1.3217
 8229SOL     OW36145   4.429   3.771   8.708 -0.2574  0.1859 -0.3315
 8229SOL    HW136146   4.414   3.738   8.620 -2.6944 -0.8408  0.4637
 8229SOL    HW236147   4.348   3.821   8.718 -0.4384  0.1409 -1.5809
 8230SOL     OW36148   0.043   2.502   9.638  0.1575  0.6305 -0.2534
 8230SOL    HW136149   4.679   2.469   9.643  0.2254  0.3315 -0.9901
 8230SOL    HW236150   0.087   2.452   9.706 -1.8875 -0.3110  0.3919
 8231SOL     OW36151   2.068   0.651   2.573  0.3517  0.3068 -1.0528
 8231SOL    HW136152   2.122   0.585   2.530 -0.4480 -1.0683  0.0277
 8231SOL    HW236153   2.133   0.693   2.629  1.2807 -1.6336 -0.6938
 8232SOL     OW36154   1.565   1.599   2.611 -0.0084  0.1890  0.1698
 8232SOL    HW136155   1.476   1.566   2.596 -0.1823  0.7120  0.0429
 8232SOL    HW236156   1.583   1.545   2.688 -1.4510 -0.0645  0.3419
 8233SOL     OW36157   3.973   3.165   8.260  0.2079  0.5867 -0.8338
 8233SOL    HW136158   4.063   3.143   8.283 -0.1937 -1.5403 -1.3715
 8233SOL    HW236159   3.960   3.240   8.319 -3.1013 -0.7590  0.1153
 8234SOL     OW36160   1.535   4.575  13.803 -0.0978  0.2791  0.5766
 8234SOL    HW136161   1.458   4.521  13.821 -0.3749  0.7288  0.7374
 8234SOL    HW236162   1.556   4.541  13.716 -0.4379  0.0125  0.6022
 8235SOL     OW36163   4.255   0.664   9.474  0.7590  0.3631  0.3006
 8235SOL    HW136164   4.261   0.661   9.378  1.3763 -1.6429  0.3852
 8235SOL    HW236165   4.341   0.628   9.497 -0.2119 -1.1146  1.5906
 8236SOL     OW36166   4.457   2.448   1.347  0.0490  0.0026  0.0673
 8236SOL    HW136167   4.460   2.422   1.255 -0.9314 -0.2027  0.0886
 8236SOL    HW236168   4.487   2.368   1.391  0.0590  0.8034  1.5367
 8237SOL     OW36169   2.107   2.282  10.493  0.1664  0.1713  0.0768
 8237SOL    HW136170   2.096   2.188  10.507 -1.0608 -0.0431 -2.2849
 8237SOL    HW236171   2.174   2.306  10.557 -0.8265  0.8501  0.8543
 8238SOL     OW36172   3.880   3.733   0.346 -0.1843  0.2131 -0.0718
 8238SOL    HW136173   3.913   3.655   0.302 -1.5771 -0.9994  1.0376
 8238SOL    HW236174   3.860   3.704   0.435  0.2873 -1.0308 -0.3739
 8239SOL     OW36175   3.609   1.719  17.486 -0.5351 -0.3056  0.5634
 8239SOL    HW136176   3.529   1.671  17.463 -1.7017  1.4463  0.9274
 8239SOL    HW236177   3.664   1.640  17.484  0.7785  0.5712  1.9369
 8240SOL     OW36178   3.474   0.535   2.927  0.5025 -0.5711 -0.1398
 8240SOL    HW136179   3.513   0.479   2.860  2.2115 -0.6741  0.9438
 8240SOL    HW236180   3.389   0.494   2.943  0.2187 -0.1484 -0.5473
 8241SOL     OW36181   3.937   0.589  15.172 -0.9497 -1.0196 -0.2343
 8241SOL    HW136182   3.960   0.612  15.082 -1.7495  0.5275 -0.0310
 8241SOL    HW236183   4.022   0.548  15.188 -0.7968 -0.1096  1.2329
 8242SOL     OW36184   0.974   3.776   5.114  0.2886 -0.3103 -0.1883
 8242SOL    HW136185   0.945   3.693   5.153 -1.8234  0.3278 -0.4197
 8242SOL    HW236186   1.045   3.804   5.172  0.4411 -0.3667 -0.3481
 8243SOL     OW36187   2.388   0.074   8.918  0.0459  0.3720 -0.7428
 8243SOL    HW136188   2.340   0.004   8.873  0.7619 -0.1985 -0.6229
 8243SOL    HW236189   2.386   0.143   8.852  0.4743  1.6399  0.5746
 8244SOL     OW36190   1.467   0.691  14.134 -0.6260 -0.1332 -0.0645
 8244SOL    HW136191   1.377   0.716  14.116 -0.4715  0.8244  0.5105
 8244SOL    HW236192   1.483   0.716  14.225 -0.6593  0.5041 -0.2387
 8245SOL     OW36193   2.787   4.268  17.523  0.8672 -0.0461  0.1599
 8245SOL    HW136194   2.869   4.290  17.480 -0.1437 -0.2925 -1.9221
 8245SOL    HW236195   2.805   4.280  17.616  0.7495  0.3843  0.1290
 8246SOL     OW36196   1.608   2.170   8.028 -0.0343  0.6072  0.0994
 8246SOL    HW136197   1.598   2.082   8.064 -0.4943  1.0833  1.1585
 8246SOL    HW236198   1.524   2.185   7.985  0.4209  0.6219 -0.7815
 8247SOL     OW36199   2.731   0.112  10.989 -0.1840  0.5797  0.5546
 8247SOL    HW136200   2.694   0.052  11.053  2.9807  0.3231  2.1604
 8247SOL    HW236201   2.660   0.176  10.988 -1.3829 -0.7692 -0.1854
 8248SOL     OW36202   4.679   3.669   6.832  0.0770 -0.5558 -0.0021
 8248SOL    HW136203   4.667   3.595   6.892 -1.8271 -1.0696 -1.0180
 8248SOL    HW236204   4.590   3.677   6.797  0.7286 -0.7442 -1.6840
 8249SOL     OW36205   1.759   3.338  16.320 -0.4281 -0.5451 -0.0228
 8249SOL    HW136206   1.723   3.411  16.269  3.5400  0.5868 -1.1894
 8249SOL    HW236207   1.694   3.274  16.291 -1.7976  0.0999  1.5723
 8250SOL     OW36208   3.620   3.112   4.352  0.2792  0.1972  0.2655
 8250SOL    HW136209   3.546   3.117   4.412 -0.8503 -0.1204 -1.0982
 8250SOL    HW236210   3.582   3.087   4.268  0.2006 -0.3034  0.4445
 8251SOL     OW36211   3.179   2.977  12.492  0.2458  0.2960 -0.0880
 8251SOL    HW136212   3.239   3.032  12.542 -0.8122  1.0445  0.3649
 8251SOL    HW236213   3.101   3.033  12.492  0.6564  0.8651 -0.3361
 8252SOL     OW36214   2.451   4.718   3.895 -0.2717  0.1787  0.0436
 8252SOL    HW136215   2.547   4.718   3.892 -0.3251 -0.6571 -1.6591
 8252SOL    HW236216   2.428   0.070   3.947  0.3361 -0.8383  1.7996
 8253SOL     OW36217   0.798   1.760  13.252 -0.1454 -0.3028 -0.2005
 8253SOL    HW136218   0.891   1.739  13.239 -0.7813 -1.8314 -2.2768
 8253SOL    HW236219   0.793   1.852  13.227  0.7560 -0.9597 -2.8029
 8254SOL     OW36220   1.891   0.490  15.972  0.5075  0.0333 -0.1429
 8254SOL    HW136221   1.904   0.474  16.066  2.4281  0.9699 -0.2657
 8254SOL    HW236222   1.895   0.403  15.934  0.3856  0.1415 -0.4007
 8255SOL     OW36223   1.938   2.575   6.418 -0.4078 -0.2955  0.0325
 8255SOL    HW136224   1.940   2.480   6.421 -0.5283 -0.2638  1.0070
 8255SOL    HW236225   1.844   2.597   6.417 -0.6184 -1.1989  1.3939
 8256SOL     OW36226   3.588   4.621   3.448 -0.5450 -0.2234 -0.1475
 8256SOL    HW136227   3.648   4.678   3.399  0.8085 -2.2237 -0.7709
 8256SOL    HW236228   3.578   4.548   3.388  0.0570 -0.9292  0.6111
 8257SOL     OW36229   1.909   0.258   3.532 -0.4208 -0.3480 -0.3138
 8257SOL    HW136230   1.882   0.335   3.582 -2.1650  0.2169 -2.1284
 8257SOL    HW236231   1.833   0.200   3.541 -0.8359 -0.1031 -2.0885
 8258SOL     OW36232   3.376   0.257   1.184 -0.3781  0.2274 -0.5743
 8258SOL    HW136233   3.411   0.344   1.203 -0.6439  0.4482 -1.0869
 8258SOL    HW236234   3.288   0.279   1.152 -0.7472  0.7553  0.7781
 8259SOL     OW36235   1.161   3.221   6.254  0.4101 -0.0281 -0.6281
 8259SOL    HW136236   1.095   3.289   6.266  0.0458 -1.0560  3.2401
 8259SOL    HW236237   1.242   3.271   6.258  0.5917 -0.5072  2.3608
 8260SOL     OW36238   3.140   0.517  17.483 -0.1079  0.0295  0.5926
 8260SOL    HW136239   3.128   0.611  17.473 -2.4717 -0.2873  0.4115
 8260SOL    HW236240   3.231   0.519  17.513 -0.8921 -1.6865  3.1693
 8261SOL     OW36241   3.547   0.929   8.255 -0.0287  0.5481 -0.5161
 8261SOL    HW136242   3.557   1.012   8.301 -2.9336 -1.2912  3.3956
 8261SOL    HW236243   3.588   0.956   8.172  0.4254 -1.2179 -0.8767
 8262SOL     OW36244   3.735   0.146   7.418  0.4976  0.0931  0.0236
 8262SOL    HW136245   3.673   0.189   7.477 -0.7385 -2.0164  0.2932
 8262SOL    HW236246   3.813   0.133   7.472  0.0633 -0.2298  0.5698
 8263SOL     OW36247   2.386   2.549   3.765 -0.7203  0.4737  0.3068
 8263SOL    HW136248   2.340   2.564   3.682  0.2938  2.2203  0.0435
 8263SOL    HW236249   2.419   2.639   3.769 -1.6907  0.8892 -1.1914
 8264SOL     OW36250   4.107   3.839  11.595  0.8878 -0.1413  0.2983
 8264SOL    HW136251   4.138   3.809  11.509  1.4897 -0.7632  0.7345
 8264SOL    HW236252   4.132   3.930  11.578  1.2457 -0.6576 -2.0227
 8265SOL     OW36253   0.391   0.281  13.781 -0.2621  0.3192 -0.0697
 8265SOL    HW136254   0.465   0.300  13.839  0.7353 -1.4755 -0.7400
 8265SOL    HW236255   0.368   0.369  13.751  0.7971  0.1776 -1.3218
 8266SOL     OW36256   1.318   1.755  17.295 -0.0371 -0.6624 -0.0522
 8266SOL    HW136257   1.404   1.725  17.325 -0.2306 -0.9573  0.2053
 8266SOL    HW236258   1.272   1.755  17.379 -0.2880  1.0831 -0.1995
 8267SOL     OW36259   0.613   2.288   8.180  0.3362 -0.5207  0.2448
 8267SOL    HW136260   0.629   2.316   8.270  1.6811 -1.5471  0.3265
 8267SOL    HW236261   0.519   2.276   8.186  0.5418 -3.3587 -2.2133
 8268SOL     OW36262   1.357   1.091   6.401  0.3102 -0.2135  0.5186
 8268SOL    HW136263   1.367   1.004   6.361  0.7750  0.9650 -1.9342
 8268SOL    HW236264   1.443   1.108   6.440  0.0218  1.9251  0.2301
 8269SOL     OW36265   3.716   1.522   1.699  0.1360 -0.3963 -0.1427
 8269SOL    HW136266   3.635   1.555   1.661  0.2841  1.0245  0.7582
 8269SOL    HW236267   3.725   1.436   1.658  2.1854 -0.8849  1.3393
 8270SOL     OW36268   0.851   0.985   8.374 -0.1134 -0.0030  0.0332
 8270SOL    HW136269   0.867   1.038   8.452  1.4039  0.8787 -0.8534
 8270SOL    HW236270   0.935   1.007   8.332 -0.0985  1.3561  0.7629
 8271SOL     OW36271   0.185   0.808   8.105  0.1534 -0.1371 -0.1061
 8271SOL    HW136272   0.167   0.726   8.151 -2.4550  1.0334  0.9497
 8271SOL    HW236273   0.265   0.832   8.152  0.6796  0.0451 -1.0901
 8272SOL     OW36274   4.323   2.003   8.080 -0.1191 -0.0913  0.4230
 8272SOL    HW136275   4.311   1.966   8.167 -0.1284  0.3944  0.6286
 8272SOL    HW236276   4.393   2.066   8.093 -1.2640  1.6035 -1.5665
 8273SOL     OW36277   3.726   3.744   1.174 -0.3634 -0.1013  0.5292
 8273SOL    HW136278   3.672   3.814   1.135  1.0089  0.0917 -1.0337
 8273SOL    HW236279   3.667   3.673   1.197 -0.2824  0.4756  2.5151
 8274SOL     OW36280   2.148   2.337   5.115  0.1371  0.0399  0.1369
 8274SOL    HW136281   2.242   2.358   5.121 -0.0086  0.5237  0.7027
 8274SOL    HW236282   2.150   2.255   5.164 -0.0388  1.0166  1.8056
 8275SOL     OW36283   2.821   1.862   2.212 -0.2591 -0.3349 -0.1584
 8275SOL    HW136284   2.768   1.901   2.281  0.4660  1.8281 -0.8311
 8275SOL    HW236285   2.775   1.778   2.215 -0.4980 -0.1437  1.2457
 8276SOL     OW36286   1.163   0.711   4.172  0.1359 -0.1996 -0.5710
 8276SOL    HW136287   1.117   0.741   4.094 -1.0416 -0.2543  0.1134
 8276SOL    HW236288   1.241   0.666   4.139  0.1763 -0.4251 -0.1587
 8277SOL     OW36289   3.992   0.988   3.359  0.1873  0.1004 -0.2775
 8277SOL    HW136290   3.981   1.073   3.316  0.5165  0.7937  1.0165
 8277SOL    HW236291   4.083   0.995   3.387  0.0109 -1.3716  0.6780
 8278SOL     OW36292   1.138   0.212   4.520 -0.2470 -0.1895  0.2828
 8278SOL    HW136293   1.149   0.192   4.428 -1.9578  0.4402 -0.0621
 8278SOL    HW236294   1.061   0.268   4.523 -1.4667 -1.8471 -0.0686
 8279SOL     OW36295   4.355   4.688  12.845 -0.0764  0.1109  0.2321
 8279SOL    HW136296   4.269   4.659  12.875  1.2545 -2.2128  1.7616
 8279SOL    HW236297   4.403   4.641  12.913  1.1786  2.6927  1.1556
 8280SOL     OW36298   1.179   1.363   5.384  0.0618  0.4401  0.0801
 8280SOL    HW136299   1.194   1.325   5.297 -0.8251  3.0281 -1.2107
 8280SOL    HW236300   1.202   1.455   5.380 -1.1688  0.7543  0.1707
 8281SOL     OW36301   0.162   3.167   8.280  0.6467 -0.4343 -0.3218
 8281SOL    HW136302   0.107   3.193   8.206 -0.5471 -2.6785 -0.2459
 8281SOL    HW236303   0.187   3.255   8.308  0.7451 -0.3412 -0.7040
 8282SOL     OW36304   3.256   2.458   2.747  0.0808  1.1602 -0.1199
 8282SOL    HW136305   3.331   2.482   2.692  0.8772 -0.9005  0.0577
 8282SOL    HW236306   3.187   2.521   2.728 -1.3287 -0.4505 -0.3468
 8283SOL     OW36307   3.176   0.998   3.115  0.3603  0.1549 -0.6795
 8283SOL    HW136308   3.106   0.933   3.120  1.3567 -1.0515 -2.5565
 8283SOL    HW236309   3.119   1.075   3.107  0.3759  0.3059  0.7028
 8284SOL     OW36310   4.585   1.900   6.292  1.0716  0.5874  0.2183
 8284SOL    HW136311   4.642   1.847   6.347  0.2884  0.4452  0.8883
 8284SOL    HW236312   4.594   1.989   6.326  2.3658 -0.1334  1.7667
 8285SOL     OW36313   3.493   4.004   6.548  0.0163 -0.1769  0.7993
 8285SOL    HW136314   3.550   4.016   6.471  0.2821  1.0140  1.1856
 8285SOL    HW236315   3.497   4.085   6.598  1.8782 -0.9725  1.9111
 8286SOL     OW36316   2.999   3.152  14.786  0.0813  0.5101  0.2674
 8286SOL    HW136317   2.980   3.238  14.749  1.2171  0.3319 -0.7157
 8286SOL    HW236318   3.082   3.158  14.833  0.5366  0.0106 -0.4666
 8287SOL     OW36319   2.144   3.889  11.802  0.8821  0.5414 -0.5759
 8287SOL    HW136320   2.195   3.915  11.725  0.1345  0.6930 -1.0207
 8287SOL    HW236321   2.064   3.862  11.756 -0.0822  0.6219  1.0776
 8288SOL     OW36322   3.185   1.618   4.211 -0.1259  0.8862  0.4177
 8288SOL    HW136323   3.265   1.568   4.195 -0.6783  0.2147 -0.2014
 8288SOL    HW236324   3.159   1.618   4.119 -2.4558  3.1256  1.0657
 8289SOL     OW36325   2.111   4.131   3.663 -0.6632 -0.3974 -0.1578
 8289SOL    HW136326   2.199   4.094   3.676  0.3881  2.1932  0.0560
 8289SOL    HW236327   2.120   4.165   3.574 -0.6768  1.0556  0.4092
 8290SOL     OW36328   1.311   2.450   8.296 -0.3547 -0.3246  0.6454
 8290SOL    HW136329   1.278   2.361   8.284 -3.7569  0.9968  0.3459
 8290SOL    HW236330   1.402   2.449   8.266 -0.1267  2.4598  1.2625
 8291SOL     OW36331   3.031   0.651   0.533  0.4067 -0.0903  0.0413
 8291SOL    HW136332   3.049   0.713   0.603 -0.5752 -0.0365  0.2567
 8291SOL    HW236333   3.021   0.568   0.579  0.5831 -0.2997 -0.2976
 8292SOL     OW36334   1.928   2.905  10.885  0.0790 -0.0891 -0.0337
 8292SOL    HW136335   1.853   2.846  10.892 -0.0038 -0.0417 -0.5344
 8292SOL    HW236336   1.912   2.939  10.797  0.3734 -0.0346 -0.0653
 8293SOL     OW36337   3.940   1.407  16.646  0.0280  0.2273  0.0020
 8293SOL    HW136338   3.951   1.316  16.673 -0.6644 -0.0739 -0.7453
 8293SOL    HW236339   3.967   1.451  16.727  2.8264 -1.7469  0.1299
 8294SOL     OW36340   4.171   3.901  12.283  0.1390 -0.5745  0.1337
 8294SOL    HW136341   4.233   3.926  12.215 -0.8908  2.0698  0.1559
 8294SOL    HW236342   4.161   3.972  12.346  1.0004  1.8134 -2.4479
 8295SOL     OW36343   2.819   1.367   5.455 -0.1011  0.0473  0.3544
 8295SOL    HW136344   2.903   1.341   5.418  0.8127 -0.4901  2.8056
 8295SOL    HW236345   2.843   1.328   5.539 -0.6125 -0.9219  0.0553
 8296SOL     OW36346   4.528   2.911   3.514 -0.7833 -0.0725 -0.0674
 8296SOL    HW136347   4.536   2.833   3.569  1.2476  1.6428  2.0722
 8296SOL    HW236348   4.461   2.882   3.452  0.1690 -0.1873 -1.0372
 8297SOL     OW36349   4.243   2.101   5.973  0.1964 -0.2162 -0.5080
 8297SOL    HW136350   4.151   2.119   5.955 -0.1221  1.3008  2.5896
 8297SOL    HW236351   4.260   2.127   6.064  2.0268 -2.7280 -0.1258
 8298SOL     OW36352   0.532   3.732   6.782  0.5456 -0.1529 -0.5391
 8298SOL    HW136353   0.494   3.745   6.869 -0.5616  0.0327 -1.0474
 8298SOL    HW236354   0.560   3.641   6.792  0.3045 -0.4632 -2.7783
 8299SOL     OW36355   1.536   3.791  12.244  0.3220  0.0447 -0.5404
 8299SOL    HW136356   1.565   3.703  12.217 -0.9775 -0.3049 -0.8113
 8299SOL    HW236357   1.515   3.835  12.162 -1.6375  0.0969 -0.0264
 8300SOL     OW36358   3.298   4.114   7.759  0.6101 -0.2773  0.2190
 8300SOL    HW136359   3.327   4.032   7.798 -1.9908 -1.6682 -0.7786
 8300SOL    HW236360   3.296   4.171   7.835 -0.1771  2.2435 -1.6884
 8301SOL     OW36361   2.270   4.370   4.570 -0.6593 -0.2002  0.0048
 8301SOL    HW136362   2.176   4.385   4.572 -0.4722  0.9484  0.5396
 8301SOL    HW236363   2.296   4.424   4.495 -1.5612 -0.4355 -0.4694
 8302SOL     OW36364   3.373   1.518   2.400  0.3771  0.0937 -0.1193
 8302SOL    HW136365   3.323   1.443   2.435  0.3436 -0.6843 -1.8586
 8302SOL    HW236366   3.317   1.590   2.429 -0.4035 -0.5540 -0.0044
 8303SOL     OW36367   1.420   1.219   8.943 -0.2312  0.2806 -0.0969
 8303SOL    HW136368   1.396   1.128   8.958  3.4484 -0.3928  1.8231
 8303SOL    HW236369   1.335   1.262   8.935  0.3208  0.9524 -2.3887
 8304SOL     OW36370   3.645   3.222   5.507 -0.0033 -0.0261  0.3250
 8304SOL    HW136371   3.602   3.195   5.589 -1.3792 -1.0952 -0.7536
 8304SOL    HW236372   3.736   3.230   5.536  0.5061 -1.3993 -0.9190
 8305SOL     OW36373   2.260   1.813   8.128 -0.3344  0.1280  0.0392
 8305SOL    HW136374   2.338   1.864   8.151  0.2833 -0.4413 -0.8124
 8305SOL    HW236375   2.202   1.882   8.097  1.0326  0.7148 -1.2108
 8306SOL     OW36376   1.949   1.024  13.929 -0.1579 -0.4894  0.1388
 8306SOL    HW136377   2.009   1.086  13.970 -1.2738 -1.1478  2.7629
 8306SOL    HW236378   1.912   0.979  14.005  1.3509 -0.0684  1.1035
 8307SOL     OW36379   1.406   0.893   8.356  0.3405  0.5467 -0.2787
 8307SOL    HW136380   1.480   0.850   8.399  0.2137  0.7987  0.1925
 8307SOL    HW236381   1.390   0.952   8.429  1.2149 -1.5514  1.6126
 8308SOL     OW36382   2.962   4.500   6.751 -0.9018 -0.1575 -0.0348
 8308SOL    HW136383   3.042   4.541   6.786 -0.8709 -0.3933  0.1705
 8308SOL    HW236384   2.934   4.449   6.827  0.2724 -0.7410  0.0028
 8309SOL     OW36385   1.411   3.062   9.706  0.0918 -0.0584 -0.2291
 8309SOL    HW136386   1.348   3.028   9.770  0.1016  0.5032  0.0830
 8309SOL    HW236387   1.406   3.153   9.736  1.2485 -0.1823  0.3377
 8310SOL     OW36388   1.220   4.437  14.771 -0.5223 -0.1281  0.2528
 8310SOL    HW136389   1.304   4.463  14.734 -0.6199 -0.4184 -0.1719
 8310SOL    HW236390   1.249   4.359  14.820 -0.7627 -0.0229  0.5607
 8311SOL     OW36391   0.561   1.000   8.896 -0.5485 -0.2943 -0.1682
 8311SOL    HW136392   0.654   0.981   8.909  0.1305  2.4405 -1.1830
 8311SOL    HW236393   0.564   1.004   8.800 -3.1115  0.8730 -0.1806
 8312SOL     OW36394   3.274   0.241   4.169  0.0638 -0.1931 -0.0616
 8312SOL    HW136395   3.184   0.246   4.138 -0.2651  0.3853  0.9588
 8312SOL    HW236396   3.267   0.188   4.249 -2.2185  1.3847  0.7987
 8313SOL     OW36397   3.361   0.863  11.091 -0.0859  0.3848  0.2416
 8313SOL    HW136398   3.429   0.799  11.109 -0.3371  0.3171  0.9205
 8313SOL    HW236399   3.346   0.864  10.996 -1.0291 -0.5708  0.3785
 8314SOL     OW36400   0.837   0.532   1.824  0.2122 -0.2032 -0.4154
 8314SOL    HW136401   0.911   0.483   1.861 -0.0604 -1.6915 -1.8234
 8314SOL    HW236402   0.860   0.513   1.733  0.9296  0.2307 -0.3235
 8315SOL     OW36403   2.999   2.140   8.085 -1.0391 -0.0719 -0.1834
 8315SOL    HW136404   2.912   2.135   8.125 -0.9788 -3.8456 -0.5661
 8315SOL    HW236405   3.027   2.231   8.099 -1.8691  0.4268 -1.6936
 8316SOL     OW36406   4.643   2.121   4.737  0.2362  0.3623 -0.5904
 8316SOL    HW136407   4.693   2.064   4.678 -0.1414 -0.5356 -0.0464
 8316SOL    HW236408   4.610   2.183   4.672 -0.3234 -0.3892 -1.0244
 8317SOL     OW36409   1.509   3.492   7.980 -0.1487 -0.1242  0.4978
 8317SOL    HW136410   1.436   3.511   8.038 -1.9025  0.2768 -1.8773
 8317SOL    HW236411   1.574   3.554   8.014  0.6037 -0.9627  0.5956
 8318SOL     OW36412   0.002   1.469   4.720 -0.0911  0.0451 -0.1996
 8318SOL    HW136413   0.098   1.472   4.716 -0.1062  1.0016  0.0414
 8318SOL    HW236414   4.706   1.522   4.643 -0.0589  1.4568  0.7506
 8319SOL     OW36415   0.477   2.396   7.550 -0.2358 -0.3216  0.4909
 8319SOL    HW136416   0.529   2.476   7.560 -0.4170 -0.1591  0.1354
 8319SOL    HW236417   0.548   2.333   7.557  0.6640  0.5876 -0.5840
 8320SOL     OW36418   4.647   4.362   2.994 -0.1773 -0.1861  0.7513
 8320SOL    HW136419   4.573   4.421   2.978  1.3705  1.4027 -0.4986
 8320SOL    HW236420   4.672   4.334   2.906 -3.6631  0.7187 -0.5186
 8321SOL     OW36421   1.968   1.526   0.322  0.0003  0.1162  0.4434
 8321SOL    HW136422   1.990   1.462   0.254 -2.6022 -0.6627  0.3286
 8321SOL    HW236423   2.037   1.591   0.310  0.6630 -0.7292 -0.3317
 8322SOL     OW36424   0.862   3.251   7.655  0.2013 -0.8916  0.1015
 8322SOL    HW136425   0.834   3.191   7.723 -0.9957 -0.7582 -0.2705
 8322SOL    HW236426   0.800   3.322   7.672 -2.2828 -2.7668 -1.2384
 8323SOL     OW36427   3.340   0.690   4.814  0.6563  0.2797 -0.0104
 8323SOL    HW136428   3.360   0.784   4.823  2.2422 -0.1785  1.2592
 8323SOL    HW236429   3.252   0.687   4.777  0.2592  0.4634  0.9174
 8324SOL     OW36430   0.334   0.447  15.772 -0.3679 -0.3095  0.0706
 8324SOL    HW136431   0.261   0.400  15.733 -0.8162 -2.4686  3.5169
 8324SOL    HW236432   0.389   0.467  15.696  0.3166  0.8225  0.8544
 8325SOL     OW36433   2.221   2.490   8.269 -0.1621  0.3043 -0.1160
 8325SOL    HW136434   2.270   2.455   8.195  1.3531  0.4922  0.8003
 8325SOL    HW236435   2.131   2.461   8.256 -0.4849  1.7523 -1.0537
 8326SOL     OW36436   1.655   2.935   2.784 -0.4180 -0.1326  0.1675
 8326SOL    HW136437   1.715   2.911   2.713  1.0464  1.5962  0.8388
 8326SOL    HW236438   1.580   2.957   2.729 -0.7557  1.0758  1.1208
 8327SOL     OW36439   1.701   3.936  17.385  0.2654 -0.1396  0.2793
 8327SOL    HW136440   1.762   3.956  17.455  0.2114 -0.0836  0.3112
 8327SOL    HW236441   1.659   4.020  17.365 -0.5406 -0.4255  0.7766
 8328SOL     OW36442   3.088   2.861   7.551  0.3378 -0.3040 -0.5078
 8328SOL    HW136443   3.053   2.889   7.467 -0.4430  0.7648  0.1896
 8328SOL    HW236444   3.179   2.890   7.537  0.1947  0.4452  0.1135
 8329SOL     OW36445   1.371   0.218   1.251 -0.1417 -0.2258 -0.5768
 8329SOL    HW136446   1.275   0.220   1.247 -0.0792  2.3135 -0.8501
 8329SOL    HW236447   1.386   0.308   1.282 -1.6791 -0.3002  0.3688
 8330SOL     OW36448   0.217   0.324  16.918 -0.0743  1.1542 -0.7349
 8330SOL    HW136449   0.176   0.377  16.986 -0.6720  0.0155 -0.2074
 8330SOL    HW236450   0.221   0.391  16.850  1.3383  3.3056  1.5217
 8331SOL     OW36451   1.696   3.752  12.527 -0.0381  0.1727  0.0813
 8331SOL    HW136452   1.620   3.789  12.482 -0.0477 -0.1841 -0.1926
 8331SOL    HW236453   1.767   3.805  12.491 -1.1519  0.9104 -1.0333
 8332SOL     OW36454   4.195   3.958  11.034  0.0301 -0.4399  0.8851
 8332SOL    HW136455   4.260   3.889  11.035  0.4087 -0.0972 -0.1336
 8332SOL    HW236456   4.131   3.922  10.973 -0.9576  0.1077  1.5869
 8333SOL     OW36457   2.317   4.552   4.383  0.0895  0.0707  0.1669
 8333SOL    HW136458   2.236   4.570   4.334 -0.0199 -0.3081  0.2109
 8333SOL    HW236459   2.380   4.588   4.320 -0.3030 -0.9256 -0.7897
 8334SOL     OW36460   2.934   1.668   7.766  0.4390  0.2362 -0.2764
 8334SOL    HW136461   3.015   1.657   7.716  0.2601 -0.7391 -0.3565
 8334SOL    HW236462   2.906   1.753   7.733 -0.8158 -0.4906 -1.0999
 8335SOL     OW36463   0.441   2.323  10.990  0.1480 -0.4488  0.2354
 8335SOL    HW136464   0.480   2.405  10.961 -3.2861  0.8511 -0.7487
 8335SOL    HW236465   0.460   2.260  10.920  0.2357  2.1097 -2.0508
 8336SOL     OW36466   3.692   0.563   3.613 -0.1836 -0.7234  0.7098
 8336SOL    HW136467   3.786   0.574   3.622 -0.4935  2.1878  0.6161
 8336SOL    HW236468   3.655   0.633   3.667  0.6330 -0.1801  0.5672
 8337SOL     OW36469   4.498   0.946   7.586 -0.3277  0.2304 -0.2958
 8337SOL    HW136470   4.439   0.871   7.582 -0.7721  0.5970 -0.6704
 8337SOL    HW236471   4.477   0.985   7.671 -2.4677 -0.0760 -0.6764
 8338SOL     OW36472   3.215   2.670   8.584  0.4242  0.1093  0.3282
 8338SOL    HW136473   3.256   2.755   8.598  0.6703 -0.4112  2.8692
 8338SOL    HW236474   3.183   2.672   8.494 -1.9412  0.6599  1.1789
 8339SOL     OW36475   1.450   0.227  16.074 -0.1046  0.3502  0.4197
 8339SOL    HW136476   1.463   0.319  16.097  1.5756  0.0122  0.7764
 8339SOL    HW236477   1.536   0.186  16.083  0.4505  1.6267  0.9514
 8340SOL     OW36478   0.810   3.857   8.400  0.0790 -0.3353  0.2527
 8340SOL    HW136479   0.876   3.797   8.364 -0.0329 -0.9935  1.1663
 8340SOL    HW236480   0.744   3.789   8.414 -1.0854  0.9908  1.1916
 8341SOL     OW36481   0.857   1.705   3.106  0.1654  0.2107 -0.0160
 8341SOL    HW136482   0.887   1.627   3.060 -1.2752 -1.2398  1.4998
 8341SOL    HW236483   0.769   1.702   3.067  0.6846 -0.8899 -1.1056
 8342SOL     OW36484   1.581   3.459   2.764  0.0252  0.8263  0.6358
 8342SOL    HW136485   1.557   3.417   2.681  1.3908  1.9670 -0.3246
 8342SOL    HW236486   1.616   3.386   2.815  1.0196  1.7458  1.2738
 8343SOL     OW36487   4.440   0.981  12.108  0.3175  0.5750 -0.2150
 8343SOL    HW136488   4.450   1.076  12.119 -1.2383  0.4210  2.4398
 8343SOL    HW236489   4.424   0.956  12.199  3.2885 -1.1414 -0.1371
 8344SOL     OW36490   3.117   0.948  15.826 -0.3396 -0.1489  0.5092
 8344SOL    HW136491   3.055   0.889  15.784 -1.4951  1.1043  0.4571
 8344SOL    HW236492   3.075   1.001  15.894  2.4446  1.3824  1.0366
 8345SOL     OW36493   0.955   4.181   3.142  0.2213  0.6519  0.0120
 8345SOL    HW136494   0.903   4.135   3.207  1.1725 -1.3698 -0.6561
 8345SOL    HW236495   0.899   4.180   3.064  0.4856 -0.6228 -0.1559
 8346SOL     OW36496   2.373   2.241   2.989  0.3125  0.2340  0.1432
 8346SOL    HW136497   2.291   2.290   2.984  1.5715  2.2597 -0.5634
 8346SOL    HW236498   2.365   2.214   3.080 -0.7587  3.6122  1.0479
 8347SOL     OW36499   0.952   2.148   5.424 -0.3706  0.3994  0.4339
 8347SOL    HW136500   0.918   2.100   5.349  2.6093 -0.9714 -0.0538
 8347SOL    HW236501   1.042   2.170   5.399 -0.0763  0.1245  1.2449
 8348SOL     OW36502   3.835   2.327   6.600 -0.5148 -0.1549 -0.2548
 8348SOL    HW136503   3.744   2.356   6.603  0.5356  2.7741  3.3143
 8348SOL    HW236504   3.841   2.255   6.663 -0.0081 -0.4033 -0.5806
 8349SOL     OW36505   3.594   3.886  13.671 -0.2720 -0.2826 -0.3676
 8349SOL    HW136506   3.606   3.900  13.577 -1.5156  1.7727 -0.2194
 8349SOL    HW236507   3.637   3.958  13.718  1.5283 -1.4669 -0.1696
 8350SOL     OW36508   3.392   1.806  13.057  0.4546  0.1972  0.3170
 8350SOL    HW136509   3.341   1.884  13.038  1.4969  0.8665  0.2618
 8350SOL    HW236510   3.372   1.794  13.149 -1.1387  0.7220  0.0479
 8351SOL     OW36511   3.771   3.768  10.540 -0.4419 -0.0483  0.1683
 8351SOL    HW136512   3.695   3.759  10.482 -0.9887  1.9215  0.5973
 8351SOL    HW236513   3.794   3.859  10.520  0.6033 -0.7550 -1.8931
 8352SOL     OW36514   1.085   2.793   2.488  0.0584  0.1870 -0.1552
 8352SOL    HW136515   1.130   2.719   2.529  0.8728  0.5111 -0.4609
 8352SOL    HW236516   1.123   2.869   2.533 -2.3087 -0.7386  3.3894
 8353SOL     OW36517   1.775   4.343   7.751  0.2007  0.1108  0.0897
 8353SOL    HW136518   1.689   4.337   7.707  0.7170  0.5029 -0.9779
 8353SOL    HW236519   1.837   4.319   7.683  0.5819  0.1651  0.4220
 8354SOL     OW36520   1.855   4.107   3.702  0.1187  0.4371  0.5540
 8354SOL    HW136521   1.950   4.117   3.696  0.2258 -1.7855 -1.7924
 8354SOL    HW236522   1.824   4.159   3.776 -1.5788  0.7538 -0.3832
 8355SOL     OW36523   1.847   0.826  11.119 -0.3635  0.3685 -0.3893
 8355SOL    HW136524   1.939   0.818  11.144 -0.3142 -2.1528 -1.3092
 8355SOL    HW236525   1.815   0.888  11.185 -0.6727 -1.9470  1.6471
 8356SOL     OW36526   2.338   2.171  13.298  0.6436  0.2462 -0.5631
 8356SOL    HW136527   2.265   2.212  13.346 -0.6299 -0.1257 -2.1849
 8356SOL    HW236528   2.327   2.078  13.319 -0.7448  0.2337 -1.3612
 8357SOL     OW36529   1.007   0.255  12.982  0.1981 -0.0522 -0.2761
 8357SOL    HW136530   1.066   0.229  12.912 -0.3779 -0.7598 -0.4975
 8357SOL    HW236531   0.994   0.347  12.957 -0.8128  0.0500  0.6333
 8358SOL     OW36532   3.191   0.149   5.492 -0.8718 -0.2913  0.3466
 8358SOL    HW136533   3.148   0.063   5.486  0.5345 -0.8973 -0.8276
 8358SOL    HW236534   3.261   0.136   5.428 -2.0640 -0.6682 -0.8988
 8359SOL     OW36535   0.399   4.031   3.211 -0.5551 -0.3377  0.1378
 8359SOL    HW136536   0.437   4.012   3.125  1.4705  0.9498  0.7268
 8359SOL    HW236537   0.448   4.108   3.241 -0.0204  0.4923 -2.8422
 8360SOL     OW36538   3.875   0.694   8.822 -0.2145 -0.5264 -0.2619
 8360SOL    HW136539   3.792   0.705   8.775 -0.1492 -0.5689 -0.3886
 8360SOL    HW236540   3.853   0.630   8.890  0.9821 -0.9522 -0.2888
 8361SOL     OW36541   0.551   3.548   7.113  0.0339 -0.7706 -0.7467
 8361SOL    HW136542   0.628   3.562   7.057 -0.2043 -1.2984 -1.2138
 8361SOL    HW236543   0.579   3.469   7.158 -0.5481  0.1106  1.1353
 8362SOL     OW36544   2.436   0.873   4.333 -0.5876  0.3927 -0.4059
 8362SOL    HW136545   2.497   0.844   4.266  1.4240 -0.7269  1.9188
 8362SOL    HW236546   2.507   0.898   4.393 -0.9680 -1.2860  0.7322
 8363SOL     OW36547   4.238   3.705   0.657  0.1810  0.1861 -0.8969
 8363SOL    HW136548   4.223   3.743   0.570  2.5039 -0.0474 -1.3959
 8363SOL    HW236549   4.271   3.782   0.702  0.3439 -0.6746  0.4389
 8364SOL     OW36550   0.261   1.962  17.436 -0.2686  0.9318 -0.0127
 8364SOL    HW136551   0.311   1.960  17.354 -2.4779 -1.0762 -1.3224
 8364SOL    HW236552   0.178   1.919  17.416  0.7635 -0.7882 -0.6608
 8365SOL     OW36553   1.025   2.977   6.272  0.1602 -0.4275  0.5975
 8365SOL    HW136554   1.046   2.934   6.189 -2.7320 -2.6005  1.0143
 8365SOL    HW236555   1.083   3.053   6.276 -0.7295  0.3228 -0.4092
 8366SOL     OW36556   3.328   1.748  15.165  0.1046  0.0285  0.1949
 8366SOL    HW136557   3.261   1.815  15.171  0.8733  0.7914  0.3246
 8366SOL    HW236558   3.279   1.677  15.206  1.6683  0.4106  2.7380
 8367SOL     OW36559   3.307   1.182  13.778 -0.0738 -0.4227 -0.4400
 8367SOL    HW136560   3.397   1.187  13.748  0.9075 -2.1925  2.2210
 8367SOL    HW236561   3.273   1.238  13.708  0.5125  1.0462  0.4586
 8368SOL     OW36562   1.619   1.170  12.611 -0.3923 -0.1979  0.3605
 8368SOL    HW136563   1.701   1.212  12.637 -2.1052  2.2910  1.8016
 8368SOL    HW236564   1.598   1.115  12.686  2.7026 -0.4724  1.0515
 8369SOL     OW36565   2.184   3.811   7.150  0.3133  0.1188  0.0116
 8369SOL    HW136566   2.101   3.803   7.103 -1.0150  1.8312  2.0635
 8369SOL    HW236567   2.150   3.791   7.237 -0.8712  0.8412 -0.2924
 8370SOL     OW36568   2.157   2.961   3.864 -0.3985  0.1831  0.2978
 8370SOL    HW136569   2.136   3.028   3.799 -1.2723 -0.2473  0.1266
 8370SOL    HW236570   2.209   3.012   3.925 -0.1165  2.9714 -2.2660
 8371SOL     OW36571   0.351   3.165   0.364 -0.2877  0.1319 -0.1220
 8371SOL    HW136572   0.333   3.166   0.270  1.8177  0.0645 -0.5185
 8371SOL    HW236573   0.405   3.088   0.380  1.3296  1.9752  3.3167
 8372SOL     OW36574   2.596   1.460   7.638 -0.3414  1.2078 -1.1123
 8372SOL    HW136575   2.662   1.510   7.590 -0.9795  2.6877 -0.4581
 8372SOL    HW236576   2.583   1.393   7.571  2.7773 -1.0896  0.5637
 8373SOL     OW36577   2.037   0.611   4.632 -0.1217  0.0475 -0.5522
 8373SOL    HW136578   1.990   0.536   4.669 -1.4253  1.1311 -0.0008
 8373SOL    HW236579   2.046   0.575   4.544  2.1462 -1.3804  0.2876
 8374SOL     OW36580   1.827   4.605   2.750 -0.6496 -0.1135  0.1999
 8374SOL    HW136581   1.867   4.614   2.837  0.0365 -0.3541 -0.0840
 8374SOL    HW236582   1.894   4.656   2.704  0.3872 -0.7873  0.9381
 8375SOL     OW36583   2.679   3.030  15.965 -0.2256  0.1075 -0.1826
 8375SOL    HW136584   2.629   3.041  16.046 -1.9502  1.2936 -1.4128
 8375SOL    HW236585   2.623   2.962  15.926  0.3379  0.3602 -1.4310
 8376SOL     OW36586   4.028   1.939  11.912  0.0081 -0.4378 -0.6024
 8376SOL    HW136587   3.942   1.934  11.953 -1.3113 -3.0142 -3.7097
 8376SOL    HW236588   4.011   1.923  11.819  0.3232  1.0692 -0.9199
 8377SOL     OW36589   2.785   3.041   4.550 -0.2917 -0.1498  0.3665
 8377SOL    HW136590   2.860   3.009   4.500 -1.1544  1.5050 -1.9421
 8377SOL    HW236591   2.742   3.096   4.485  2.6368  1.0259 -0.5794
 8378SOL     OW36592   2.467   0.012   6.621  0.0293  0.3257  0.0905
 8378SOL    HW136593   2.527   0.081   6.647  0.6733 -0.0242 -0.4633
 8378SOL    HW236594   2.399   0.012   6.689 -2.6057  1.8147 -2.5060
 8379SOL     OW36595   1.016   4.124  10.261 -0.2791 -0.0690  0.0850
 8379SOL    HW136596   1.025   4.035  10.295  2.4800  0.0949 -0.1513
 8379SOL    HW236597   1.104   4.142  10.226 -0.7524  2.4809  0.1839
 8380SOL     OW36598   1.894   2.581   2.637 -0.1371 -0.1283 -0.0966
 8380SOL    HW136599   1.862   2.667   2.608 -0.3607 -1.4294 -3.7545
 8380SOL    HW236600   1.816   2.556   2.686 -0.1724  0.2794  0.0515
 8381SOL     OW36601   1.217   2.238   2.893  0.0477 -0.2819  0.5740
 8381SOL    HW136602   1.129   2.199   2.888  0.8103 -1.7945 -1.0061
 8381SOL    HW236603   1.209   2.291   2.973 -0.8251  1.5408 -0.7294
 8382SOL     OW36604   2.526   4.553  14.675  0.3244  0.2829 -0.4985
 8382SOL    HW136605   2.611   4.555  14.718  0.3796  2.2472 -0.6834
 8382SOL    HW236606   2.508   4.642  14.644 -0.8311  0.2331  0.0407
 8383SOL     OW36607   3.991   1.838  10.895 -0.1740  0.2798 -0.0421
 8383SOL    HW136608   3.945   1.871  10.818 -0.9279  1.7440  1.0343
 8383SOL    HW236609   4.046   1.911  10.924  0.3084  0.8621 -2.4710
 8384SOL     OW36610   4.314   1.353   8.468  0.2980 -0.5461 -0.3808
 8384SOL    HW136611   4.375   1.317   8.404  1.6818  0.7608  0.2068
 8384SOL    HW236612   4.233   1.360   8.417  0.6677  0.6617 -0.8110
 8385SOL     OW36613   0.140   1.433   4.204 -0.4088 -0.3338 -0.0237
 8385SOL    HW136614   0.182   1.418   4.289  0.5433 -0.6708 -0.5555
 8385SOL    HW236615   0.161   1.527   4.200  1.6262 -0.7594  0.6955
 8386SOL     OW36616   0.478   4.424   7.098  0.6394 -0.0515 -0.1278
 8386SOL    HW136617   0.522   4.387   7.174 -0.4863  0.2946  0.6856
 8386SOL    HW236618   0.500   4.358   7.032  0.9082 -0.6504  0.5537
 8387SOL     OW36619   2.863   2.368   6.263  0.4034 -0.1920  0.2239
 8387SOL    HW136620   2.925   2.297   6.279  1.1134  0.7350  1.5996
 8387SOL    HW236621   2.827   2.382   6.350  0.0646  0.6410 -0.0471
 8388SOL     OW36622   1.233   2.238  11.040 -0.2209  0.8674  0.2676
 8388SOL    HW136623   1.282   2.160  11.067 -0.8192 -0.2052 -1.7142
 8388SOL    HW236624   1.151   2.235  11.089 -0.6151  0.9153 -0.3831
 8389SOL     OW36625   0.367   1.998   6.758 -0.4818  0.5477 -0.1064
 8389SOL    HW136626   0.390   2.036   6.674  1.8482 -0.1685  0.1961
 8389SOL    HW236627   0.332   1.910   6.741  0.4623  0.1891 -0.2126
 8390SOL     OW36628   0.822   0.516  10.223 -0.1374 -0.5600 -0.0087
 8390SOL    HW136629   0.896   0.525  10.163 -0.6138 -0.7173 -0.6181
 8390SOL    HW236630   0.868   0.545  10.302 -1.6314 -1.1322  1.0718
 8391SOL     OW36631   2.342   0.977  16.869 -1.2455 -0.2056 -0.1633
 8391SOL    HW136632   2.360   0.887  16.840  0.5009  0.2469 -0.4376
 8391SOL    HW236633   2.263   0.960  16.921 -0.5031 -0.4593  0.8795
 8392SOL     OW36634   2.373   1.160   5.896  0.8167  0.1151 -0.2990
 8392SOL    HW136635   2.325   1.242   5.904 -1.3080 -1.1146 -0.5680
 8392SOL    HW236636   2.459   1.194   5.872  0.4702 -0.1170 -1.8493
 8393SOL     OW36637   1.459   1.095   1.518 -0.2266 -0.1000  0.0317
 8393SOL    HW136638   1.506   1.037   1.578  0.2628  2.8542  2.5243
 8393SOL    HW236639   1.530   1.114   1.457  1.1296 -1.3528  1.2216
 8394SOL     OW36640   0.064   1.067   2.049  0.5613 -0.0009  0.1871
 8394SOL    HW136641   0.111   1.022   2.120 -2.5621 -0.3092  2.0535
 8394SOL    HW236642   0.114   1.034   1.975  1.4571 -0.0337  0.8003
 8395SOL     OW36643   3.382   0.367   0.050  0.0397  0.1186 -0.0700
 8395SOL    HW136644   3.394   0.420  17.673  1.0655 -0.3855 -0.2530
 8395SOL    HW236645   3.468   0.356   0.091 -0.2139  1.3894  0.7871
 8396SOL     OW36646   4.059   3.088   6.577 -0.6067 -0.1557  0.5541
 8396SOL    HW136647   4.084   3.032   6.651 -0.5223  0.3209  0.8851
 8396SOL    HW236648   4.140   3.127   6.545 -0.2099 -0.3465  1.3108
 8397SOL     OW36649   0.500   1.289   4.119  0.1841 -0.1035  0.0657
 8397SOL    HW136650   0.505   1.289   4.215  0.1154 -0.2553  0.0695
 8397SOL    HW236651   0.449   1.369   4.109  1.3679  0.8402  1.4813
 8398SOL     OW36652   0.376   1.547   0.114  0.8843 -0.5120  0.3295
 8398SOL    HW136653   0.324   1.510   0.185 -1.7730  1.6248 -0.4637
 8398SOL    HW236654   0.316   1.525   0.043  1.8122  0.5530 -0.7819
 8399SOL     OW36655   0.050   2.757   5.727 -0.3140 -0.1474 -0.1704
 8399SOL    HW136656   0.089   2.833   5.683 -2.9453  1.5565  0.4440
 8399SOL    HW236657   0.130   2.705   5.736  0.8144  1.1447 -2.4919
 8400SOL     OW36658   3.813   3.380   0.090 -0.3628 -0.8625  0.0766
 8400SOL    HW136659   3.762   3.437   0.149 -0.5042  0.9994 -1.8217
 8400SOL    HW236660   3.758   3.394   0.013 -1.1483 -1.9158  0.4414
 8401SOL     OW36661   2.498   2.286   6.949 -0.1454  0.5110 -0.3789
 8401SOL    HW136662   2.440   2.249   6.883  1.4784 -0.5856 -1.2107
 8401SOL    HW236663   2.461   2.252   7.031  0.1738  2.0196  0.3859
 8402SOL     OW36664   3.269   3.714  14.781 -0.1425  0.1529  0.1445
 8402SOL    HW136665   3.336   3.655  14.818  0.3895  1.2426  0.9103
 8402SOL    HW236666   3.305   3.801  14.800  1.9969 -0.7053  0.0886
 8403SOL     OW36667   0.803   1.609   4.895 -0.1239 -0.1409 -0.2017
 8403SOL    HW136668   0.760   1.694   4.908 -1.5025 -0.6774 -1.2144
 8403SOL    HW236669   0.743   1.571   4.831  0.5810 -0.1758 -0.8394
 8404SOL     OW36670   1.907   3.517   7.194  0.0094  0.0499 -0.5668
 8404SOL    HW136671   1.952   3.482   7.272  1.3089  0.2119 -1.2340
 8404SOL    HW236672   1.962   3.496   7.119  0.2039 -3.0581  0.4305
 8405SOL     OW36673   3.904   4.233   6.782 -0.5985 -0.3395  0.3629
 8405SOL    HW136674   3.969   4.185   6.834 -1.6472 -1.7852  0.3254
 8405SOL    HW236675   3.834   4.246   6.846 -0.2021 -3.6578  1.4683
 8406SOL     OW36676   3.404   3.360   6.700 -0.9043  0.5892  0.6692
 8406SOL    HW136677   3.315   3.385   6.724 -0.4390  0.8370  2.1718
 8406SOL    HW236678   3.385   3.276   6.658  1.5344  0.1207  0.5298
 8407SOL     OW36679   4.200   2.542   3.994  0.0197 -0.5490  0.3193
 8407SOL    HW136680   4.121   2.537   3.940  0.3609  1.9502 -0.4290
 8407SOL    HW236681   4.172   2.483   4.063 -2.2783 -0.7644 -0.7696
 8408SOL     OW36682   0.304   2.526   5.127  0.5594 -0.1335 -0.0912
 8408SOL    HW136683   0.228   2.509   5.183 -0.6406 -1.6396 -2.1420
 8408SOL    HW236684   0.341   2.439   5.112  1.4573  0.1339  0.5666
 8409SOL     OW36685   1.681   2.162  12.026 -0.4620 -0.2304  0.2288
 8409SOL    HW136686   1.709   2.172  12.117 -0.4186  1.5853  0.0282
 8409SOL    HW236687   1.745   2.230  12.004  0.4315 -1.3657 -0.6364
 8410SOL     OW36688   1.007   2.963  13.101 -0.0268 -0.1937  0.3157
 8410SOL    HW136689   1.054   3.033  13.148  2.6106  0.8806 -3.8795
 8410SOL    HW236690   0.969   2.910  13.171 -1.5418 -1.2112 -1.3000
 8411SOL     OW36691   3.843   3.177  16.334 -0.3962  0.4687  0.3910
 8411SOL    HW136692   3.839   3.100  16.391 -0.1808 -0.4149 -0.7860
 8411SOL    HW236693   3.913   3.158  16.272 -1.5385 -0.5430 -0.5708
 8412SOL     OW36694   1.791   2.992   6.404 -0.1126  0.1112  0.3970
 8412SOL    HW136695   1.885   3.000   6.418  0.1360 -1.6357 -0.3074
 8412SOL    HW236696   1.784   3.088   6.410 -2.4123 -0.0251 -0.0038
 8413SOL     OW36697   0.993   1.958   9.583 -0.3052  0.3509  0.2632
 8413SOL    HW136698   0.903   1.983   9.563  0.7054  3.0956 -0.7642
 8413SOL    HW236699   1.032   1.957   9.496  2.2927  1.2830  1.3844
 8414SOL     OW36700   0.080   4.706   7.637  0.2773  0.4672 -0.3727
 8414SOL    HW136701   0.012   0.002   7.573 -0.1439  0.4587  0.0682
 8414SOL    HW236702   0.066   0.035   7.715 -0.9323 -0.0917 -0.2093
 8415SOL     OW36703   3.521   1.860   5.861 -0.4466  0.3093 -0.3398
 8415SOL    HW136704   3.521   1.902   5.776  0.5892 -3.5536 -2.2495
 8415SOL    HW236705   3.438   1.889   5.900 -0.0832 -0.0094  0.6673
 8416SOL     OW36706   3.260   2.924  12.898 -0.3670 -0.1165 -0.2475
 8416SOL    HW136707   3.221   3.009  12.919  0.3047 -0.2083  1.3820
 8416SOL    HW236708   3.329   2.945  12.835  1.7925  0.8650  2.4599
 8417SOL     OW36709   0.026   3.950  17.491  0.2118  0.2261 -0.1635
 8417SOL    HW136710   0.022   3.946  17.396 -1.7583  0.1805 -0.0900
 8417SOL    HW236711   0.108   3.901  17.499 -0.8797 -1.7994 -1.2890
 8418SOL     OW36712   1.185   3.213   5.716  0.0988  0.3301 -0.3564
 8418SOL    HW136713   1.221   3.197   5.629 -2.6361  0.9127 -1.5969
 8418SOL    HW236714   1.195   3.123   5.747  1.1980  0.5783 -0.0157
 8419SOL     OW36715   2.324   1.454  12.891  0.0442  0.2875  0.1494
 8419SOL    HW136716   2.379   1.532  12.881 -2.4185  1.7808 -1.8821
 8419SOL    HW236717   2.249   1.489  12.842 -0.1856 -0.5556 -0.0924
 8420SOL     OW36718   3.339   3.241   0.441  0.4303  0.3280  0.1163
 8420SOL    HW136719   3.386   3.234   0.525  0.5747  0.4275  0.0445
 8420SOL    HW236720   3.404   3.221   0.373  4.2726  0.7915  3.5920
 8421SOL     OW36721   1.986   3.520   3.802  0.1076 -0.2505 -0.3531
 8421SOL    HW136722   2.031   3.555   3.879  0.0945  0.4704 -0.6761
 8421SOL    HW236723   2.065   3.492   3.756 -0.2167 -0.6628 -0.6538
 8422SOL     OW36724   4.083   3.474  11.046  0.4506  0.1236 -0.1006
 8422SOL    HW136725   4.056   3.418  10.973 -0.2895  0.0282  0.2564
 8422SOL    HW236726   4.117   3.554  11.004 -0.2713  0.0111 -0.8873
 8423SOL     OW36727   3.607   3.837  12.017  0.1126  0.3430  0.4199
 8423SOL    HW136728   3.643   3.877  12.096 -0.4233 -0.2171  0.9447
 8423SOL    HW236729   3.663   3.760  12.003 -0.5705  0.3228 -2.2232
 8424SOL     OW36730   2.883   0.085   2.327 -0.3869 -0.4017  0.1239
 8424SOL    HW136731   2.810   0.042   2.373 -0.6589  0.3222  0.3730
 8424SOL    HW236732   2.860   0.076   2.235  2.3859 -1.2788 -0.4864
 8425SOL     OW36733   2.960   3.032   4.782 -1.0519  0.3999 -0.4061
 8425SOL    HW136734   2.883   3.057   4.732  0.1387  1.6223 -1.6338
 8425SOL    HW236735   2.933   3.056   4.871 -0.5308  1.3263 -0.5001
 8426SOL     OW36736   2.668   4.632   7.588 -0.5497 -0.0540  0.4448
 8426SOL    HW136737   2.705   4.719   7.606  0.5206 -0.6663  1.2161
 8426SOL    HW236738   2.603   4.626   7.658 -2.6844  0.1505 -1.5458
 8427SOL     OW36739   4.686   2.999   5.923  0.0357  0.2784 -0.0040
 8427SOL    HW136740   0.039   3.034   5.881  0.3612 -2.1109 -1.3926
 8427SOL    HW236741   4.628   2.989   5.848  0.1661 -1.2603  0.0881
 8428SOL     OW36742   2.058   3.795   3.710  0.4510  0.5301 -0.0674
 8428SOL    HW136743   1.969   3.820   3.685 -0.5448 -2.8622  0.0416
 8428SOL    HW236744   2.039   3.704   3.730  0.2825  0.7874  0.9514
 8429SOL     OW36745   2.353   2.158   9.868  0.0488  0.1362 -0.3199
 8429SOL    HW136746   2.355   2.179   9.961 -2.2835  1.9809 -0.6789
 8429SOL    HW236747   2.441   2.123   9.855  0.0597  0.1578 -0.3050
 8430SOL     OW36748   1.216   1.985   4.637 -0.1713  0.1743  0.0707
 8430SOL    HW136749   1.240   2.068   4.596 -0.5927 -0.3428 -1.2144
 8430SOL    HW236750   1.155   1.960   4.567 -1.9078  0.7106  1.3758
 8431SOL     OW36751   2.201   4.026   5.089 -0.1021  0.2004  0.4759
 8431SOL    HW136752   2.131   4.009   5.151 -1.2691 -1.0190 -1.1487
 8431SOL    HW236753   2.155   4.057   5.011 -0.3084  1.7660  1.2281
 8432SOL     OW36754   1.751   3.436   0.633  0.6525  0.2737  0.0045
 8432SOL    HW136755   1.705   3.354   0.612  2.2693 -0.1488 -1.9039
 8432SOL    HW236756   1.807   3.430   0.556 -0.8613  0.7741 -1.1487
 8433SOL     OW36757   2.532   4.544  12.529 -0.3218 -0.0966 -0.2438
 8433SOL    HW136758   2.494   4.535  12.616  0.2783 -0.3035 -0.0034
 8433SOL    HW236759   2.468   4.604  12.491  1.8937  1.9977 -0.6613
 8434SOL     OW36760   4.150   4.419  13.492  0.4469  0.1175 -0.2906
 8434SOL    HW136761   4.153   4.514  13.479 -0.4963  0.0996 -0.6247
 8434SOL    HW236762   4.182   4.414  13.582  1.4451  0.1458 -0.6484
 8435SOL     OW36763   3.350   3.244  13.946 -0.4613  0.2776 -0.0653
 8435SOL    HW136764   3.407   3.200  14.009 -0.1443  2.3330  1.1046
 8435SOL    HW236765   3.409   3.319  13.941  0.1929 -0.1728  0.7704
 8436SOL     OW36766   4.233   2.243  12.423 -0.6573 -0.4132  0.4337
 8436SOL    HW136767   4.198   2.158  12.447  1.5793 -1.7716 -1.0953
 8436SOL    HW236768   4.222   2.278  12.512 -1.0022  1.0051 -0.1663
 8437SOL     OW36769   1.381   0.447  15.420 -0.1082 -0.4619 -0.4324
 8437SOL    HW136770   1.315   0.407  15.476 -0.9424  1.0370 -0.3345
 8437SOL    HW236771   1.412   0.513  15.482  0.3206 -0.4911 -0.6145
 8438SOL     OW36772   2.481   3.651  12.355 -0.1375  0.4920 -0.2232
 8438SOL    HW136773   2.519   3.738  12.342  1.5680  0.0203  1.6644
 8438SOL    HW236774   2.502   3.619  12.267 -1.3180  0.7110 -0.5905
 8439SOL     OW36775   1.230   3.590  10.455 -0.1657  0.3550  0.0453
 8439SOL    HW136776   1.294   3.595  10.384  0.1102  0.4827  0.3001
 8439SOL    HW236777   1.192   3.507  10.428 -0.1950  0.8184 -1.3510
 8440SOL     OW36778   0.903   1.368   9.885 -0.8654  0.5600  0.2730
 8440SOL    HW136779   0.892   1.273   9.881 -1.5982  0.5976  1.3778
 8440SOL    HW236780   0.937   1.378   9.974  0.3544  1.9822 -0.3597
 8441SOL     OW36781   4.062   2.083  11.368 -0.0542  0.1869  0.0899
 8441SOL    HW136782   4.047   2.105  11.276 -1.2826  0.2868  0.3201
 8441SOL    HW236783   4.083   1.989  11.360 -1.6549  0.2079 -4.1049
 8442SOL     OW36784   1.745   1.764   1.920 -0.6589  0.6979 -0.1978
 8442SOL    HW136785   1.716   1.749   2.010  1.4795 -0.8574  0.2236
 8442SOL    HW236786   1.767   1.858   1.920 -0.8630  0.7468  0.1655
 8443SOL     OW36787   1.877   0.296  11.154 -0.4182  0.5894  0.2535
 8443SOL    HW136788   1.784   0.294  11.178 -0.0576  1.0862  1.7101
 8443SOL    HW236789   1.916   0.253  11.230 -3.1749 -2.2203  0.0887
 8444SOL     OW36790   1.282   1.197   5.624  0.3917 -0.2982 -0.6627
 8444SOL    HW136791   1.353   1.250   5.587  2.0897 -1.0373  1.5721
 8444SOL    HW236792   1.330   1.118   5.647  1.9908 -0.1018 -3.2862
 8445SOL     OW36793   2.221   2.092   0.296 -0.0534  0.6584 -0.0901
 8445SOL    HW136794   2.299   2.137   0.263  1.7606 -1.8668  0.6984
 8445SOL    HW236795   2.226   2.136   0.381  0.4229 -0.7178  0.5930
 8446SOL     OW36796   2.433   2.578   1.361 -0.3189  0.2007 -0.7093
 8446SOL    HW136797   2.457   2.494   1.322  1.1554  1.4361 -2.4464
 8446SOL    HW236798   2.482   2.586   1.442  1.0615  0.2059 -1.5545
 8447SOL     OW36799   1.354   0.999   2.712 -0.3441 -0.0318  0.2393
 8447SOL    HW136800   1.265   1.013   2.680 -1.2753 -2.0811  1.9279
 8447SOL    HW236801   1.365   1.087   2.749 -2.1933  1.3191 -2.3876
 8448SOL     OW36802   0.608   3.416   5.988  0.2239 -0.1452 -0.2668
 8448SOL    HW136803   0.542   3.384   5.927 -0.2579  0.9535 -0.3072
 8448SOL    HW236804   0.562   3.482   6.039 -2.1911 -2.5414  0.6553
 8449SOL     OW36805   1.588   3.836   8.825 -0.2848 -0.2807 -0.5261
 8449SOL    HW136806   1.636   3.758   8.797 -1.2789 -0.6255 -1.2887
 8449SOL    HW236807   1.590   3.888   8.744 -1.8933  0.8998  0.2177
 8450SOL     OW36808   2.984   4.341  12.249 -0.2285  0.4255  0.1904
 8450SOL    HW136809   2.936   4.270  12.206 -1.4608  1.2092  0.2765
 8450SOL    HW236810   2.928   4.371  12.321  0.1975 -0.2034  0.7907
 8451SOL     OW36811   1.994   2.309   8.240  0.0474  0.1727  0.0295
 8451SOL    HW136812   1.921   2.261   8.279  0.1289 -1.1362 -1.4651
 8451SOL    HW236813   1.970   2.300   8.148 -0.5813 -1.1048  0.3240
 8452SOL     OW36814   1.439   3.096  13.343 -0.4626 -0.1527  0.6736
 8452SOL    HW136815   1.441   3.191  13.353 -1.6798 -0.2396  1.7303
 8452SOL    HW236816   1.485   3.068  13.422  0.4937 -1.7621 -0.4536
 8453SOL     OW36817   0.136   4.501   4.517  0.4323 -0.0448 -0.8250
 8453SOL    HW136818   0.141   4.595   4.504 -3.8347  0.5758  1.7572
 8453SOL    HW236819   0.064   4.479   4.458  1.2921 -1.4902 -1.3398
 8454SOL     OW36820   0.343   0.802   3.551 -0.5113 -0.1199 -0.1959
 8454SOL    HW136821   0.301   0.862   3.613  0.3712 -0.8899  1.1413
 8454SOL    HW236822   0.402   0.855   3.497  0.2883  0.3709  1.1814
 8455SOL     OW36823   0.466   1.725  15.405  0.3988 -0.2476  0.4183
 8455SOL    HW136824   0.509   1.657  15.456 -0.3774  0.4233  1.9495
 8455SOL    HW236825   0.531   1.795  15.407  0.0167  0.1264 -0.0872
 8456SOL     OW36826   4.319   1.929   9.961 -0.3136 -0.8291 -0.2290
 8456SOL    HW136827   4.369   2.011   9.964  1.6401 -2.0086 -0.6613
 8456SOL    HW236828   4.240   1.949  10.013  0.3442 -0.0789  0.4843
 8457SOL     OW36829   0.755   3.510   0.308  0.2157  0.0442 -0.3094
 8457SOL    HW136830   0.789   3.427   0.343 -0.5778 -0.1778 -0.0639
 8457SOL    HW236831   0.807   3.581   0.346 -0.3412  0.3382 -0.1075
 8458SOL     OW36832   2.676   1.603  17.143 -0.4489 -0.1569  0.0406
 8458SOL    HW136833   2.594   1.594  17.093 -0.7545  2.8590 -0.0496
 8458SOL    HW236834   2.728   1.526  17.122 -1.7870 -0.2091 -3.0601
 8459SOL     OW36835   1.096   3.921   1.927  0.3933  0.1442 -0.2462
 8459SOL    HW136836   1.190   3.939   1.918  0.6956 -0.4364  1.7692
 8459SOL    HW236837   1.061   3.949   1.843 -0.7229  1.3309  0.6204
 8460SOL     OW36838   2.637   3.876   5.426  0.2172  0.0855 -0.0067
 8460SOL    HW136839   2.663   3.967   5.411  1.4450 -0.3791 -0.6626
 8460SOL    HW236840   2.705   3.854   5.489  0.2333  2.4036  0.7928
 8461SOL     OW36841   2.128   0.159  10.330  0.0648  0.1907 -0.2573
 8461SOL    HW136842   2.141   0.253  10.317 -1.3034  0.3588 -0.3671
 8461SOL    HW236843   2.039   0.145  10.299 -0.1778  0.1380  0.4623
 8462SOL     OW36844   1.226   3.521   2.080 -0.3442 -0.3253 -0.1502
 8462SOL    HW136845   1.216   3.446   2.138 -0.6587  1.5185  2.1580
 8462SOL    HW236846   1.316   3.547   2.098 -0.5144 -0.4131  0.8218
 8463SOL     OW36847   0.710   3.666   5.510 -0.1237  0.1293 -0.0274
 8463SOL    HW136848   0.649   3.739   5.522  0.0146  0.3852 -0.8505
 8463SOL    HW236849   0.730   3.641   5.600 -0.7223 -2.2569 -0.5560
 8464SOL     OW36850   0.879   4.487   7.198  0.4751 -0.0783  0.0024
 8464SOL    HW136851   0.836   4.509   7.281  0.6329  2.7076 -0.6618
 8464SOL    HW236852   0.884   4.393   7.217 -0.0468 -0.0637  0.2099
 8465SOL     OW36853   1.956   0.197   1.702 -0.3893 -0.1519  0.5779
 8465SOL    HW136854   1.914   0.225   1.621  0.5952  0.1614  0.1713
 8465SOL    HW236855   1.909   0.254   1.763  1.5666 -0.3106  2.2617
 8466SOL     OW36856   4.099   0.154  16.233 -0.3415 -0.2579  0.0226
 8466SOL    HW136857   4.057   0.130  16.150 -1.3145 -2.4914  1.1896
 8466SOL    HW236858   4.140   0.236  16.203  1.0884 -0.9913 -0.0080
 8467SOL     OW36859   3.250   2.515  10.031 -0.4761 -0.0902 -1.0620
 8467SOL    HW136860   3.332   2.542   9.990 -0.8433 -0.9292 -2.3544
 8467SOL    HW236861   3.231   2.595  10.080  0.1203  0.2797 -1.4430
 8468SOL     OW36862   1.743   3.454   3.937  0.0582 -0.2442 -0.4359
 8468SOL    HW136863   1.799   3.395   3.988  0.0794  0.4932  0.4014
 8468SOL    HW236864   1.813   3.488   3.880  0.6490 -0.3228  0.2450
 8469SOL     OW36865   4.019   2.547  16.959 -0.1855 -0.2873  0.3383
 8469SOL    HW136866   3.938   2.497  16.961 -0.4762  0.1835  0.3663
 8469SOL    HW236867   3.986   2.635  16.977  1.2758  0.6623 -1.6372
 8470SOL     OW36868   1.330   3.748   5.525 -0.3808  0.2536 -0.2133
 8470SOL    HW136869   1.418   3.767   5.557  0.2776 -0.7842 -1.4571
 8470SOL    HW236870   1.306   3.660   5.554  0.0040  0.0529 -0.5004
 8471SOL     OW36871   2.473   1.757  11.545  0.0836 -0.3482 -0.3062
 8471SOL    HW136872   2.532   1.778  11.617 -1.3348  4.5347 -0.5457
 8471SOL    HW236873   2.457   1.849  11.525  1.0137 -0.2039 -0.3802
 8472SOL     OW36874   0.722   1.059   7.001  0.1856  0.2926 -0.1732
 8472SOL    HW136875   0.781   1.004   6.949 -0.8877  0.3817 -1.4910
 8472SOL    HW236876   0.639   1.012   6.989  0.5546 -0.1170 -1.1518
 8473SOL     OW36877   0.458   0.439  16.947  0.5726 -0.0344 -0.4466
 8473SOL    HW136878   0.479   0.486  16.867  0.6261 -0.1798 -0.5180
 8473SOL    HW236879   0.383   0.385  16.920 -1.4456  0.6117  3.7722
 8474SOL     OW36880   3.025   1.990   5.341  0.1887 -0.6171  1.3450
 8474SOL    HW136881   3.078   2.061   5.377 -2.7065 -0.3233  5.0303
 8474SOL    HW236882   3.050   1.911   5.390  1.4027 -1.7731 -1.1387
 8475SOL     OW36883   3.318   2.557  17.608 -0.2267 -0.3670  0.2523
 8475SOL    HW136884   3.289   2.513  17.688 -2.9012  1.1738  0.1255
 8475SOL    HW236885   3.351   2.486  17.553 -2.2380 -2.0380  1.2507
 8476SOL     OW36886   0.176   3.589   7.902  0.1167  0.6054  0.6186
 8476SOL    HW136887   0.173   3.631   7.815  2.3220 -0.9062 -0.1863
 8476SOL    HW236888   0.217   3.507   7.874  0.6523  1.1960 -0.3220
 8477SOL     OW36889   3.617   4.109   7.293  0.2710 -0.5693 -0.1486
 8477SOL    HW136890   3.667   4.085   7.371  0.3787  1.9560  0.5408
 8477SOL    HW236891   3.583   4.187   7.335 -0.1600 -0.2125 -1.1531
 8478SOL     OW36892   2.700   1.498   1.172  0.0018 -0.5851  0.2637
 8478SOL    HW136893   2.713   1.551   1.093  0.5624 -0.2383  0.5926
 8478SOL    HW236894   2.790   1.477   1.195  0.4600 -1.4198 -2.2613
 8479SOL     OW36895   4.402   3.215  17.230  0.2439 -0.1141  0.1991
 8479SOL    HW136896   4.357   3.153  17.287 -1.8139  0.7838 -0.4511
 8479SOL    HW236897   4.493   3.215  17.260  1.2405 -0.6915 -2.8753
 8480SOL     OW36898   3.871   4.408   3.476  0.1001 -0.3494 -0.5785
 8480SOL    HW136899   3.928   4.397   3.552  0.3799  2.6657 -0.3525
 8480SOL    HW236900   3.789   4.434   3.517  1.0654  0.9607  0.5477
 8481SOL     OW36901   3.896   4.712   9.799 -0.1551  0.2154 -0.8827
 8481SOL    HW136902   3.886   4.724   9.894  1.5453 -0.2938 -0.6374
 8481SOL    HW236903   3.918   0.077   9.774  0.0448 -0.1748 -2.1130
 8482SOL     OW36904   0.820   1.098   5.911  0.0186  0.4087  0.1798
 8482SOL    HW136905   0.804   1.053   5.828 -0.5946 -0.9605  1.0349
 8482SOL    HW236906   0.738   1.083   5.959 -0.4186 -0.2885 -0.7779
 8483SOL     OW36907   4.718   1.624  10.447  0.3127 -0.3043 -0.3971
 8483SOL    HW136908   0.088   1.613  10.448  0.2429 -0.8732 -0.1399
 8483SOL    HW236909   4.695   1.535  10.420 -1.6012 -0.4940  1.8830
 8484SOL     OW36910   4.084   3.401   3.224  0.6067 -0.1125 -0.2528
 8484SOL    HW136911   4.040   3.371   3.304  1.9535 -2.8169 -0.5380
 8484SOL    HW236912   4.145   3.471   3.248  1.1309 -1.6101  2.7852
 8485SOL     OW36913   3.937   0.766  10.822 -0.7382  0.1881 -0.3007
 8485SOL    HW136914   4.017   0.717  10.841  0.3281  2.0355  0.0240
 8485SOL    HW236915   3.981   0.849  10.803  1.8676 -1.0739  0.1328
 8486SOL     OW36916   1.892   0.956   7.675 -0.2706 -0.6633 -0.2891
 8486SOL    HW136917   1.952   0.883   7.690  2.3019  1.3155 -0.8500
 8486SOL    HW236918   1.808   0.939   7.718 -0.5039  0.5970 -0.2340
 8487SOL     OW36919   1.917   1.445   1.349 -0.1607 -0.2398  0.7709
 8487SOL    HW136920   1.840   1.488   1.312 -0.9688 -0.9266  1.6358
 8487SOL    HW236921   1.954   1.399   1.274 -0.1319 -0.3441  0.8487
 8488SOL     OW36922   3.687   1.543   9.652 -0.0660 -0.1290  0.0295
 8488SOL    HW136923   3.607   1.574   9.609 -1.5298 -1.1911  1.9712
 8488SOL    HW236924   3.744   1.609   9.613 -0.8583 -0.2885 -1.3874
 8489SOL     OW36925   3.125   0.397   1.089  0.2544  0.2221  0.2530
 8489SOL    HW136926   3.086   0.447   1.160  1.8758 -0.3790  1.5666
 8489SOL    HW236927   3.191   0.463   1.065  1.0284 -0.6722 -0.0974
 8490SOL     OW36928   2.277   3.365   4.191 -0.1995 -0.3339 -0.3000
 8490SOL    HW136929   2.335   3.402   4.258 -0.5722  2.6545 -1.6324
 8490SOL    HW236930   2.259   3.445   4.141  0.1044  0.8094  1.3812
 8491SOL     OW36931   3.593   3.916  14.772 -0.7923  0.0262 -0.6762
 8491SOL    HW136932   3.636   3.899  14.688 -0.0758  2.1818 -0.7532
 8491SOL    HW236933   3.514   3.962  14.743  1.0452  2.5150 -1.8133
 8492SOL     OW36934   0.549   2.048   7.288  0.2061 -0.0738 -0.0121
 8492SOL    HW136935   0.623   2.092   7.246  1.2820 -1.6803  0.1589
 8492SOL    HW236936   0.546   2.063   7.383  2.1263  1.6822 -0.2180
 8493SOL     OW36937   3.020   4.720   4.131  0.6872  0.3555  0.3550
 8493SOL    HW136938   2.971   4.640   4.153  0.0693 -0.1307 -2.7050
 8493SOL    HW236939   3.044   4.714   4.038  3.0658  1.5726  0.8979
 8494SOL     OW36940   0.578   0.801   8.437 -0.0751  0.4598 -0.2528
 8494SOL    HW136941   0.647   0.781   8.500 -0.9758  1.1993  0.9761
 8494SOL    HW236942   0.562   0.893   8.458 -1.4809  0.3839 -0.9568
 8495SOL     OW36943   3.397   3.631   7.238 -0.0696  0.3583  0.0770
 8495SOL    HW136944   3.393   3.727   7.235  1.1297  0.3758 -0.9246
 8495SOL    HW236945   3.306   3.613   7.260  0.1823  0.7475  1.4360
 8496SOL     OW36946   3.080   2.299   8.502 -0.0408 -0.3791  0.3069
 8496SOL    HW136947   3.005   2.250   8.536  0.5867 -0.1191  2.0684
 8496SOL    HW236948   3.037   2.375   8.464 -0.2368 -2.2712 -3.2490
 8497SOL     OW36949   0.917   2.825  10.898  0.6675  0.0154  0.6164
 8497SOL    HW136950   0.848   2.787  10.952  2.5566 -1.4742  2.0015
 8497SOL    HW236951   0.963   2.872  10.967 -0.7396  2.2224  0.0514
 8498SOL     OW36952   2.369   2.734   5.399  0.6982 -0.3077 -0.2435
 8498SOL    HW136953   2.460   2.704   5.399  1.0370  0.7211 -1.4754
 8498SOL    HW236954   2.370   2.829   5.404  2.0461 -0.2175 -2.2945
 8499SOL     OW36955   4.158   3.215   9.251 -0.4607 -0.3149  0.0409
 8499SOL    HW136956   4.243   3.180   9.280 -1.2003 -0.3768  2.1375
 8499SOL    HW236957   4.176   3.308   9.265 -1.3830 -0.3609  1.4604
 8500SOL     OW36958   3.466   0.270  12.743 -0.1527 -0.4965 -0.3532
 8500SOL    HW136959   3.449   0.233  12.829  0.4232  0.4273  0.1618
 8500SOL    HW236960   3.512   0.193  12.711  0.8609  0.0294 -0.1643
 8501SOL     OW36961   0.324   3.866   8.975 -0.3641 -0.5556  0.0665
 8501SOL    HW136962   0.369   3.894   9.055 -0.1996  0.0153 -0.2199
 8501SOL    HW236963   0.231   3.880   8.991 -0.5224 -2.4324  0.7540
 8502SOL     OW36964   0.046   3.863   6.170  0.1979 -0.9038 -0.1962
 8502SOL    HW136965   4.710   3.801   6.129  0.8351 -1.5248 -0.2136
 8502SOL    HW236966   4.713   3.916   6.224  0.1773 -0.1682 -0.9349
 8503SOL     OW36967   2.725   3.736  15.422 -0.0337  0.4251  0.1653
 8503SOL    HW136968   2.646   3.762  15.470 -0.6126 -1.8162  0.3947
 8503SOL    HW236969   2.686   3.681  15.354 -1.6005 -0.2317  1.6034
 8504SOL     OW36970   1.028   3.868  10.359 -0.1707  0.2610  0.5947
 8504SOL    HW136971   0.989   3.834  10.439  1.1324 -0.6915  0.8274
 8504SOL    HW236972   1.101   3.807  10.349 -2.4917 -2.0900 -2.0057
 8505SOL     OW36973   0.541   4.186  17.264 -0.2122  0.4044  0.1529
 8505SOL    HW136974   0.559   4.146  17.350 -0.6544  1.0163  0.5303
 8505SOL    HW236975   0.617   4.152  17.216 -0.3060 -0.2931  0.4956
 8506SOL     OW36976   3.010   1.300   8.796 -0.9123 -0.1373  0.5395
 8506SOL    HW136977   2.954   1.243   8.743 -0.6003 -0.9386  1.0790
 8506SOL    HW236978   2.980   1.278   8.884 -0.3463 -2.4519  0.1414
 8507SOL     OW36979   0.018   0.927   6.565  0.4279 -0.4249 -0.0849
 8507SOL    HW136980   0.024   0.866   6.639  1.1042 -0.0949  0.1327
 8507SOL    HW236981   0.072   0.995   6.604 -0.6309 -0.0549  0.7375
 8508SOL     OW36982   0.632   4.119   8.452  0.1356  0.1275  0.3644
 8508SOL    HW136983   0.628   4.174   8.374 -1.5006 -1.1419 -0.4343
 8508SOL    HW236984   0.666   4.035   8.422  0.5790 -0.2410  1.8733
 8509SOL     OW36985   0.989   4.391  14.518  1.0185  0.0439  0.2135
 8509SOL    HW136986   1.070   4.354  14.481  1.5714  0.6111  0.8771
 8509SOL    HW236987   1.005   4.367  14.609  1.4504  0.6057  0.2810
 8510SOL     OW36988   3.090   0.465   3.323  0.4001  0.4876  0.0100
 8510SOL    HW136989   3.030   0.540   3.325 -0.2040  0.0497 -2.1861
 8510SOL    HW236990   3.123   0.463   3.413 -1.4086  1.5278  0.6996
 8511SOL     OW36991   3.958   4.119   8.138  0.1074 -0.5350 -0.0301
 8511SOL    HW136992   3.945   4.201   8.185 -1.0503 -0.6861 -0.0912
 8511SOL    HW236993   4.032   4.082   8.186  1.1890 -0.0968 -1.3534
 8512SOL     OW36994   2.110   4.246   3.430  0.0633 -0.0612  0.1454
 8512SOL    HW136995   2.076   4.160   3.406  1.4016 -0.6620  0.4254
 8512SOL    HW236996   2.037   4.308   3.427  0.0927 -0.0404 -0.2399
 8513SOL     OW36997   2.251   0.632   8.053 -0.6532 -0.4286 -0.0676
 8513SOL    HW136998   2.220   0.602   7.968 -0.0212 -1.4318  0.0478
 8513SOL    HW236999   2.176   0.673   8.096  0.6860  1.7528  0.2119
 8514SOL     OW37000   3.088   0.237   3.178 -0.4741 -0.5011  0.6035
 8514SOL    HW137001   3.146   0.181   3.230  1.7365  0.9540 -0.3070
 8514SOL    HW237002   3.115   0.324   3.207  2.2127 -1.1486  0.0380
 8515SOL     OW37003   4.213   4.074   7.370 -0.7100 -1.2068  0.4038
 8515SOL    HW137004   4.130   4.098   7.328 -0.8741  2.1183  2.6418
 8515SOL    HW237005   4.182   3.998   7.420 -2.5368  0.0765  1.2135
 8516SOL     OW37006   4.229   4.372  13.743  0.0531  0.0728  0.8993
 8516SOL    HW137007   4.254   4.421  13.821  2.6925 -0.5702  0.4624
 8516SOL    HW237008   4.313   4.331  13.723 -0.1964 -0.6986  1.4267
 8517SOL     OW37009   1.040   3.693   8.140 -0.1999  0.2657 -0.1180
 8517SOL    HW137010   1.082   3.709   8.225 -0.9275 -1.2499  0.5362
 8517SOL    HW237011   1.006   3.781   8.122  0.0442  0.2751 -0.5371
 8518SOL     OW37012   2.105   0.640   3.254  0.1773 -0.2681  0.8320
 8518SOL    HW137013   2.191   0.667   3.286 -0.9225  1.2344  2.5606
 8518SOL    HW237014   2.118   0.546   3.249  1.9888  0.1798 -3.1650
 8519SOL     OW37015   0.710   3.728   6.466 -0.5302 -0.0015 -0.3065
 8519SOL    HW137016   0.768   3.798   6.497 -0.8441 -0.4895  1.4125
 8519SOL    HW237017   0.628   3.778   6.466  0.5122  1.6685 -2.6464
 8520SOL     OW37018   0.451   2.018   9.083 -0.1110  0.8181 -0.7153
 8520SOL    HW137019   0.434   2.034   8.990  1.9337  2.4622 -0.7878
 8520SOL    HW237020   0.543   2.045   9.087  0.5258 -1.5886  0.8520
 8521SOL     OW37021   0.910   0.646   4.582  0.1623 -0.2653 -0.1576
 8521SOL    HW137022   0.858   0.625   4.504  1.3293 -0.5338 -0.8700
 8521SOL    HW237023   0.855   0.707   4.630  1.9358 -0.2182  1.8286
 8522SOL     OW37024   4.498   2.587   3.432  0.4184 -0.6401  0.0321
 8522SOL    HW137025   4.530   2.600   3.522 -2.4099  2.8838  0.5758
 8522SOL    HW237026   4.554   2.513   3.412  0.6118 -1.0244  1.9456
 8523SOL     OW37027   3.449   4.651  13.973  0.2199  0.4261 -0.6813
 8523SOL    HW137028   3.460   0.018  13.997  0.4155  0.5504 -1.2437
 8523SOL    HW237029   3.531   4.638  13.925  1.4363  1.1168  1.1957
 8524SOL     OW37030   2.158   2.077  13.039  0.1314 -0.1224  0.0676
 8524SOL    HW137031   2.177   2.023  13.116 -2.0147 -2.0484 -0.7643
 8524SOL    HW237032   2.224   2.146  13.045 -1.1362  1.1458 -0.5516
 8525SOL     OW37033   4.678   0.985   8.741 -0.2124  0.0481 -0.2237
 8525SOL    HW137034   0.013   0.929   8.790  1.3907  2.2976  0.3714
 8525SOL    HW237035   4.603   0.927   8.724 -2.2137  2.9000 -1.1034
 8526SOL     OW37036   4.138   3.096  10.821  0.4731 -0.2077  0.1541
 8526SOL    HW137037   4.157   3.004  10.838  0.2489 -0.5006 -1.1877
 8526SOL    HW237038   4.223   3.135  10.840  0.4543 -0.5953  1.0068
 8527SOL     OW37039   1.487   2.441  14.908 -0.1026  0.1195  0.7073
 8527SOL    HW137040   1.424   2.514  14.910 -0.0481  0.2383 -1.1242
 8527SOL    HW237041   1.505   2.436  14.814 -2.4035  0.3664  0.2542
 8528SOL     OW37042   1.144   0.650   2.521  0.1319  0.2909  0.7636
 8528SOL    HW137043   1.099   0.607   2.448 -0.6380 -0.7900  1.8753
 8528SOL    HW237044   1.102   0.737   2.514  1.5806  0.9882  0.8049
 8529SOL     OW37045   0.714   3.405   8.000  0.2596  0.0264  0.0200
 8529SOL    HW137046   0.638   3.348   8.013 -0.4381  1.1020  0.6579
 8529SOL    HW237047   0.706   3.427   7.907  3.1801 -0.5453 -0.3520
 8530SOL     OW37048   1.564   2.983   2.073 -0.0643 -0.2701  0.0469
 8530SOL    HW137049   1.572   2.994   1.978  0.3211  1.6151  0.2842
 8530SOL    HW237050   1.642   3.037   2.089  1.0284 -1.5418 -1.0116
 8531SOL     OW37051   2.051   1.073  13.506 -0.1442 -0.0935  0.0851
 8531SOL    HW137052   2.028   1.120  13.426 -2.5896 -1.4694 -0.0273
 8531SOL    HW237053   2.000   0.997  13.478 -0.8027 -0.3419  1.9174
 8532SOL     OW37054   2.968   3.211  12.874 -0.1502 -0.0685  0.4823
 8532SOL    HW137055   3.040   3.164  12.916  0.6875  1.8494  1.1882
 8532SOL    HW237056   2.939   3.131  12.830 -0.7086 -0.6577  1.9394
 8533SOL     OW37057   1.187   3.934   5.660 -0.2012 -0.0407 -0.1050
 8533SOL    HW137058   1.241   3.862   5.628 -1.0055 -0.7712  0.1722
 8533SOL    HW237059   1.109   3.891   5.695 -1.4108 -0.0480 -2.7791
 8534SOL     OW37060   2.699   4.271   1.212  0.3548 -0.0262 -0.2419
 8534SOL    HW137061   2.761   4.210   1.171  0.1503 -1.2180  1.2244
 8534SOL    HW237062   2.659   4.320   1.140 -2.5188 -3.2736 -0.8220
 8535SOL     OW37063   2.150   0.878   1.930 -0.1445 -0.7402  0.3243
 8535SOL    HW137064   2.173   0.923   2.011 -0.9660 -0.6166  0.4906
 8535SOL    HW237065   2.063   0.841   1.943 -0.4456 -0.7913 -1.8241
 8536SOL     OW37066   2.796   2.603  10.948 -0.5923  0.2168 -0.8186
 8536SOL    HW137067   2.827   2.663  10.880 -0.0101 -1.5506 -2.0927
 8536SOL    HW237068   2.743   2.547  10.892 -0.2676 -0.2304 -0.6825
 8537SOL     OW37069   3.559   2.558  10.089  0.2401 -0.7702 -0.5690
 8537SOL    HW137070   3.635   2.536  10.142  0.1561 -0.1951 -0.2182
 8537SOL    HW237071   3.569   2.651  10.108  0.1899 -0.9707  0.4353
 8538SOL     OW37072   3.850   2.377  13.699  0.2531 -0.0472  0.2833
 8538SOL    HW137073   3.756   2.392  13.694 -0.1419 -2.4126  0.6159
 8538SOL    HW237074   3.868   2.449  13.759 -2.0983 -0.7959  1.8708
 8539SOL     OW37075   3.900   0.840   2.050 -0.0047  0.1993 -0.2028
 8539SOL    HW137076   3.827   0.879   2.098  0.0079  1.3668 -1.1373
 8539SOL    HW237077   3.905   0.755   2.093 -0.0354  0.1562 -0.2836
 8540SOL     OW37078   2.056   0.539  16.330 -0.3825 -0.7360  0.5644
 8540SOL    HW137079   2.060   0.580  16.417  4.5136 -0.0656  0.0125
 8540SOL    HW237080   1.973   0.577  16.301 -0.4832 -0.1063  1.6712
 8541SOL     OW37081   0.450   2.232   1.469  0.3803 -0.1438 -0.3870
 8541SOL    HW137082   0.455   2.238   1.374  0.3060 -1.8551 -0.4913
 8541SOL    HW237083   0.429   2.140   1.484  2.4180 -0.7134 -1.1357
 8542SOL     OW37084   0.194   2.044   4.536 -0.2378 -0.0088 -0.2333
 8542SOL    HW137085   0.281   2.032   4.499 -0.4647  1.5564 -1.2617
 8542SOL    HW237086   0.156   1.956   4.539 -1.3679  0.4820  0.0355
 8543SOL     OW37087   3.946   2.289   7.993  0.1762  0.0532 -0.4352
 8543SOL    HW137088   3.930   2.352   8.064 -0.3597 -0.8756  0.2728
 8543SOL    HW237089   4.033   2.313   7.961 -0.3057  0.4801 -1.4047
 8544SOL     OW37090   2.346   1.713  15.312 -0.1314 -0.3974 -0.4872
 8544SOL    HW137091   2.433   1.697  15.348 -1.5538 -2.7883  1.8739
 8544SOL    HW237092   2.295   1.649  15.362 -0.9623  0.9092  0.3295
 8545SOL     OW37093   2.728   0.796   7.538 -0.2803 -0.1353  0.6124
 8545SOL    HW137094   2.802   0.737   7.525 -0.2196  0.2573 -0.8461
 8545SOL    HW237095   2.653   0.740   7.517  0.7371 -1.6353  1.0176
 8546SOL     OW37096   0.880   3.456  13.658 -0.1968  0.1457 -0.5566
 8546SOL    HW137097   0.861   3.467  13.564  1.9665 -0.3783 -1.0488
 8546SOL    HW237098   0.968   3.494  13.657  0.6054 -1.6437  2.7526
 8547SOL     OW37099   2.192   4.261   7.163 -0.5389  0.1714  0.1769
 8547SOL    HW137100   2.185   4.299   7.076  1.3583 -1.3322 -0.6194
 8547SOL    HW237101   2.117   4.201   7.164  0.0323 -0.5272  1.8254
 8548SOL     OW37102   4.014   3.944   9.481  0.1125 -0.1652  0.2389
 8548SOL    HW137103   4.010   3.851   9.463 -0.3787 -0.3563  1.3403
 8548SOL    HW237104   3.938   3.965   9.535 -0.2035 -0.1808 -0.2014
 8549SOL     OW37105   1.765   1.324   9.891  0.7725 -0.2177 -0.1854
 8549SOL    HW137106   1.801   1.265   9.957  1.0944  2.1791  1.7816
 8549SOL    HW237107   1.778   1.409   9.932 -0.9281 -0.1265  0.1555
 8550SOL     OW37108   0.313   4.667   3.640 -0.2100 -0.5922  0.4738
 8550SOL    HW137109   0.377   4.668   3.569 -1.1129  0.5103 -0.3293
 8550SOL    HW237110   0.312   0.032   3.672 -1.1120  0.8010 -3.4518
 8551SOL     OW37111   1.233   4.150   0.837  0.8029 -0.3004  0.5950
 8551SOL    HW137112   1.287   4.098   0.778 -0.6861 -1.0511 -0.1198
 8551SOL    HW237113   1.190   4.220   0.786  1.0149 -0.9721 -0.5094
 8552SOL     OW37114   4.601   1.658   1.863 -0.0912 -0.1792 -0.1578
 8552SOL    HW137115   4.626   1.658   1.955 -2.4304 -3.2751  0.4667
 8552SOL    HW237116   4.674   1.697   1.814 -0.7656 -1.9943 -2.5915
 8553SOL     OW37117   4.652   0.832   3.402  0.0089  0.1676  0.5894
 8553SOL    HW137118   4.658   0.918   3.444 -3.1664 -1.3856  4.1951
 8553SOL    HW237119   4.560   0.816   3.384 -0.2317  0.2556  1.8034
 8554SOL     OW37120   0.083   1.789  13.748 -0.2869  0.5376 -0.8497
 8554SOL    HW137121   0.071   1.739  13.829  0.5384  0.9390 -0.4815
 8554SOL    HW237122   4.724   1.771  13.707 -0.3344  0.3134 -0.6510
 8555SOL     OW37123   3.124   1.920   3.925 -0.4006 -0.0703 -0.3760
 8555SOL    HW137124   3.128   1.986   3.856 -0.0971 -0.3627 -0.6372
 8555SOL    HW237125   3.047   1.941   3.978 -1.8942 -2.0303 -1.7645
 8556SOL     OW37126   1.491   4.131   9.043 -0.1627  0.2809 -0.4215
 8556SOL    HW137127   1.526   4.054   9.087 -1.3139 -1.2346 -2.1270
 8556SOL    HW237128   1.421   4.157   9.102 -0.3315  0.5690 -0.7426
 8557SOL     OW37129   1.913   0.675  11.874  0.3151 -1.0033  0.5478
 8557SOL    HW137130   1.817   0.678  11.872  0.3364 -1.2762 -1.0389
 8557SOL    HW237131   1.929   0.755  11.923 -2.8288 -0.3151  0.4200
 8558SOL     OW37132   3.685   1.289  12.783 -0.2476  0.5686 -0.1702
 8558SOL    HW137133   3.755   1.352  12.768 -0.8458  1.8092  2.1357
 8558SOL    HW237134   3.689   1.280  12.879 -1.9748  2.1484  0.0623
 8559SOL     OW37135   2.077   1.030   6.974 -0.8949 -0.2132 -0.2030
 8559SOL    HW137136   2.129   1.082   7.035  0.4353 -2.2822  0.4480
 8559SOL    HW237137   2.099   1.075   6.893  2.4318  0.8594  1.3126
 8560SOL     OW37138   3.860   3.407   7.400  0.1994 -0.3035  0.0941
 8560SOL    HW137139   3.830   3.335   7.344  1.5372 -1.8579  1.3795
 8560SOL    HW237140   3.788   3.468   7.379 -0.5626 -0.5722  1.9685
 8561SOL     OW37141   2.032   2.788   6.864 -0.3416  0.2094  0.0840
 8561SOL    HW137142   2.064   2.787   6.774 -0.4174  0.0259  0.0590
 8561SOL    HW237143   2.046   2.699   6.896  0.8923  0.5868  0.6023
 8562SOL     OW37144   0.650   2.652   8.383  0.0901  0.0571 -0.0734
 8562SOL    HW137145   0.722   2.663   8.322  0.1174 -2.0165 -0.4325
 8562SOL    HW237146   0.700   2.635   8.463  2.4165  0.2920 -1.4954
 8563SOL     OW37147   2.320   1.234   1.655  0.1123 -0.4150 -0.2535
 8563SOL    HW137148   2.343   1.145   1.682  0.2337  0.4996  2.6579
 8563SOL    HW237149   2.224   1.233   1.659  0.2104  0.3846  2.1704
 8564SOL     OW37150   0.470   2.128   7.767 -0.1188  0.3495  0.1418
 8564SOL    HW137151   0.491   2.150   7.677 -0.2096  0.9291  0.2558
 8564SOL    HW237152   0.442   2.213   7.802  1.1455  1.5950 -1.9374
 8565SOL     OW37153   3.549   0.126   2.488 -0.6909  0.3639  0.3700
 8565SOL    HW137154   3.642   0.116   2.469 -0.3527  0.3327  2.0807
 8565SOL    HW237155   3.522   0.213   2.460  1.3977  0.7077 -0.5074
 8566SOL     OW37156   4.406   1.731   8.474  0.1018  0.3633 -0.1271
 8566SOL    HW137157   4.481   1.679   8.446  0.3892 -0.1504  1.6068
 8566SOL    HW237158   4.409   1.721   8.569  0.1407 -0.4779 -0.2231
 8567SOL     OW37159   0.127   4.351   3.177  0.3074  0.0239 -0.1540
 8567SOL    HW137160   0.196   4.319   3.119  0.8261 -1.3546  1.2048
 8567SOL    HW237161   0.059   4.343   3.110 -0.2481  2.6067  0.0832
 8568SOL     OW37162   4.634   3.742   4.598  0.1054  0.3573 -0.3290
 8568SOL    HW137163   4.557   3.750   4.653 -0.9946 -1.6301 -1.5879
 8568SOL    HW237164   4.621   3.808   4.530 -0.1826 -0.5304 -1.1380
 8569SOL     OW37165   3.837   3.232   2.118  0.4536 -0.0891  0.2693
 8569SOL    HW137166   3.896   3.307   2.125 -0.4006  0.6176  0.0615
 8569SOL    HW237167   3.847   3.209   2.025 -1.9674 -0.8447  0.1859
 8570SOL     OW37168   1.076   4.186   5.009  0.2525 -0.4444  0.1872
 8570SOL    HW137169   1.102   4.138   4.931 -2.2912  1.1449 -1.6212
 8570SOL    HW237170   1.113   4.125   5.073  0.3108 -1.9249 -1.2497
 8571SOL     OW37171   2.975   1.299   4.288 -0.2127 -0.4255 -0.3957
 8571SOL    HW137172   2.941   1.357   4.356  2.3498 -0.5435  0.9748
 8571SOL    HW237173   2.973   1.358   4.212 -0.3930 -1.1991 -0.9955
 8572SOL     OW37174   2.724   0.245   9.549  0.6400 -0.0500  0.1067
 8572SOL    HW137175   2.701   0.185   9.478  6.1346 -0.6732 -1.1012
 8572SOL    HW237176   2.819   0.238   9.547  0.6131  0.1838 -2.1414
 8573SOL     OW37177   1.673   2.814   9.573  0.7114  0.0258  0.2013
 8573SOL    HW137178   1.750   2.762   9.596  0.6768  0.0557  0.3872
 8573SOL    HW237179   1.674   2.838   9.481  2.2906 -2.1403 -0.3495
 8574SOL     OW37180   4.396   0.807   3.027  0.4053 -0.4678 -0.4684
 8574SOL    HW137181   4.309   0.771   3.013 -0.2926 -0.2264  3.0778
 8574SOL    HW237182   4.415   0.830   2.936 -1.2611  1.3377 -0.3529
 8575SOL     OW37183   4.529   4.219  17.284 -0.4115 -0.0028 -0.1712
 8575SOL    HW137184   4.551   4.281  17.353  0.7169  0.6122 -1.0916
 8575SOL    HW237185   4.557   4.257  17.201 -3.0931 -0.2084 -1.1825
 8576SOL     OW37186   1.017   0.832   2.816 -0.1532 -0.3166  0.0205
 8576SOL    HW137187   0.994   0.751   2.770  1.8235 -0.6720 -0.3314
 8576SOL    HW237188   1.034   0.888   2.740  1.5818  0.7648  1.2085
 8577SOL     OW37189   1.628   3.726  11.028  0.2975 -0.2433  0.5755
 8577SOL    HW137190   1.608   3.642  10.988  0.0301 -0.4295  1.1046
 8577SOL    HW237191   1.693   3.689  11.088 -2.8036 -3.9691  1.5821
 8578SOL     OW37192   0.161   4.118  11.087  0.7039 -0.1126  0.3144
 8578SOL    HW137193   0.110   4.189  11.125  0.6535 -0.7043  1.3573
 8578SOL    HW237194   0.127   4.045  11.139  0.6262  0.9496  1.7606
 8579SOL     OW37195   4.347   0.189  10.061  0.3873 -0.5989  0.2035
 8579SOL    HW137196   4.401   0.115  10.086 -0.2925 -0.6458  1.5278
 8579SOL    HW237197   4.353   0.245  10.138 -1.1929 -1.9716  1.3221
 8580SOL     OW37198   2.281   0.254   4.520  0.0405  0.2123  0.2406
 8580SOL    HW137199   2.236   0.178   4.558  0.3362 -0.2016 -0.2352
 8580SOL    HW237200   2.338   0.280   4.592  1.4679 -0.2052 -0.7446
 8581SOL     OW37201   1.932   4.130  13.862 -0.5381  0.4090  0.1950
 8581SOL    HW137202   1.928   4.035  13.856 -0.6404  0.4081  0.2760
 8581SOL    HW237203   1.845   4.154  13.893 -0.9077  2.3522 -2.3871
 8582SOL     OW37204   3.109   4.684   0.656 -0.0190 -0.3266 -0.0214
 8582SOL    HW137205   3.190   4.698   0.706 -0.2730  2.3411 -0.3091
 8582SOL    HW237206   3.124   4.597   0.621 -2.8128 -0.0458 -1.9304
 8583SOL     OW37207   1.680   1.582   1.236  0.1410 -0.5107  0.5370
 8583SOL    HW137208   1.597   1.542   1.262  0.2645 -1.3523 -0.3686
 8583SOL    HW237209   1.686   1.651   1.302  1.7256 -0.0536 -0.0918
 8584SOL     OW37210   3.986   3.785   5.425  0.4630 -0.1995 -0.3789
 8584SOL    HW137211   3.976   3.714   5.361 -0.6294 -0.2066 -0.1913
 8584SOL    HW237212   3.939   3.853   5.376 -1.1419 -1.6623 -0.8740
 8585SOL     OW37213   2.650   1.814   3.231 -0.0131 -0.6514  0.3572
 8585SOL    HW137214   2.562   1.821   3.270  0.7387  1.5658  1.6395
 8585SOL    HW237215   2.709   1.832   3.304 -0.9812 -1.4797  1.3531
 8586SOL     OW37216   0.656   1.273  11.396 -0.1634 -0.0772  0.0561
 8586SOL    HW137217   0.643   1.322  11.477  3.3684 -0.4767  0.8832
 8586SOL    HW237218   0.614   1.327  11.329 -0.5066 -0.8789 -0.3727
 8587SOL     OW37219   0.798   1.888   6.039 -0.5333  0.3412  0.0514
 8587SOL    HW137220   0.890   1.885   6.014 -0.5058 -2.7772  0.6364
 8587SOL    HW237221   0.783   1.983   6.035  1.1524  0.6848  2.3475
 8588SOL     OW37222   2.712   1.367   7.868  0.1742 -0.5211  0.0065
 8588SOL    HW137223   2.661   1.289   7.844 -1.0379  0.0572  0.7494
 8588SOL    HW237224   2.681   1.426   7.799 -2.1589 -2.7221 -0.8832
 8589SOL     OW37225   2.510   3.462  15.456  0.6230 -0.1686  0.5459
 8589SOL    HW137226   2.479   3.550  15.476 -1.7533 -0.6745 -0.9394
 8589SOL    HW237227   2.489   3.459  15.363 -0.0157 -0.3003  0.6939
 8590SOL     OW37228   2.217   0.304  15.592  0.2163  0.1246 -0.6869
 8590SOL    HW137229   2.253   0.338  15.674  0.1743 -1.6656  0.0591
 8590SOL    HW237230   2.138   0.262  15.625  1.1724 -0.1631  1.2439
 8591SOL     OW37231   0.500   4.272   0.719  0.4270 -0.5718 -0.2821
 8591SOL    HW137232   0.473   4.184   0.691  2.1583 -0.9928 -0.6415
 8591SOL    HW237233   0.443   4.327   0.666 -0.3256 -0.2511  0.8747
 8592SOL     OW37234   3.855   2.591   2.398  0.1352 -0.4834  0.3602
 8592SOL    HW137235   3.799   2.552   2.331  0.3273 -0.4665  0.1895
 8592SOL    HW237236   3.793   2.658   2.426  0.8838  0.0773  0.7070
 8593SOL     OW37237   1.147   2.143  14.767 -0.3112 -0.2266  0.1850
 8593SOL    HW137238   1.200   2.218  14.740  0.7097 -1.1329 -0.2814
 8593SOL    HW237239   1.086   2.176  14.834  1.1260 -0.3077  1.5169
 8594SOL     OW37240   3.629   2.970   8.552 -0.1610 -0.8326 -0.4054
 8594SOL    HW137241   3.635   3.001   8.462  0.2872 -2.7970 -1.0521
 8594SOL    HW237242   3.724   2.973   8.566 -0.4534  1.9779  0.9390
 8595SOL     OW37243   4.629   1.953   2.441 -0.7055  0.5586  0.0806
 8595SOL    HW137244   4.636   1.882   2.378  1.5934  1.9532 -1.2470
 8595SOL    HW237245   4.558   1.931   2.501  0.3568 -0.5334  0.9429
 8596SOL     OW37246   4.506   4.318   9.736  0.3140  0.0576  0.2093
 8596SOL    HW137247   4.449   4.314   9.659 -1.0713  0.6017  1.1919
 8596SOL    HW237248   4.591   4.290   9.704 -0.6080  0.3528 -2.5604
 8597SOL     OW37249   1.876   4.090  10.362 -0.5679 -0.0354  0.2722
 8597SOL    HW137250   1.797   4.116  10.314  0.8590 -0.9217 -2.5329
 8597SOL    HW237251   1.938   4.089  10.290 -0.6962  2.4425  0.1123
 8598SOL     OW37252   3.076   1.700  13.116  0.0912  0.2304 -0.2059
 8598SOL    HW137253   3.153   1.681  13.169 -0.2600  0.1545  0.2717
 8598SOL    HW237254   3.032   1.763  13.172 -0.5176  0.5210 -1.0086
 8599SOL     OW37255   1.571   2.204  10.347  0.3171 -0.5563  0.1713
 8599SOL    HW137256   1.530   2.153  10.416 -0.3555 -1.3627 -0.8354
 8599SOL    HW237257   1.609   2.124  10.310  0.5994 -0.0281 -0.6889
 8600SOL     OW37258   2.044   0.878   1.681  0.0639  0.0717 -0.2816
 8600SOL    HW137259   2.083   0.853   1.764 -1.2651 -0.4256  0.1944
 8600SOL    HW237260   2.060   0.804   1.622 -1.1237 -1.2202  0.9899
 8601SOL     OW37261   1.106   2.496   1.270  0.0984  0.3708  0.8613
 8601SOL    HW137262   1.188   2.456   1.241 -0.6136  0.6132 -1.4727
 8601SOL    HW237263   1.102   2.497   1.366  0.2730 -0.9728  0.8824
 8602SOL     OW37264   1.573   1.128  11.936  0.5079 -0.2310  0.1493
 8602SOL    HW137265   1.522   1.209  11.940  0.7462  0.0233 -1.9329
 8602SOL    HW237266   1.620   1.123  11.853 -0.1459 -0.9200 -0.1760
 8603SOL     OW37267   4.380   3.925  10.077 -0.4231 -0.4518  0.0797
 8603SOL    HW137268   4.295   3.962  10.100 -0.5189  0.3052 -1.5148
 8603SOL    HW237269   4.391   3.963   9.990  1.5036  0.2229  0.6037
 8604SOL     OW37270   2.927   2.353  11.062  0.1640 -0.1964  0.0232
 8604SOL    HW137271   2.898   2.413  10.993  0.6519  0.1615  0.1350
 8604SOL    HW237272   2.994   2.402  11.108 -0.0318 -0.9589  1.1231
 8605SOL     OW37273   3.445   0.672  10.104  0.7011 -0.3259 -0.2300
 8605SOL    HW137274   3.536   0.673  10.134  0.5122  0.4602  0.3196
 8605SOL    HW237275   3.449   0.710  10.017 -1.2166  1.0432  0.2758
 8606SOL     OW37276   1.185   3.764   3.883 -0.3157 -0.3364  0.1132
 8606SOL    HW137277   1.219   3.844   3.923  0.2043 -0.5502  0.0898
 8606SOL    HW237278   1.132   3.737   3.958 -1.0527 -0.0152 -0.2888
 8607SOL     OW37279   1.091   4.319   0.691  0.2534  0.4055 -0.3435
 8607SOL    HW137280   1.006   4.298   0.652 -0.9907  2.4706  1.2706
 8607SOL    HW237281   1.127   4.376   0.623  0.9847  1.8052  1.2243
 8608SOL     OW37282   1.704   0.996   4.588 -0.3177 -0.4111 -0.3754
 8608SOL    HW137283   1.735   1.054   4.657 -1.4475  1.2177 -1.2502
 8608SOL    HW237284   1.687   0.918   4.641  0.6693 -0.2832  0.1221
 8609SOL     OW37285   3.871   0.616  11.957  0.1224 -0.0346  0.0539
 8609SOL    HW137286   3.836   0.556  12.023  0.5083 -1.0651 -0.6748
 8609SOL    HW237287   3.963   0.589  11.963 -0.1095 -0.7857  0.2643
 8610SOL     OW37288   0.650   2.028   9.962 -0.4024 -0.0178  0.1581
 8610SOL    HW137289   0.571   2.035   9.908 -0.0484  4.2248  0.1663
 8610SOL    HW237290   0.624   1.949  10.010 -0.4213  1.5258  2.6875
 8611SOL     OW37291   4.601   1.972   6.731 -0.1492  0.1044 -0.1781
 8611SOL    HW137292   4.529   2.017   6.687 -0.7008 -1.6124 -0.9960
 8611SOL    HW237293   4.575   1.880   6.730  0.7628 -0.1429 -0.7384
 8612SOL     OW37294   0.303   3.110   2.507 -0.8927 -0.8633  0.5430
 8612SOL    HW137295   0.368   3.042   2.490 -1.1560 -0.9179 -0.2086
 8612SOL    HW237296   0.292   3.146   2.419  2.2068  0.4105  0.6724
 8613SOL     OW37297   4.619   2.132   8.374 -0.1357  0.1753  0.3951
 8613SOL    HW137298   4.599   2.081   8.452 -1.6680  2.0288  1.2230
 8613SOL    HW237299   4.623   2.222   8.406  0.7579  0.5839 -0.8749
 8614SOL     OW37300   0.657   1.728  11.239  0.0363 -0.4134 -0.0115
 8614SOL    HW137301   0.576   1.744  11.190  1.2018  0.3831 -1.6687
 8614SOL    HW237302   0.706   1.799  11.198  0.1593 -1.5277 -1.7527
 8615SOL     OW37303   0.341   3.463   4.754  0.3144 -0.3862  0.3284
 8615SOL    HW137304   0.341   3.405   4.678 -1.2242  2.2694 -1.6748
 8615SOL    HW237305   0.287   3.532   4.718 -0.2939 -0.6472  0.7395
 8616SOL     OW37306   4.162   3.378  12.313 -0.5740  0.2987  0.5166
 8616SOL    HW137307   4.200   3.454  12.355  2.3016 -0.6822 -0.3166
 8616SOL    HW237308   4.077   3.359  12.354  0.6756  0.4896  3.1897
 8617SOL     OW37309   1.222   3.567   6.648  0.6253 -0.2520 -0.1307
 8617SOL    HW137310   1.275   3.489   6.665  0.1390 -0.4446  0.4944
 8617SOL    HW237311   1.234   3.574   6.553 -0.4855 -0.8183 -0.3075
 8618SOL     OW37312   3.615   3.860   8.715 -0.2082 -0.0718  0.1212
 8618SOL    HW137313   3.648   3.938   8.758  2.4128 -0.7609 -0.6392
 8618SOL    HW237314   3.689   3.798   8.719 -1.4771 -1.4602  1.9721
 8619SOL     OW37315   2.741   4.221  15.881  0.3374  0.2692 -0.5313
 8619SOL    HW137316   2.701   4.134  15.884 -0.1689  0.5643  2.0692
 8619SOL    HW237317   2.658   4.267  15.895  0.4007  0.7552 -1.8139
 8620SOL     OW37318   1.532   2.476   3.940 -0.3079 -0.3950 -0.3134
 8620SOL    HW137319   1.518   2.570   3.936 -0.4423 -0.4743 -1.4992
 8620SOL    HW237320   1.460   2.450   3.883 -0.8199  0.4550 -0.0469
 8621SOL     OW37321   2.090   0.796  14.182  0.0554 -0.0156  0.1138
 8621SOL    HW137322   2.041   0.748  14.115 -3.4219  1.9790  1.2724
 8621SOL    HW237323   2.178   0.774  14.149  0.0032  2.3234 -1.6729
 8622SOL     OW37324   1.456   0.640   0.171  0.2383 -0.0508 -0.3883
 8622SOL    HW137325   1.467   0.545   0.170  0.2983 -0.0559  1.1712
 8622SOL    HW237326   1.488   0.664   0.258 -0.0707  0.0528 -0.3044
 8623SOL     OW37327   3.795   3.685   8.257 -0.0085  0.1006  0.2958
 8623SOL    HW137328   3.860   3.746   8.292  1.0835 -0.7292 -0.3050
 8623SOL    HW237329   3.724   3.696   8.320 -1.6579 -2.2475 -1.1393
 8624SOL     OW37330   3.226   0.484   5.867 -0.3144  0.0427 -0.0371
 8624SOL    HW137331   3.253   0.446   5.784 -0.0241  1.5758 -0.6412
 8624SOL    HW237332   3.179   0.411   5.907 -0.1469  0.7857  1.5447
 8625SOL     OW37333   3.265   3.973  15.241 -0.6602 -0.2776 -0.5302
 8625SOL    HW137334   3.347   3.979  15.291 -0.9551  1.4501 -0.2678
 8625SOL    HW237335   3.245   4.066  15.243  2.1000  0.3081  0.2669
 8626SOL     OW37336   1.324   2.974   4.395  0.1814 -0.0985 -0.0404
 8626SOL    HW137337   1.384   2.908   4.427  1.2751  0.1037 -1.6536
 8626SOL    HW237338   1.379   3.052   4.390 -1.0341  0.7523 -0.2543
 8627SOL     OW37339   4.296   1.883   4.007  0.6153  0.1563  0.0184
 8627SOL    HW137340   4.282   1.975   4.031  0.3144  0.3637 -0.9915
 8627SOL    HW237341   4.392   1.881   4.009  0.5648 -1.4708  0.5894
 8628SOL     OW37342   3.445   1.629   9.535  0.3727 -0.2955  0.0219
 8628SOL    HW137343   3.434   1.703   9.477  2.0786  1.1790  1.5812
 8628SOL    HW237344   3.356   1.593   9.525 -0.9052  2.7812  0.2090
 8629SOL     OW37345   0.840   0.210   2.297  0.3345  0.2004  0.4462
 8629SOL    HW137346   0.820   0.249   2.212  2.4122  1.3301  0.4788
 8629SOL    HW237347   0.767   0.240   2.352  0.4173  1.4941 -0.1548
 8630SOL     OW37348   0.839   4.598   6.282 -0.4150  0.1816 -0.2633
 8630SOL    HW137349   0.780   4.523   6.273  1.5231 -1.5067  1.0647
 8630SOL    HW237350   0.821   4.623   6.372  1.2796  0.7417 -0.0902
 8631SOL     OW37351   4.200   2.242   3.113 -0.0441 -0.0237 -0.6546
 8631SOL    HW137352   4.183   2.326   3.071 -0.0876  0.1135 -0.3667
 8631SOL    HW237353   4.114   2.201   3.108 -0.1998  0.1738  0.4138
 8632SOL     OW37354   0.805   2.189   3.928 -0.6472  0.0228  0.6593
 8632SOL    HW137355   0.866   2.178   4.001 -0.2639  0.3318  0.3885
 8632SOL    HW237356   0.874   2.175   3.863 -0.8462  0.2165  0.4055
 8633SOL     OW37357   4.088   1.975   4.316  0.3831 -0.2673  0.0053
 8633SOL    HW137358   4.049   1.977   4.403 -1.9875  2.7495 -1.1031
 8633SOL    HW237359   4.041   1.903   4.273  1.1689 -1.7952  1.7140
 8634SOL     OW37360   1.903   2.805   4.887  0.2627 -0.2809 -0.3068
 8634SOL    HW137361   1.929   2.841   4.803 -1.4287 -0.8095 -1.0652
 8634SOL    HW237362   1.908   2.710   4.874  1.8983 -0.3294  0.6237
 8635SOL     OW37363   0.821   2.150   1.674 -0.0869  0.1924  0.6659
 8635SOL    HW137364   0.852   2.202   1.748 -1.5727 -0.2181  1.5804
 8635SOL    HW237365   0.727   2.166   1.682 -0.3016 -0.0998 -1.3059
 8636SOL     OW37366   4.433   0.644   4.733 -0.1736  0.4108  0.1321
 8636SOL    HW137367   4.445   0.571   4.672 -1.1313 -1.4446  2.1559
 8636SOL    HW237368   4.344   0.622   4.761  0.4119  1.1865  2.5808
 8637SOL     OW37369   2.836   0.034  12.330 -0.2120 -0.2345 -0.5753
 8637SOL    HW137370   2.877   0.051  12.245 -1.1373  0.4088 -0.8997
 8637SOL    HW237371   2.742   0.054  12.325 -0.0636  0.5084 -0.3268
 8638SOL     OW37372   0.198   2.132  14.393  0.3912 -0.4295 -0.3951
 8638SOL    HW137373   0.144   2.113  14.470 -0.1649 -0.0392 -0.6895
 8638SOL    HW237374   0.201   2.228  14.392 -0.3732 -0.4253 -2.1368
 8639SOL     OW37375   0.504   0.406   7.509  0.1034 -0.3117  0.0577
 8639SOL    HW137376   0.425   0.420   7.562 -0.1831  0.9457 -0.6828
 8639SOL    HW237377   0.460   0.364   7.435  0.1607  0.6740 -0.5379
 8640SOL     OW37378   3.004   0.692   1.542 -0.1354  0.2555 -0.2468
 8640SOL    HW137379   3.080   0.657   1.495  1.6804  2.9897  0.6283
 8640SOL    HW237380   3.012   0.781   1.508  0.3176  0.8676  1.4620
 8641SOL     OW37381   2.658   1.613   5.175  0.2697  0.4709  0.3445
 8641SOL    HW137382   2.644   1.657   5.091  0.4495 -0.1770 -0.0227
 8641SOL    HW237383   2.656   1.524   5.139  0.2663  0.3821  0.5653
 8642SOL     OW37384   1.110   0.443   1.883  0.3332  0.3524  0.1932
 8642SOL    HW137385   1.126   0.399   1.800 -0.8461 -2.5375  1.5212
 8642SOL    HW237386   1.154   0.528   1.876 -0.9385  1.0325  0.2620
 8643SOL     OW37387   2.647   1.033   2.593 -0.3715  0.0512  0.6845
 8643SOL    HW137388   2.595   1.114   2.593  0.0684  0.3454 -1.7615
 8643SOL    HW237389   2.601   0.989   2.521  2.5944  3.1315 -3.1379
 8644SOL     OW37390   0.261   4.560   9.218 -0.5399 -0.6783 -0.1299
 8644SOL    HW137391   0.264   4.631   9.154  2.5838 -0.6563  0.0228
 8644SOL    HW237392   0.296   4.491   9.161 -0.6968  0.3592 -1.4783
 8645SOL     OW37393   3.034   4.451   3.174 -0.0536 -0.1138 -0.5603
 8645SOL    HW137394   3.091   4.467   3.098  0.5578  1.9702  0.3259
 8645SOL    HW237395   3.031   4.356   3.177  2.4358 -0.1291  0.8365
 8646SOL     OW37396   2.592   4.007   7.326 -0.0639 -0.7689 -0.3153
 8646SOL    HW137397   2.587   4.102   7.316  3.7580 -0.3620  1.7988
 8646SOL    HW237398   2.683   3.992   7.350 -0.3472 -0.7396  0.7995
 8647SOL     OW37399   0.637   1.614   0.141  0.2252  0.0228  0.5540
 8647SOL    HW137400   0.625   1.678   0.211  0.3715  0.5636  0.0911
 8647SOL    HW237401   0.547   1.590   0.118  0.1633  0.0057  0.8152
 8648SOL     OW37402   2.627   1.414   6.270  0.2352 -0.3947 -0.1771
 8648SOL    HW137403   2.596   1.371   6.190  1.0682 -1.7724  0.2360
 8648SOL    HW237404   2.551   1.465   6.295  0.4457 -0.3229  0.3112
 8649SOL     OW37405   3.308   1.934  13.767  0.0445 -0.1929  0.4987
 8649SOL    HW137406   3.341   2.020  13.743  2.2569 -1.0644  0.4026
 8649SOL    HW237407   3.302   1.945  13.862  0.2085  0.0247  0.4850
 8650SOL     OW37408   3.527   2.849   4.672 -0.9246  0.6635  0.1088
 8650SOL    HW137409   3.585   2.903   4.618  1.0559  0.3458  1.8952
 8650SOL    HW237410   3.560   2.767   4.636  0.1249  1.3860 -0.5615
 8651SOL     OW37411   3.466   1.442   8.950  0.3063 -0.3867  0.0903
 8651SOL    HW137412   3.495   1.375   8.889 -3.8706 -0.4074 -1.8718
 8651SOL    HW237413   3.435   1.518   8.902  2.1799 -1.2111 -2.3883
 8652SOL     OW37414   2.114   1.206  14.016  0.1531  0.1154  0.4441
 8652SOL    HW137415   2.095   1.292  14.052 -0.7099  0.3201 -0.5027
 8652SOL    HW237416   2.207   1.213  14.034  0.1461 -1.9750  1.3721
 8653SOL     OW37417   3.701   2.684   1.281  0.2650 -0.1204 -0.1294
 8653SOL    HW137418   3.661   2.670   1.366  0.5620  1.3482  0.2604
 8653SOL    HW237419   3.625   2.664   1.228 -1.1117  1.9723  1.0568
 8654SOL     OW37420   2.189   2.630   1.430  0.3848 -0.3301  0.5369
 8654SOL    HW137421   2.281   2.625   1.407 -0.4238  0.7501 -2.8764
 8654SOL    HW237422   2.146   2.630   1.345  0.1827 -3.2976  0.6465
 8655SOL     OW37423   1.480   3.818   9.764 -0.3792 -0.1626  0.2406
 8655SOL    HW137424   1.432   3.735   9.769 -0.7346  0.0037 -0.5390
 8655SOL    HW237425   1.542   3.790   9.698  1.4456 -0.8052  2.2358
 8656SOL     OW37426   3.946   0.785   3.772 -0.4478 -0.0917 -0.2741
 8656SOL    HW137427   4.010   0.830   3.826 -0.2659  0.5067 -0.9951
 8656SOL    HW237428   3.998   0.731   3.713  0.5568 -0.4854  0.9757
 8657SOL     OW37429   0.178   3.191   6.407  0.3349 -0.2125  0.6709
 8657SOL    HW137430   0.228   3.172   6.327 -1.0911  1.1415 -0.5369
 8657SOL    HW237431   0.172   3.286   6.401 -0.1077 -0.1674  1.7977
 8658SOL     OW37432   3.324   1.804   8.022 -0.1466 -0.3761  0.7303
 8658SOL    HW137433   3.330   1.821   7.928  0.4952 -0.3947  0.7670
 8658SOL    HW237434   3.416   1.791   8.045 -0.4947 -1.8904  1.2917
 8659SOL     OW37435   0.134   4.624   3.242 -0.1630  0.3127 -0.1409
 8659SOL    HW137436   0.120   4.655   3.152 -1.3271 -4.9811 -1.7622
 8659SOL    HW237437   0.125   4.530   3.225  0.6105  0.1382  0.3947
 8660SOL     OW37438   3.278   4.144  17.436 -0.4584 -0.0919  0.3254
 8660SOL    HW137439   3.331   4.132  17.358 -2.2361 -0.9162 -0.7614
 8660SOL    HW237440   3.343   4.146  17.506 -0.0374  0.6449 -0.0971
 8661SOL     OW37441   3.402   0.270   0.626 -0.6623  0.4926 -0.7753
 8661SOL    HW137442   3.338   0.339   0.642  1.4733  2.4482 -0.8523
 8661SOL    HW237443   3.482   0.301   0.668  0.7434 -2.0381 -1.5855
 8662SOL     OW37444   1.166   2.990   8.785  0.2916 -0.1160  0.4117
 8662SOL    HW137445   1.209   3.023   8.864  1.6317 -2.1715  0.5414
 8662SOL    HW237446   1.075   3.012   8.801  0.6423  1.8156 -0.1938
 8663SOL     OW37447   2.894   4.638   9.874 -0.0007  0.0858 -0.3532
 8663SOL    HW137448   2.870   4.575   9.807  0.0064 -1.1783  0.8294
 8663SOL    HW237449   2.816   4.651   9.928 -0.6985  1.5686 -1.7166
 8664SOL     OW37450   2.759   3.094   5.660  0.1755 -0.1608  0.4537
 8664SOL    HW137451   2.798   3.028   5.717  1.2689  0.5808  0.5749
 8664SOL    HW237452   2.778   3.176   5.706 -0.9442  0.3931 -0.0745
 8665SOL     OW37453   3.202   2.207   7.329 -0.0790  0.2113  0.2236
 8665SOL    HW137454   3.114   2.232   7.356 -1.6007 -2.0987 -2.5557
 8665SOL    HW237455   3.178   2.134   7.272  2.4397  0.8371 -1.6418
 8666SOL     OW37456   2.172   3.013   6.136  0.1552  0.2409  0.1346
 8666SOL    HW137457   2.197   3.056   6.054 -1.5460  1.9653  0.5090
 8666SOL    HW237458   2.218   3.059   6.206 -0.7977 -0.7450  1.4078
 8667SOL     OW37459   0.941   3.346  10.037 -0.5591  0.0070  0.5715
 8667SOL    HW137460   0.905   3.284  10.100  0.6359  0.2275  1.4697
 8667SOL    HW237461   0.935   3.429  10.084  1.0560  1.4936 -1.8523
 8668SOL     OW37462   2.192   3.548   2.192 -0.0575  0.7919  0.3385
 8668SOL    HW137463   2.187   3.456   2.164 -1.2525  0.2256  2.4350
 8668SOL    HW237464   2.189   3.536   2.287 -2.1111  1.1461  0.3005
 8669SOL     OW37465   4.634   1.073   4.800  0.3117  0.2012  0.4460
 8669SOL    HW137466   4.575   1.025   4.741 -0.4798  1.6293  0.0627
 8669SOL    HW237467   4.706   1.082   4.737 -0.7999 -0.3152 -0.9243
 8670SOL     OW37468   2.835   3.113  17.489 -0.0565 -0.3672 -0.5472
 8670SOL    HW137469   2.822   3.072  17.574  2.9551 -3.4482 -1.5992
 8670SOL    HW237470   2.797   3.045  17.433  0.6735 -0.2318 -1.2124
 8671SOL     OW37471   3.344   1.039  11.287  0.2506 -0.4767  0.0982
 8671SOL    HW137472   3.339   0.972  11.219  1.2560 -0.7523  0.3105
 8671SOL    HW237473   3.251   1.061  11.298  0.2776 -0.7278  0.7953
 8672SOL     OW37474   0.322   3.292   7.168  0.1046  0.7286  0.0948
 8672SOL    HW137475   0.242   3.344   7.171  0.1984  0.8111  1.5719
 8672SOL    HW237476   0.342   3.281   7.075 -0.2915 -0.8463  0.1938
 8673SOL     OW37477   3.375   2.340  17.473  0.0096 -0.1594 -0.1901
 8673SOL    HW137478   3.457   2.314  17.431  0.6674  1.0820  0.3097
 8673SOL    HW237479   3.347   2.259  17.516 -3.3847  0.7122 -0.7742
 8674SOL     OW37480   2.187   0.212  12.133  0.7313  0.1502 -0.6251
 8674SOL    HW137481   2.221   0.255  12.212  2.3384  0.7048 -1.6252
 8674SOL    HW237482   2.093   0.229  12.135  1.1961  2.5395  0.6863
 8675SOL     OW37483   1.823   0.355   1.866  0.4221  0.5801 -0.1224
 8675SOL    HW137484   1.734   0.358   1.900 -0.0416 -3.8136 -0.9444
 8675SOL    HW237485   1.829   0.444   1.830  0.3534  1.3361  1.7571
 8676SOL     OW37486   4.614   1.611   8.339 -0.3832  0.3490  0.0284
 8676SOL    HW137487   4.621   1.554   8.262 -2.4111  0.9837 -0.6253
 8676SOL    HW237488   4.694   1.661   8.320 -2.4308  3.5604 -0.2107
 8677SOL     OW37489   0.537   3.235   8.629  0.0963 -0.0728  0.0064
 8677SOL    HW137490   0.463   3.194   8.674 -1.2285 -0.4496 -2.5443
 8677SOL    HW237491   0.510   3.229   8.538 -0.7169 -0.2349  0.2582
 8678SOL     OW37492   1.574   0.654  15.169 -0.2715  0.5553 -0.3750
 8678SOL    HW137493   1.587   0.562  15.145  1.7867  1.1546 -1.5388
 8678SOL    HW237494   1.481   0.674  15.165 -0.3889  0.2108  0.7139
 8679SOL     OW37495   1.548   0.491  13.790  0.3497 -0.4754 -0.1408
 8679SOL    HW137496   1.607   0.550  13.838  1.9410 -3.0848  1.1387
 8679SOL    HW237497   1.606   0.420  13.762  1.8983  1.0999 -0.9768
 8680SOL     OW37498   1.091   4.551   5.477  0.1568 -0.3334  0.1180
 8680SOL    HW137499   1.102   4.543   5.382  0.9753  0.1588  0.1741
 8680SOL    HW237500   1.026   4.482   5.491 -0.9597  0.4534 -1.1154
 8681SOL     OW37501   2.296   4.143   8.044  0.6553 -0.0250  0.1979
 8681SOL    HW137502   2.283   4.183   8.130 -0.6586 -0.1721  0.0652
 8681SOL    HW237503   2.229   4.075   8.044 -1.1637  1.7762  0.4286
 8682SOL     OW37504   2.211   4.043   1.977  0.2997 -0.0177 -0.5480
 8682SOL    HW137505   2.243   4.020   1.890 -0.2582 -1.3401 -0.3974
 8682SOL    HW237506   2.250   3.971   2.026 -0.1611 -0.1917 -0.4321
 8683SOL     OW37507   2.270   3.939   7.527  0.1112 -0.4051  0.0741
 8683SOL    HW137508   2.314   3.915   7.446 -2.0530 -1.9386 -0.6628
 8683SOL    HW237509   2.322   4.017   7.548 -3.0580  1.7720 -0.1155
 8684SOL     OW37510   3.413   0.027  11.914 -0.2374 -0.8037 -0.1050
 8684SOL    HW137511   3.357   0.105  11.909 -1.9010 -1.8590  1.8060
 8684SOL    HW237512   3.401   4.721  12.004  0.1958  1.7015  0.8149
 8685SOL     OW37513   3.240   2.211   7.805  0.2041 -0.1606  0.2102
 8685SOL    HW137514   3.226   2.144   7.738 -0.1657 -0.3914  0.5114
 8685SOL    HW237515   3.197   2.163   7.876 -0.7419  1.5131  0.7677
 8686SOL     OW37516   1.581   3.645   7.499  0.8007 -0.5446 -0.3724
 8686SOL    HW137517   1.512   3.708   7.478  0.5621 -1.2333 -1.6329
 8686SOL    HW237518   1.657   3.692   7.463 -0.2279  1.1914 -0.2937
 8687SOL     OW37519   2.742   4.318   0.914 -0.4189 -0.3150  0.0375
 8687SOL    HW137520   2.709   4.238   0.874 -2.2367 -0.0185  0.9370
 8687SOL    HW237521   2.821   4.324   0.860 -0.8741  1.2040 -0.4728
 8688SOL     OW37522   3.266   4.120   6.161 -0.0712  0.3423 -0.2056
 8688SOL    HW137523   3.275   4.169   6.079  0.4542  0.5939 -0.0009
 8688SOL    HW237524   3.345   4.066   6.162  0.6565  1.4028  0.5878
 8689SOL     OW37525   0.156   1.018   5.965 -0.0596 -0.0424  0.0487
 8689SOL    HW137526   0.076   0.995   5.918  1.4852 -1.0409 -2.1124
 8689SOL    HW237527   0.161   0.947   6.029  4.1871  0.1454 -0.1136
 8690SOL     OW37528   3.143   1.264   2.133  0.0752  0.0400  0.8131
 8690SOL    HW137529   3.141   1.297   2.043  0.2984 -1.3070  0.3057
 8690SOL    HW237530   3.100   1.337   2.177 -0.0325 -0.6800  1.9070
 8691SOL     OW37531   1.257   3.463   8.356 -0.7435  0.6858 -0.1727
 8691SOL    HW137532   1.300   3.380   8.374 -1.1932  0.7265  1.1126
 8691SOL    HW237533   1.184   3.462   8.418 -1.1402 -0.4336 -0.6711
 8692SOL     OW37534   4.054   3.851  16.663 -0.3571  0.1751 -0.1078
 8692SOL    HW137535   4.117   3.884  16.599 -2.0705  0.6640 -1.5482
 8692SOL    HW237536   4.102   3.858  16.746  0.6135 -0.0014 -0.6530
 8693SOL     OW37537   4.469   1.471   4.833 -0.4878  0.3507  0.4751
 8693SOL    HW137538   4.535   1.433   4.775  0.4084  0.4983  1.4066
 8693SOL    HW237539   4.429   1.393   4.870 -0.4091  1.3905  2.7269
 8694SOL     OW37540   0.660   0.787   6.643 -0.0166 -0.2672  0.8591
 8694SOL    HW137541   0.677   0.773   6.550  1.2224  0.4627  0.9776
 8694SOL    HW237542   0.710   0.866   6.665 -1.3699  1.0998 -0.9716
 8695SOL     OW37543   2.947   3.122   1.657 -0.0209 -0.5799  0.1070
 8695SOL    HW137544   2.916   3.144   1.569  0.3804  2.2351  0.6827
 8695SOL    HW237545   2.864   3.122   1.706  0.0052  0.4036  0.1392
 8696SOL     OW37546   3.650   0.896   9.267 -0.0183 -0.1832  0.7816
 8696SOL    HW137547   3.663   0.978   9.313  0.2209  0.7549 -0.9478
 8696SOL    HW237548   3.674   0.937   9.183  2.6851 -0.8368  1.2239
 8697SOL     OW37549   3.025   1.616   3.255  0.7540  0.0663 -0.1437
 8697SOL    HW137550   3.093   1.655   3.200  0.4619 -2.4546 -2.2958
 8697SOL    HW237551   3.002   1.684   3.318 -1.1001  1.3594 -2.1926
 8698SOL     OW37552   3.318   3.433   5.821  0.4583  0.0881 -0.1734
 8698SOL    HW137553   3.232   3.422   5.861  1.0098 -0.8724  0.7660
 8698SOL    HW237554   3.311   3.526   5.800 -1.0967 -0.0393 -0.1804
 8699SOL     OW37555   0.820   3.256   6.090 -0.0751 -0.1130 -0.3438
 8699SOL    HW137556   0.898   3.269   6.036  0.9656 -1.1132  0.9108
 8699SOL    HW237557   0.752   3.288   6.031  0.0121 -0.6138 -0.7149
 8700SOL     OW37558   2.669   0.124   4.597 -0.1597 -0.0216 -0.2340
 8700SOL    HW137559   2.626   0.045   4.564 -0.0111  0.2628 -1.0999
 8700SOL    HW237560   2.762   0.099   4.596  0.0871  0.6897  3.2791
 8701SOL     OW37561   1.010   1.868   7.191  0.5220 -0.3255  0.2056
 8701SOL    HW137562   0.980   1.816   7.265 -0.0190 -0.5173 -0.1502
 8701SOL    HW237563   1.085   1.915   7.229  0.1265  0.9391 -0.5736
 8702SOL     OW37564   4.353   0.294   6.329  0.6982 -0.6727  0.4954
 8702SOL    HW137565   4.400   0.291   6.413  1.3824  1.9681  0.2129
 8702SOL    HW237566   4.281   0.356   6.343  1.4639  0.6180 -1.4071
 8703SOL     OW37567   3.919   2.396   1.419 -0.4486 -0.3934 -0.0096
 8703SOL    HW137568   3.893   2.358   1.336 -1.1481 -2.1212  0.9948
 8703SOL    HW237569   3.855   2.359   1.480 -2.2319  0.9781 -1.0598
 8704SOL     OW37570   0.777   1.214   0.956 -0.0224 -0.6130 -0.0692
 8704SOL    HW137571   0.814   1.180   0.875 -1.1374 -1.8193 -0.0702
 8704SOL    HW237572   0.827   1.294   0.973  1.6968 -1.2073 -2.3285
 8705SOL     OW37573   2.803   3.286   8.258 -0.6169 -0.1892 -0.6708
 8705SOL    HW137574   2.819   3.372   8.298 -0.7947  1.0589 -3.2881
 8705SOL    HW237575   2.855   3.226   8.311  1.5695  2.5245  0.2709
 8706SOL     OW37576   3.299   1.410   6.259 -0.0752  0.5752 -0.0785
 8706SOL    HW137577   3.304   1.315   6.249  1.0847  0.5195  1.0634
 8706SOL    HW237578   3.259   1.430   6.174 -1.1666 -2.7173 -0.3368
 8707SOL     OW37579   2.305   1.002   7.771  0.2578  0.5464 -0.0278
 8707SOL    HW137580   2.392   1.043   7.775  0.5676 -0.1247  0.2510
 8707SOL    HW237581   2.255   1.082   7.760 -1.5401 -0.4887  0.6687
 8708SOL     OW37582   3.513   4.268   4.333 -0.1129 -0.2748  0.2877
 8708SOL    HW137583   3.468   4.333   4.278 -1.2056  0.2225  1.7572
 8708SOL    HW237584   3.436   4.223   4.369 -0.3891 -0.0050  0.0317
 8709SOL     OW37585   2.981   3.291   5.830  0.0341  0.4726  0.1492
 8709SOL    HW137586   3.028   3.260   5.908 -0.2018  0.1012  0.1463
 8709SOL    HW237587   2.896   3.312   5.870 -0.4312  0.8708 -1.0430
 8710SOL     OW37588   3.196   4.484   6.106 -0.3327 -0.4852  0.1004
 8710SOL    HW137589   3.286   4.453   6.091  0.8079  3.1765 -0.5551
 8710SOL    HW237590   3.187   4.503   6.200  2.1240  2.0989 -0.1886
 8711SOL     OW37591   4.328   2.216  12.165 -0.1643 -0.2588  0.5372
 8711SOL    HW137592   4.236   2.189  12.161 -0.5696  1.0148  1.5048
 8711SOL    HW237593   4.343   2.209  12.259  1.0752  0.1274  0.3656
 8712SOL     OW37594   0.126   1.087   7.394 -0.1902 -0.3125  0.0218
 8712SOL    HW137595   0.050   1.034   7.373 -2.4357  3.7485 -2.0812
 8712SOL    HW237596   0.098   1.146   7.464  1.1720 -1.8134  1.8327
 8713SOL     OW37597   1.168   2.122   9.221  0.0749 -0.4896  0.2562
 8713SOL    HW137598   1.183   2.041   9.270  3.0518 -0.4080 -0.4973
 8713SOL    HW237599   1.079   2.147   9.246  0.0551  0.2049 -0.4989
 8714SOL     OW37600   3.467   2.384   9.520  0.1592  0.2019  0.6505
 8714SOL    HW137601   3.393   2.439   9.497  0.9590  1.9815  2.3027
 8714SOL    HW237602   3.476   2.419   9.609  0.7258 -0.8573  1.0181
 8715SOL     OW37603   2.752   1.028   7.403  0.3809 -0.4221  0.2751
 8715SOL    HW137604   2.765   1.083   7.480  0.5059  0.4600 -0.3735
 8715SOL    HW237605   2.733   0.942   7.443 -0.4272 -0.6021 -0.5039
 8716SOL     OW37606   4.459   2.329   3.839 -0.1346 -0.0567  0.2733
 8716SOL    HW137607   4.393   2.338   3.770  0.7502  1.5128 -0.3553
 8716SOL    HW237608   4.540   2.350   3.793  0.1123  1.3868  1.3842
 8717SOL     OW37609   2.758   2.639   0.528 -0.1784 -0.0439  0.1890
 8717SOL    HW137610   2.788   2.719   0.571 -0.2653  0.3481 -0.4760
 8717SOL    HW237611   2.837   2.596   0.496 -1.4180 -1.9628 -0.2827
 8718SOL     OW37612   4.590   2.388  13.128  0.3408  0.1966 -0.0557
 8718SOL    HW137613   4.626   2.474  13.108  0.0235  0.7260  1.5973
 8718SOL    HW237614   4.605   2.395  13.223 -0.0424 -1.0219  0.0897
 8719SOL     OW37615   2.671   3.103  15.511  0.3112  1.0890 -0.6736
 8719SOL    HW137616   2.740   3.055  15.465 -0.1586 -0.6082  0.3828
 8719SOL    HW237617   2.692   3.192  15.482  1.4021  1.4934  1.4061
 8720SOL     OW37618   1.254   0.177   7.882  0.4742  0.6363 -0.2969
 8720SOL    HW137619   1.209   0.261   7.870  2.2363  1.2625 -2.5921
 8720SOL    HW237620   1.244   0.134   7.797  0.3955 -0.9847  0.5348
 8721SOL     OW37621   1.226   0.051   4.712  0.0698 -0.3929 -0.4057
 8721SOL    HW137622   1.318   0.039   4.689  0.4053 -0.8224  1.1629
 8721SOL    HW237623   1.200   0.110   4.641  0.1180 -0.6676 -0.6500
 8722SOL     OW37624   0.266   3.058   7.288  0.3501  0.1654 -0.4946
 8722SOL    HW137625   0.239   3.033   7.200 -0.5238  1.7046 -0.6498
 8722SOL    HW237626   0.301   3.146   7.274  0.0577  0.6840  1.9011
 8723SOL     OW37627   1.914   3.126   6.726  0.4116 -0.1977 -0.1194
 8723SOL    HW137628   1.935   3.061   6.659  0.0290  0.0160 -0.4493
 8723SOL    HW237629   1.977   3.111   6.796  0.3326  0.7377  0.1564
 8724SOL     OW37630   0.160   1.736  15.972  0.0811  0.0097  0.2108
 8724SOL    HW137631   0.172   1.811  16.030  1.0582 -0.0894  0.1433
 8724SOL    HW237632   0.242   1.688  15.984  0.0495  0.0565  0.6358
 8725SOL     OW37633   4.529   0.150   2.749  0.0509  0.2491  0.1566
 8725SOL    HW137634   4.547   0.058   2.730  1.3338 -0.1175  3.0398
 8725SOL    HW237635   4.601   0.195   2.704  0.0649  1.6346  1.5587
 8726SOL     OW37636   0.605   2.501  10.589 -0.8112 -0.0979  0.3272
 8726SOL    HW137637   0.651   2.561  10.530 -1.2491 -0.6376 -0.5581
 8726SOL    HW237638   0.606   2.549  10.672  1.0455  0.6775 -0.1434
 8727SOL     OW37639   4.215   1.720  11.948 -0.4807 -0.3949 -0.0975
 8727SOL    HW137640   4.230   1.768  11.866 -1.5080 -0.3038 -0.2272
 8727SOL    HW237641   4.154   1.781  11.990  0.3127 -0.9499  1.8359
 8728SOL     OW37642   0.913   2.635  15.888 -0.3085  0.4542  0.5105
 8728SOL    HW137643   0.978   2.574  15.854  0.6961  0.8349  1.7603
 8728SOL    HW237644   0.903   2.596  15.975 -0.1455  0.3677  0.4896
 8729SOL     OW37645   3.719   0.411   8.656 -0.1097  0.0333  0.4413
 8729SOL    HW137646   3.675   0.398   8.740 -2.4533  2.4878 -0.3983
 8729SOL    HW237647   3.661   0.376   8.589  0.8402  1.4074 -1.0995
 8730SOL     OW37648   3.685   0.351   2.313 -0.3276  0.1641  0.4461
 8730SOL    HW137649   3.747   0.386   2.250  1.4321 -0.1260  2.0093
 8730SOL    HW237650   3.675   0.263   2.276  0.4531 -0.2322  1.1625
 8731SOL     OW37651   3.932   2.303   4.486 -1.0820 -0.0916 -0.1937
 8731SOL    HW137652   3.886   2.231   4.443  0.3142 -1.1336  0.0868
 8731SOL    HW237653   4.021   2.279   4.459 -0.6075  1.1205  0.3039
 8732SOL     OW37654   2.418   0.308  10.188 -0.2052 -0.1912  0.2087
 8732SOL    HW137655   2.486   0.297  10.254  0.6662 -1.9866 -0.9896
 8732SOL    HW237656   2.466   0.273  10.113 -1.4972  0.1635 -0.7860
 8733SOL     OW37657   0.864   3.864   1.725  0.1907 -0.1449 -0.5479
 8733SOL    HW137658   0.915   3.846   1.646  1.2240 -1.0649  0.3351
 8733SOL    HW237659   0.829   3.775   1.728  1.2584 -0.6026 -1.5210
 8734SOL     OW37660   4.270   2.784   3.729  0.0793  0.3715 -1.2551
 8734SOL    HW137661   4.229   2.796   3.815 -1.3318 -0.8509 -1.7547
 8734SOL    HW237662   4.351   2.826   3.756 -0.3325  0.1586  0.3374
 8735SOL     OW37663   0.844   2.858  12.688  0.7820  0.2046 -0.2949
 8735SOL    HW137664   0.887   2.774  12.700  1.7632  0.8151  0.4461
 8735SOL    HW237665   0.762   2.817  12.662 -0.5409  1.6635  1.5251
 8736SOL     OW37666   2.348   1.993   9.099 -0.1850 -0.2813  0.1145
 8736SOL    HW137667   2.313   1.905   9.087 -0.7846  0.2579 -2.1588
 8736SOL    HW237668   2.437   1.994   9.061  0.3458 -1.2220  1.3424
 8737SOL     OW37669   0.166   3.550  15.845  0.1120 -0.8414  0.1832
 8737SOL    HW137670   0.170   3.527  15.938  1.2258  0.2944  0.4190
 8737SOL    HW237671   0.147   3.642  15.858  0.7671 -0.3331 -2.3681
 8738SOL     OW37672   0.297   3.372  12.104  0.5020  0.0632 -0.1650
 8738SOL    HW137673   0.287   3.300  12.166  0.2118 -0.7339 -1.1435
 8738SOL    HW237674   0.292   3.447  12.163  1.3784  0.8741 -1.1089
 8739SOL     OW37675   2.078   1.869  12.436 -0.1190  0.2367 -0.4052
 8739SOL    HW137676   2.037   1.929  12.373 -1.0997  1.0326  0.9868
 8739SOL    HW237677   2.133   1.939  12.470  2.4977 -2.3808  0.7116
 8740SOL     OW37678   0.285   1.501   6.694  0.0387  0.1227  0.2529
 8740SOL    HW137679   0.349   1.436   6.663 -0.0587 -1.0723  2.6087
 8740SOL    HW237680   0.208   1.472   6.646 -1.0815  3.1675  0.1971
 8741SOL     OW37681   0.052   0.589   8.227  0.1411 -0.1704  0.4767
 8741SOL    HW137682   0.031   0.495   8.225 -1.6140  0.2284  0.2785
 8741SOL    HW237683   4.689   0.620   8.212  0.0543 -0.8976 -0.5961
 8742SOL     OW37684   3.754   0.770   7.022 -0.2892  0.4571 -0.2165
 8742SOL    HW137685   3.750   0.694   7.080 -3.4857  1.3851  0.7537
 8742SOL    HW237686   3.848   0.774   7.007 -0.0709  0.8341  1.2572
 8743SOL     OW37687   4.571   4.015  11.359 -0.4876  0.1593 -0.5070
 8743SOL    HW137688   4.531   4.084  11.305 -0.1431  0.1661 -0.7583
 8743SOL    HW237689   4.658   4.054  11.358 -0.9735  1.2503  3.3939
 8744SOL     OW37690   4.680   0.716   5.404  0.2036  0.0585  0.4871
 8744SOL    HW137691   4.685   0.725   5.309 -0.0614 -0.4984  0.4208
 8744SOL    HW237692   0.031   0.768   5.426  1.1644 -1.5419  0.9575
 8745SOL     OW37693   1.737   2.697   7.179 -0.1676  0.2106  0.3918
 8745SOL    HW137694   1.719   2.701   7.273  0.0516  0.5650  0.4191
 8745SOL    HW237695   1.825   2.658   7.184  0.5062  1.6242 -0.3466
 8746SOL     OW37696   1.174   1.502   1.904  0.2878  0.4286 -0.3789
 8746SOL    HW137697   1.127   1.472   1.827  0.0252  0.6939 -0.3186
 8746SOL    HW237698   1.155   1.596   1.900 -0.2573  0.4841  4.0892
 8747SOL     OW37699   4.493   1.174   3.180 -0.1950  0.4008  0.5683
 8747SOL    HW137700   4.529   1.086   3.169  0.2966  0.5272  1.2229
 8747SOL    HW237701   4.575   1.225   3.183 -1.0072  1.7130  0.5399
 8748SOL     OW37702   4.682   3.273   3.704  0.2671  0.5050 -0.1081
 8748SOL    HW137703   4.702   3.366   3.715 -0.1091  0.4051  1.3491
 8748SOL    HW237704   4.634   3.243   3.781  3.1354  1.3993  1.9878
 8749SOL     OW37705   0.873   1.544   6.991  0.2952  0.5454  0.0386
 8749SOL    HW137706   0.856   1.605   6.920  0.0466  0.4475  0.0138
 8749SOL    HW237707   0.959   1.580   7.012  0.0816 -0.7299  3.1496
 8750SOL     OW37708   2.120   1.661   7.698 -0.1914 -0.0434 -0.5496
 8750SOL    HW137709   2.188   1.638   7.761 -0.7351  1.5510  0.6188
 8750SOL    HW237710   2.104   1.755   7.710 -0.0122 -0.2003  0.9150
 8751SOL     OW37711   3.133   2.826   5.652  0.1216  0.0108 -0.0602
 8751SOL    HW137712   3.180   2.886   5.710  3.9660 -0.8470 -2.2932
 8751SOL    HW237713   3.155   2.878   5.575 -0.3815  0.5217  0.1404
 8752SOL     OW37714   2.113   2.228   3.578 -0.3003 -0.0711 -0.4197
 8752SOL    HW137715   2.189   2.287   3.572 -0.7729  0.6186  0.4043
 8752SOL    HW237716   2.045   2.290   3.604  0.5508  0.3421  0.8168
 8753SOL     OW37717   0.582   0.429   5.766 -0.1364  0.2514  0.2610
 8753SOL    HW137718   0.563   0.437   5.672 -1.5057  0.2882  0.5336
 8753SOL    HW237719   0.671   0.395   5.762  0.0132  0.8814 -1.7068
 8754SOL     OW37720   0.779   3.986   1.394 -0.1164 -0.1813  0.0369
 8754SOL    HW137721   0.836   3.961   1.321 -0.6831 -1.9649  0.1955
 8754SOL    HW237722   0.831   4.060   1.425  2.5823 -2.5382  1.1835
 8755SOL     OW37723   2.123   0.645  13.219 -0.4532  0.0470  0.4455
 8755SOL    HW137724   2.105   0.633  13.126  1.5343 -1.3328  0.2278
 8755SOL    HW237725   2.183   0.575  13.246 -0.8886 -1.0876 -1.5275
 8756SOL     OW37726   3.478   3.771   2.930 -0.4220 -0.5044 -0.2635
 8756SOL    HW137727   3.555   3.799   2.881 -0.9852  0.0469 -0.8224
 8756SOL    HW237728   3.522   3.726   3.002 -0.2208  0.2330  0.0727
 8757SOL     OW37729   3.546   0.340   4.577  0.2122  0.4084 -0.0523
 8757SOL    HW137730   3.511   0.277   4.640 -0.0643 -0.2449 -0.8636
 8757SOL    HW237731   3.464   0.365   4.533 -0.7495 -2.5723  0.0405
 8758SOL     OW37732   1.530   3.205  17.317  0.2486  0.5744 -0.1667
 8758SOL    HW137733   1.510   3.162  17.234 -0.5012  0.9904 -0.2023
 8758SOL    HW237734   1.545   3.128  17.372 -1.8410  0.9872  0.9849
 8759SOL     OW37735   1.040   1.488   6.275  0.6895 -0.1547 -0.0406
 8759SOL    HW137736   1.021   1.581   6.281 -0.7404 -0.3110 -2.1251
 8759SOL    HW237737   0.993   1.447   6.348  0.3805  0.3727  0.0572
 8760SOL     OW37738   2.789   1.369  12.033 -0.0729  0.2878  0.1619
 8760SOL    HW137739   2.802   1.275  12.023 -0.4434  0.1316  1.1671
 8760SOL    HW237740   2.833   1.386  12.117 -0.4209  2.5907 -0.1090
 8761SOL     OW37741   4.085   2.543   4.774  0.5535  0.2621 -0.3078
 8761SOL    HW137742   4.047   2.577   4.693 -0.8925 -1.6251 -0.4042
 8761SOL    HW237743   4.176   2.574   4.774  1.4291 -2.2882 -1.5793
 8762SOL     OW37744   0.158   2.793  16.929  0.6261  0.0394 -0.0060
 8762SOL    HW137745   0.176   2.870  16.984 -3.8090  1.5938 -0.7292
 8762SOL    HW237746   0.080   2.822  16.881  1.7441  0.0554 -1.8112
 8763SOL     OW37747   4.313   3.465   5.432  0.0740 -0.3263 -0.3486
 8763SOL    HW137748   4.335   3.452   5.524 -1.4009  0.7426  0.1534
 8763SOL    HW237749   4.269   3.385   5.403 -3.1344  0.9477  1.0820
 8764SOL     OW37750   3.219   0.463  10.861 -0.0780 -0.5374 -0.7086
 8764SOL    HW137751   3.164   0.483  10.937  1.9701  0.3972  0.5278
 8764SOL    HW237752   3.297   0.512  10.886 -0.6889  0.0113  0.1639
 8765SOL     OW37753   4.268   0.111   7.558 -0.3157  0.1403  0.4632
 8765SOL    HW137754   4.284   0.192   7.510 -1.0732 -0.5549 -0.9712
 8765SOL    HW237755   4.268   0.056   7.480 -0.9630  0.0178  0.5521
 8766SOL     OW37756   2.652   2.443   1.778 -0.2081 -0.3053 -0.1687
 8766SOL    HW137757   2.685   2.530   1.797 -1.6791  0.2555 -0.2212
 8766SOL    HW237758   2.680   2.427   1.687  2.0995 -0.9571  0.6598
 8767SOL     OW37759   1.431   1.136  13.357  0.4598  0.4667  0.3265
 8767SOL    HW137760   1.499   1.147  13.423 -0.6758 -1.6662  1.8778
 8767SOL    HW237761   1.457   1.050  13.323  0.2956  0.0497  1.2437
 8768SOL     OW37762   0.283   1.484   5.844 -0.2857  0.5239 -0.2616
 8768SOL    HW137763   0.215   1.417   5.839 -1.5377  1.7716  0.1037
 8768SOL    HW237764   0.330   1.462   5.924 -2.7038 -0.3073  0.9478
 8769SOL     OW37765   2.794   3.288   2.706 -0.1408  0.4887  0.0801
 8769SOL    HW137766   2.846   3.290   2.786  0.8743  1.1116 -0.5893
 8769SOL    HW237767   2.704   3.287   2.739  0.2081 -0.5035  0.9906
 8770SOL     OW37768   1.012   2.188   8.333  0.1267 -0.1922 -0.4568
 8770SOL    HW137769   1.070   2.170   8.407  0.1407 -0.0885 -0.4424
 8770SOL    HW237770   0.928   2.175   8.377  0.1777 -0.5638 -0.4699
 8771SOL     OW37771   2.203   2.692   6.054  0.2638  0.1882  0.3481
 8771SOL    HW137772   2.271   2.683   5.988 -0.2023 -2.3223  0.2242
 8771SOL    HW237773   2.200   2.601   6.084  1.6475 -0.0746 -0.3450
 8772SOL     OW37774   4.585   2.013   9.772  0.3738  0.4931 -0.3369
 8772SOL    HW137775   4.550   2.097   9.799 -0.8508 -0.1587  0.1233
 8772SOL    HW237776   4.607   1.975   9.858 -0.4986  0.5641 -0.0853
 8773SOL     OW37777   4.627   0.413   4.680  0.4586  0.3181 -0.2264
 8773SOL    HW137778   4.599   0.322   4.676 -0.5119  0.5226  2.0378
 8773SOL    HW237779   4.635   0.421   4.775 -0.4145 -2.1743  0.0581
 8774SOL     OW37780   0.292   2.027  16.842  0.4377  0.2138 -0.2724
 8774SOL    HW137781   0.278   1.938  16.809  2.1311 -0.5126  0.9759
 8774SOL    HW237782   0.209   2.047  16.884 -0.6479 -2.0335 -1.3675
 8775SOL     OW37783   3.666   2.788  11.551 -0.0421 -0.0091  0.1745
 8775SOL    HW137784   3.747   2.742  11.575 -0.3148 -0.9960 -0.8190
 8775SOL    HW237785   3.690   2.879  11.537  1.0548 -0.3170  0.0304
 8776SOL     OW37786   3.773   2.064  14.546  0.6105  0.3280 -0.1974
 8776SOL    HW137787   3.853   2.074  14.495  0.5008 -3.3593 -1.1097
 8776SOL    HW237788   3.715   2.045  14.472  0.4972 -1.2640  0.2898
 8777SOL     OW37789   3.490   4.382   6.109  0.0469  0.1571 -0.3858
 8777SOL    HW137790   3.537   4.328   6.045 -1.1989 -1.7083  0.2846
 8777SOL    HW237791   3.564   4.442   6.118  0.8959 -0.9206 -0.1513
 8778SOL     OW37792   3.033   2.248   9.320 -0.4737 -0.5142 -0.0711
 8778SOL    HW137793   3.099   2.187   9.286 -1.7442 -0.2683 -2.9852
 8778SOL    HW237794   3.042   2.213   9.408 -1.9040  1.3881  0.8028
 8779SOL     OW37795   0.203   2.989   7.031 -0.6310  0.3879 -0.4647
 8779SOL    HW137796   0.201   3.019   6.941  1.8004  0.4986 -0.4807
 8779SOL    HW237797   0.167   2.900   7.028 -0.2406  0.1207  2.7430
 8780SOL     OW37798   2.394   3.461   6.211  0.2110  0.9256  1.0040
 8780SOL    HW137799   2.440   3.387   6.252 -1.1173  0.6183  1.9166
 8780SOL    HW237800   2.421   3.524   6.278  0.0453  1.6656  0.3778
 8781SOL     OW37801   2.186   0.358  16.184 -0.0598  0.0884 -0.0610
 8781SOL    HW137802   2.103   0.316  16.162 -0.2509 -0.5217  1.8168
 8781SOL    HW237803   2.158   0.427  16.244 -0.1020  0.8121 -0.9227
 8782SOL     OW37804   0.668   0.790   3.373  0.5456 -0.4828  0.0127
 8782SOL    HW137805   0.669   0.826   3.462  0.0811 -0.7350  0.1252
 8782SOL    HW237806   0.597   0.725   3.372  1.2979 -1.2642 -1.5739
 8783SOL     OW37807   1.243   2.308   6.525 -0.0746  0.2317 -0.0138
 8783SOL    HW137808   1.272   2.242   6.461  0.2576 -1.2155  1.6297
 8783SOL    HW237809   1.237   2.387   6.471  0.4846 -0.9364 -1.7806
 8784SOL     OW37810   4.392   2.017   7.418 -0.1280 -0.0328  0.0284
 8784SOL    HW137811   4.356   2.002   7.330  0.8965  0.0155 -0.4102
 8784SOL    HW237812   4.345   1.951   7.469 -0.1027 -0.0942 -0.0259
 8785SOL     OW37813   0.698   3.987  11.717  0.5311 -0.1062 -0.2895
 8785SOL    HW137814   0.790   3.995  11.692 -0.2454  3.8797 -1.7865
 8785SOL    HW237815   0.681   4.065  11.769  0.3690 -0.6115  0.4230
 8786SOL     OW37816   0.661   4.395   6.222 -0.2676 -0.0553 -0.5584
 8786SOL    HW137817   0.590   4.457   6.236 -0.2084 -0.0059 -0.4782
 8786SOL    HW237818   0.657   4.351   6.307 -0.2912 -0.0968 -0.5809
 8787SOL     OW37819   0.347   3.368   7.804  0.1765  0.0439  0.3697
 8787SOL    HW137820   0.332   3.313   7.727 -1.5100  1.9383 -0.6796
 8787SOL    HW237821   0.394   3.439   7.761  1.3434 -0.7385  0.3690
 8788SOL     OW37822   3.118   3.083  10.530  0.6887 -0.7582  0.4562
 8788SOL    HW137823   3.058   3.016  10.563 -0.8560  0.1223 -0.5424
 8788SOL    HW237824   3.160   3.111  10.611  0.4459 -0.7304  0.5701
 8789SOL     OW37825   2.958   3.438  10.102 -0.1611 -0.0632  0.1707
 8789SOL    HW137826   2.875   3.486  10.096  0.0380  0.3673  0.8509
 8789SOL    HW237827   2.955   3.405  10.012 -0.2179 -1.2139  0.5862
 8790SOL     OW37828   0.821   3.691   8.905 -1.0462  0.1114  0.3594
 8790SOL    HW137829   0.874   3.770   8.910  0.1232 -0.6088 -0.3361
 8790SOL    HW237830   0.891   3.629   8.882 -2.7248 -1.1479 -1.3723
 8791SOL     OW37831   2.363   2.305  11.504 -0.2451 -0.2444 -0.9896
 8791SOL    HW137832   2.450   2.341  11.489 -0.1432  0.7713  2.0135
 8791SOL    HW237833   2.324   2.391  11.518  1.0823  0.3272 -0.7813
 8792SOL     OW37834   3.268   3.496   4.705  0.3224  0.4148  0.7182
 8792SOL    HW137835   3.217   3.431   4.753 -1.1896  0.7802 -0.3553
 8792SOL    HW237836   3.342   3.446   4.671 -0.8598 -1.3476  0.7191
 8793SOL     OW37837   4.452   2.817   1.904  0.2335 -0.2703 -0.0176
 8793SOL    HW137838   4.494   2.900   1.923  1.7281 -0.9572 -0.3294
 8793SOL    HW237839   4.378   2.816   1.965 -0.1953  1.5182 -0.5337
 8794SOL     OW37840   4.485   0.786  17.519  0.3599  0.3963 -0.7145
 8794SOL    HW137841   4.449   0.728  17.587  1.7844  0.0502 -0.2526
 8794SOL    HW237842   4.515   0.858  17.574 -1.2963  1.9201 -1.8214
 8795SOL     OW37843   1.587   3.704   5.607  0.0145 -0.2213 -0.4666
 8795SOL    HW137844   1.621   3.643   5.672  0.3670 -0.3231 -0.7434
 8795SOL    HW237845   1.665   3.738   5.562 -0.1865 -1.1102 -1.4908
 8796SOL     OW37846   2.434   3.729  15.492 -0.2624  0.2248 -0.7328
 8796SOL    HW137847   2.359   3.738  15.433 -1.6415  1.1363  1.1676
 8796SOL    HW237848   2.413   3.801  15.551 -2.2210 -1.4985  0.7053
 8797SOL     OW37849   0.923   1.850   3.546 -0.3040 -0.0342  0.0049
 8797SOL    HW137850   0.897   1.758   3.557 -0.7823  0.1490  0.3927
 8797SOL    HW237851   0.847   1.894   3.585 -0.6729 -1.8832  1.3771
 8798SOL     OW37852   3.753   1.374  15.744  0.2211 -0.1209 -0.6840
 8798SOL    HW137853   3.705   1.453  15.771  2.6344  0.9385  0.5594
 8798SOL    HW237854   3.746   1.383  15.649 -1.1711  0.8681 -0.4939
 8799SOL     OW37855   4.136   1.788  11.442  0.2074 -0.0766  0.1376
 8799SOL    HW137856   4.184   1.725  11.388 -0.3825  1.2028 -1.8993
 8799SOL    HW237857   4.053   1.744  11.462  0.8375 -1.0976  0.4678
 8800SOL     OW37858   1.302   2.500  10.063 -0.2311  0.5105  0.6073
 8800SOL    HW137859   1.381   2.458  10.098  0.0849  0.9290  0.3915
 8800SOL    HW237860   1.266   2.429  10.010  3.0095 -0.5566 -0.1649
 8801SOL     OW37861   3.199   1.264   4.447 -0.0539 -0.4619  0.4334
 8801SOL    HW137862   3.188   1.359   4.448 -1.1938 -0.6074  1.7112
 8801SOL    HW237863   3.115   1.253   4.402  0.2182 -0.1571 -0.1644
 8802SOL     OW37864   3.770   1.628   6.063  0.2272  0.0124  0.3696
 8802SOL    HW137865   3.843   1.583   6.106  0.7330  0.0892 -0.4093
 8802SOL    HW237866   3.771   1.708   6.116  0.2736 -1.4418  2.5380
 8803SOL     OW37867   0.102   0.978   3.950  0.4574  0.0578 -0.1448
 8803SOL    HW137868   0.107   1.064   3.992 -3.0911  0.9662 -1.6251
 8803SOL    HW237869   0.147   0.984   3.866  0.7361 -0.6527 -0.0484
 8804SOL     OW37870   0.044   2.970  17.420 -0.1526  0.2655 -0.4420
 8804SOL    HW137871   4.723   3.037  17.371 -0.3496  2.4899  2.7687
 8804SOL    HW237872   0.040   3.011  17.506  1.4798  3.3390 -1.8593
 8805SOL     OW37873   2.082   2.019  10.564  0.1583 -0.5485  0.8562
 8805SOL    HW137874   2.128   1.951  10.613 -0.5745  0.3350  2.7823
 8805SOL    HW237875   1.997   1.977  10.579  0.0260 -0.4855  0.2814
 8806SOL     OW37876   3.060   3.184   9.686  0.1772  0.4051 -0.0600
 8806SOL    HW137877   3.146   3.214   9.716 -0.1552  0.3567  0.9483
 8806SOL    HW237878   3.077   3.150   9.599  2.5914  2.4313 -0.3849
 8807SOL     OW37879   1.203   0.095   1.542  0.1336  0.1031  0.2149
 8807SOL    HW137880   1.289   0.062   1.516  0.1972 -0.1059  0.6841
 8807SOL    HW237881   1.153   0.081   1.462 -0.3782  3.0710  0.0228
 8808SOL     OW37882   0.711   0.081   3.383  0.0979 -0.4498 -0.3510
 8808SOL    HW137883   0.753   0.007   3.427 -1.8710 -0.3694  1.6617
 8808SOL    HW237884   0.617   0.070   3.398 -0.0882  0.1532 -1.0632
 8809SOL     OW37885   3.080   2.589   7.540 -0.3047  0.3280  0.0274
 8809SOL    HW137886   3.080   2.676   7.579  0.7300  0.4220 -0.1784
 8809SOL    HW237887   3.173   2.575   7.523 -0.1505  1.0673  0.3016
 8810SOL     OW37888   1.615   4.584   5.161  0.2563  0.7702 -0.2983
 8810SOL    HW137889   1.583   4.624   5.081  0.0703  0.6270 -0.2938
 8810SOL    HW237890   1.534   4.576   5.211  1.3332  0.5785  1.4231
 8811SOL     OW37891   4.627   3.770   2.685  0.0616 -0.6837  0.1675
 8811SOL    HW137892   4.535   3.786   2.661 -0.1903 -0.8785  0.9961
 8811SOL    HW237893   4.612   3.706   2.754 -0.4071  0.0146  0.7253
 8812SOL     OW37894   3.982   0.568   3.600  0.0982 -0.0009 -0.3554
 8812SOL    HW137895   4.072   0.548   3.624 -0.1360 -1.8834 -1.0297
 8812SOL    HW237896   3.973   0.527   3.514 -1.9357  0.3803 -0.3285
 8813SOL     OW37897   3.639   2.289   8.204  0.1727  0.0651 -0.2414
 8813SOL    HW137898   3.705   2.305   8.272 -0.6756 -2.0221  1.0784
 8813SOL    HW237899   3.642   2.364   8.145  0.0357  1.2548  1.2853
 8814SOL     OW37900   3.663   1.124   3.281  0.4239 -0.0990 -0.1244
 8814SOL    HW137901   3.669   1.103   3.375 -0.4905  0.3452  0.0352
 8814SOL    HW237902   3.569   1.107   3.274  0.5935 -1.5079  0.9257
 8815SOL     OW37903   0.591   3.766   4.668 -0.0868 -0.0575 -0.4233
 8815SOL    HW137904   0.568   3.786   4.758  1.5321 -1.6289  0.3295
 8815SOL    HW237905   0.506   3.788   4.631 -0.7992 -0.5181  0.9584
 8816SOL     OW37906   2.957   0.794  15.433 -0.1333 -0.0885  0.6795
 8816SOL    HW137907   2.905   0.737  15.376  0.4507 -0.0609  0.1103
 8816SOL    HW237908   2.914   0.808  15.517  0.1293  0.2710  0.7542
 8817SOL     OW37909   4.158   2.458   5.907  0.2103 -0.1070 -0.6026
 8817SOL    HW137910   4.107   2.447   5.988  2.1326 -0.6231  0.5594
 8817SOL    HW237911   4.147   2.367   5.877 -1.2260 -0.6166  1.4788
 8818SOL     OW37912   0.629   0.826   1.733 -0.1576 -0.7117 -0.1202
 8818SOL    HW137913   0.649   0.846   1.824 -2.1579 -0.1360  0.1907
 8818SOL    HW237914   0.545   0.871   1.727  1.6177  2.6431  0.1076
 8819SOL     OW37915   3.616   3.161   8.012  0.6242 -0.2333 -0.4101
 8819SOL    HW137916   3.533   3.181   8.055 -0.4321 -1.3716 -1.9359
 8819SOL    HW237917   3.657   3.247   8.024 -2.0305  0.7887  1.3331
 8820SOL     OW37918   2.686   0.833   4.164  1.0873  0.2199  0.0262
 8820SOL    HW137919   2.750   0.763   4.180 -1.3601 -1.9513  0.1980
 8820SOL    HW237920   2.619   0.782   4.118  0.8357  0.4750  0.1132
 8821SOL     OW37921   1.350   4.719  12.209  0.0906  1.0324 -0.1180
 8821SOL    HW137922   1.415   0.063  12.203  1.4941 -0.3401 -1.0274
 8821SOL    HW237923   1.384   4.678  12.289  0.3132  2.9890  0.7747
 8822SOL     OW37924   0.134   1.321   5.519 -0.4366  0.0279 -0.6267
 8822SOL    HW137925   0.088   1.283   5.445 -1.2456  0.4336 -0.3278
 8822SOL    HW237926   0.083   1.282   5.590 -0.7939 -0.7157 -1.2995
 8823SOL     OW37927   2.219   0.033  14.367  0.0042 -0.4587 -0.3579
 8823SOL    HW137928   2.307   4.718  14.369 -1.1716 -3.0713 -0.7288
 8823SOL    HW237929   2.159   4.714  14.427  2.1099 -4.0157 -0.8285
 8824SOL     OW37930   2.587   2.069   5.366 -0.3342  0.5610 -0.1352
 8824SOL    HW137931   2.584   2.155   5.324  2.4056  0.1668 -1.1698
 8824SOL    HW237932   2.672   2.036   5.336  0.1268  1.5735  0.0291
 8825SOL     OW37933   1.636   3.935   6.325 -0.6363  0.1899 -0.3892
 8825SOL    HW137934   1.592   3.855   6.354 -0.7604 -1.2767 -4.5853
 8825SOL    HW237935   1.726   3.904   6.321 -0.2633  1.7130 -3.5033
 8826SOL     OW37936   2.900   3.099   2.431 -0.3811  0.1616 -0.5449
 8826SOL    HW137937   2.915   3.025   2.372  1.5612  0.9143 -1.0014
 8826SOL    HW237938   2.926   3.062   2.515  1.8999  1.1903 -0.7945
 8827SOL     OW37939   1.738   0.851   1.524 -0.6182  0.3730 -0.7028
 8827SOL    HW137940   1.686   0.900   1.588 -1.3966  1.3457 -2.0807
 8827SOL    HW237941   1.813   0.910   1.521 -0.0056 -0.2888  1.2977
 8828SOL     OW37942   1.386   0.675   8.189 -0.1707  0.0641 -0.0388
 8828SOL    HW137943   1.402   0.745   8.252 -0.6964  1.4427 -1.4607
 8828SOL    HW237944   1.308   0.712   8.148  0.4759  0.4684 -0.9063
 8829SOL     OW37945   2.781   3.958   8.761  0.3123 -0.2601 -0.0272
 8829SOL    HW137946   2.705   3.905   8.786  0.1620  0.2331  0.5516
 8829SOL    HW237947   2.850   3.903   8.797  1.0645 -0.2558 -1.4625
 8830SOL     OW37948   3.893   2.611  11.612 -0.3405  0.4216 -0.2866
 8830SOL    HW137949   3.867   2.524  11.643  3.3322 -0.9127 -0.8584
 8830SOL    HW237950   3.942   2.589  11.532  0.8324  0.4899  0.4162
 8831SOL     OW37951   3.550   1.550  12.843 -0.0588  0.5138 -0.2199
 8831SOL    HW137952   3.610   1.479  12.864 -0.3551  0.5637  0.7866
 8831SOL    HW237953   3.466   1.527  12.882  0.8843 -2.9481 -0.2409
 8832SOL     OW37954   1.897   0.602   6.350 -0.1716 -0.0032  0.2065
 8832SOL    HW137955   1.991   0.599   6.336 -0.0122 -1.0765  1.4486
 8832SOL    HW237956   1.893   0.532   6.415 -0.2624 -0.0609  0.1379
 8833SOL     OW37957   3.024   2.668   2.793  0.2983  0.4135 -0.0539
 8833SOL    HW137958   2.986   2.584   2.818 -2.8492  1.8967  0.2357
 8833SOL    HW237959   3.017   2.720   2.873  0.7182  1.5479 -0.7634
 8834SOL     OW37960   3.301   1.907   5.113 -0.1635 -0.2210  0.2062
 8834SOL    HW137961   3.382   1.877   5.073 -0.1250 -1.9666  1.6078
 8834SOL    HW237962   3.263   1.821   5.133  1.8182 -1.3754 -1.0750
 8835SOL     OW37963   0.176   4.316   9.096  0.2532 -0.1743  0.5086
 8835SOL    HW137964   0.224   4.260   9.035  1.1798  2.3260 -1.0566
 8835SOL    HW237965   0.097   4.264   9.106 -0.7139  1.6654  2.5781
 8836SOL     OW37966   4.398   4.332   3.762  0.0249  0.0214  0.2251
 8836SOL    HW137967   4.333   4.271   3.797 -1.0360  0.5989 -0.7409
 8836SOL    HW237968   4.347   4.392   3.708  0.1506 -1.7056 -1.7970
 8837SOL     OW37969   2.644   0.228   9.808 -0.2433  0.0484 -0.2519
 8837SOL    HW137970   2.731   0.240   9.847 -0.5541 -0.1285  0.5054
 8837SOL    HW237971   2.667   0.222   9.716 -1.0976 -1.0056 -0.3979
 8838SOL     OW37972   2.954   3.358   2.927 -0.0469  0.1525  0.0606
 8838SOL    HW137973   3.002   3.369   3.009 -0.6983 -1.8231  0.7090
 8838SOL    HW237974   3.026   3.326   2.873  0.6994  0.8106  0.6789
 8839SOL     OW37975   2.835   0.345   2.400 -0.4854  0.3044 -0.2497
 8839SOL    HW137976   2.841   0.261   2.354  1.4988  0.5345 -0.3944
 8839SOL    HW237977   2.923   0.382   2.397  0.0771 -1.1084 -1.0872
 8840SOL     OW37978   2.674   3.227  11.900 -0.2560  0.2875  0.7947
 8840SOL    HW137979   2.620   3.305  11.884 -1.8474 -1.1636 -0.9305
 8840SOL    HW237980   2.737   3.214  11.829  1.6964 -0.4079  2.6820
 8841SOL     OW37981   2.702   0.185   3.227 -0.5804 -0.3624 -0.6201
 8841SOL    HW137982   2.763   0.239   3.177  0.9365  0.7288  2.3771
 8841SOL    HW237983   2.731   0.103   3.187 -1.9573 -1.5704  0.8813
 8842SOL     OW37984   3.807   1.004   1.255 -0.2446  0.2667 -0.3804
 8842SOL    HW137985   3.776   1.033   1.170 -0.8946  1.1185  0.1455
 8842SOL    HW237986   3.854   0.925   1.228  0.2495 -0.2236  1.8999
 8843SOL     OW37987   1.767   0.040   1.839  0.0398  0.0586 -0.6737
 8843SOL    HW137988   1.698   0.077   1.784 -1.4585 -0.3196  0.9299
 8843SOL    HW237989   1.847   0.069   1.796  0.0640 -1.0940 -1.3772
 8844SOL     OW37990   3.247   2.681  11.594 -0.5556 -0.7968 -0.1829
 8844SOL    HW137991   3.265   2.642  11.508  2.7864  0.4590 -0.0228
 8844SOL    HW237992   3.200   2.610  11.637  0.1065 -1.7646 -1.0475
 8845SOL     OW37993   2.415   3.380  13.246 -0.0193  0.3249 -0.1303
 8845SOL    HW137994   2.399   3.474  13.250 -0.8673  0.1697  0.2351
 8845SOL    HW237995   2.457   3.364  13.162  0.3298 -0.2811  0.1619
 8846SOL     OW37996   1.357   1.855   5.947 -0.3764  0.2159 -0.0193
 8846SOL    HW137997   1.423   1.878   5.882 -0.2851  1.4169  0.4893
 8846SOL    HW237998   1.341   1.945   5.975 -2.9200  0.2156 -1.4458
 8847SOL     OW37999   0.773   2.402   5.502  0.2012 -0.4431  0.3787
 8847SOL    HW138000   0.769   2.458   5.424  0.6822 -2.3027 -0.9963
 8847SOL    HW238001   0.858   2.359   5.492  0.5183  0.1708  0.4328
 8848SOL     OW38002   3.118   0.901   1.385  0.0771 -0.0595  0.0201
 8848SOL    HW138003   3.077   0.894   1.299  1.8056 -1.9784 -0.6306
 8848SOL    HW238004   3.212   0.898   1.369  0.9128 -0.8506  4.8291
 8849SOL     OW38005   3.976   2.037   3.082 -0.2678  0.3458  0.5494
 8849SOL    HW138006   3.931   1.954   3.093 -1.8595  1.3198  1.4300
 8849SOL    HW238007   3.919   2.076   3.016  0.5390  2.4756  1.0973
 8850SOL     OW38008   3.576   1.586   5.885 -0.7787 -0.6679 -0.8625
 8850SOL    HW138009   3.627   1.587   5.966 -0.5643 -0.5616 -0.9968
 8850SOL    HW238010   3.557   1.679   5.875 -0.6181 -0.4410  0.9636
 8851SOL     OW38011   0.078   4.540   6.202 -0.0058  0.0720  0.5356
 8851SOL    HW138012   0.138   4.539   6.127 -1.3035  0.2962 -0.4895
 8851SOL    HW238013   0.020   4.615   6.195 -0.8526 -0.7453 -1.5068
 8852SOL     OW38014   1.919   4.061   4.346  0.3484 -0.0452  0.7500
 8852SOL    HW138015   1.839   4.074   4.295  1.6496 -0.2123 -1.3554
 8852SOL    HW238016   1.977   4.017   4.284 -0.9704 -0.3245 -0.2838
 8853SOL     OW38017   1.552   0.308   1.962  0.1847 -0.3147 -0.3954
 8853SOL    HW138018   1.476   0.292   2.019 -0.5128  0.3869 -1.1297
 8853SOL    HW238019   1.545   0.243   1.893 -1.2278 -1.1292  0.5035
 8854SOL     OW38020   2.107   1.645   1.217  1.0130 -0.4369  0.3631
 8854SOL    HW138021   2.133   1.725   1.171  0.3371 -0.1172  0.5412
 8854SOL    HW238022   2.153   1.575   1.172  2.1458 -0.8338  2.1510
 8855SOL     OW38023   0.805   3.608   2.746  0.3459 -0.5213  0.7146
 8855SOL    HW138024   0.797   3.525   2.698  0.6482  0.1223 -0.4519
 8855SOL    HW238025   0.838   3.579   2.831  2.0026 -0.7183 -0.0041
 8856SOL     OW38026   0.804   0.214   9.295 -0.0241  0.8206  0.2837
 8856SOL    HW138027   0.750   0.135   9.303  0.0714  0.7066 -0.1769
 8856SOL    HW238028   0.766   0.243   9.212  0.6727  1.0384  0.0423
 8857SOL     OW38029   4.148   3.308   4.721 -0.5232 -0.0167  0.2035
 8857SOL    HW138030   4.155   3.223   4.766 -3.5554  0.5503  1.8048
 8857SOL    HW238031   4.115   3.282   4.636 -1.5403  0.1850  0.5305
 8858SOL     OW38032   0.938   4.074   3.985  0.0243 -0.0451  0.2502
 8858SOL    HW138033   0.956   4.101   4.075  1.3301 -0.8034  0.2091
 8858SOL    HW238034   0.865   4.133   3.967  0.9392  1.1613  0.4972
 8859SOL     OW38035   4.082   1.267  10.662 -0.8143 -0.0068 -0.4516
 8859SOL    HW138036   4.095   1.336  10.727 -0.8293  0.4055 -0.8878
 8859SOL    HW238037   4.016   1.299  10.601 -2.8071 -1.0401  1.1602
 8860SOL     OW38038   2.263   3.640   7.748  0.1107 -0.1781 -0.1164
 8860SOL    HW138039   2.313   3.567   7.713  0.5906  0.7507 -1.3407
 8860SOL    HW238040   2.216   3.580   7.807  0.3074 -0.9906 -0.7871
 8861SOL     OW38041   0.647   2.004   2.683  0.5957  0.6063  0.3620
 8861SOL    HW138042   0.681   2.093   2.673  0.8710  0.4577  0.0061
 8861SOL    HW238043   0.656   2.008   2.779 -0.0619 -0.7434  0.4798
 8862SOL     OW38044   2.067   1.489   8.859  0.4877 -0.2799 -0.1375
 8862SOL    HW138045   2.063   1.475   8.953  2.4036  0.3474  0.0348
 8862SOL    HW238046   2.153   1.459   8.830 -0.5594 -3.2479 -0.1805
 8863SOL     OW38047   2.319   2.899  14.994 -0.0459 -0.3668 -0.3186
 8863SOL    HW138048   2.258   2.843  14.946 -0.2505 -3.3133  3.3756
 8863SOL    HW238049   2.383   2.830  15.011  0.9399  0.6277  0.0250
 8864SOL     OW38050   4.419   0.267   6.992  0.8774 -0.8402  0.0979
 8864SOL    HW138051   4.401   0.239   6.902 -0.2202  0.1923  0.0081
 8864SOL    HW238052   4.432   0.183   7.035 -1.0931  0.3314  2.9768
 8865SOL     OW38053   1.173   1.718   3.521  0.3522  0.6179 -0.2524
 8865SOL    HW138054   1.140   1.755   3.603  0.7260  0.2515  0.0621
 8865SOL    HW238055   1.095   1.664   3.509 -0.8276  2.5768 -1.3712
 8866SOL     OW38056   4.682   2.946   8.797 -0.0381 -0.0273 -0.2299
 8866SOL    HW138057   4.685   2.902   8.713 -1.1683  1.8080 -1.2399
 8866SOL    HW238058   0.049   2.954   8.818 -0.6578  1.6259  1.9495
 8867SOL     OW38059   3.051   0.714   1.158 -0.2540 -0.2549 -0.0632
 8867SOL    HW138060   2.967   0.682   1.189  0.2578 -0.1647  1.3886
 8867SOL    HW238061   3.025   0.694   1.068  0.6437  1.8504 -0.8003
 8868SOL     OW38062   2.802   2.152   2.199 -0.1303  0.2428  0.1344
 8868SOL    HW138063   2.808   2.211   2.124  3.9127  1.7438  1.6434
 8868SOL    HW238064   2.708   2.144   2.216 -0.0959  1.6110  1.0571
 8869SOL     OW38065   2.639   2.173  13.925 -0.4311 -0.4955 -0.0619
 8869SOL    HW138066   2.615   2.218  13.845 -1.5731  1.0035  1.1328
 8869SOL    HW238067   2.734   2.183  13.935 -0.5785 -0.1002  0.9806
 8870SOL     OW38068   0.256   0.928   2.645 -0.2814 -0.6459 -0.1656
 8870SOL    HW138069   0.193   0.984   2.599  0.5328 -0.0187 -0.5182
 8870SOL    HW238070   0.191   0.899   2.709 -1.9238  1.1464 -1.0336
 8871SOL     OW38071   4.304   3.127   6.917 -0.0551  0.5143 -0.5646
 8871SOL    HW138072   4.220   3.094   6.951  0.4638 -0.2033  0.0126
 8871SOL    HW238073   4.301   3.087   6.830 -1.0515 -0.0700 -0.2608
 8872SOL     OW38074   0.359   2.486  10.435 -0.2132 -0.0518 -0.0876
 8872SOL    HW138075   0.397   2.569  10.405  1.7482 -0.9949 -0.2446
 8872SOL    HW238076   0.425   2.462  10.500  0.5895 -0.4109 -1.0377
 8873SOL     OW38077   1.961   4.189   2.233 -0.0845 -0.0995 -0.1493
 8873SOL    HW138078   1.953   4.094   2.245 -0.2016  0.0519  0.9961
 8873SOL    HW238079   1.955   4.225   2.321  0.9829  0.4802 -0.3188
 8874SOL     OW38080   4.641   3.627   2.315  0.4220 -0.2138 -0.0673
 8874SOL    HW138081   4.590   3.708   2.316  1.2931  0.3211  1.5413
 8874SOL    HW238082   4.579   3.570   2.269  0.4753 -0.9250  0.7480
 8875SOL     OW38083   1.981   4.207   1.939 -0.6512  0.4653  0.2307
 8875SOL    HW138084   1.988   4.180   1.847  0.7451  0.9883  0.1797
 8875SOL    HW238085   2.030   4.134   1.977 -0.3813  0.6926  0.3216
 8876SOL     OW38086   3.010   2.194   3.428 -0.0531  0.3934 -0.0879
 8876SOL    HW138087   2.983   2.102   3.418 -0.8988  0.6591 -0.2969
 8876SOL    HW238088   3.063   2.186   3.507 -0.4525  0.9628  0.2362
 8877SOL     OW38089   2.076   0.749   7.640  0.0271 -0.2941 -0.0237
 8877SOL    HW138090   2.133   0.691   7.689  2.4429 -0.2321 -2.7671
 8877SOL    HW238091   2.028   0.680   7.595 -3.0278  1.2866  0.8181
 8878SOL     OW38092   0.554   3.866  11.957 -0.0022 -0.4774  0.2695
 8878SOL    HW138093   0.621   3.876  11.889 -0.0058  0.1561  0.3559
 8878SOL    HW238094   0.486   3.930  11.937 -1.8509 -1.8186  2.1882
 8879SOL     OW38095   0.969   0.976  14.842 -0.2741 -0.1506 -0.1304
 8879SOL    HW138096   0.979   0.945  14.752  0.2124 -0.3826  0.0023
 8879SOL    HW238097   1.047   1.028  14.862  1.0683 -1.8868 -0.8804
 8880SOL     OW38098   0.734   1.977   7.764 -0.1622 -0.0214 -0.3360
 8880SOL    HW138099   0.677   2.046   7.728  3.5108  2.6554 -1.0047
 8880SOL    HW238100   0.779   1.945   7.686 -0.3189 -0.7364 -0.1358
 8881SOL     OW38101   3.301   0.270  17.389 -0.1552 -0.1431  0.0945
 8881SOL    HW138102   3.250   0.307  17.461 -1.9199 -1.8657 -0.2874
 8881SOL    HW238103   3.278   0.177  17.389  0.7942 -0.3745 -2.3053
 8882SOL     OW38104   0.455   0.564   6.986 -0.2338 -0.0163  0.0331
 8882SOL    HW138105   0.430   0.597   6.900  0.7000 -0.7233 -0.5045
 8882SOL    HW238106   0.476   0.477   6.953 -1.3221 -0.8520  1.5150
 8883SOL     OW38107   3.513   3.697  16.020  0.5276 -0.3404  0.4484
 8883SOL    HW138108   3.562   3.663  16.095  0.9131  1.3902  0.9931
 8883SOL    HW238109   3.447   3.759  16.053  0.9865  1.0434 -1.2036
 8884SOL     OW38110   3.207   4.381   5.707  0.1167  0.0307 -0.1395
 8884SOL    HW138111   3.114   4.404   5.718  0.7168  0.7928  3.5695
 8884SOL    HW238112   3.249   4.465   5.727  1.1193 -0.0585 -1.9497
 8885SOL     OW38113   1.026   3.748   4.117 -0.3397  0.1982 -0.1043
 8885SOL    HW138114   0.959   3.784   4.059 -0.2317  1.0882  0.3170
 8885SOL    HW238115   0.968   3.745   4.193 -2.1819  2.3597 -1.4142
 8886SOL     OW38116   2.588   0.219   6.802 -0.2012  0.1464 -0.7024
 8886SOL    HW138117   2.659   0.273   6.767 -0.2461  1.0978  0.7015
 8886SOL    HW238118   2.571   0.274   6.878 -0.9704  1.0336 -1.5178
 8887SOL     OW38119   1.621   4.403   6.162 -0.0078  0.1399  0.4719
 8887SOL    HW138120   1.593   4.494   6.173  1.3712  0.2163  3.2726
 8887SOL    HW238121   1.594   4.358   6.242  0.0147 -0.1993  0.2907
 8888SOL     OW38122   4.356   0.884   3.479  1.2155  0.0312 -0.0151
 8888SOL    HW138123   4.329   0.830   3.554  0.1248 -0.7680 -0.9721
 8888SOL    HW238124   4.364   0.810   3.418 -0.2275 -0.0484 -0.0920
 8889SOL     OW38125   4.239   0.455   4.638  0.2718 -0.3418  0.1596
 8889SOL    HW138126   4.279   0.390   4.581  0.9716  0.9480 -0.8166
 8889SOL    HW238127   4.231   0.417   4.725 -1.1077 -0.1489  0.1173
 8890SOL     OW38128   1.371   1.782   1.792  0.3537  0.0972  0.0678
 8890SOL    HW138129   1.449   1.803   1.741 -0.0796 -2.1680 -1.5286
 8890SOL    HW238130   1.320   1.863   1.791 -1.0950 -0.8121  1.1392
 8891SOL     OW38131   2.453   1.526   1.276  0.4849 -0.3569 -0.3028
 8891SOL    HW138132   2.530   1.523   1.219  1.3846  0.4393  0.8573
 8891SOL    HW238133   2.394   1.462   1.237 -1.4643  1.4170 -0.2454
 8892SOL     OW38134   0.078   2.774   1.341  0.5874  0.0940 -0.3757
 8892SOL    HW138135   0.004   2.810   1.293  0.0818  0.7796  0.9335
 8892SOL    HW238136   0.146   2.826   1.298 -0.2931  0.3042 -1.5224
 8893SOL     OW38137   3.588   3.391   3.295  0.0600 -0.2333  0.0784
 8893SOL    HW138138   3.674   3.402   3.335  0.2389 -0.2439 -0.3018
 8893SOL    HW238139   3.524   3.400   3.366 -0.1166 -2.3047  0.1838
 8894SOL     OW38140   0.245   3.189  16.679  0.0312 -0.3576  0.5276
 8894SOL    HW138141   0.164   3.154  16.717  0.7168 -0.7116  1.6472
 8894SOL    HW238142   0.240   3.144  16.595  0.8800  0.7028 -0.0946
 8895SOL     OW38143   4.504   3.706  10.192  0.3070 -0.1194 -0.2981
 8895SOL    HW138144   4.467   3.781  10.146 -0.6141  0.4386  1.3793
 8895SOL    HW238145   4.440   3.638  10.172 -0.2483 -0.0324  1.2039
 8896SOL     OW38146   0.487   1.555   2.166  0.0749 -0.1103 -0.2180
 8896SOL    HW138147   0.398   1.575   2.137  0.4695 -1.2103 -2.1231
 8896SOL    HW238148   0.520   1.528   2.080 -0.9305 -0.1462 -0.5870
 8897SOL     OW38149   4.000   0.162   4.385 -0.0433 -0.2567  0.3951
 8897SOL    HW138150   4.001   0.257   4.385  2.7856 -0.2788 -2.3291
 8897SOL    HW238151   3.912   0.146   4.419 -1.5550  2.8734 -2.1555
 8898SOL     OW38152   2.536   4.247  14.701  0.2405 -0.0879  0.4046
 8898SOL    HW138153   2.621   4.249  14.745  1.2848  0.1760 -1.6470
 8898SOL    HW238154   2.515   4.339  14.684 -0.2266 -0.1530  0.6041
 8899SOL     OW38155   2.071   1.515  12.010 -0.7859  0.0094  0.1199
 8899SOL    HW138156   2.081   1.556  12.095 -1.5673  0.8755 -0.2077
 8899SOL    HW238157   2.130   1.569  11.957  0.1401 -0.0566  1.0896
 8900SOL     OW38158   1.354   1.000  10.190 -0.8173 -0.0305  0.0331
 8900SOL    HW138159   1.260   1.015  10.183 -0.5812  1.0424 -0.7139
 8900SOL    HW238160   1.375   0.969  10.102 -0.7626 -0.6116  0.2527
 8901SOL     OW38161   1.771   3.018  13.730 -0.5606 -0.2821 -0.2928
 8901SOL    HW138162   1.783   2.924  13.744 -1.6009 -0.4887 -0.7940
 8901SOL    HW238163   1.863   3.035  13.709 -0.1569 -1.9606  0.1226
 8902SOL     OW38164   1.778   0.684   9.005 -1.1682 -0.0800  0.1376
 8902SOL    HW138165   1.709   0.716   9.063 -0.5031  1.0939  0.2839
 8902SOL    HW238166   1.836   0.760   8.996  2.0331 -2.1903  2.8771
 8903SOL     OW38167   0.227   2.848  16.097  0.4728  0.4522  0.5178
 8903SOL    HW138168   0.194   2.801  16.174  0.7249  0.6398  0.7413
 8903SOL    HW238169   0.322   2.836  16.103  1.0325  3.9402 -1.0489
 8904SOL     OW38170   2.046   3.170   2.846  0.0604 -0.7351  0.3794
 8904SOL    HW138171   2.088   3.086   2.827  0.2495 -0.3200 -1.0500
 8904SOL    HW238172   2.040   3.220   2.765  1.4181  1.1511  1.4254
 8905SOL     OW38173   0.232   4.452   2.359  0.1126  0.3433 -0.0568
 8905SOL    HW138174   0.181   4.455   2.278 -3.8034  0.8774  2.4400
 8905SOL    HW238175   0.234   4.547   2.371  0.1105  0.0527  2.1742
 8906SOL     OW38176   0.215   0.146   9.328  0.2538  0.2554  0.0136
 8906SOL    HW138177   0.266   0.187   9.258  1.2409 -0.1583  0.5048
 8906SOL    HW238178   0.161   0.086   9.277 -1.2836  1.8480 -0.2352
 8907SOL     OW38179   0.012   2.813   8.538 -0.1716 -0.0799  0.4428
 8907SOL    HW138180   4.720   2.727   8.498 -1.7240  1.1432 -1.5116
 8907SOL    HW238181   0.100   2.837   8.508 -1.4025  1.4182 -1.9146
 8908SOL     OW38182   1.204   1.045   8.763 -0.4711 -0.0629  0.2246
 8908SOL    HW138183   1.130   0.987   8.746 -1.7280  1.0850  1.7744
 8908SOL    HW238184   1.225   1.017   8.853 -0.4823 -2.7748 -0.6149
 8909SOL     OW38185   3.710   0.769  10.181 -0.2066  0.5972 -0.0717
 8909SOL    HW138186   3.746   0.685  10.208  0.0590  0.5919 -0.4411
 8909SOL    HW238187   3.766   0.826  10.234 -0.1447  1.7670 -1.3729
 8910SOL     OW38188   0.684   3.341   7.206 -0.1038  0.1727  1.4474
 8910SOL    HW138189   0.682   3.245   7.207 -2.0562  0.1863 -1.7338
 8910SOL    HW238190   0.725   3.355   7.120  0.8698 -0.2518  1.8292
 8911SOL     OW38191   0.531   3.582  17.640  0.3133  0.0883 -0.2957
 8911SOL    HW138192   0.610   3.532  17.661  0.4737  1.5618  2.6021
 8911SOL    HW238193   0.546   3.656  17.699  0.6519  0.5051 -0.9054
 8912SOL     OW38194   2.182   3.915   3.910  0.1606 -0.2254  0.8936
 8912SOL    HW138195   2.222   3.961   3.835  0.5656 -0.3915  1.0075
 8912SOL    HW238196   2.147   3.843   3.858  1.0415 -1.4480  2.0030
 8913SOL     OW38197   3.961   1.600   7.040  0.3188 -0.1269  0.0754
 8913SOL    HW138198   3.998   1.671   6.988 -2.0620  1.7328  0.9491
 8913SOL    HW238199   3.982   1.519   6.992  2.3646 -1.0119  2.4531
 8914SOL     OW38200   4.082   4.600   5.257  0.1358 -0.5178  0.3405
 8914SOL    HW138201   4.122   4.568   5.176 -1.9778 -0.9954 -0.5111
 8914SOL    HW238202   3.998   4.624   5.218  1.2303 -1.8970 -2.8319
 8915SOL     OW38203   1.283   1.947  12.259  0.0098  0.3030 -0.2403
 8915SOL    HW138204   1.233   2.027  12.246 -0.9989 -0.4393 -0.8910
 8915SOL    HW238205   1.363   1.965  12.209  0.1935  1.4980  0.4915
 8916SOL     OW38206   3.524   0.892   9.546  0.0006  0.6402 -0.1619
 8916SOL    HW138207   3.479   0.929   9.623  1.5732 -0.4493  1.2815
 8916SOL    HW238208   3.615   0.921   9.546  0.2792 -0.2280  1.6335
 8917SOL     OW38209   3.339   0.447   9.071 -0.3267 -0.4607 -0.1357
 8917SOL    HW138210   3.396   0.444   8.994 -1.0225 -0.5686 -0.6492
 8917SOL    HW238211   3.375   0.527   9.108  0.1181 -0.0688 -1.4192
 8918SOL     OW38212   2.548   2.053   2.325  0.2970  0.2043  0.2205
 8918SOL    HW138213   2.603   1.979   2.351  1.1490  1.1885  1.2188
 8918SOL    HW238214   2.460   2.019   2.340  1.0169 -2.1998 -0.9841
 8919SOL     OW38215   3.681   2.341   8.657  0.0550 -0.8151 -0.2880
 8919SOL    HW138216   3.607   2.381   8.703  0.0794 -0.9275 -0.1496
 8919SOL    HW238217   3.758   2.396   8.670 -1.1444  1.0847 -1.2746
 8920SOL     OW38218   1.519   2.559   5.166 -0.8506  1.2383  0.3267
 8920SOL    HW138219   1.540   2.624   5.099 -0.3457  1.8371  1.0658
 8920SOL    HW238220   1.607   2.528   5.187 -1.0519  1.3563  1.3528
 8921SOL     OW38221   3.036   1.160   5.903 -0.1351  0.3258 -0.0368
 8921SOL    HW138222   2.966   1.163   5.969  0.8896 -1.1101  1.1052
 8921SOL    HW238223   3.118   1.169   5.952  0.4632 -0.0347 -0.9896
 8922SOL     OW38224   1.537   2.229   2.606 -0.0136 -0.5875 -0.4241
 8922SOL    HW138225   1.580   2.312   2.586  1.3685 -1.5606 -1.5571
 8922SOL    HW238226   1.576   2.197   2.688 -2.5512 -0.1883  0.9084
 8923SOL     OW38227   1.910   1.997  12.224 -0.3361 -0.1133 -0.2945
 8923SOL    HW138228   1.977   2.000  12.156 -0.3222 -1.0211 -0.3292
 8923SOL    HW238229   1.851   1.925  12.199 -1.5840  0.2931  1.4420
 8924SOL     OW38230   0.778   2.496  13.053 -0.0348 -0.2324  0.1618
 8924SOL    HW138231   0.740   2.529  12.972 -0.6347  2.3895  1.5092
 8924SOL    HW238232   0.699   2.503  13.106  0.3765 -1.7519  0.9719
 8925SOL     OW38233   1.509   1.245   3.653  0.0564  0.0138 -0.1446
 8925SOL    HW138234   1.434   1.263   3.595 -1.4293 -0.4810  1.6319
 8925SOL    HW238235   1.467   1.228   3.737  1.2259  1.8665  0.8311
 8926SOL     OW38236   2.478   0.448  16.210 -0.4673  0.0975  0.1304
 8926SOL    HW138237   2.426   0.528  16.208  0.5692  0.7833  0.6110
 8926SOL    HW238238   2.399   0.395  16.194  0.2294 -0.3902 -1.6718
 8927SOL     OW38239   0.641   1.089  12.733 -0.3948  0.3495 -0.2044
 8927SOL    HW138240   0.664   1.176  12.701 -0.1798 -0.2653 -1.7242
 8927SOL    HW238241   0.705   1.078  12.803  0.6606  0.4910 -1.1629
 8928SOL     OW38242   0.957   2.445   3.718  0.1089 -0.2262  0.5588
 8928SOL    HW138243   0.969   2.395   3.637 -1.1572  0.6512 -0.1665
 8928SOL    HW238244   0.972   2.380   3.787  0.0701  0.2047  0.9740
 8929SOL     OW38245   3.070   1.162   1.770 -0.4538 -0.3103 -0.0643
 8929SOL    HW138246   3.029   1.138   1.687  1.1644 -1.3676 -0.5642
 8929SOL    HW238247   3.138   1.094   1.780 -0.2618 -0.3240 -1.4286
 8930SOL     OW38248   1.232   0.562   3.298 -0.3605  0.1573  0.5691
 8930SOL    HW138249   1.283   0.622   3.245 -3.2482  1.9008 -0.2461
 8930SOL    HW238250   1.199   0.509   3.226  1.4823 -1.4764  0.9413
 8931SOL     OW38251   2.728   1.499   3.925 -0.2569 -0.0813  0.0050
 8931SOL    HW138252   2.820   1.499   3.954  0.0949 -0.8125 -1.1056
 8931SOL    HW238253   2.718   1.594   3.921  0.2573 -0.0321 -0.1427
 8932SOL     OW38254   2.838   0.269   7.903  0.7055  0.1385 -0.6219
 8932SOL    HW138255   2.828   0.363   7.887  0.4989  0.2705  0.3016
 8932SOL    HW238256   2.818   0.258   7.996  0.7394  1.0772 -0.5043
 8933SOL     OW38257   3.188   2.471   0.126  0.5726  0.4233 -0.5830
 8933SOL    HW138258   3.269   2.500   0.169  0.5119  0.0455 -0.2066
 8933SOL    HW238259   3.134   2.454   0.204  1.6678 -0.2683  0.0176
 8934SOL     OW38260   3.565   1.327   9.447  0.3921  0.1475 -0.2648
 8934SOL    HW138261   3.584   1.417   9.471  1.3972 -0.3281  0.7266
 8934SOL    HW238262   3.525   1.335   9.361  0.1974  4.3348  0.2531
 8935SOL     OW38263   2.627   3.687   6.932 -0.2470 -0.0158 -0.1187
 8935SOL    HW138264   2.680   3.713   7.007  2.8619 -0.8898 -2.0003
 8935SOL    HW238265   2.552   3.745   6.938  1.6617  2.4031  0.2113
 8936SOL     OW38266   2.948   2.107   4.803  0.2069 -0.2197 -0.1381
 8936SOL    HW138267   2.980   2.085   4.891 -1.5531  0.1412  0.5890
 8936SOL    HW238268   2.859   2.139   4.816  0.1507  0.0635 -1.2821
 8937SOL     OW38269   3.383   4.494   7.999  0.2517 -0.4745  0.4609
 8937SOL    HW138270   3.302   4.545   7.996  0.6936  0.3183  2.3741
 8937SOL    HW238271   3.350   4.406   7.983  0.1400 -1.0096  3.7387
 8938SOL     OW38272   2.001   1.364   4.355  0.0226 -0.0420  0.1543
 8938SOL    HW138273   1.943   1.396   4.286  0.7174 -1.9061 -1.3159
 8938SOL    HW238274   2.075   1.423   4.349  0.3305 -0.4226  0.1959
 8939SOL     OW38275   0.848   2.661   9.526  0.0270  0.1396 -0.0591
 8939SOL    HW138276   0.883   2.670   9.614  2.1748  0.8476 -1.0047
 8939SOL    HW238277   0.851   2.749   9.489  0.2153 -0.5370 -1.6506
 8940SOL     OW38278   2.127   4.394  10.028  0.3797 -0.4146 -0.3719
 8940SOL    HW138279   2.193   4.365   9.965  0.5527 -0.9492  0.0505
 8940SOL    HW238280   2.047   4.384   9.977  0.3202  0.5602 -0.4707
 8941SOL     OW38281   3.379   3.055  15.586  0.7253 -0.0809 -0.0570
 8941SOL    HW138282   3.346   3.120  15.525 -0.3580  1.0244  1.7301
 8941SOL    HW238283   3.473   3.068  15.569  1.0361 -2.1014  0.0729
 8942SOL     OW38284   2.320   1.338   2.130 -0.8633  0.3769  0.2819
 8942SOL    HW138285   2.389   1.330   2.063 -1.5688 -0.3726 -0.3650
 8942SOL    HW238286   2.316   1.433   2.137  0.5723  0.3879  0.8564
 8943SOL     OW38287   0.566   0.608   0.056  0.0896  0.2283 -0.5683
 8943SOL    HW138288   0.561   0.534   0.117  0.5997  0.8220  0.1781
 8943SOL    HW238289   0.564   0.675   0.124  2.0158  1.6218 -1.8955
 8944SOL     OW38290   2.426   0.059  13.647  0.1679  0.1300 -0.0619
 8944SOL    HW138291   2.493   0.002  13.686 -0.0693 -0.6716 -0.8091
 8944SOL    HW238292   2.358   0.052  13.714 -0.0858  1.5452 -0.1725
 8945SOL     OW38293   2.613   3.048   2.530 -0.5622  0.1573 -0.5345
 8945SOL    HW138294   2.578   3.037   2.442 -0.9437  3.5734 -0.8340
 8945SOL    HW238295   2.703   3.076   2.512 -0.6087  0.3569 -0.4616
 8946SOL     OW38296   0.545   0.926   5.180 -0.1155 -0.5064 -0.4857
 8946SOL    HW138297   0.572   0.888   5.097 -1.2562 -0.5817 -0.8241
 8946SOL    HW238298   0.450   0.912   5.177 -0.2647  0.7282 -1.5470
 8947SOL     OW38299   1.328   2.352   7.233 -0.0390 -0.1412 -0.1569
 8947SOL    HW138300   1.306   2.386   7.146  0.5546 -2.5876 -1.2696
 8947SOL    HW238301   1.362   2.428   7.282  0.2858 -0.5797  0.3023
 8948SOL     OW38302   1.444   0.452  10.662  0.0677  0.5644 -0.3835
 8948SOL    HW138303   1.380   0.398  10.708  0.6508 -0.5732 -0.9243
 8948SOL    HW238304   1.378   0.510  10.624  0.3948  0.4416 -1.1340
 8949SOL     OW38305   1.489   4.321   0.180 -0.3083  0.2427 -0.6622
 8949SOL    HW138306   1.479   4.353   0.090  0.4653  1.9852 -0.1407
 8949SOL    HW238307   1.576   4.283   0.170 -0.6137 -0.5906 -0.1476
 8950SOL     OW38308   3.929   1.252   2.677  0.2987  0.0859  0.5338
 8950SOL    HW138309   3.953   1.334   2.719 -0.5877 -0.3187  1.8328
 8950SOL    HW238310   3.837   1.244   2.702  0.3882 -0.0713  0.8110
 8951SOL     OW38311   2.942   0.397  17.337  0.1621 -0.8728  0.1349
 8951SOL    HW138312   2.936   0.301  17.337  0.8384 -0.9084 -0.6245
 8951SOL    HW238313   3.021   0.415  17.388 -0.3223  0.6605  0.3326
 8952SOL     OW38314   3.252   0.963  17.513 -0.5544 -0.4850 -0.2895
 8952SOL    HW138315   3.272   0.938  17.423 -0.3254  1.6446 -0.8507
 8952SOL    HW238316   3.316   0.911  17.560  0.2368  1.3501  0.6661
 8953SOL     OW38317   2.585   2.069   6.736  0.2941 -0.4816 -0.0502
 8953SOL    HW138318   2.498   2.096   6.706  0.0619 -1.7018 -0.4621
 8953SOL    HW238319   2.556   1.998   6.793  0.9961  0.0049  0.9109
 8954SOL     OW38320   2.343   1.503  14.566  0.6065 -0.6237 -0.0837
 8954SOL    HW138321   2.292   1.574  14.605  1.1032 -0.4437  0.2302
 8954SOL    HW238322   2.278   1.448  14.522  0.5261 -0.2531 -0.4309
 8955SOL     OW38323   3.252   1.148   4.091  0.0519  0.2456  0.2998
 8955SOL    HW138324   3.293   1.230   4.121 -2.2469  1.1527  0.9619
 8955SOL    HW238325   3.317   1.123   4.025  0.1571 -0.4857  0.6841
 8956SOL     OW38326   4.724   1.070   5.075  0.2299  0.0349 -0.3100
 8956SOL    HW138327   4.671   1.079   4.996 -0.7097  0.8282  0.4017
 8956SOL    HW238328   4.669   1.015   5.131  2.8555  0.0721  2.3041
 8957SOL     OW38329   4.707   1.458   8.121  0.0365  0.2132 -0.1264
 8957SOL    HW138330   4.623   1.434   8.082  0.2128  0.7189 -0.8147
 8957SOL    HW238331   0.036   1.385   8.093  1.1453  0.8440  0.4030
 8958SOL     OW38332   3.238   4.303   2.939  0.2972  0.0750 -1.0843
 8958SOL    HW138333   3.249   4.361   2.864 -1.9718  0.3074 -1.2441
 8958SOL    HW238334   3.201   4.225   2.896  1.1152 -0.7686 -0.2581
 8959SOL     OW38335   3.479   2.703   8.177  0.2995 -0.1873 -0.4947
 8959SOL    HW138336   3.419   2.762   8.132 -1.1664  0.9874  2.9959
 8959SOL    HW238337   3.484   2.624   8.124 -2.0366  0.6076 -1.8936
 8960SOL     OW38338   0.869   1.096   9.726 -0.1265 -0.2367  0.3453
 8960SOL    HW138339   0.947   1.047   9.751 -1.2948 -0.5336  3.3497
 8960SOL    HW238340   0.803   1.027   9.717 -0.8936  0.8987 -3.0047
 8961SOL     OW38341   1.206   0.938  15.795  1.0554  0.2033 -0.1447
 8961SOL    HW138342   1.180   1.028  15.815  2.5782  1.1781 -2.6087
 8961SOL    HW238343   1.120   0.896  15.802  0.8824  0.5813 -0.0229
 8962SOL     OW38344   1.471   1.286   3.231 -0.1074  0.0730 -0.4517
 8962SOL    HW138345   1.387   1.268   3.274 -0.0774  2.4740  0.5914
 8962SOL    HW238346   1.445   1.348   3.163 -2.1637 -0.5670 -0.2462
 8963SOL     OW38347   2.369   0.750   3.327  0.1772  0.1257  0.2438
 8963SOL    HW138348   2.382   0.797   3.409  0.1289  1.7954 -0.7012
 8963SOL    HW238349   2.400   0.815   3.264 -1.1667  0.9285  0.3994
 8964SOL     OW38350   3.608   1.058   8.003  1.2382  0.5222  0.2397
 8964SOL    HW138351   3.609   1.153   7.994 -1.3988  0.2785 -2.3210
 8964SOL    HW238352   3.618   1.022   7.915  3.5133 -1.6970  1.3960
 8965SOL     OW38353   3.145   0.283   2.019  0.1156  0.0773 -0.5295
 8965SOL    HW138354   3.201   0.269   1.942 -1.8619  0.1912 -2.0076
 8965SOL    HW238355   3.174   0.216   2.080 -1.7733  0.4217  0.7732
 8966SOL     OW38356   3.407   4.613   5.094 -0.3321  0.2223 -0.0792
 8966SOL    HW138357   3.428   4.543   5.156  0.9545  1.1541  0.5523
 8966SOL    HW238358   3.312   4.608   5.083 -0.4809  0.1411  1.3468
 8967SOL     OW38359   1.043   1.342   1.660  0.6842 -0.5910  0.1337
 8967SOL    HW138360   1.042   1.250   1.686 -1.5374 -0.6206 -0.0825
 8967SOL    HW238361   1.052   1.338   1.564  1.7644  1.0632  0.1668
 8968SOL     OW38362   1.132   4.053   9.362  0.1968  0.0339  0.3799
 8968SOL    HW138363   1.069   4.084   9.428  2.4762 -0.2597  2.7195
 8968SOL    HW238364   1.183   3.989   9.413 -0.6959 -0.5188  0.5756
 8969SOL     OW38365   0.358   4.389   4.629 -0.1065  0.2534  0.2069
 8969SOL    HW138366   0.272   4.412   4.594 -0.5065  1.3635  1.9242
 8969SOL    HW238367   0.401   4.473   4.648  0.3199  0.3241 -1.0633
 8970SOL     OW38368   3.722   3.362   6.394  0.3341  0.3780  0.6112
 8970SOL    HW138369   3.768   3.326   6.471 -0.6489  0.9560  1.4583
 8970SOL    HW238370   3.741   3.300   6.324  0.2530 -1.5543  2.2954
 8971SOL     OW38371   3.646   1.983  13.905 -0.1018  0.6867  0.3822
 8971SOL    HW138372   3.737   1.998  13.930  0.5961 -1.7871 -0.7123
 8971SOL    HW238373   3.610   1.987  13.994  0.2432 -0.0328  0.5604
 8972SOL     OW38374   4.121   2.842   3.509  0.2351 -0.2434  0.1032
 8972SOL    HW138375   4.140   2.935   3.521  0.0035 -0.3744  1.4314
 8972SOL    HW238376   4.204   2.804   3.536 -1.6744 -3.8589  0.8095
 8973SOL     OW38377   0.482   1.461   3.123  0.3115 -0.6074 -0.4073
 8973SOL    HW138378   0.392   1.442   3.095 -0.5961 -3.5419  4.4654
 8973SOL    HW238379   0.522   1.399   3.061 -0.8077 -1.7892  0.0399
 8974SOL     OW38380   3.378   3.097   4.482 -0.4767  0.1477  0.2260
 8974SOL    HW138381   3.355   3.089   4.575  4.2858 -1.6006  1.2541
 8974SOL    HW238382   3.367   3.005   4.460  1.6678 -0.0732  0.0738
 8975SOL     OW38383   1.049   2.366  10.788  0.1091  0.2306 -0.2804
 8975SOL    HW138384   0.956   2.388  10.794 -0.2054 -0.5786 -2.2531
 8975SOL    HW238385   1.071   2.391  10.878 -2.3144 -2.6545  1.0726
 8976SOL     OW38386   0.002   4.269   2.690 -0.0247 -0.2546  0.4400
 8976SOL    HW138387   4.639   4.284   2.655  0.5276  0.4676 -0.6519
 8976SOL    HW238388   0.005   4.174   2.696 -0.4647 -0.2920  0.1136
 8977SOL     OW38389   2.583   1.994  15.260 -0.3698  0.5793 -0.1621
 8977SOL    HW138390   2.603   1.942  15.338 -0.7201 -0.5184 -0.8166
 8977SOL    HW238391   2.509   1.950  15.219 -0.9764  1.4124  0.0256
 8978SOL     OW38392   2.432   0.206   4.734  0.4127  0.4372 -0.7363
 8978SOL    HW138393   2.520   0.186   4.700  1.4537  0.7963  1.7939
 8978SOL    HW238394   2.412   0.112   4.739  1.8775  0.1056 -1.0740
 8979SOL     OW38395   4.071   4.290   9.072  0.3962 -0.4906  0.4435
 8979SOL    HW138396   4.045   4.269   9.162 -1.7050 -3.0856 -0.7599
 8979SOL    HW238397   4.049   4.215   9.016 -0.7683 -0.1240  0.4162
 8980SOL     OW38398   0.726   1.029   2.981 -0.0770 -0.2455  0.2325
 8980SOL    HW138399   0.789   1.021   3.053 -0.3638 -0.8019  0.4256
 8980SOL    HW238400   0.769   1.011   2.898 -1.0570  1.7546 -0.7023
 8981SOL     OW38401   2.927   2.744   9.507 -0.3314 -0.2967  0.5709
 8981SOL    HW138402   2.872   2.756   9.429  0.8413  0.1717 -0.1941
 8981SOL    HW238403   2.878   2.674   9.551 -0.2308 -1.4023 -1.0444
 8982SOL     OW38404   3.341   1.307   7.318 -0.2385  0.0287 -0.3123
 8982SOL    HW138405   3.352   1.213   7.302 -0.0587 -0.1245  0.7054
 8982SOL    HW238406   3.275   1.297   7.387 -0.9736 -0.7378 -1.1279
 8983SOL     OW38407   1.464   4.578  12.401  0.2427 -0.2401 -0.3234
 8983SOL    HW138408   1.506   4.618  12.478 -0.5549 -0.1071  0.0374
 8983SOL    HW238409   1.543   4.554  12.352 -1.4399 -0.8564 -2.7504
 8984SOL     OW38410   2.616   2.739  13.635  0.4824 -0.2341 -0.4354
 8984SOL    HW138411   2.676   2.739  13.710 -2.7250  0.0970  2.1481
 8984SOL    HW238412   2.571   2.821  13.653  0.2074 -0.4150 -0.3082
 8985SOL     OW38413   4.016   0.455   8.577 -0.4909 -0.0916 -0.0374
 8985SOL    HW138414   3.935   0.425   8.619 -0.9232 -2.2318 -2.3627
 8985SOL    HW238415   4.054   0.494   8.655 -3.2393  3.3257 -0.4037
 8986SOL     OW38416   0.053   2.625  15.548 -0.0857  0.2559 -0.0234
 8986SOL    HW138417   0.042   2.596  15.457  0.6027 -1.8520  0.5605
 8986SOL    HW238418   4.689   2.635  15.579  0.0361  0.3388  0.3013
 8987SOL     OW38419   1.329   2.535   5.685 -0.2495  0.0869  0.3361
 8987SOL    HW138420   1.356   2.572   5.601  2.0560  0.8120  1.3931
 8987SOL    HW238421   1.365   2.596   5.750  1.3096  0.1216 -0.5648
 8988SOL     OW38422   1.669   2.402   2.459 -0.5371  0.2657 -0.1603
 8988SOL    HW138423   1.731   2.439   2.397 -0.5481 -1.5246 -1.2278
 8988SOL    HW238424   1.587   2.435   2.423 -0.3337  0.1519 -0.7314
 8989SOL     OW38425   1.742   2.687  11.344  0.4857  0.1393 -0.1609
 8989SOL    HW138426   1.769   2.644  11.425 -2.7725  0.9723  1.3768
 8989SOL    HW238427   1.821   2.664  11.295  1.5272  2.0437  0.5921
 8990SOL     OW38428   3.928   2.559   7.328 -0.5526 -0.6995  0.4906
 8990SOL    HW138429   3.873   2.634   7.302  1.1754  0.3774 -0.0766
 8990SOL    HW238430   3.875   2.482   7.306 -0.4738 -0.3401 -1.0000
 8991SOL     OW38431   3.170   4.483   6.363 -0.2467 -0.5239  0.7014
 8991SOL    HW138432   3.235   4.513   6.427 -0.0811 -1.1745  0.8356
 8991SOL    HW238433   3.110   4.440   6.424 -0.4548 -1.7375 -0.3746
 8992SOL     OW38434   2.653   4.265   4.966  0.4202  0.1283 -0.2683
 8992SOL    HW138435   2.713   4.194   4.990  0.7489  0.8132  0.9380
 8992SOL    HW238436   2.582   4.206   4.940 -1.3613  2.5174 -0.7861
 8993SOL     OW38437   2.560   1.870   8.712 -0.9866 -0.4809  0.4077
 8993SOL    HW138438   2.620   1.859   8.638 -2.0975 -0.2771 -0.5369
 8993SOL    HW238439   2.496   1.799   8.702  1.0760 -2.6026  2.4252
 8994SOL     OW38440   3.733   3.975   8.050  0.6714 -0.1591  0.1230
 8994SOL    HW138441   3.724   3.929   8.133 -1.0719  0.7487  0.4342
 8994SOL    HW238442   3.804   4.039   8.061  0.1296  0.6765 -1.2033
 8995SOL     OW38443   1.013   2.282   0.867 -0.4498 -0.1242 -0.2959
 8995SOL    HW138444   0.962   2.242   0.797  1.0472 -3.3671  0.4676
 8995SOL    HW238445   0.974   2.241   0.944  0.9729  0.4204  0.7153
 8996SOL     OW38446   0.974   4.440   1.541  0.0285  0.0455  1.3126
 8996SOL    HW138447   1.006   4.358   1.578 -0.8218 -0.1835  1.5513
 8996SOL    HW238448   1.009   4.505   1.602  1.6349  2.3240 -2.0111
 8997SOL     OW38449   2.246   2.960   7.519 -0.2049 -0.1800  0.1575
 8997SOL    HW138450   2.318   3.023   7.512 -1.8074  1.5328 -0.7723
 8997SOL    HW238451   2.187   3.002   7.582  0.6009 -0.0275  0.8112
 8998SOL     OW38452   1.395   1.678   8.477 -0.1241 -0.2868  0.4306
 8998SOL    HW138453   1.480   1.723   8.476  0.9020 -2.2844 -1.9044
 8998SOL    HW238454   1.333   1.749   8.493  0.1709  0.2708 -0.9331
 8999SOL     OW38455   2.959   1.832   4.205 -0.2502 -0.4850  0.1184
 8999SOL    HW138456   2.914   1.871   4.281  1.0184  0.2087  0.5152
 8999SOL    HW238457   3.029   1.790   4.256  0.7949  0.8066 -0.2590
 9000SOL     OW38458   2.257   4.173   0.899  0.1921 -0.3609 -0.0837
 9000SOL    HW138459   2.178   4.155   0.849  0.0757 -1.8436  0.6134
 9000SOL    HW238460   2.321   4.181   0.829  1.1334  0.4060  0.8591
 9001SOL     OW38461   1.783   0.978   2.704 -0.5175 -0.3488  0.0024
 9001SOL    HW138462   1.839   0.935   2.639  3.6949  2.8489  1.5230
 9001SOL    HW238463   1.716   1.014   2.646  0.4620  0.5076 -0.6106
 9002SOL     OW38464   2.216   1.660   6.922  0.0485  0.1630  0.2378
 9002SOL    HW138465   2.202   1.630   7.012 -0.2857 -3.2618 -0.9424
 9002SOL    HW238466   2.303   1.629   6.898  0.5282  0.9091  1.0301
 9003SOL     OW38467   4.221   0.129   6.138  0.5306 -0.2954 -0.2398
 9003SOL    HW138468   4.207   0.058   6.200 -0.8432 -1.6671 -2.1566
 9003SOL    HW238469   4.262   0.195   6.195 -0.0879  0.5911 -0.8194
 9004SOL     OW38470   2.937   4.656  17.643  0.1200  0.1184 -0.3339
 9004SOL    HW138471   3.021   4.609  17.644 -0.4583 -0.9300 -0.9041
 9004SOL    HW238472   2.883   4.590  17.687  2.5191 -1.6241 -0.0046
 9005SOL     OW38473   3.811   3.052   7.514  0.2360 -0.4274  0.6745
 9005SOL    HW138474   3.895   3.068   7.558  0.7613 -0.1292 -0.4507
 9005SOL    HW238475   3.837   3.062   7.423  2.2065 -1.9745  1.0881
 9006SOL     OW38476   0.565   3.762  14.624  0.1276  0.2163  0.0976
 9006SOL    HW138477   0.516   3.696  14.575 -0.8554  0.6321  0.5106
 9006SOL    HW238478   0.506   3.777  14.698 -0.0924  0.8376 -0.2056
 9007SOL     OW38479   2.924   3.558   6.045 -0.3169 -0.1039  0.5705
 9007SOL    HW138480   2.859   3.534   6.111 -0.5027  0.4876  0.5982
 9007SOL    HW238481   2.983   3.619   6.089 -2.7893  2.0176  0.9287
 9008SOL     OW38482   1.130   1.272   7.942 -0.0782  0.2905  0.5164
 9008SOL    HW138483   1.178   1.215   8.002  1.4681  0.6462 -0.3886
 9008SOL    HW238484   1.043   1.263   7.982 -0.2033 -0.1310  0.1606
 9009SOL     OW38485   1.836   0.351   4.438  0.4862 -0.4353 -0.2491
 9009SOL    HW138486   1.852   0.278   4.378 -0.2558 -1.9826  1.4471
 9009SOL    HW238487   1.899   0.419   4.414 -0.1042  0.0828 -0.3267
 9010SOL     OW38488   1.684   0.499   0.503  0.5965  0.0180 -0.5664
 9010SOL    HW138489   1.722   0.539   0.425  0.5879  0.1681 -0.4920
 9010SOL    HW238490   1.764   0.469   0.547 -0.3594 -1.3344  0.2647
 9011SOL     OW38491   0.216   1.041   7.940  0.1957  0.2159  0.6136
 9011SOL    HW138492   0.231   0.956   7.982  2.6082  0.6040  0.5367
 9011SOL    HW238493   0.305   1.075   7.936  0.8974 -1.7161 -0.3076
 9012SOL     OW38494   1.391   0.039  10.661  0.7598 -0.5913  0.0275
 9012SOL    HW138495   1.477   0.062  10.696  1.4117 -1.3332 -1.0753
 9012SOL    HW238496   1.333   0.042  10.737  1.2986  1.2906  0.3639
 9013SOL     OW38497   0.979   4.287   2.752 -0.0396 -0.0628 -0.2806
 9013SOL    HW138498   0.982   4.381   2.768  3.1028 -0.2434  0.1996
 9013SOL    HW238499   0.908   4.252   2.806 -1.1189  1.7499 -0.5324
 9014SOL     OW38500   0.624   0.387   1.528 -0.7925  0.3338 -0.2909
 9014SOL    HW138501   0.597   0.478   1.523 -0.7311  0.5848  3.8894
 9014SOL    HW238502   0.713   0.400   1.561 -0.9217 -0.5892  0.4328
 9015SOL     OW38503   2.919   2.681   5.053  0.6619  0.2810 -0.3426
 9015SOL    HW138504   2.922   2.761   5.107 -0.4736  0.3906 -0.4444
 9015SOL    HW238505   2.984   2.631   5.101  0.0484  0.0027  0.1936
 9016SOL     OW38506   3.358   3.066   6.705 -0.0263 -0.3538 -0.1031
 9016SOL    HW138507   3.346   3.104   6.618 -1.8174 -0.9624 -0.1191
 9016SOL    HW238508   3.287   3.001   6.703  1.7539 -2.3676  1.4717
 9017SOL     OW38509   0.513   3.257  15.830  0.0790 -0.2547  0.1175
 9017SOL    HW138510   0.498   3.247  15.924  0.4634  0.3413  0.2390
 9017SOL    HW238511   0.422   3.241  15.803  0.4442 -0.5872 -0.8933
 9018SOL     OW38512   1.066   1.634   8.180  0.2790 -0.1572  0.1661
 9018SOL    HW138513   1.155   1.666   8.196 -0.0175  1.4868 -1.4711
 9018SOL    HW238514   1.015   1.689   8.239  0.6509  1.3198 -0.8846
 9019SOL     OW38515   0.926   4.003   7.051 -0.3763 -0.0084 -0.0767
 9019SOL    HW138516   0.854   3.949   7.017 -0.1608 -0.8007  0.7398
 9019SOL    HW238517   0.933   4.061   6.975 -0.5982 -0.9975 -0.8620
 9020SOL     OW38518   1.376   1.590   8.956  0.0592  0.0958  0.2267
 9020SOL    HW138519   1.311   1.521   8.945  0.9962 -0.7196 -0.1156
 9020SOL    HW238520   1.340   1.667   8.911 -1.9976 -0.5480  0.7437
 9021SOL     OW38521   2.344   1.913  12.201 -0.2175  0.1859 -0.3669
 9021SOL    HW138522   2.381   1.988  12.248  0.5488 -2.3454  3.0241
 9021SOL    HW238523   2.264   1.950  12.162 -0.3611  0.9793  0.6757
 9022SOL     OW38524   2.309   1.867  14.078  0.0731  0.0057 -0.0096
 9022SOL    HW138525   2.271   1.955  14.077  0.2524  0.0867  0.2635
 9022SOL    HW238526   2.392   1.893  14.038  0.7091  0.1789  1.4285
 9023SOL     OW38527   3.482   0.153   0.944  1.0203  0.0034 -0.4174
 9023SOL    HW138528   3.564   0.201   0.945  1.4525 -0.7381 -0.5411
 9023SOL    HW238529   3.438   0.171   1.027  3.3304 -1.7595  1.1757
 9024SOL     OW38530   1.248   0.563   1.215 -0.1070 -0.0142 -0.2712
 9024SOL    HW138531   1.312   0.558   1.144  1.4068  0.5036  1.0549
 9024SOL    HW238532   1.253   0.657   1.232  4.0211 -0.5430  1.3535
 9025SOL     OW38533   2.184   2.975   2.205 -0.4028 -0.3547  0.4739
 9025SOL    HW138534   2.131   2.908   2.162 -0.2875 -1.6929  2.3989
 9025SOL    HW238535   2.257   2.918   2.231  1.9756  0.8954 -3.5727
 9026SOL     OW38536   2.029   1.080   1.159 -0.2781  0.1047 -0.4079
 9026SOL    HW138537   2.036   0.985   1.151 -0.6945 -0.0238  0.8167
 9026SOL    HW238538   2.105   1.103   1.105 -1.5406 -0.3507 -2.3851
 9027SOL     OW38539   0.075   1.669   3.716  0.8551 -0.2869 -0.6323
 9027SOL    HW138540   0.059   1.719   3.636  1.9519 -0.7598 -1.1344
 9027SOL    HW238541   0.170   1.665   3.713  0.8471  1.1955 -2.9174
 9028SOL     OW38542   2.989   1.829  12.437  0.7089  0.5258  0.0394
 9028SOL    HW138543   2.919   1.846  12.375  0.5357 -1.6736 -0.3644
 9028SOL    HW238544   3.058   1.883  12.398  0.8740 -0.3569 -0.8750
 9029SOL     OW38545   3.068   1.432   2.574 -0.1932  0.1000  0.2096
 9029SOL    HW138546   3.097   1.345   2.548  0.6405 -0.4425  2.9452
 9029SOL    HW238547   3.065   1.431   2.670  0.7441  0.0460  0.2382
 9030SOL     OW38548   3.968   1.812   3.398  0.2661  0.0970  0.4704
 9030SOL    HW138549   4.027   1.765   3.339 -0.9794  0.4960 -1.0940
 9030SOL    HW238550   3.909   1.859   3.339  1.1245  0.8164  0.1908
 9031SOL     OW38551   3.448   2.570   7.776  0.2986 -0.0455  0.2539
 9031SOL    HW138552   3.452   2.620   7.695 -0.0862 -1.4048 -0.6042
 9031SOL    HW238553   3.356   2.545   7.779  1.3790 -4.0234  0.5507
 9032SOL     OW38554   0.448   3.239   8.358 -0.3655 -0.4647  0.6187
 9032SOL    HW138555   0.388   3.309   8.335 -1.6926 -1.5092  0.9192
 9032SOL    HW238556   0.433   3.181   8.284  3.0497 -0.8595  0.2224
 9033SOL     OW38557   1.461   2.029   9.095  0.7525  0.2435 -0.2802
 9033SOL    HW138558   1.470   1.934   9.106  2.7422  0.5866  1.1857
 9033SOL    HW238559   1.542   2.038   9.046 -0.0109  1.1919 -1.3568
 9034SOL     OW38560   1.222   4.017  14.977 -0.3098 -0.2699  0.2709
 9034SOL    HW138561   1.269   3.970  14.909  0.1161  1.6885 -0.8040
 9034SOL    HW238562   1.289   4.041  15.040 -1.8755 -0.5274  2.0367
 9035SOL     OW38563   3.877   3.297  17.214  0.4221 -0.2927  0.3633
 9035SOL    HW138564   3.941   3.293  17.143  1.2243  2.2934  0.9337
 9035SOL    HW238565   3.942   3.299  17.284  0.4922 -2.2250  0.3485
 9036SOL     OW38566   3.443   4.093   4.957  0.2783 -0.1074 -0.5405
 9036SOL    HW138567   3.428   4.093   5.052 -0.3055 -1.0122 -0.6271
 9036SOL    HW238568   3.518   4.033   4.953 -0.4674 -0.9140 -2.4640
 9037SOL     OW38569   4.268   3.972   5.665  0.0353  0.6596  0.4951
 9037SOL    HW138570   4.338   3.953   5.602  1.5585  0.3446  2.2762
 9037SOL    HW238571   4.185   3.955   5.620  0.7213  0.2513 -0.6187
 9038SOL     OW38572   4.622   3.995  15.315 -0.2275  0.0166 -0.4382
 9038SOL    HW138573   4.577   4.044  15.383 -0.6995 -1.8044  0.5668
 9038SOL    HW238574   4.629   3.908  15.355  0.6725  0.5643  0.5847
 9039SOL     OW38575   1.174   3.366   4.056 -0.2101  0.1722 -0.1921
 9039SOL    HW138576   1.132   3.425   4.119 -2.3476 -0.7206 -0.7489
 9039SOL    HW238577   1.184   3.287   4.110  1.0860  0.6815  0.2949
 9040SOL     OW38578   2.432   4.337   3.515 -0.3930 -0.0778 -0.6433
 9040SOL    HW138579   2.349   4.366   3.553 -0.2003 -2.1734  1.4073
 9040SOL    HW238580   2.498   4.343   3.584 -1.4403 -1.7275  0.5030
 9041SOL     OW38581   1.744   4.004   7.233 -1.0043  0.0301 -0.1230
 9041SOL    HW138582   1.753   3.951   7.154  1.0875  2.2604 -1.4186
 9041SOL    HW238583   1.656   4.040   7.233 -0.8805  0.3363  0.7547
 9042SOL     OW38584   2.725   3.910   1.126 -0.6497  0.2115  0.2249
 9042SOL    HW138585   2.639   3.894   1.086 -1.0179  0.8033  0.7928
 9042SOL    HW238586   2.720   3.872   1.214  3.3694 -1.3409 -0.2225
 9043SOL     OW38587   3.534   0.045   5.791 -0.3783 -0.9329 -0.1321
 9043SOL    HW138588   3.531   0.122   5.733  1.0998 -0.8497 -0.0764
 9043SOL    HW238589   3.619   0.009   5.767 -0.3994 -0.2363 -1.2814
 9044SOL     OW38590   3.150   0.194  14.489 -0.4174  0.1072 -0.1930
 9044SOL    HW138591   3.226   0.139  14.506 -1.3444 -0.9587  0.5711
 9044SOL    HW238592   3.095   0.167  14.563  0.0718 -4.6635 -1.5925
 9045SOL     OW38593   3.506   1.720   9.872  0.1018 -0.0114 -0.7333
 9045SOL    HW138594   3.554   1.672   9.804  1.8342  1.9518 -0.9360
 9045SOL    HW238595   3.572   1.725   9.941  0.3251  2.8289 -1.1527
 9046SOL     OW38596   1.386   2.599   9.530 -0.0107 -0.2766 -0.2856
 9046SOL    HW138597   1.471   2.637   9.554 -0.0540 -1.0038  1.0225
 9046SOL    HW238598   1.329   2.667   9.567 -0.4032  0.3468 -2.0732
 9047SOL     OW38599   0.094   3.293   2.222  0.1351  0.4225 -0.2285
 9047SOL    HW138600   0.021   3.300   2.161  1.2381 -3.0765 -1.9282
 9047SOL    HW238601   0.151   3.365   2.194 -0.7839  0.5854 -1.6431
 9048SOL     OW38602   1.566   2.349   5.728  0.1510 -0.3657  0.0723
 9048SOL    HW138603   1.583   2.345   5.634  2.3882  0.5259  0.4333
 9048SOL    HW238604   1.497   2.283   5.735  0.9144 -1.2243 -0.5213
 9049SOL     OW38605   3.953   3.111   4.098 -0.2470  0.0949  0.5499
 9049SOL    HW138606   3.892   3.149   4.035  0.6363  1.0404  0.2784
 9049SOL    HW238607   3.928   3.159   4.177 -1.0676 -0.2431  0.5010
 9050SOL     OW38608   2.718   1.570   7.407  0.1491 -0.4475  0.1821
 9050SOL    HW138609   2.638   1.599   7.363 -1.5500 -0.4519  3.3057
 9050SOL    HW238610   2.770   1.649   7.420 -1.3678  0.5149  0.3689
 9051SOL     OW38611   1.806   3.450   7.589 -0.0518  0.0334 -0.2661
 9051SOL    HW138612   1.728   3.462   7.644  0.5971  1.7205  0.2809
 9051SOL    HW238613   1.804   3.355   7.578 -0.2407  0.4440 -3.9751
 9052SOL     OW38614   0.669   1.946   4.165 -0.0059 -0.6413  0.6394
 9052SOL    HW138615   0.631   2.029   4.195  0.2867  0.2901 -1.6176
 9052SOL    HW238616   0.747   1.962   4.112 -0.0648 -2.7293 -0.0890
 9053SOL     OW38617   1.447   1.379   7.143 -0.1110 -0.1501  0.0846
 9053SOL    HW138618   1.376   1.318   7.118  0.2570 -0.1997 -0.8629
 9053SOL    HW238619   1.489   1.341   7.219  0.8039  1.0280  0.1673
 9054SOL     OW38620   2.225   1.784  15.708  0.1781  0.4072 -0.0675
 9054SOL    HW138621   2.219   1.731  15.628 -1.2901  0.4618  0.0060
 9054SOL    HW238622   2.169   1.859  15.689  0.4767  0.5618 -0.3316
 9055SOL     OW38623   4.543   4.017   4.030 -0.1384 -0.0471 -0.5000
 9055SOL    HW138624   4.504   4.027   3.943 -1.6901 -0.3072  0.1671
 9055SOL    HW238625   4.542   3.921   4.036 -1.2981 -0.1030 -1.6695
 9056SOL     OW38626   0.461   1.316   6.602 -0.3648 -0.0006 -0.2724
 9056SOL    HW138627   0.537   1.291   6.654 -0.2156  0.1032 -0.4426
 9056SOL    HW238628   0.463   1.249   6.534 -0.2623 -1.1043  0.8188
 9057SOL     OW38629   1.484   3.422   4.239  0.3606 -0.3034 -0.1857
 9057SOL    HW138630   1.456   3.417   4.147 -0.1611  4.3467 -0.2949
 9057SOL    HW238631   1.451   3.510   4.260  1.0066 -0.5380  1.8012
 9058SOL     OW38632   1.945   1.650   4.672 -0.0531 -0.5407  0.2788
 9058SOL    HW138633   1.948   1.681   4.581 -1.4841 -0.0494  0.4045
 9058SOL    HW238634   1.857   1.613   4.668 -0.0822 -0.4459  0.0008
 9059SOL     OW38635   0.890   0.779   3.605  0.4291  0.6625  0.2367
 9059SOL    HW138636   0.827   0.850   3.598 -0.7473 -0.4507 -0.3501
 9059SOL    HW238637   0.948   0.805   3.533  1.3065 -3.2350 -0.4270
 9060SOL     OW38638   1.062   0.621   5.185 -0.1686 -0.2043 -0.3152
 9060SOL    HW138639   1.126   0.641   5.117 -1.2752 -0.2416 -1.3735
 9060SOL    HW238640   1.021   0.551   5.134  2.0413 -1.6004 -0.1644
 9061SOL     OW38641   3.226   3.005   4.684  0.0682 -0.3752 -0.4028
 9061SOL    HW138642   3.140   2.984   4.722  0.5258  1.1783  1.4835
 9061SOL    HW238643   3.278   3.029   4.761 -1.4389 -1.1045  0.8496
 9062SOL     OW38644   0.015   0.326   8.196 -0.1823  0.4542 -0.0652
 9062SOL    HW138645   4.648   0.338   8.175 -1.0244 -0.7227  2.9383
 9062SOL    HW238646   0.010   0.273   8.276  3.2871  2.9125  1.8231
 9063SOL     OW38647   0.682   0.079   0.617 -0.2729  1.2151 -0.0690
 9063SOL    HW138648   0.701   0.156   0.671 -0.5160  0.6797  0.7876
 9063SOL    HW238649   0.618   0.034   0.673  0.6312 -1.8205 -1.4743
 9064SOL     OW38650   1.880   4.535   2.279 -0.3967 -0.0618  0.4454
 9064SOL    HW138651   1.936   4.613   2.280 -2.1408  1.2470 -2.3078
 9064SOL    HW238652   1.793   4.575   2.276  0.4715  1.9022  1.6444
 9065SOL     OW38653   2.728   1.091   3.052 -0.2342 -0.1842  0.4911
 9065SOL    HW138654   2.739   1.041   2.971  0.8057  0.3046  0.3270
 9065SOL    HW238655   2.811   1.071   3.095 -0.2076 -0.1209  0.4694
 9066SOL     OW38656   0.138   3.467   4.263 -0.2008 -0.3202 -0.2793
 9066SOL    HW138657   0.090   3.450   4.182 -1.4596  3.1090 -0.2354
 9066SOL    HW238658   0.099   3.553   4.280  2.5214  0.9128 -0.2299
 9067SOL     OW38659   3.207   4.456   1.535 -0.0094  0.0483  0.2733
 9067SOL    HW138660   3.251   4.380   1.573  1.4095 -0.3499 -2.1902
 9067SOL    HW238661   3.115   4.431   1.545 -0.5933  2.2578  0.3170
 9068SOL     OW38662   4.693   0.700   5.100 -0.7017  0.1194  0.2622
 9068SOL    HW138663   4.644   0.762   5.046 -1.9486 -0.4654  0.7432
 9068SOL    HW238664   4.704   0.633   5.033 -1.6659  1.0961 -0.8861
 9069SOL     OW38665   3.041   4.156   5.609 -0.9953 -0.1852  0.0325
 9069SOL    HW138666   3.117   4.214   5.604 -0.6071 -0.7785 -0.9025
 9069SOL    HW238667   2.971   4.222   5.602  0.7697  1.6777  0.1738
 9070SOL     OW38668   0.039   0.883   8.450 -0.3930 -0.1603 -0.1911
 9070SOL    HW138669   4.725   0.966   8.479  1.4839 -0.0979  2.1105
 9070SOL    HW238670   0.024   0.892   8.356  1.8692  0.2170 -0.5187
 9071SOL     OW38671   0.242   2.212   9.318  0.5581 -0.1119 -0.0993
 9071SOL    HW138672   0.159   2.164   9.309  0.4806  0.0035  0.0067
 9071SOL    HW238673   0.281   2.153   9.382  0.7993 -0.5690 -0.6631
 9072SOL     OW38674   4.177   1.136   8.038 -0.5249 -0.5961 -0.1651
 9072SOL    HW138675   4.203   1.095   8.121 -0.9102  0.1471  0.3204
 9072SOL    HW238676   4.116   1.071   8.002 -0.9284 -0.8394  0.9651
 9073SOL     OW38677   0.507   0.491   9.724 -0.4526 -0.5541  0.3315
 9073SOL    HW138678   0.554   0.506   9.806 -0.4744  0.2792  0.1898
 9073SOL    HW238679   0.507   0.580   9.688 -0.0608 -1.1096 -1.0318
 9074SOL     OW38680   3.349   3.392   4.089  0.4983 -0.0167  0.5303
 9074SOL    HW138681   3.313   3.339   4.160  1.3291 -2.2113 -0.6848
 9074SOL    HW238682   3.353   3.332   4.014  1.8855  0.3729  0.2833
 9075SOL     OW38683   0.780   1.769   8.937  0.0792  0.4618  0.0731
 9075SOL    HW138684   0.734   1.693   8.902  0.9133  0.4054 -0.8751
 9075SOL    HW238685   0.737   1.834   8.882  1.2743  1.4818  0.3709
 9076SOL     OW38686   2.475   4.152   3.294  0.1447 -0.0844 -0.2740
 9076SOL    HW138687   2.542   4.218   3.310 -0.8365  1.0380 -0.7463
 9076SOL    HW238688   2.426   4.168   3.375  0.0796  1.2362 -0.5729
 9077SOL     OW38689   1.448   0.959   4.892  0.0949  0.3531  0.0014
 9077SOL    HW138690   1.529   0.973   4.942  1.3604  1.2217 -2.2784
 9077SOL    HW238691   1.472   0.876   4.852 -0.7094  0.7942 -1.3882
 9078SOL     OW38692   0.061   4.326   5.987 -0.4485  0.2388  0.1661
 9078SOL    HW138693   0.076   4.241   5.946  0.2266  0.3700  0.1444
 9078SOL    HW238694   0.031   4.372   5.908 -1.6895  2.3508  1.8600
 9079SOL     OW38695   1.297   0.539   6.093 -1.0296 -0.5880  0.0887
 9079SOL    HW138696   1.332   0.511   6.008 -1.6598 -0.4415 -0.2259
 9079SOL    HW238697   1.246   0.617   6.069 -0.3036 -0.4963 -1.2023
 9080SOL     OW38698   2.130   1.371  16.479  0.2390  0.4348  0.0052
 9080SOL    HW138699   2.076   1.448  16.461  0.3922  0.9574  1.7483
 9080SOL    HW238700   2.078   1.292  16.494  0.8097  0.1937  0.7004
 9081SOL     OW38701   1.833   4.285   0.709  0.4040  0.3795  0.3490
 9081SOL    HW138702   1.888   4.238   0.772  0.2606 -0.3320 -0.0513
 9081SOL    HW238703   1.761   4.308   0.768  1.0869 -0.4290  1.5023
 9082SOL     OW38704   1.936   3.894   6.605 -0.3779 -0.2337  0.0061
 9082SOL    HW138705   1.911   3.860   6.691 -0.9768 -1.7435 -0.7553
 9082SOL    HW238706   1.927   3.988   6.619  0.8105 -0.1193  0.0380
 9083SOL     OW38707   2.241   1.884   1.861  0.1488  0.1146 -0.2063
 9083SOL    HW138708   2.287   1.821   1.806 -1.3811 -1.6681  0.5479
 9083SOL    HW238709   2.263   1.954   1.800  1.2028 -0.1953 -0.1926
 9084SOL     OW38710   2.333   2.478  15.245  0.6339  0.7525 -0.4889
 9084SOL    HW138711   2.370   2.508  15.328 -1.0918  0.2557  0.4601
 9084SOL    HW238712   2.405   2.420  15.218  1.9820  2.2551 -0.1210
 9085SOL     OW38713   3.978   2.429   3.888 -0.0302  0.5360 -0.1603
 9085SOL    HW138714   4.033   2.359   3.851 -1.6729 -0.6422 -0.3806
 9085SOL    HW238715   3.937   2.468   3.811  0.2461  1.4294  0.1482
 9086SOL     OW38716   4.449   2.097   2.872 -0.0209 -0.5708  0.7044
 9086SOL    HW138717   4.353   2.101   2.867 -0.1627 -2.3896  1.8393
 9086SOL    HW238718   4.464   2.190   2.855  0.2332 -0.8411 -0.5428
 9087SOL     OW38719   2.327   0.104  10.501  0.1263 -0.5921 -0.0692
 9087SOL    HW138720   2.392   0.056  10.450  1.0596  0.2026  0.3821
 9087SOL    HW238721   2.258   0.104  10.435  0.7114  0.5578 -0.6726
 9088SOL     OW38722   3.654   2.560   4.940  0.1549  0.3932 -0.0111
 9088SOL    HW138723   3.677   2.506   5.016 -1.3603  0.2202  0.3167
 9088SOL    HW238724   3.709   2.522   4.872  1.5244 -0.7246  1.7274
 9089SOL     OW38725   0.426   4.379  13.906 -0.0143  0.3378  0.4450
 9089SOL    HW138726   0.400   4.304  13.960 -1.7310  0.5953 -0.0162
 9089SOL    HW238727   0.349   4.404  13.855  0.3596 -0.0801 -0.3251
 9090SOL     OW38728   1.771   1.174   4.402  0.7816  0.2992  0.2419
 9090SOL    HW138729   1.859   1.201   4.429  0.6609 -0.1177  1.0355
 9090SOL    HW238730   1.766   1.093   4.452 -1.7101  0.7760  0.7858
 9091SOL     OW38731   3.579   0.273   4.242  0.5347  0.3460  0.2215
 9091SOL    HW138732   3.611   0.362   4.234 -0.9542  0.8387 -0.1810
 9091SOL    HW238733   3.486   0.289   4.257  0.3480  0.3269 -0.9095
 9092SOL     OW38734   3.735   0.532   5.216  0.2821 -0.3734 -0.6231
 9092SOL    HW138735   3.642   0.553   5.211  0.3276 -0.1164 -0.3905
 9092SOL    HW238736   3.754   0.538   5.122 -0.9012 -1.7024 -0.9370
 9093SOL     OW38737   3.872   2.674   1.511 -0.0742 -0.7087 -0.4205
 9093SOL    HW138738   3.845   2.698   1.423  0.6624 -0.4038 -0.5712
 9093SOL    HW238739   3.879   2.579   1.513 -0.3887 -0.7654 -2.1456
 9094SOL     OW38740   4.372   1.675   1.688 -0.0351 -0.2075 -0.1274
 9094SOL    HW138741   4.428   1.634   1.754  1.0101 -0.7544 -1.3521
 9094SOL    HW238742   4.288   1.633   1.708 -0.7830  0.1464 -2.6411
 9095SOL     OW38743   1.057   1.294   4.779  0.2313  0.3021 -0.2393
 9095SOL    HW138744   1.027   1.288   4.870 -0.5441 -0.3953 -0.5358
 9095SOL    HW238745   1.076   1.201   4.769 -0.7218 -0.1455  1.9726
 9096SOL     OW38746   3.922   3.468   3.827 -0.1646 -0.0665  0.2918
 9096SOL    HW138747   3.889   3.556   3.841 -1.3523 -0.3566 -0.6468
 9096SOL    HW238748   4.004   3.493   3.785 -0.3640  0.1189  0.0147
 9097SOL     OW38749   0.512   1.570   5.454 -0.4279  0.2793 -0.2255
 9097SOL    HW138750   0.604   1.577   5.427 -0.8035  1.4687 -1.1748
 9097SOL    HW238751   0.516   1.586   5.549 -0.4731 -3.1560  0.3544
 9098SOL     OW38752   2.688   3.346   1.972  0.0286  0.2879  0.4984
 9098SOL    HW138753   2.647   3.366   1.888  1.1228 -0.6423 -0.2740
 9098SOL    HW238754   2.651   3.410   2.032  1.2753  2.0889 -0.6644
 9099SOL     OW38755   4.168   2.843   4.013 -0.2145 -0.5830 -0.0339
 9099SOL    HW138756   4.246   2.852   4.068  1.0777 -1.0433 -1.8040
 9099SOL    HW238757   4.115   2.787   4.070 -1.4455 -0.5462 -1.1543
 9100SOL     OW38758   2.065   3.790   7.644 -0.0744  0.7465 -0.2701
 9100SOL    HW138759   2.147   3.830   7.614  0.2189 -0.0018 -0.4845
 9100SOL    HW238760   2.105   3.710   7.678 -2.1334  1.3012  3.4210
 9101SOL     OW38761   0.321   1.599  12.142  0.2044 -0.0876  0.4735
 9101SOL    HW138762   0.285   1.522  12.099  0.3462  0.3073 -0.3566
 9101SOL    HW238763   0.257   1.666  12.117 -1.4613 -0.4845  3.6636
 9102SOL     OW38764   0.527   1.267   0.942 -0.0914  0.3283  0.1023
 9102SOL    HW138765   0.501   1.181   0.975 -0.2392 -0.3355 -1.7638
 9102SOL    HW238766   0.620   1.247   0.941 -0.2673 -0.5304  1.1236
 9103SOL     OW38767   1.449   3.530  12.125  0.1226 -0.0796 -0.3415
 9103SOL    HW138768   1.484   3.526  12.036 -1.4033  2.0140 -1.0333
 9103SOL    HW238769   1.504   3.465  12.169 -0.4165  0.3179  0.9437
 9104SOL     OW38770   1.483   2.103  14.962 -0.7859 -0.0576 -0.5414
 9104SOL    HW138771   1.542   2.056  14.904  1.3625 -1.8260  3.0854
 9104SOL    HW238772   1.434   2.028  14.996 -0.8689 -0.1965 -0.9661
 9105SOL     OW38773   1.837   0.835   4.393 -0.2295 -0.2515 -0.6681
 9105SOL    HW138774   1.817   0.815   4.485 -1.5735 -0.5614 -1.0217
 9105SOL    HW238775   1.746   0.826   4.363 -0.1748 -1.2506 -0.5625
 9106SOL     OW38776   0.901   3.899   6.629  0.0249  0.2226 -0.0984
 9106SOL    HW138777   0.881   3.968   6.565  0.4170 -0.4433 -0.9369
 9106SOL    HW238778   0.987   3.925   6.661  0.3886 -0.1236 -0.8116
 9107SOL     OW38779   4.454   4.143   5.379  0.6434  0.2549 -0.1397
 9107SOL    HW138780   4.374   4.163   5.332 -0.7673 -1.0561  1.7120
 9107SOL    HW238781   4.517   4.195   5.330 -0.3969  1.6809  0.0554
 9108SOL     OW38782   0.726   3.179   6.703  0.5224 -0.4067  0.2214
 9108SOL    HW138783   0.644   3.197   6.658  0.4416  0.0177  0.5439
 9108SOL    HW238784   0.778   3.162   6.624  0.9556  0.3230  0.3513
 9109SOL     OW38785   0.924   4.037   3.686 -0.0631  0.0037 -0.1391
 9109SOL    HW138786   0.983   4.072   3.753 -1.3775 -1.4584  1.7744
 9109SOL    HW238787   0.916   4.107   3.621 -1.5166  1.6972  1.8557
 9110SOL     OW38788   0.624   1.485  13.963 -0.0551  0.2924 -0.2204
 9110SOL    HW138789   0.561   1.418  13.936  0.5822 -0.7940  0.9605
 9110SOL    HW238790   0.561   1.556  13.951 -1.1298 -0.9884 -2.0669
 9111SOL     OW38791   3.548   2.468   2.547  0.3103 -0.0584  0.3156
 9111SOL    HW138792   3.614   2.418   2.595 -0.8964 -1.7827  0.1822
 9111SOL    HW238793   3.488   2.404   2.510 -2.0889  2.1390  0.3891
 9112SOL     OW38794   0.675   2.936   0.501 -0.1811  0.1633  0.5356
 9112SOL    HW138795   0.706   2.899   0.583  1.0535 -0.7032 -0.3288
 9112SOL    HW238796   0.663   3.028   0.522  0.0059  0.5115 -0.8592
 9113SOL     OW38797   3.351   2.725   0.452 -0.3084  0.2635 -0.3690
 9113SOL    HW138798   3.295   2.721   0.530  0.5979 -1.1422  0.2213
 9113SOL    HW238799   3.417   2.665   0.488  0.7685  1.2983 -0.6319
 9114SOL     OW38800   0.927   0.776  11.344  0.5137  0.8436  0.0069
 9114SOL    HW138801   0.950   0.776  11.251  2.6393 -1.1921  0.5078
 9114SOL    HW238802   0.979   0.698  11.366  1.1458  0.5538 -2.5206
 9115SOL     OW38803   3.057   4.181   3.990 -0.4207 -0.0062  0.2236
 9115SOL    HW138804   3.149   4.201   4.001 -0.2191 -0.8419  0.0561
 9115SOL    HW238805   3.061   4.091   4.023 -0.4243 -0.0983 -0.0197
 9116SOL     OW38806   2.455   3.191   3.467  0.6953  0.1875  0.5068
 9116SOL    HW138807   2.546   3.172   3.441  0.4557 -3.2968  2.2088
 9116SOL    HW238808   2.407   3.130   3.410  1.8258  0.9758 -1.2822
 9117SOL     OW38809   3.564   1.605   7.418 -0.1053  0.4058 -0.1214
 9117SOL    HW138810   3.510   1.615   7.496 -0.3204 -0.2554 -0.1825
 9117SOL    HW238811   3.532   1.673   7.358  2.0159  2.0101  0.5697
 9118SOL     OW38812   1.651   4.688   2.281  0.6540  0.2407  0.0140
 9118SOL    HW138813   1.618   0.052   2.295  0.5934  0.2196  0.0020
 9118SOL    HW238814   1.582   4.649   2.229 -0.0023  1.8208 -0.2907
 9119SOL     OW38815   2.336   4.577   6.068  0.0671 -0.3234  0.5751
 9119SOL    HW138816   2.280   4.636   6.117 -0.1860  1.3082 -1.6799
 9119SOL    HW238817   2.425   4.610   6.079 -0.1823  0.1724  1.0788
 9120SOL     OW38818   1.667   2.821   2.416 -0.4126 -0.1584 -0.0767
 9120SOL    HW138819   1.641   2.746   2.361  0.4658 -0.6817  0.2229
 9120SOL    HW238820   1.590   2.878   2.404  0.7635  1.3306 -0.5114
 9121SOL     OW38821   3.274   3.248  12.647 -0.3444  0.4825 -0.3957
 9121SOL    HW138822   3.334   3.305  12.599 -1.9012  1.5632 -1.0697
 9121SOL    HW238823   3.331   3.176  12.675  1.3901  2.3359  0.7890
 9122SOL     OW38824   0.594   0.454   2.158  0.1995  0.0355  0.0925
 9122SOL    HW138825   0.592   0.491   2.070  0.1171 -0.3243 -0.0538
 9122SOL    HW238826   0.608   0.363   2.134 -2.7900 -0.2612 -0.5675
 9123SOL     OW38827   0.688   1.883  15.497 -0.0336 -0.3120 -0.2836
 9123SOL    HW138828   0.740   1.852  15.423  0.1879 -0.1050 -0.2153
 9123SOL    HW238829   0.719   1.821  15.563  3.4552  2.4838  0.7286
 9124SOL     OW38830   3.474   3.078   1.983 -0.1330  0.5612  0.6486
 9124SOL    HW138831   3.534   3.011   2.015  2.3076  2.2007 -0.5402
 9124SOL    HW238832   3.517   3.150   2.030  0.0927  1.0159 -0.2490
 9125SOL     OW38833   3.440   3.784   8.130 -0.5810  0.7160  0.9228
 9125SOL    HW138834   3.455   3.840   8.206  0.4178 -1.2122  2.1497
 9125SOL    HW238835   3.392   3.713   8.173 -0.6893 -0.0793 -0.5126
 9126SOL     OW38836   4.179   4.378   4.553  0.3222 -0.1401  0.0405
 9126SOL    HW138837   4.273   4.381   4.537 -0.0880  0.4796 -2.1965
 9126SOL    HW238838   4.179   4.290   4.592  0.4376  1.1437  2.9262
 9127SOL     OW38839   2.991   1.686   5.253  0.0658  0.1055  0.4110
 9127SOL    HW138840   2.994   1.719   5.164  2.3720 -0.5635  0.2484
 9127SOL    HW238841   2.909   1.636   5.261 -0.0817  0.2066 -0.5504
 9128SOL     OW38842   2.092   1.307   6.068 -0.0171  0.0620  0.0257
 9128SOL    HW138843   2.112   1.345   5.983  0.6187  1.4640  0.8007
 9128SOL    HW238844   2.178   1.338   6.098 -0.1390 -0.1407  0.5903
 9129SOL     OW38845   0.843   3.624   9.606 -0.0319 -0.1505 -0.1623
 9129SOL    HW138846   0.799   3.708   9.614 -1.6759 -0.9210 -0.9376
 9129SOL    HW238847   0.781   3.553   9.622 -0.0581 -0.2393 -0.6403
 9130SOL     OW38848   3.094   3.754   9.076 -0.5187  0.2084  0.0368
 9130SOL    HW138849   3.072   3.725   9.165  1.8306 -0.1433  0.4901
 9130SOL    HW238850   3.180   3.794   9.089 -0.9236  0.6848  1.2598
 9131SOL     OW38851   1.851   1.537   1.808  0.5055 -0.0468  0.3322
 9131SOL    HW138852   1.908   1.573   1.740 -0.1536 -1.6328 -1.0338
 9131SOL    HW238853   1.808   1.619   1.833  0.2835 -0.4363  1.2461
 9132SOL     OW38854   4.218   3.791   7.786 -0.6538 -0.4297  0.2051
 9132SOL    HW138855   4.158   3.795   7.711 -2.0740 -1.9964  1.2308
 9132SOL    HW238856   4.283   3.851   7.751 -1.7989  1.1346  0.7754
 9133SOL     OW38857   1.073   0.444   0.899 -0.2691  0.8620  0.1199
 9133SOL    HW138858   1.065   0.369   0.958 -1.9915 -1.0536 -2.5426
 9133SOL    HW238859   0.993   0.485   0.932 -1.1735 -0.2916 -0.6489
 9134SOL     OW38860   0.026   0.350  17.587  0.5940  0.4745  0.4871
 9134SOL    HW138861   4.673   0.399  17.564  0.3075  1.2350  3.0084
 9134SOL    HW238862   0.082   0.378  17.515  0.2764 -1.4152 -0.5028
 9135SOL     OW38863   2.644   2.318  11.480  0.8595 -0.0450 -0.2206
 9135SOL    HW138864   2.686   2.382  11.423 -0.2161  0.8640  0.0039
 9135SOL    HW238865   2.661   2.367  11.560 -0.6888 -1.0685  0.7458
 9136SOL     OW38866   2.002   0.193   5.368 -0.1864 -0.0443  0.3731
 9136SOL    HW138867   1.951   0.120   5.403  0.2597  0.6698  2.5243
 9136SOL    HW238868   2.070   0.194   5.435  0.7668 -2.0466 -0.5562
 9137SOL     OW38869   0.718   0.990  13.860 -0.1147 -0.6219  0.4924
 9137SOL    HW138870   0.657   0.932  13.814 -0.2895 -0.2560  0.2668
 9137SOL    HW238871   0.704   0.960  13.951 -0.3537 -0.8349  0.3852
 9138SOL     OW38872   2.188   4.673   9.816 -0.4568 -0.2020 -0.0520
 9138SOL    HW138873   2.266   4.647   9.866 -1.0635  0.9200  1.4602
 9138SOL    HW238874   2.127   4.714   9.877  0.2380 -1.0546  1.2058
 9139SOL     OW38875   3.944   0.150   6.141 -0.3442 -0.4645 -0.3446
 9139SOL    HW138876   4.022   0.152   6.085  0.5657 -3.7520  0.8524
 9139SOL    HW238877   3.964   0.064   6.177  0.5389  1.2487  3.2257
 9140SOL     OW38878   3.392   2.525  15.931 -0.3110 -0.4709  0.0311
 9140SOL    HW138879   3.396   2.431  15.913  0.7954 -0.5491  0.6402
 9140SOL    HW238880   3.443   2.558  15.857  2.3550 -2.2879  1.0549
 9141SOL     OW38881   0.492   4.693   1.264  0.0569 -0.0094 -0.2034
 9141SOL    HW138882   0.480   4.703   1.359 -1.4673  0.4794 -0.4505
 9141SOL    HW238883   0.462   0.054   1.236  2.2378  0.4370 -1.1916
 9142SOL     OW38884   3.019   2.048  15.844 -0.2654  0.4071  0.1251
 9142SOL    HW138885   2.989   2.044  15.754  2.5438 -1.3486 -0.7162
 9142SOL    HW238886   3.072   2.128  15.838  0.1366  0.1672  0.4877
 9143SOL     OW38887   1.774   3.457  17.306  0.5566  0.0931  0.1096
 9143SOL    HW138888   1.803   3.470  17.216 -0.8978  0.0436 -0.3668
 9143SOL    HW238889   1.762   3.551  17.322  1.1141 -0.1157  1.7033
 9144SOL     OW38890   1.056   3.211   0.427  0.0397  0.6295  0.6045
 9144SOL    HW138891   1.074   3.118   0.437  1.2956  0.7563 -0.4370
 9144SOL    HW238892   1.066   3.221   0.333  2.8816  3.1832  1.1465
 9145SOL     OW38893   0.530   2.376   6.839 -0.5239 -0.2357  0.3201
 9145SOL    HW138894   0.587   2.391   6.914  0.1419  1.0507 -0.4445
 9145SOL    HW238895   0.464   2.446   6.842 -0.1883  0.0401  1.3968
 9146SOL     OW38896   2.470   2.610   7.292  0.1164  0.2036  0.0111
 9146SOL    HW138897   2.529   2.534   7.297  0.7852  0.8029  1.2452
 9146SOL    HW238898   2.515   2.670   7.352  4.1059 -1.3139 -1.4572
 9147SOL     OW38899   0.098   1.135   4.574 -0.0508  0.3262 -0.2285
 9147SOL    HW138900   0.130   1.217   4.537 -0.8942  0.4443 -0.6859
 9147SOL    HW238901   0.021   1.118   4.520 -1.8834  4.6528  1.0180
 9148SOL     OW38902   4.079   4.299  12.988 -0.3745  0.4698  0.7625
 9148SOL    HW138903   4.075   4.386  13.027 -1.1015  0.8018 -0.0503
 9148SOL    HW238904   4.170   4.279  13.008 -0.2482 -0.3130 -0.5625
 9149SOL     OW38905   2.846   1.014  12.549 -0.2696  0.0580 -0.1204
 9149SOL    HW138906   2.911   0.963  12.502 -0.9553  1.2556 -2.3810
 9149SOL    HW238907   2.881   1.103  12.553  1.6853 -0.6491 -1.8675
 9150SOL     OW38908   3.772   4.607  16.458  0.0942 -0.2261  0.2289
 9150SOL    HW138909   3.739   4.585  16.371 -0.9604  1.2690  0.2458
 9150SOL    HW238910   3.862   4.628  16.434 -0.5758 -0.6224 -2.5902
 9151SOL     OW38911   2.725   1.229   2.194  0.5139  0.1790 -0.5582
 9151SOL    HW138912   2.788   1.157   2.192 -0.2785 -0.5712  1.7996
 9151SOL    HW238913   2.780   1.300   2.227  0.5889  0.1070 -0.5296
 9152SOL     OW38914   0.216   2.875   8.846  0.1689  0.3705  0.5865
 9152SOL    HW138915   0.283   2.833   8.792 -1.3236  0.7062 -1.5315
 9152SOL    HW238916   0.222   2.817   8.922  1.4359  0.6198  0.6631
 9153SOL     OW38917   2.555   3.971   5.870 -0.7100  0.3351  0.5080
 9153SOL    HW138918   2.537   3.879   5.848 -0.4607  0.4676 -0.2535
 9153SOL    HW238919   2.643   3.987   5.835 -0.8263  0.2921  0.1940
 9154SOL     OW38920   0.624   4.513  14.275 -0.4900 -0.0248  0.1010
 9154SOL    HW138921   0.584   4.550  14.196 -0.6681  0.9980  0.6685
 9154SOL    HW238922   0.582   4.427  14.279  1.6582 -1.0174  1.1473
 9155SOL     OW38923   4.528   4.413   9.029 -0.1151 -0.1890  0.0862
 9155SOL    HW138924   4.556   4.469   8.956  0.9946 -0.3383  0.3983
 9155SOL    HW238925   4.519   4.467   9.108  0.3199 -0.0454  0.0412
 9156SOL     OW38926   0.614   3.944   0.296 -0.2073 -0.0863  0.2856
 9156SOL    HW138927   0.591   3.880   0.228 -1.0072  0.3195  0.1706
 9156SOL    HW238928   0.667   4.004   0.242 -1.2530 -0.5149 -1.2376
 9157SOL     OW38929   1.438   0.574   0.453 -0.2307  0.0125 -0.1661
 9157SOL    HW138930   1.447   0.669   0.459  2.7625 -0.1099 -2.6086
 9157SOL    HW238931   1.528   0.547   0.469 -0.8945 -1.4786  1.0375
 9158SOL     OW38932   0.302   3.633   7.308 -0.6014 -0.3848 -0.3157
 9158SOL    HW138933   0.242   3.644   7.233  1.3861 -0.0160 -1.8466
 9158SOL    HW238934   0.386   3.650   7.266 -1.9358  0.3483 -2.7020
 9159SOL     OW38935   0.950   3.391   6.295  0.4948 -0.3572  0.0997
 9159SOL    HW138936   0.887   3.340   6.243  0.0611 -0.6373  0.9033
 9159SOL    HW238937   0.926   3.480   6.268  0.4748  0.3999  2.6103
 9160SOL     OW38938   1.375   0.025   3.652  0.0999 -0.2990 -0.1401
 9160SOL    HW138939   1.337   0.018   3.564 -0.9581  1.0303  0.2156
 9160SOL    HW238940   1.427   4.673   3.673  1.6720  0.0963 -2.5363
 9161SOL     OW38941   1.595   4.268  12.131  0.0795 -0.0119  0.3126
 9161SOL    HW138942   1.602   4.209  12.056 -0.7765  0.0664  0.1725
 9161SOL    HW238943   1.687   4.293  12.137  0.3643 -0.8341 -0.5735
 9162SOL     OW38944   4.403   4.003   3.765 -0.1587 -0.1596 -0.5042
 9162SOL    HW138945   4.388   3.933   3.702  1.6321  0.2829 -1.4082
 9162SOL    HW238946   4.469   4.058   3.724 -0.5232 -0.5251 -1.5840
 9163SOL     OW38947   2.353   2.352  11.181  0.5669 -0.0053 -0.4216
 9163SOL    HW138948   2.279   2.311  11.136  0.9150 -0.0664 -0.9449
 9163SOL    HW238949   2.355   2.309  11.266 -2.5198  1.4127  0.3459
 9164SOL     OW38950   3.928   0.621   8.381  0.0009  0.4092 -0.3187
 9164SOL    HW138951   3.845   0.658   8.410 -0.9121 -1.5428 -0.3885
 9164SOL    HW238952   3.955   0.571   8.459  0.9585  0.4146 -0.6489
 9165SOL     OW38953   0.427   2.946   1.676  0.2187  0.1300 -0.0886
 9165SOL    HW138954   0.472   3.007   1.618  0.6466  1.8514  2.0199
 9165SOL    HW238955   0.394   2.887   1.609 -2.0359  0.9591  0.2597
 9166SOL     OW38956   4.056   1.307  16.207  0.3552 -0.4301 -0.7175
 9166SOL    HW138957   4.103   1.389  16.190 -0.9526  0.5569  0.4741
 9166SOL    HW238958   3.977   1.335  16.253 -0.3374 -0.2986 -1.9744
 9167SOL     OW38959   3.623   1.030  11.220  0.1676 -0.1449  0.4807
 9167SOL    HW138960   3.527   1.032  11.217  0.3005 -0.1790 -2.7232
 9167SOL    HW238961   3.635   0.937  11.241  0.5298 -0.5273 -1.4796
 9168SOL     OW38962   0.440   1.191  16.467 -0.1587 -0.0503 -0.2044
 9168SOL    HW138963   0.385   1.123  16.426 -1.9713  0.3547  1.5658
 9168SOL    HW238964   0.382   1.267  16.458 -1.0454 -0.6823  0.1428
 9169SOL     OW38965   3.463   3.669   6.162  0.2440 -0.5655  0.3058
 9169SOL    HW138966   3.461   3.575   6.181 -1.3240 -0.8016 -0.9901
 9169SOL    HW238967   3.374   3.696   6.186  0.0793  0.4327 -1.4640
 9170SOL     OW38968   4.090   4.311   7.537 -0.4738  0.3566  0.0162
 9170SOL    HW138969   4.139   4.307   7.619  0.8119  0.6647 -0.7473
 9170SOL    HW238970   4.139   4.249   7.482  0.0072  2.3181 -1.7625
 9171SOL     OW38971   0.228   3.201   5.333 -0.0950  0.1502  0.3611
 9171SOL    HW138972   0.212   3.196   5.427 -2.0369  1.7744  0.1189
 9171SOL    HW238973   0.138   3.208   5.300 -0.0905 -1.9943 -0.1075
 9172SOL     OW38974   3.599   3.782   9.877 -0.6597  0.1363  0.2189
 9172SOL    HW138975   3.549   3.703   9.898 -1.8514  0.9961  0.6315
 9172SOL    HW238976   3.544   3.820   9.809 -0.2373  1.2360  0.4861
 9173SOL     OW38977   0.687   1.932   6.837  0.2573  1.1432 -0.1921
 9173SOL    HW138978   0.599   1.918   6.802  0.5208 -1.8689  0.3571
 9173SOL    HW238979   0.671   1.943   6.931  0.4107 -1.9705  0.2006
 9174SOL     OW38980   2.342   4.163   6.344  0.4852 -0.4852  0.0337
 9174SOL    HW138981   2.250   4.173   6.366  1.1555  2.2615  1.6595
 9174SOL    HW238982   2.358   4.252   6.376  0.3989 -0.5526  0.2630
 9175SOL     OW38983   0.801   1.671   6.780  0.0619 -0.1079 -0.2347
 9175SOL    HW138984   0.763   1.755   6.805  0.7448  0.7831 -2.2192
 9175SOL    HW238985   0.730   1.636   6.725 -0.1057  1.7173 -1.1681
 9176SOL     OW38986   4.492   3.850  12.071  0.1724 -0.5958 -0.2190
 9176SOL    HW138987   4.404   3.881  12.047 -0.7395 -2.1598  1.0303
 9176SOL    HW238988   4.527   3.929  12.112  1.3032 -1.3857  0.3179
 9177SOL     OW38989   1.602   0.397   8.241 -0.2530  0.2743 -0.8258
 9177SOL    HW138990   1.613   0.318   8.189 -2.2043 -1.3290  1.1995
 9177SOL    HW238991   1.694   0.422   8.247 -0.0415 -0.5092 -0.8083
 9178SOL     OW38992   1.164   3.440   2.671 -0.0163  0.0168 -0.5391
 9178SOL    HW138993   1.218   3.483   2.738  0.8401 -2.4485  0.3725
 9178SOL    HW238994   1.191   3.498   2.600  0.2782  2.1398  1.3092
 9179SOL     OW38995   1.876   0.627  15.713  0.0263  0.2390  0.8544
 9179SOL    HW138996   1.892   0.589  15.799 -0.5074  1.4145  1.4710
 9179SOL    HW238997   1.782   0.644  15.718  0.0778  0.7125  0.1896
 9180SOL     OW38998   3.054   1.653   1.985 -0.2363  0.1507 -0.7928
 9180SOL    HW138999   3.105   1.661   1.904  0.0865  2.6177 -0.3357
 9180SOL    HW239000   2.964   1.679   1.969 -0.5799 -0.0157  0.8786
 9181SOL     OW39001   1.779   0.092   8.342  0.1747 -0.0875 -0.1548
 9181SOL    HW139002   1.835   0.117   8.416  1.1370 -0.9822 -0.5782
 9181SOL    HW239003   1.797   4.724   8.344  0.2371  0.0087  4.2089
 9182SOL     OW39004   3.798   1.514  17.480 -0.7331  0.0351  0.6979
 9182SOL    HW139005   3.857   1.544  17.549 -2.2814  1.9343  1.2064
 9182SOL    HW239006   3.851   1.556  17.412 -1.5219 -0.5785 -0.2856
 9183SOL     OW39007   2.126   3.123   4.875  0.3209  0.0687 -0.5627
 9183SOL    HW139008   2.127   3.141   4.969  0.8242 -0.8684 -0.3928
 9183SOL    HW239009   2.219   3.112   4.854  0.5111 -1.9384  1.2843
 9184SOL     OW39010   1.611   3.274   6.819 -1.2773  0.0152  0.1731
 9184SOL    HW139011   1.595   3.182   6.841  0.9572  0.0270  1.9118
 9184SOL    HW239012   1.647   3.302   6.903 -0.4127 -0.1957 -0.1304
 9185SOL     OW39013   3.274   4.218   1.859 -0.6369  0.4177 -0.5412
 9185SOL    HW139014   3.219   4.196   1.784 -0.4497 -2.6392  0.2334
 9185SOL    HW239015   3.210   4.205   1.929  1.6945  1.0392  1.7057
 9186SOL     OW39016   2.562   3.032   2.238 -1.1308  0.0661 -0.9039
 9186SOL    HW139017   2.606   3.015   2.155 -2.7274 -0.2580 -1.6784
 9186SOL    HW239018   2.507   2.954   2.238 -0.5391 -0.3561  3.0858
 9187SOL     OW39019   0.547   2.307  11.249  0.3587  0.5691 -0.0173
 9187SOL    HW139020   0.466   2.275  11.210  0.3139  0.4453  0.1783
 9187SOL    HW239021   0.570   2.375  11.185 -0.4502  0.3764 -0.5174
 9188SOL     OW39022   1.697   3.505   0.342 -0.2628  0.1229 -0.0809
 9188SOL    HW139023   1.643   3.449   0.285  1.1624  1.8682 -3.1116
 9188SOL    HW239024   1.638   3.579   0.356 -0.2023  0.6792 -2.7983
 9189SOL     OW39025   1.261   2.959   0.814 -0.6364  0.4295 -0.8906
 9189SOL    HW139026   1.253   2.955   0.719 -0.5783  0.9491 -0.9167
 9189SOL    HW239027   1.354   2.981   0.824 -0.2747 -1.8658  0.7792
 9190SOL     OW39028   4.391   0.541  12.817  0.4325  0.6149  0.4177
 9190SOL    HW139029   4.347   0.502  12.892 -0.7053  1.0209 -0.0414
 9190SOL    HW239030   4.357   0.478  12.754 -1.3644  1.4534  0.5394
 9191SOL     OW39031   2.279   0.858   4.932 -0.0803  0.0436 -0.2827
 9191SOL    HW139032   2.241   0.849   4.844 -1.1956 -1.6002  0.3454
 9191SOL    HW239033   2.205   0.834   4.988  0.7504  1.2023  1.3121
 9192SOL     OW39034   1.061   3.835   3.577  0.1272 -0.0813 -0.1031
 9192SOL    HW139035   1.010   3.915   3.592  0.5451  0.3620 -0.9933
 9192SOL    HW239036   1.002   3.773   3.618 -0.2970  0.0484 -0.5202
 9193SOL     OW39037   4.053   2.012   8.364  0.0460 -0.1016  0.5441
 9193SOL    HW139038   4.130   1.969   8.327  0.3161  1.1826 -0.3836
 9193SOL    HW239039   4.098   2.068   8.427 -1.9803 -0.9526  2.7254
 9194SOL     OW39040   0.562   2.865   5.639 -0.3873 -0.0685 -0.2252
 9194SOL    HW139041   0.609   2.931   5.690 -0.0245  0.2627 -0.9769
 9194SOL    HW239042   0.630   2.818   5.591  0.1914  1.9470 -1.4034
 9195SOL     OW39043   0.103   3.483   1.315  0.6821  0.4681  0.1557
 9195SOL    HW139044   0.072   3.423   1.383 -0.2442 -2.7657 -3.1524
 9195SOL    HW239045   0.166   3.534   1.367  2.4237 -0.1542 -1.3300
 9196SOL     OW39046   2.657   3.604  12.796  0.4529  0.2872  0.2174
 9196SOL    HW139047   2.735   3.611  12.852 -0.9770 -1.5202  2.4420
 9196SOL    HW239048   2.606   3.540  12.846  1.0549  0.9472  1.6941
 9197SOL     OW39049   0.951   2.977   4.300 -0.4228  0.2780 -0.7745
 9197SOL    HW139050   0.864   3.017   4.303  0.0674  1.0821  2.2561
 9197SOL    HW239051   0.959   2.935   4.386 -1.1768  0.1675 -0.7591
 9198SOL     OW39052   0.841   2.451  16.626 -0.1928  0.0504 -0.0052
 9198SOL    HW139053   0.898   2.436  16.701  0.4911 -1.2344 -0.7632
 9198SOL    HW239054   0.866   2.541  16.604  0.5474 -0.4285 -1.1717
 9199SOL     OW39055   4.294   1.884   4.902  0.5504 -0.0756  0.1066
 9199SOL    HW139056   4.233   1.940   4.949  0.9316 -1.2525  2.0296
 9199SOL    HW239057   4.343   1.836   4.969  1.6831  0.7145 -0.1457
 9200SOL     OW39058   4.125   0.526  15.707  0.2127  0.1388  0.0660
 9200SOL    HW139059   4.056   0.555  15.648  0.0377  0.2569  0.3282
 9200SOL    HW239060   4.095   0.435  15.706 -1.8481  0.8462 -1.6585
 9201SOL     OW39061   0.383   2.455  11.988  0.1033 -0.7592 -0.2580
 9201SOL    HW139062   0.332   2.453  11.907 -1.2848 -1.3514  0.6405
 9201SOL    HW239063   0.453   2.513  11.958 -0.2714 -0.8545 -1.3282
 9202SOL     OW39064   3.986   2.797   9.116  0.2319  0.2285  0.0877
 9202SOL    HW139065   4.004   2.844   9.034 -0.8142 -0.1011 -0.3367
 9202SOL    HW239066   3.972   2.871   9.175 -0.8585  0.4236 -0.4116
 9203SOL     OW39067   2.713   1.412  13.503 -0.0341  0.7839 -0.8339
 9203SOL    HW139068   2.794   1.447  13.466 -0.3005  2.8189  0.5387
 9203SOL    HW239069   2.714   1.334  13.446 -1.4235 -0.0860  0.3299
 9204SOL     OW39070   2.305   3.228   3.189  0.2968 -0.0477  0.2750
 9204SOL    HW139071   2.217   3.227   3.151 -0.1912  0.3932  1.4009
 9204SOL    HW239072   2.347   3.303   3.148 -0.3496  1.2980  2.0900
 9205SOL     OW39073   0.567   0.391   6.177 -0.5163  0.6060 -0.1605
 9205SOL    HW139074   0.644   0.354   6.133 -1.0882  0.7355 -1.2965
 9205SOL    HW239075   0.519   0.422   6.100 -0.1286  3.1419  0.6383
 9206SOL     OW39076   3.126   0.249   5.952 -0.2643  0.3850 -0.6706
 9206SOL    HW139077   3.119   0.188   6.025  1.5156 -0.0403 -0.8433
 9206SOL    HW239078   3.096   0.205   5.872  0.0236 -0.9426 -0.0479
 9207SOL     OW39079   0.862   4.658  15.544  0.1428 -0.4188  0.1394
 9207SOL    HW139080   0.874   4.721  15.473  1.3304  1.6282  2.1677
 9207SOL    HW239081   0.949   4.675  15.580  0.6775 -1.9586 -0.4462
 9208SOL     OW39082   4.107   3.735   2.633  0.2732 -0.5113 -0.7154
 9208SOL    HW139083   4.063   3.740   2.548 -2.6748 -1.1627  0.7510
 9208SOL    HW239084   4.114   3.642   2.652 -1.1362 -0.0931  1.9564
 9209SOL     OW39085   3.991   2.738  17.242  0.7900 -0.2052 -0.1039
 9209SOL    HW139086   3.963   2.724  17.151  1.1436  2.7384 -0.6760
 9209SOL    HW239087   4.000   2.647  17.270 -1.7437 -0.7188 -0.9322
 9210SOL     OW39088   4.185   2.141   2.828 -0.2079  0.6700 -0.0350
 9210SOL    HW139089   4.143   2.084   2.893 -0.8061  1.9126  0.6744
 9210SOL    HW239090   4.109   2.155   2.771  0.6865  1.4363 -1.0296
 9211SOL     OW39091   0.268   2.659   3.820 -0.1156 -0.2820  0.1024
 9211SOL    HW139092   0.201   2.616   3.766  0.0298  0.6471 -0.8066
 9211SOL    HW239093   0.257   2.752   3.802  2.8381  0.4172  1.8938
 9212SOL     OW39094   2.414   3.416   3.014  0.1416  0.6241 -0.4561
 9212SOL    HW139095   2.373   3.500   3.035 -0.8198  0.4334 -1.5883
 9212SOL    HW239096   2.498   3.425   3.059  0.4416  1.4340 -1.1898
 9213SOL     OW39097   3.945   3.823  12.141 -0.7754 -0.3907 -0.6314
 9213SOL    HW139098   3.993   3.864  12.213 -0.0984 -2.2398 -0.0181
 9213SOL    HW239099   3.852   3.832  12.164  0.0355 -0.5123  2.6715
 9214SOL     OW39100   3.877   4.235   9.908  0.2157  0.1714 -0.1701
 9214SOL    HW139101   3.923   4.273   9.983 -0.3249  0.2296  0.1403
 9214SOL    HW239102   3.795   4.214   9.954  0.3632  0.6214  0.3000
 9215SOL     OW39103   3.094   4.108   7.006  0.1252 -0.5766  0.2090
 9215SOL    HW139104   3.066   4.072   7.089 -0.4164 -0.3197  0.1411
 9215SOL    HW239105   3.057   4.046   6.943 -1.7182  0.6238  0.0989
 9216SOL     OW39106   0.991   1.717   9.102 -0.1370  0.6312 -0.8151
 9216SOL    HW139107   0.917   1.749   9.051 -2.1528 -2.3686  0.2212
 9216SOL    HW239108   0.998   1.779   9.174 -1.1799  1.6123 -1.5655
 9217SOL     OW39109   2.275   2.281   7.144  0.3722  0.4418  0.0728
 9217SOL    HW139110   2.251   2.206   7.199 -1.6806  1.3102  0.3637
 9217SOL    HW239111   2.215   2.263   7.072  0.5765  1.8884 -0.4459
 9218SOL     OW39112   4.032   2.660  11.357  0.5022 -0.0424  0.4376
 9218SOL    HW139113   3.955   2.694  11.310 -0.2370 -1.9884  0.2442
 9218SOL    HW239114   4.062   2.744  11.392  0.3415  0.0395  0.3820
 9219SOL     OW39115   0.926   3.845   2.416 -0.3127 -0.2782 -0.3041
 9219SOL    HW139116   0.989   3.849   2.344 -2.2868  3.9419 -1.7990
 9219SOL    HW239117   0.968   3.804   2.491 -1.2018 -0.8182 -0.0969
 9220SOL     OW39118   4.160   3.395  12.047 -0.1623 -0.4796  0.8606
 9220SOL    HW139119   4.169   3.382  12.141 -1.4068 -0.8678  0.9235
 9220SOL    HW239120   4.138   3.488  12.044 -0.0348 -0.4967 -0.8666
 9221SOL     OW39121   4.584   2.794   2.285  0.4083 -0.2068 -0.4558
 9221SOL    HW139122   4.596   2.859   2.216 -0.1930 -0.0644 -0.4223
 9221SOL    HW239123   4.631   2.834   2.358  1.2417 -1.3640 -0.3557
 9222SOL     OW39124   1.034   2.435   5.399 -0.2465  0.0585  0.6050
 9222SOL    HW139125   1.036   2.528   5.377  0.5951 -0.1754 -0.3244
 9222SOL    HW239126   1.081   2.405   5.321  2.2704  0.5358  1.9261
 9223SOL     OW39127   0.932   1.559   3.520  0.2551  0.1021  0.6883
 9223SOL    HW139128   0.943   1.506   3.600  0.2005  0.0901  0.6880
 9223SOL    HW239129   0.907   1.496   3.452 -0.5322 -0.4975  1.5108
 9224SOL     OW39130   1.593   0.474   3.977 -0.4084 -0.4174  0.4023
 9224SOL    HW139131   1.552   0.467   3.891 -0.6915 -1.2568  0.6129
 9224SOL    HW239132   1.687   0.486   3.958 -0.6206  1.5156  0.5245
 9225SOL     OW39133   1.420   3.753   6.919 -0.0151  0.2767  0.1906
 9225SOL    HW139134   1.381   3.668   6.940 -1.8733  1.8544  3.1929
 9225SOL    HW239135   1.465   3.769   7.002  1.5876  2.1324 -1.0447
 9226SOL     OW39136   0.264   1.267  10.337 -0.0908  0.3835 -0.0559
 9226SOL    HW139137   0.337   1.303  10.388 -0.8913 -1.3193  2.2855
 9226SOL    HW239138   0.199   1.246  10.404 -0.6797 -0.4805 -0.9013
 9227SOL     OW39139   3.981   2.088   2.570 -0.4300 -0.3479  0.5970
 9227SOL    HW139140   3.968   1.994   2.568 -1.3406 -0.2104 -0.1341
 9227SOL    HW239141   3.897   2.127   2.543  0.6307  1.4003 -0.2008
 9228SOL     OW39142   3.147   4.484  17.578  0.7269  0.3988 -0.7505
 9228SOL    HW139143   3.199   4.502  17.499  1.8386 -0.5856 -0.2537
 9228SOL    HW239144   3.197   4.534  17.643 -0.3953  0.6771 -0.1182
 9229SOL     OW39145   3.806   1.490   2.986 -0.0482 -0.0708 -0.1445
 9229SOL    HW139146   3.837   1.401   3.001  0.3739 -0.0312 -0.7628
 9229SOL    HW239147   3.719   1.496   3.027 -1.8167 -1.2457 -3.7082
 9230SOL     OW39148   2.141   2.793   9.030 -0.4679  0.4063 -0.4254
 9230SOL    HW139149   2.091   2.744   8.964 -0.7180  1.5811 -1.1110
 9230SOL    HW239150   2.216   2.816   8.975 -1.0330  0.9760 -0.9645
 9231SOL     OW39151   2.368   1.426   6.046  0.7478  0.0663 -0.4401
 9231SOL    HW139152   2.412   1.487   5.987 -2.4834  2.1842 -0.6812
 9231SOL    HW239153   2.352   1.482   6.122 -1.0139  0.2482 -0.9581
 9232SOL     OW39154   4.286   2.375   2.369  0.9019 -0.1218 -0.1361
 9232SOL    HW139155   4.214   2.324   2.332  2.2224 -0.9188 -1.5823
 9232SOL    HW239156   4.358   2.312   2.366  1.3422  0.1972  3.0214
 9233SOL     OW39157   3.706   2.798  15.528 -0.2775  0.2568 -0.1677
 9233SOL    HW139158   3.611   2.799  15.519 -0.3215  0.8357  0.3857
 9233SOL    HW239159   3.716   2.757  15.613 -0.5274  1.0758  0.2621
 9234SOL     OW39160   1.268   2.442   3.122 -0.9909 -0.0340 -0.2285
 9234SOL    HW139161   1.297   2.477   3.206 -1.3231  0.2490 -0.2324
 9234SOL    HW239162   1.344   2.473   3.073 -0.2135 -2.8795 -0.7767
 9235SOL     OW39163   2.009   0.413   3.829 -0.3849  0.6642  0.1240
 9235SOL    HW139164   1.948   0.486   3.821 -0.4434  0.9037  2.5124
 9235SOL    HW239165   2.085   0.445   3.779 -0.8043 -0.2848 -1.1069
 9236SOL     OW39166   2.455   0.791   7.884 -0.2017 -0.2636  0.1684
 9236SOL    HW139167   2.408   0.744   7.952  0.7807  1.1757  1.8322
 9236SOL    HW239168   2.394   0.862   7.862  1.4949  0.4572 -2.2321
 9237SOL     OW39169   1.277   3.976  14.668  0.1658 -0.5274 -0.1430
 9237SOL    HW139170   1.295   3.890  14.630  0.7580 -0.8003  0.7778
 9237SOL    HW239171   1.362   4.017  14.684  0.5750 -1.3545 -0.1977
 9238SOL     OW39172   4.505   3.385   1.420 -0.2250 -0.1038  0.9655
 9238SOL    HW139173   4.441   3.412   1.354  0.0976 -1.3186  0.1599
 9238SOL    HW239174   4.531   3.463   1.469 -0.7785  0.1429  0.8669
 9239SOL     OW39175   0.754   4.509   8.574 -0.7039  0.0993  0.0083
 9239SOL    HW139176   0.811   4.463   8.513  0.2965  2.7673 -1.0362
 9239SOL    HW239177   0.801   4.529   8.655  0.4695 -0.4538 -0.5483
 9240SOL     OW39178   0.423   1.901   0.108 -0.4351 -0.5294 -0.1317
 9240SOL    HW139179   0.358   1.867   0.169  0.8131  1.1573  2.1253
 9240SOL    HW239180   0.391   1.991   0.100  0.7611  0.1773  3.0355
 9241SOL     OW39181   2.157   4.096   4.832 -0.3092 -0.5702 -0.0857
 9241SOL    HW139182   2.129   4.108   4.741 -0.3128 -0.4530 -0.0699
 9241SOL    HW239183   2.241   4.069   4.795 -1.0658 -2.2625 -0.5620
 9242SOL     OW39184   0.126   1.863   8.077 -0.4214 -0.4888 -0.9912
 9242SOL    HW139185   0.157   1.951   8.057  3.2359 -1.5525  0.1322
 9242SOL    HW239186   0.147   1.815   7.997 -0.0147 -0.7068 -0.7515
 9243SOL     OW39187   3.510   2.301  13.027 -0.2427  0.2043  0.3939
 9243SOL    HW139188   3.531   2.220  13.073 -1.9657 -0.1123  0.6136
 9243SOL    HW239189   3.502   2.272  12.936  0.2723  1.7048 -0.1374
 9244SOL     OW39190   1.471   2.087   9.416  0.2054  0.4627 -0.1996
 9244SOL    HW139191   1.437   2.001   9.439 -0.1929  0.8475  0.6553
 9244SOL    HW239192   1.558   2.091   9.457  0.2541  0.2264 -0.2794
 9245SOL     OW39193   3.338   2.949   3.527 -0.0454  0.7391  0.2055
 9245SOL    HW139194   3.286   3.003   3.587 -1.3870  0.5568 -0.8110
 9245SOL    HW239195   3.403   2.912   3.587  0.3090 -1.4213 -1.5282
 9246SOL     OW39196   4.194   0.094   8.681  0.1247 -0.4242 -0.0587
 9246SOL    HW139197   4.137   0.163   8.715  0.3728 -0.1146 -0.2794
 9246SOL    HW239198   4.138   0.032   8.634  0.4665 -1.6615  1.1665
 9247SOL     OW39199   0.267   3.636   1.507  0.2492  0.4613  0.0667
 9247SOL    HW139200   0.249   3.720   1.465  1.7810  0.8406  0.1725
 9247SOL    HW239201   0.301   3.664   1.591  0.6251 -2.4706  0.8721
 9248SOL     OW39202   4.463   2.720   7.889  0.3688  0.6270  0.1365
 9248SOL    HW139203   4.436   2.805   7.924  1.1358  0.0245  2.1909
 9248SOL    HW239204   4.557   2.723   7.904  0.5211 -2.6594 -0.3027
 9249SOL     OW39205   4.043   1.009   5.808  0.3099 -0.0923 -0.4982
 9249SOL    HW139206   4.014   0.921   5.830  0.9919 -0.2156 -0.0908
 9249SOL    HW239207   4.070   1.001   5.716  0.6905  1.1629 -0.5075
 9250SOL     OW39208   3.484   3.045   9.800  0.2252  0.3408 -0.0676
 9250SOL    HW139209   3.418   3.109   9.775  0.4764  0.5902 -0.1025
 9250SOL    HW239210   3.469   3.045   9.894 -0.2223 -2.0599 -0.1343
 9251SOL     OW39211   3.172   2.106   8.323  0.0294  0.4999 -0.2615
 9251SOL    HW139212   3.101   2.143   8.270 -0.4882 -1.4824 -0.9280
 9251SOL    HW239213   3.245   2.153   8.283 -0.3383  1.5581  0.2986
 9252SOL     OW39214   0.640   0.422  12.653 -0.0868 -0.4169  0.2079
 9252SOL    HW139215   0.658   0.515  12.665  1.3460 -0.8390  1.3259
 9252SOL    HW239216   0.608   0.414  12.563 -2.8103  0.4053  1.1071
 9253SOL     OW39217   2.976   4.294   7.264 -0.4437 -0.0447 -0.2305
 9253SOL    HW139218   2.952   4.298   7.172  0.1296  1.8315 -0.2996
 9253SOL    HW239219   2.923   4.367   7.299  3.3480  1.9444  1.4183
 9254SOL     OW39220   1.148   4.329   6.871 -0.0763 -0.3708  0.2199
 9254SOL    HW139221   1.199   4.297   6.797  1.0142  1.1556  0.3073
 9254SOL    HW239222   1.082   4.260   6.882 -2.8639  2.4932  1.3328
 9255SOL     OW39223   1.041   1.780  10.301 -0.0139 -0.4223  0.1887
 9255SOL    HW139224   1.034   1.869  10.269  2.6101  0.0705  0.9311
 9255SOL    HW239225   1.061   1.780  10.395  1.6925 -0.8364 -0.1707
 9256SOL     OW39226   0.776   3.798   2.144  0.1872 -0.4923 -0.3268
 9256SOL    HW139227   0.730   3.818   2.063  0.2583 -1.5082 -0.6205
 9256SOL    HW239228   0.861   3.791   2.100  0.0988 -0.9247 -0.4242
 9257SOL     OW39229   0.259   2.109   0.843 -0.1905  0.3157  0.5309
 9257SOL    HW139230   0.346   2.143   0.821 -0.2472 -0.2968 -0.6335
 9257SOL    HW239231   0.282   2.017   0.857  2.5714  1.1872  1.6149
 9258SOL     OW39232   0.478   0.178   5.942  0.0118 -0.3375  0.3527
 9258SOL    HW139233   0.438   0.262   5.963 -1.3706 -0.4968 -1.6107
 9258SOL    HW239234   0.571   0.199   5.942  0.2557 -1.4305 -0.9595
 9259SOL     OW39235   0.981   1.151  14.594  0.4113  0.1136  0.3798
 9259SOL    HW139236   0.898   1.104  14.605 -0.3857  2.0183  2.4496
 9259SOL    HW239237   0.971   1.209  14.670 -0.9140  0.8567 -0.3532
 9260SOL     OW39238   1.861   3.321   2.411 -0.3333 -0.0787 -0.3472
 9260SOL    HW139239   1.812   3.279   2.341 -0.2409  1.8599 -1.5674
 9260SOL    HW239240   1.823   3.408   2.404 -1.2363 -0.5093 -0.8362
 9261SOL     OW39241   2.490   4.391  15.978 -0.3233  0.1181 -0.6197
 9261SOL    HW139242   2.524   4.366  16.064 -1.8238  1.0578  0.2315
 9261SOL    HW239243   2.398   4.408  15.995  0.1858  3.1235 -0.8246
 9262SOL     OW39244   4.695   3.322   5.943 -0.2118 -0.1684  0.0457
 9262SOL    HW139245   4.657   3.302   6.029  3.0631 -0.9364  1.2762
 9262SOL    HW239246   0.022   3.244   5.930  0.5355  0.3912 -0.2780
 9263SOL     OW39247   4.300   1.149  14.863 -0.7186  0.6261 -0.0223
 9263SOL    HW139248   4.384   1.110  14.885  1.7131  3.7892 -3.8531
 9263SOL    HW239249   4.295   1.223  14.924  0.3025 -0.4967  1.4132
 9264SOL     OW39250   4.253   1.501   4.622 -0.3796  0.3447 -0.3834
 9264SOL    HW139251   4.335   1.453   4.631 -0.7479 -0.7197 -2.8638
 9264SOL    HW239252   4.204   1.463   4.549 -0.1331  1.4878 -1.1448
 9265SOL     OW39253   3.835   4.541   7.844 -0.2605 -0.0473 -0.0596
 9265SOL    HW139254   3.842   4.501   7.931  1.4845 -1.2090 -0.7150
 9265SOL    HW239255   3.777   4.476   7.805 -0.2049 -0.0219 -0.1838
 9266SOL     OW39256   3.109   0.215   0.411 -0.4570  0.0405  0.3821
 9266SOL    HW139257   3.137   0.260   0.331 -1.7959  1.9484  0.9985
 9266SOL    HW239258   3.049   0.276   0.453 -0.1353  0.7015 -0.0938
 9267SOL     OW39259   1.550   3.720   3.926  0.1184 -0.4060 -0.0475
 9267SOL    HW139260   1.520   3.781   3.993  0.5311  0.3961 -0.5927
 9267SOL    HW239261   1.499   3.642   3.948  0.6746 -0.6613  0.3324
 9268SOL     OW39262   1.345   0.066   6.842 -0.1788 -0.5794 -0.0022
 9268SOL    HW139263   1.419   0.059   6.782 -0.0522  0.3154  0.0575
 9268SOL    HW239264   1.390   0.051   6.925 -0.4037 -3.1690 -0.3496
 9269SOL     OW39265   1.698   3.025   5.181  0.1662  0.7999 -0.3614
 9269SOL    HW139266   1.722   3.030   5.274 -0.5051 -1.5440 -0.0693
 9269SOL    HW239267   1.776   3.001   5.131  0.2300  1.3631 -0.5415
 9270SOL     OW39268   0.755   0.328   9.030  0.3665  0.2118 -0.2079
 9270SOL    HW139269   0.845   0.357   9.044  0.8382 -2.0698  1.4802
 9270SOL    HW239270   0.777   0.290   8.945  0.9056  2.2230 -0.9651
 9271SOL     OW39271   1.294   1.954   2.407  0.1124 -0.3184  0.7638
 9271SOL    HW139272   1.341   1.902   2.342  0.0290 -0.9882  1.2503
 9271SOL    HW239273   1.354   2.028   2.409 -0.1083 -0.0552 -1.7240
 9272SOL     OW39274   0.947   1.506   5.102  0.4814  0.1712 -0.0730
 9272SOL    HW139275   0.876   1.517   5.039  0.8110  1.1304 -0.2784
 9272SOL    HW239276   1.015   1.557   5.057  0.8850 -0.1876  0.1371
 9273SOL     OW39277   0.976   0.518   3.837  0.6167 -0.2078  0.3309
 9273SOL    HW139278   0.940   0.541   3.751 -1.3857 -0.3872  1.1105
 9273SOL    HW239279   0.972   0.422   3.837  0.9830 -0.2271 -0.9520
 9274SOL     OW39280   2.587   1.647  17.422  0.2562 -0.3599  0.5269
 9274SOL    HW139281   2.636   1.691  17.352 -2.2265  0.7443 -0.5034
 9274SOL    HW239282   2.664   1.607  17.462  0.2954 -2.7250 -1.8881
 9275SOL     OW39283   2.828   4.251   0.086 -0.3885  0.3178  0.2217
 9275SOL    HW139284   2.793   4.235   0.173 -0.1798  1.7846  0.5661
 9275SOL    HW239285   2.920   4.265   0.110  0.4126 -0.4633 -2.3157
 9276SOL     OW39286   0.786   2.368   1.447 -0.2815  0.2237 -0.1182
 9276SOL    HW139287   0.814   2.315   1.372 -1.7890 -0.3368 -0.3010
 9276SOL    HW239288   0.729   2.318   1.506 -0.5563  1.4865  0.6670
 9277SOL     OW39289   1.469   2.981   2.324  0.0516 -0.2273 -0.2680
 9277SOL    HW139290   1.505   2.964   2.237 -0.0979  2.9485 -0.9363
 9277SOL    HW239291   1.378   2.994   2.297  0.4068  2.7979 -0.0350
 9278SOL     OW39292   2.784   1.678   6.563  0.1229 -0.2344  0.0733
 9278SOL    HW139293   2.825   1.717   6.485 -1.3878 -0.1651 -0.6983
 9278SOL    HW239294   2.698   1.720   6.561 -1.1765 -2.8733  0.5087
 9279SOL     OW39295   3.106   2.760   0.334 -0.3901 -0.4945 -0.1946
 9279SOL    HW139296   3.197   2.734   0.352 -0.0345  0.9307  0.0804
 9279SOL    HW239297   3.130   2.830   0.273 -0.9980  0.4917  0.7040
 9280SOL     OW39298   3.254   3.730   3.273 -0.5018 -0.5033 -0.5202
 9280SOL    HW139299   3.169   3.710   3.313  0.9468 -2.7741  1.4099
 9280SOL    HW239300   3.299   3.646   3.282 -0.8010 -0.7014 -0.8351
 9281SOL     OW39301   2.827   2.293   1.958 -0.0773  0.3262  0.0955
 9281SOL    HW139302   2.774   2.363   1.919  1.0029 -0.7978 -3.4070
 9281SOL    HW239303   2.911   2.312   1.916 -0.5851 -1.1873 -1.5868
 9282SOL     OW39304   3.775   2.356   7.251  0.6629 -0.0349  0.7650
 9282SOL    HW139305   3.801   2.267   7.275 -3.1720 -1.7884 -1.4982
 9282SOL    HW239306   3.679   2.358   7.260  0.6560 -0.9112  0.9019
 9283SOL     OW39307   1.708   1.198   7.705  0.1169  0.6124 -0.0794
 9283SOL    HW139308   1.766   1.122   7.692  0.0849  0.5907 -0.0968
 9283SOL    HW239309   1.651   1.154   7.768 -1.4100  0.8899 -1.2715
 9284SOL     OW39310   3.738   4.271  17.174 -0.5198 -0.5484 -0.6432
 9284SOL    HW139311   3.745   4.321  17.093 -1.1816 -0.6286 -0.7512
 9284SOL    HW239312   3.765   4.340  17.235 -1.7240  0.8027 -1.6298
 9285SOL     OW39313   4.130   1.861   3.775 -0.1082  0.4806  0.2365
 9285SOL    HW139314   4.194   1.900   3.716  1.4492 -0.6734  1.1754
 9285SOL    HW239315   4.185   1.847   3.852  0.0383 -0.0566  0.0312
 9286SOL     OW39316   3.511   4.704   3.753  0.0869  0.3404 -0.1081
 9286SOL    HW139317   3.470   4.705   3.667 -0.8472  0.2656  0.3401
 9286SOL    HW239318   3.435   4.698   3.810 -0.2437 -2.8960 -0.8857
 9287SOL     OW39319   3.957   1.850  14.553  0.8508  0.2038  0.5195
 9287SOL    HW139320   3.897   1.922  14.532  1.4484  0.3372 -0.7216
 9287SOL    HW239321   3.907   1.789  14.607 -0.5525 -0.7874 -1.9153
 9288SOL     OW39322   3.163   3.053   0.612  0.1201 -0.1616 -0.2267
 9288SOL    HW139323   3.216   3.105   0.551 -0.2910  0.8403  0.2722
 9288SOL    HW239324   3.219   2.996   0.664  1.7604 -0.4952 -2.3631
 9289SOL     OW39325   1.311   4.530   7.368 -0.3726 -0.1264 -0.2910
 9289SOL    HW139326   1.230   4.579   7.381 -0.8790 -0.6915 -1.3083
 9289SOL    HW239327   1.372   4.600   7.390  0.0085 -1.2205  2.1723
 9290SOL     OW39328   3.992   0.907   7.996 -0.5018 -0.1472  0.5379
 9290SOL    HW139329   3.939   0.915   8.075 -0.0119  0.1998  0.8325
 9290SOL    HW239330   3.925   0.920   7.930  1.7323  3.7047 -0.9993
 9291SOL     OW39331   0.240   0.115   2.506 -0.4705 -0.1084 -0.1425
 9291SOL    HW139332   0.172   0.176   2.532 -0.4661  0.7779 -2.2309
 9291SOL    HW239333   0.187   0.058   2.451 -0.8123  1.1349 -1.0993
 9292SOL     OW39334   3.322   2.136  13.550 -0.0196  0.6470 -0.0479
 9292SOL    HW139335   3.339   2.196  13.478 -1.9282  1.6187  0.3078
 9292SOL    HW239336   3.377   2.181  13.614 -2.4264  1.8977  1.1495
 9293SOL     OW39337   3.470   4.057   6.961 -0.0133  0.1339 -0.2653
 9293SOL    HW139338   3.422   3.980   6.933 -0.7201  0.7273 -0.6688
 9293SOL    HW239339   3.537   4.021   7.020 -0.6169 -0.8139 -0.1719
 9294SOL     OW39340   0.143   2.265   5.764  0.0617 -0.1550 -0.2975
 9294SOL    HW139341   0.210   2.213   5.808  1.5028  0.8924 -1.2862
 9294SOL    HW239342   0.073   2.276   5.829 -0.9620  0.3139 -1.4879
 9295SOL     OW39343   1.049   3.460   9.539  0.0687 -0.8000  0.5102
 9295SOL    HW139344   0.972   3.516   9.538  1.0247  0.4802 -1.1311
 9295SOL    HW239345   1.027   3.409   9.617  1.3786 -1.0589  0.7107
 9296SOL     OW39346   2.830   3.654   1.680 -0.2849 -0.1432  0.1441
 9296SOL    HW139347   2.775   3.718   1.724 -1.4778  0.6247 -2.4509
 9296SOL    HW239348   2.815   3.578   1.736  0.7110 -1.9910 -2.0820
 9297SOL     OW39349   2.358   3.384   7.649 -1.0703  0.3919 -0.0544
 9297SOL    HW139350   2.373   3.301   7.605 -0.5001  1.2648 -1.5085
 9297SOL    HW239351   2.270   3.365   7.681 -1.5108 -1.2555 -2.2304
 9298SOL     OW39352   1.579   3.008  10.032 -0.2533 -0.2868  0.0049
 9298SOL    HW139353   1.586   3.094  10.075  0.7248  0.6708 -2.0867
 9298SOL    HW239354   1.555   2.955  10.108 -2.6827  0.5062 -0.1879
 9299SOL     OW39355   3.103   1.305   3.859  0.1002 -0.8075  0.1117
 9299SOL    HW139356   3.169   1.265   3.915 -1.2704 -2.1419  0.7982
 9299SOL    HW239357   3.064   1.226   3.821 -2.8373  0.7405 -0.1461
 9300SOL     OW39358   0.689   3.256   5.482  0.2325 -0.3713  0.7405
 9300SOL    HW139359   0.737   3.259   5.565  1.9244 -2.8373 -0.1414
 9300SOL    HW239360   0.721   3.169   5.459  0.3946  0.1178 -0.8716
 9301SOL     OW39361   1.754   2.199   8.264 -0.3732 -0.6420  0.3098
 9301SOL    HW139362   1.753   2.103   8.265 -1.4465 -0.6270  0.4831
 9301SOL    HW239363   1.706   2.220   8.184  3.7222  0.1108 -1.9536
 9302SOL     OW39364   3.679   3.355  10.535  0.0009  0.2482 -0.6537
 9302SOL    HW139365   3.721   3.301  10.603 -1.7539  1.9249  1.7494
 9302SOL    HW239366   3.757   3.394  10.496 -0.0900  2.3473  1.3036
 9303SOL     OW39367   2.811   3.040   3.984 -0.2287 -0.4617  0.2324
 9303SOL    HW139368   2.827   3.037   3.890  3.2104  1.1710  0.7577
 9303SOL    HW239369   2.897   3.026   4.023 -1.8708  0.2309  4.1704
 9304SOL     OW39370   0.515   1.929   7.947  0.3861 -0.7116 -0.0847
 9304SOL    HW139371   0.452   1.990   7.987 -0.4400 -0.6149 -1.5467
 9304SOL    HW239372   0.495   1.957   7.858  1.2842  0.8645  0.2034
 9305SOL     OW39373   3.644   4.640   6.216 -0.0055  0.0544 -0.2774
 9305SOL    HW139374   3.602   4.689   6.145 -2.2465 -1.8531 -0.2826
 9305SOL    HW239375   3.729   4.609   6.184 -0.6251 -1.9631  0.0141
 9306SOL     OW39376   2.726   0.719   8.993 -0.2689  0.0773 -0.0109
 9306SOL    HW139377   2.743   0.692   9.084 -1.3546  0.5576  0.3275
 9306SOL    HW239378   2.794   0.662   8.955 -1.0301 -0.6102 -0.3436
 9307SOL     OW39379   2.851   2.147   5.651  0.2179 -0.3663 -0.1874
 9307SOL    HW139380   2.777   2.201   5.676 -1.0898 -3.2646  2.1411
 9307SOL    HW239381   2.817   2.061   5.629 -1.0749  0.0427  0.2565
 9308SOL     OW39382   0.920   2.440   2.133  0.4621 -0.9068 -0.0543
 9308SOL    HW139383   0.977   2.488   2.193 -0.8483 -0.3055  0.6900
 9308SOL    HW239384   0.844   2.436   2.190 -1.1660 -0.7417 -2.1986
 9309SOL     OW39385   1.019   0.712  17.103 -0.3251 -0.3154 -0.3928
 9309SOL    HW139386   0.951   0.703  17.171  0.6173 -1.3628  0.4185
 9309SOL    HW239387   1.003   0.638  17.045 -0.2641 -0.1517 -0.6164
 9310SOL     OW39388   2.695   1.831   7.115  0.2042 -0.0143  0.7432
 9310SOL    HW139389   2.771   1.889   7.106  0.1207  0.1821  1.3199
 9310SOL    HW239390   2.652   1.839   7.030  0.2449 -0.0859  0.7160
 9311SOL     OW39391   1.264   1.909   2.045 -0.0984  0.7512  0.1175
 9311SOL    HW139392   1.211   1.847   1.994  0.2675  0.3026  0.2840
 9311SOL    HW239393   1.304   1.853   2.111 -0.5166  0.2271 -0.0737
 9312SOL     OW39394   2.454   0.018   5.769 -0.6071  0.6427 -0.4283
 9312SOL    HW139395   2.372   4.717   5.728 -1.0990 -1.1565  1.7099
 9312SOL    HW239396   2.416   0.084   5.827 -6.0399 -1.5036 -1.5378
 9313SOL     OW39397   3.919   1.976   7.736 -0.1341 -0.7957  0.0933
 9313SOL    HW139398   3.861   1.910   7.698 -0.1410 -0.9371  0.3475
 9313SOL    HW239399   3.860   1.997   7.809 -1.5229  1.5784 -1.7143
 9314SOL     OW39400   4.328   4.577  16.181 -0.0691  0.3027  0.1462
 9314SOL    HW139401   4.422   4.565  16.170 -0.2702  1.0358 -2.4042
 9314SOL    HW239402   4.284   4.525  16.113  1.3905  1.2453 -1.5102
 9315SOL     OW39403   0.185   0.271   1.974  0.4686 -0.2507  0.5455
 9315SOL    HW139404   0.229   0.257   1.890  0.0388  0.6082  0.1630
 9315SOL    HW239405   0.212   0.195   2.024  0.2384  1.0266  2.6025
 9316SOL     OW39406   2.056   3.325   6.069  0.4857 -0.1272 -0.3012
 9316SOL    HW139407   1.975   3.283   6.042 -0.6996 -0.3063  3.4416
 9316SOL    HW239408   2.052   3.306   6.163  2.5321  2.5290  0.3450
 9317SOL     OW39409   3.800   1.558  11.216 -0.0094  0.1256  0.3897
 9317SOL    HW139410   3.876   1.556  11.158 -0.7398  1.4877 -0.6394
 9317SOL    HW239411   3.848   1.569  11.298  0.3236  1.3728  0.0290
 9318SOL     OW39412   0.846   0.394   5.267 -0.3655 -0.6549 -0.1715
 9318SOL    HW139413   0.762   0.433   5.290 -0.6837 -0.2460 -2.0029
 9318SOL    HW239414   0.893   0.389   5.350 -2.2965  0.3450  0.9949
 9319SOL     OW39415   3.997   3.270   3.470  0.6506  0.0509  0.0388
 9319SOL    HW139416   3.968   3.218   3.545 -0.1259  0.3114 -0.0855
 9319SOL    HW239417   3.925   3.331   3.458  0.7518  0.1801  0.0928
 9320SOL     OW39418   0.719   1.876   3.777  0.3191  0.5727 -0.0140
 9320SOL    HW139419   0.666   1.910   3.705 -0.9841  1.1179  1.1912
 9320SOL    HW239420   0.650   1.835   3.829  1.2977 -0.8891  0.1292
 9321SOL     OW39421   0.041   3.823  13.372 -0.1568 -0.3175  0.0221
 9321SOL    HW139422   0.119   3.783  13.333  0.4098  0.4489  0.3871
 9321SOL    HW239423   0.008   3.742  13.413 -0.0940  1.3844  3.3927
 9322SOL     OW39424   3.275   3.475  16.054 -0.1619 -0.1451 -0.2682
 9322SOL    HW139425   3.244   3.384  16.051 -2.2772  0.5581  0.6513
 9322SOL    HW239426   3.371   3.470  16.058 -0.3148 -2.3480  0.4991
 9323SOL     OW39427   2.289   3.644  17.608  0.0398 -0.3645  0.2329
 9323SOL    HW139428   2.318   3.570  17.662 -0.5702 -1.2933 -0.7131
 9323SOL    HW239429   2.364   3.704  17.609 -1.2290  1.2481 -1.2681
 9324SOL     OW39430   1.083   2.460   4.504 -0.1330 -0.2231 -0.6682
 9324SOL    HW139431   0.989   2.470   4.522 -0.3515 -1.1094 -1.2983
 9324SOL    HW239432   1.110   2.551   4.516  0.2879 -0.1673 -2.0036
 9325SOL     OW39433   0.118   3.599  10.170  0.9893  0.5694 -0.0673
 9325SOL    HW139434   0.116   3.535  10.242  0.9170 -0.8449 -1.3274
 9325SOL    HW239435   0.097   3.679  10.217  1.2820  0.1024  0.8703
 9326SOL     OW39436   0.202   3.129  16.018 -0.3327  0.1871  0.7456
 9326SOL    HW139437   0.164   3.162  16.100 -1.7793  1.7727 -0.5637
 9326SOL    HW239438   0.184   3.036  16.033  2.0418 -0.3838  0.0379
 9327SOL     OW39439   0.665   1.404   5.846 -0.2622 -0.2893  0.4632
 9327SOL    HW139440   0.621   1.349   5.781 -0.1092  0.4675 -0.2858
 9327SOL    HW239441   0.730   1.444   5.788  0.2309 -0.3283  0.9883
 9328SOL     OW39442   2.251   4.434  16.060  1.0871  0.3630 -0.0453
 9328SOL    HW139443   2.221   4.512  16.107  0.3592  0.6062 -0.9168
 9328SOL    HW239444   2.183   4.371  16.082  1.1736  0.3869  0.3067
 9329SOL     OW39445   1.895   0.531   7.491 -0.3685 -0.0399  0.0794
 9329SOL    HW139446   1.826   0.513   7.555 -0.5452 -1.1340 -0.4207
 9329SOL    HW239447   1.854   0.567   7.412 -0.8359 -2.1884 -0.6643
 9330SOL     OW39448   2.488   2.589  13.991 -0.1885  0.0910  0.4358
 9330SOL    HW139449   2.407   2.628  13.959 -1.2195 -1.7453  0.8025
 9330SOL    HW239450   2.543   2.582  13.913  2.3027  1.7374  2.0250
 9331SOL     OW39451   1.826   2.342   2.794  0.3699 -0.5988  0.3367
 9331SOL    HW139452   1.828   2.269   2.732  0.1761 -2.0622  2.0624
 9331SOL    HW239453   1.899   2.398   2.767  0.3906 -0.8147 -0.0611
 9332SOL     OW39454   2.908   0.247  10.712 -0.1818 -0.3210 -0.5306
 9332SOL    HW139455   2.854   0.319  10.744 -0.5234  0.1138 -2.0706
 9332SOL    HW239456   2.871   0.245  10.624 -0.0395  0.2682 -0.6042
 9333SOL     OW39457   1.329   3.893   8.844  0.0436  0.4414  0.3593
 9333SOL    HW139458   1.302   3.984   8.833 -0.5991  0.1338 -0.6216
 9333SOL    HW239459   1.425   3.900   8.838 -0.0135 -0.6087 -1.8734
 9334SOL     OW39460   3.125   3.236   6.054  0.3055 -0.3639 -0.5107
 9334SOL    HW139461   3.132   3.275   6.141 -0.7875 -1.2269 -0.0381
 9334SOL    HW239462   3.177   3.156   6.067  0.0437 -0.2707  1.0827
 9335SOL     OW39463   0.509   1.284   4.426  0.4919 -0.3004  0.4814
 9335SOL    HW139464   0.440   1.351   4.433 -0.0723 -0.6719 -1.4787
 9335SOL    HW239465   0.490   1.240   4.508 -1.0300 -1.1435 -0.3267
 9336SOL     OW39466   0.018   2.614   2.166  0.0782 -0.3824 -0.1241
 9336SOL    HW139467   4.702   2.685   2.215 -1.5915 -1.8678  0.6183
 9336SOL    HW239468   0.077   2.583   2.235 -2.4532 -4.5873  0.1247
 9337SOL     OW39469   1.731   2.158  17.275 -0.0774  0.0134 -0.3382
 9337SOL    HW139470   1.653   2.104  17.260  0.3276 -0.3443 -1.1651
 9337SOL    HW239471   1.778   2.132  17.196 -0.7947 -0.6686 -0.5432
 9338SOL     OW39472   2.934   1.746   6.350  0.2670  0.4829 -0.6531
 9338SOL    HW139473   2.932   1.651   6.335 -0.5987  0.5071 -0.6860
 9338SOL    HW239474   2.966   1.776   6.265 -2.3995  1.3702 -1.3679
 9339SOL     OW39475   3.135   2.555   2.118 -0.2386  0.2793 -0.0367
 9339SOL    HW139476   3.199   2.625   2.131  0.2118 -0.7654  3.2691
 9339SOL    HW239477   3.057   2.592   2.158  0.1158  1.9567 -0.8955
 9340SOL     OW39478   4.548   0.823   4.899 -0.3411  0.3711  0.4013
 9340SOL    HW139479   4.527   0.741   4.854  0.4964 -0.8727  2.2633
 9340SOL    HW239480   4.600   0.875   4.838 -1.3981 -0.1032 -0.9152
 9341SOL     OW39481   1.779   2.704   4.491 -1.0059 -0.5843 -0.3358
 9341SOL    HW139482   1.783   2.708   4.396  0.1063  2.3418 -0.1874
 9341SOL    HW239483   1.789   2.796   4.516 -0.2676 -0.7426 -0.0602
 9342SOL     OW39484   0.071   0.260   6.249  0.4016 -0.2649 -0.0075
 9342SOL    HW139485   0.129   0.218   6.186 -0.9183  0.6860 -1.8938
 9342SOL    HW239486   0.081   0.352   6.223 -0.4611  0.6513  2.9059
 9343SOL     OW39487   1.898   2.205   7.979 -0.5152  0.1909  0.0967
 9343SOL    HW139488   1.930   2.284   7.934 -0.4173 -0.5598 -1.1778
 9343SOL    HW239489   1.811   2.204   7.939 -0.1711  2.0036 -0.7367
 9344SOL     OW39490   1.482   2.845  15.384  0.1272  0.1462  0.7039
 9344SOL    HW139491   1.479   2.756  15.419  1.4807  0.4366  1.5478
 9344SOL    HW239492   1.394   2.877  15.403 -0.2606 -1.4810  1.6593
 9345SOL     OW39493   2.821   3.381   6.566 -0.4604  0.1569  0.1238
 9345SOL    HW139494   2.761   3.384   6.639  0.7481 -0.9807  1.1535
 9345SOL    HW239495   2.897   3.343   6.610 -1.9388 -0.7390  1.8496
 9346SOL     OW39496   3.117   1.458   1.548 -0.2002  0.1762 -0.1150
 9346SOL    HW139497   3.151   1.391   1.489 -1.0584 -0.2361 -0.1282
 9346SOL    HW239498   3.105   1.528   1.484 -2.3222 -0.5783 -0.5450
 9347SOL     OW39499   3.299   3.394  16.900 -0.0536 -0.4356  0.2495
 9347SOL    HW139500   3.250   3.453  16.957 -1.0307 -0.7453 -0.2636
 9347SOL    HW239501   3.247   3.315  16.912  0.9866 -0.9767  1.1768
 9348SOL     OW39502   0.905   1.295   2.298 -0.2337 -0.0172  0.2656
 9348SOL    HW139503   0.988   1.341   2.285 -1.3359  1.5495 -1.2172
 9348SOL    HW239504   0.848   1.343   2.239 -2.8555 -1.5314  1.5208
 9349SOL     OW39505   2.632   1.257   5.832 -0.1688  0.0797  0.0601
 9349SOL    HW139506   2.677   1.213   5.905 -1.5523 -1.0329  0.2483
 9349SOL    HW239507   2.669   1.230   5.748 -0.3880  1.3601 -0.4432
 9350SOL     OW39508   0.682   0.834   1.990 -0.6449  0.1831 -0.0524
 9350SOL    HW139509   0.689   0.922   2.026 -2.0570  0.1902  0.1638
 9350SOL    HW239510   0.616   0.798   2.048 -1.0233 -2.8643 -2.3552
 9351SOL     OW39511   2.699   0.656   3.599  0.4357 -0.0094 -0.4726
 9351SOL    HW139512   2.704   0.697   3.685  0.7316  0.7967 -0.8713
 9351SOL    HW239513   2.611   0.618   3.595  0.2514  0.1721  1.9868
 9352SOL     OW39514   0.698   3.823   2.607 -0.4004 -0.0681 -0.4617
 9352SOL    HW139515   0.767   3.800   2.670 -2.2007 -0.4724  1.3474
 9352SOL    HW239516   0.625   3.774   2.643 -0.3689  0.9708  1.0144
 9353SOL     OW39517   0.771   3.285   4.531  0.5120  0.2766 -0.4364
 9353SOL    HW139518   0.836   3.237   4.480 -0.6392 -0.2594 -1.3871
 9353SOL    HW239519   0.771   3.367   4.482 -1.8622  0.2158 -0.5534
 9354SOL     OW39520   1.017   0.238   7.540  0.3975 -0.0936 -0.1497
 9354SOL    HW139521   1.028   0.323   7.498  0.6024 -0.2890 -0.4927
 9354SOL    HW239522   0.948   0.198   7.487 -0.0376  1.0691 -0.4609
 9355SOL     OW39523   0.807   0.916   2.379  0.1174 -0.1942 -0.7379
 9355SOL    HW139524   0.714   0.936   2.387  0.1781 -0.0087 -0.4748
 9355SOL    HW239525   0.838   0.955   2.298 -0.2913  0.2097 -0.6992
 9356SOL     OW39526   2.831   3.075  15.294  0.2013 -0.3537  0.2565
 9356SOL    HW139527   2.851   3.156  15.246  0.7519 -0.8021 -0.2741
 9356SOL    HW239528   2.738   3.059  15.276  0.0183  1.9373 -0.7781
 9357SOL     OW39529   4.320   1.909   6.413 -0.2153  0.3606 -0.0202
 9357SOL    HW139530   4.252   1.878   6.353  0.2059 -0.3697 -0.1153
 9357SOL    HW239531   4.392   1.876   6.359 -0.3269  0.6803 -0.3690
 9358SOL     OW39532   0.888   3.173  10.243 -0.1978  0.9334  0.5133
 9358SOL    HW139533   0.974   3.149  10.277 -0.5903 -1.2147 -0.0274
 9358SOL    HW239534   0.838   3.092  10.249 -0.6617  0.8953 -3.5257
 9359SOL     OW39535   4.136   1.065  13.833  0.4448 -0.3085  0.5435
 9359SOL    HW139536   4.194   1.047  13.759 -1.0743  2.8158 -1.4328
 9359SOL    HW239537   4.061   1.018  13.799 -0.6388  0.0524  2.4396
 9360SOL     OW39538   1.921   2.004   8.942 -0.1899  0.3505 -0.4481
 9360SOL    HW139539   1.841   1.953   8.929  0.2115 -0.2755 -0.4985
 9360SOL    HW239540   1.945   1.968   9.028 -1.2511  1.3745  0.2687
 9361SOL     OW39541   3.498   4.399   0.303 -0.0956 -0.2124 -0.4247
 9361SOL    HW139542   3.540   4.482   0.327  0.1422 -0.2637 -0.6630
 9361SOL    HW239543   3.556   4.329   0.334 -1.0380 -0.9553 -0.3493
 9362SOL     OW39544   2.468   3.407  11.606  0.3339 -0.0500 -0.3282
 9362SOL    HW139545   2.417   3.441  11.533  1.8176 -1.0202 -1.8119
 9362SOL    HW239546   2.456   3.313  11.599  2.0668 -0.2928 -0.2043
 9363SOL     OW39547   4.055   3.814   8.001  0.2731 -0.1006 -0.3629
 9363SOL    HW139548   4.115   3.787   7.931  0.8876 -0.1162  0.1724
 9363SOL    HW239549   3.972   3.784   7.963 -1.3699  1.4185  2.0588
 9364SOL     OW39550   0.111   3.997   7.282  0.4861 -0.0208  1.1840
 9364SOL    HW139551   0.148   4.000   7.193 -0.3485  0.5478  0.8610
 9364SOL    HW239552   0.035   3.950   7.248  1.0854 -1.3348  1.6275
 9365SOL     OW39553   3.815   2.006   2.838  0.5467 -0.1634 -0.5720
 9365SOL    HW139554   3.868   1.945   2.786 -0.2327 -0.5635 -0.9021
 9365SOL    HW239555   3.730   1.962   2.839  1.0624 -1.1718 -0.4675
 9366SOL     OW39556   0.350   3.508   8.567  0.2212 -0.6316 -0.5429
 9366SOL    HW139557   0.417   3.452   8.604  0.8185 -0.3394 -1.1843
 9366SOL    HW239558   0.278   3.508   8.631  0.6222 -0.9443 -0.0870
 9367SOL     OW39559   0.506   3.449  12.945  0.2690  0.7471  0.3854
 9367SOL    HW139560   0.434   3.428  12.886  1.5863 -0.7416 -0.6909
 9367SOL    HW239561   0.560   3.489  12.877 -1.7393  1.2758 -0.8991
 9368SOL     OW39562   3.365   1.031   4.329 -0.1843  0.5953  0.0742
 9368SOL    HW139563   3.293   1.089   4.355  0.3482  2.3724 -2.3947
 9368SOL    HW239564   3.322   0.978   4.262  0.5308  0.5691 -0.3714
 9369SOL     OW39565   3.013   1.239  12.541  0.8796  0.0817  0.3326
 9369SOL    HW139566   3.058   1.260  12.459 -0.2473 -0.2462 -0.3673
 9369SOL    HW239567   3.067   1.290  12.602  0.4303  1.7115 -0.6286
 9370SOL     OW39568   1.745   2.233   8.565  0.1870 -0.1909 -0.2131
 9370SOL    HW139569   1.803   2.169   8.605  0.9465  1.3674  1.2028
 9370SOL    HW239570   1.749   2.207   8.473 -1.6628 -2.2068  0.2892
 9371SOL     OW39571   0.561   3.410   4.921 -0.5862 -0.1033 -0.0701
 9371SOL    HW139572   0.491   3.438   4.862 -1.1964 -2.1844 -0.3232
 9371SOL    HW239573   0.603   3.496   4.927  0.2197 -0.4313 -0.8348
 9372SOL     OW39574   1.141   1.901   6.397  0.3075 -0.0290 -0.2645
 9372SOL    HW139575   1.080   1.866   6.332  0.6346 -0.7166 -0.2022
 9372SOL    HW239576   1.141   1.835   6.467  0.4191 -0.6163 -0.8128
 9373SOL     OW39577   4.092   1.302   6.362  0.1899 -0.0040  0.2929
 9373SOL    HW139578   4.119   1.230   6.305 -1.6367 -1.1565  0.9118
 9373SOL    HW239579   4.021   1.267   6.415 -1.6685 -0.1412 -2.2863
 9374SOL     OW39580   3.948   1.219   2.991  0.4650 -0.0336 -0.4203
 9374SOL    HW139581   3.972   1.144   2.936  1.5642 -0.3520  0.4900
 9374SOL    HW239582   4.035   1.260   2.990  1.2064 -1.7012 -3.4229
 9375SOL     OW39583   3.640   0.189   6.621  0.0581 -0.3694  0.2022
 9375SOL    HW139584   3.579   0.187   6.548 -0.2629 -0.7433  0.4810
 9375SOL    HW239585   3.683   0.104   6.610 -3.5308 -2.0137 -0.8948
 9376SOL     OW39586   1.466   1.771  11.882  0.1283 -0.4017 -0.0312
 9376SOL    HW139587   1.410   1.712  11.932  1.5866 -1.6240  0.1645
 9376SOL    HW239588   1.417   1.851  11.862 -2.3060 -1.7377  0.6450
 9377SOL     OW39589   2.529   0.193   5.482 -0.2452  0.1828  0.0136
 9377SOL    HW139590   2.534   0.250   5.559 -4.6065 -0.0015  0.4164
 9377SOL    HW239591   2.489   0.261   5.428 -0.4992 -1.2682 -1.6106
 9378SOL     OW39592   3.628   1.201  11.474  0.4536  0.5947  0.2746
 9378SOL    HW139593   3.707   1.180  11.425 -0.3321 -0.1531 -0.6864
 9378SOL    HW239594   3.560   1.195  11.407  0.4458 -0.4375  0.3744
 9379SOL     OW39595   3.533   3.766   3.363  0.6084  0.2187  0.2617
 9379SOL    HW139596   3.545   3.754   3.269  1.0824  1.5710  0.1537
 9379SOL    HW239597   3.448   3.724   3.380  0.7676 -0.3316 -0.2864
 9380SOL     OW39598   3.990   4.288  16.954 -0.3257 -0.1782  0.5397
 9380SOL    HW139599   3.969   4.242  16.873  0.7207 -1.1260  0.8165
 9380SOL    HW239600   3.917   4.350  16.955  0.6857  1.0111  0.4873
 9381SOL     OW39601   2.860   2.175   8.609  0.2351  1.0140  0.2471
 9381SOL    HW139602   2.908   2.160   8.690 -0.2610 -2.9191 -0.1760
 9381SOL    HW239603   2.768   2.161   8.633  0.0573  1.4789 -0.1395
 9382SOL     OW39604   3.855   3.874   6.861  0.1551 -0.2284 -0.1942
 9382SOL    HW139605   3.779   3.900   6.915 -1.0996 -2.1703 -1.0182
 9382SOL    HW239606   3.838   3.779   6.858 -2.0707  0.1336  0.5623
 9383SOL     OW39607   3.763   4.011   7.489 -0.9549 -0.0395  0.0098
 9383SOL    HW139608   3.687   3.978   7.536  0.6092 -1.4702  1.4902
 9383SOL    HW239609   3.825   4.046   7.553 -1.3070 -1.8136  1.2949
 9384SOL     OW39610   0.603   0.030   7.770  0.4549 -0.2856  0.4897
 9384SOL    HW139611   0.595   0.125   7.773  1.7788 -0.2370  2.4510
 9384SOL    HW239612   0.517   0.004   7.739  0.9590 -0.9940 -0.3113
 9385SOL     OW39613   1.674   3.444   1.507 -0.3108  0.6060  0.3780
 9385SOL    HW139614   1.636   3.505   1.443 -1.9402  1.3686  2.0949
 9385SOL    HW239615   1.769   3.446   1.492 -0.4768  1.1694 -0.6170
 9386SOL     OW39616   1.420   2.449  15.251 -0.8134  0.3922  0.2675
 9386SOL    HW139617   1.384   2.446  15.340 -0.1011 -1.2698  0.4964
 9386SOL    HW239618   1.386   2.535  15.227 -0.6517  0.8820  1.7905
 9387SOL     OW39619   4.090   3.223   5.894  0.2978  0.0233 -0.2587
 9387SOL    HW139620   4.022   3.285   5.920 -0.4424 -1.2408  0.7589
 9387SOL    HW239621   4.084   3.159   5.964 -1.0592  2.0346  1.4469
 9388SOL     OW39622   1.712   1.414   4.860  0.0781  0.7723  0.5809
 9388SOL    HW139623   1.626   1.425   4.820  0.3444 -0.9972 -0.5223
 9388SOL    HW239624   1.750   1.502   4.857  1.7902  0.0658  1.2937
 9389SOL     OW39625   2.216   0.170   7.554  0.6136  0.4976  0.1647
 9389SOL    HW139626   2.296   0.132   7.518  0.9403  0.6225  0.7710
 9389SOL    HW239627   2.258   0.233   7.612  0.0782  2.5213 -1.6181
 9390SOL     OW39628   4.452   4.342   5.706  0.2839 -0.0845  0.3009
 9390SOL    HW139629   4.533   4.381   5.739  0.0206 -0.5160  1.4505
 9390SOL    HW239630   4.405   4.421   5.676 -0.2189 -0.1262  0.9699
 9391SOL     OW39631   2.960   1.212   6.311  0.6060  0.3470  0.0144
 9391SOL    HW139632   2.996   1.126   6.287 -0.6958 -0.1880  0.0034
 9391SOL    HW239633   2.911   1.193   6.391 -0.0902  0.4072 -0.4026
 9392SOL     OW39634   2.081   4.408   8.504 -0.0554 -0.3967  0.4793
 9392SOL    HW139635   2.117   4.327   8.540  1.0604 -0.0882  0.0669
 9392SOL    HW239636   2.084   4.471   8.576 -0.6522  0.5048 -0.2883
 9393SOL     OW39637   1.053   2.450   6.989  0.2619  0.2890  0.0102
 9393SOL    HW139638   1.034   2.448   6.895 -0.0957  0.3736  0.0804
 9393SOL    HW239639   1.147   2.440   6.998  0.1380  1.8208  3.0291
 9394SOL     OW39640   3.066   1.030   1.105  0.5369  0.2736 -0.3511
 9394SOL    HW139641   2.992   1.015   1.163 -0.2279 -0.4276 -1.5324
 9394SOL    HW239642   3.085   1.122   1.125  3.2844 -0.3554  0.0434
 9395SOL     OW39643   0.927   2.116   8.094  0.2529  0.0982  0.2101
 9395SOL    HW139644   0.964   2.147   8.177 -0.0074 -0.8324  0.6834
 9395SOL    HW239645   0.846   2.167   8.092  0.1818  0.0955  2.5899
 9396SOL     OW39646   2.442   1.359   4.008  0.4107  0.6278 -0.4528
 9396SOL    HW139647   2.491   1.306   3.945 -0.9819  0.2537 -1.2376
 9396SOL    HW239648   2.494   1.439   4.007 -2.3891  2.4390  0.7133
 9397SOL     OW39649   4.393   4.046  16.665  0.3648 -0.3233  0.4391
 9397SOL    HW139650   4.348   4.130  16.652 -1.6281 -1.1097  2.4168
 9397SOL    HW239651   4.345   3.994  16.601  1.0457  0.5391 -0.7858
 9398SOL     OW39652   3.527   1.501   6.884 -0.0902 -0.3176 -0.1642
 9398SOL    HW139653   3.491   1.585   6.857  1.0657  0.7981  1.7818
 9398SOL    HW239654   3.465   1.486   6.955 -0.0169 -1.0519 -0.2544
 9399SOL     OW39655   2.489   0.837   5.390  0.0155  0.2650 -0.0999
 9399SOL    HW139656   2.477   0.918   5.440 -0.0775  0.1747  0.0232
 9399SOL    HW239657   2.481   0.861   5.297 -0.1660 -0.2300 -0.2084
 9400SOL     OW39658   1.311   0.657   1.826 -0.0562 -0.2017 -0.4915
 9400SOL    HW139659   1.315   0.716   1.751  0.9526  0.9425  0.4544
 9400SOL    HW239660   1.404   0.639   1.837 -0.1701 -0.6966 -0.3348
 9401SOL     OW39661   1.413   2.736  14.847 -0.1903  0.9917  0.1734
 9401SOL    HW139662   1.356   2.769  14.917  0.2410 -0.1685  1.0766
 9401SOL    HW239663   1.395   2.801  14.779  0.7007 -0.0001 -0.9912
 9402SOL     OW39664   2.456   3.556  10.342  0.3325  0.3952 -0.1887
 9402SOL    HW139665   2.384   3.544  10.404  0.7739  2.6890  0.7314
 9402SOL    HW239666   2.479   3.647  10.356 -0.8009  0.7250 -0.4363
 9403SOL     OW39667   0.598   3.344   3.969  0.3978  0.3772 -0.4595
 9403SOL    HW139668   0.619   3.333   3.876  0.4751 -2.1985 -0.1459
 9403SOL    HW239669   0.670   3.398   4.002  1.3567  0.5143 -2.7314
 9404SOL     OW39670   4.376   3.780   4.704  0.9027  0.9233  0.6510
 9404SOL    HW139671   4.363   3.686   4.694 -1.9216  1.3975 -0.0997
 9404SOL    HW239672   4.336   3.820   4.627  0.1440  0.6653  0.9090
 9405SOL     OW39673   1.432   2.721   5.841 -0.2106  0.4789  0.0178
 9405SOL    HW139674   1.392   2.666   5.907  0.2031 -0.2359 -0.3286
 9405SOL    HW239675   1.517   2.678   5.829  1.6122  4.0997 -0.2253
 9406SOL     OW39676   1.646   2.333  16.859  0.0372  0.1359 -0.4615
 9406SOL    HW139677   1.678   2.407  16.807  1.5474  1.1136  1.8515
 9406SOL    HW239678   1.726   2.281  16.859 -0.1095 -0.0882 -1.4275
 9407SOL     OW39679   4.718   0.535   1.742 -0.3298 -0.3613  0.1625
 9407SOL    HW139680   4.638   0.562   1.695  0.6501  1.8826 -0.2031
 9407SOL    HW239681   0.054   0.593   1.698  0.2756 -0.9891  0.1877
 9408SOL     OW39682   1.681   4.122   4.724 -0.4156  0.0649 -0.7382
 9408SOL    HW139683   1.711   4.184   4.791  1.2276 -3.0871  1.4468
 9408SOL    HW239684   1.753   4.060   4.723 -0.7118 -0.2950 -0.0342
 9409SOL     OW39685   3.993   0.898   4.432  0.3479  0.0905 -0.0460
 9409SOL    HW139686   3.994   0.960   4.505 -0.0373  0.1426 -0.0814
 9409SOL    HW239687   4.083   0.882   4.406  0.5380 -0.8623  1.1986
 9410SOL     OW39688   2.279   1.934  15.160  0.0341  0.0911  0.6265
 9410SOL    HW139689   2.310   1.864  15.218  1.2319 -0.7093 -0.9597
 9410SOL    HW239690   2.270   1.998  15.230 -1.2070  0.7816 -0.1668
 9411SOL     OW39691   3.581   0.639   6.849  0.0078 -0.3452  0.4019
 9411SOL    HW139692   3.609   0.553   6.878  3.7990  0.8923  0.4674
 9411SOL    HW239693   3.654   0.691   6.882  0.9043 -2.2512  1.3721
 9412SOL     OW39694   2.115   2.043   1.338  0.6324 -0.3051 -0.2367
 9412SOL    HW139695   2.082   2.075   1.254  0.7756  2.7238  0.8549
 9412SOL    HW239696   2.205   2.074   1.333  0.5419 -0.0274 -0.1759
 9413SOL     OW39697   2.234   1.908  10.998 -0.3140 -0.4571 -0.0073
 9413SOL    HW139698   2.205   1.969  11.066 -0.9920 -1.0366  0.2234
 9413SOL    HW239699   2.323   1.884  11.024 -0.5379 -1.0696  0.1852
 9414SOL     OW39700   0.414   0.433   0.742  0.1870  0.3025 -0.1164
 9414SOL    HW139701   0.481   0.398   0.683 -2.1968  0.1444 -2.7320
 9414SOL    HW239702   0.473   0.480   0.801  0.1105 -1.9652  1.7867
 9415SOL     OW39703   3.306   3.607   9.307  0.0052 -0.6226  0.2565
 9415SOL    HW139704   3.250   3.683   9.323  0.4660  0.0207 -1.1464
 9415SOL    HW239705   3.343   3.633   9.223 -0.4381  0.0213  0.2572
 9416SOL     OW39706   1.876   1.343  17.612  0.0293 -0.2837 -0.2415
 9416SOL    HW139707   1.876   1.252  17.583 -1.9855  0.3320 -2.1041
 9416SOL    HW239708   1.917   1.328  17.698 -2.5685 -0.0932  1.0349
 9417SOL     OW39709   3.930   3.123   3.697  0.1876 -0.5227 -0.5154
 9417SOL    HW139710   3.998   3.153   3.758 -2.1119  0.4596  1.5495
 9417SOL    HW239711   3.932   3.028   3.710 -1.0195 -0.6762 -1.4582
 9418SOL     OW39712   4.684   2.467  12.878  0.2489 -1.0491  0.1139
 9418SOL    HW139713   4.666   2.479  12.785  3.6823  0.2821 -0.3610
 9418SOL    HW239714   4.698   2.556  12.912  2.3038 -0.3337 -2.6503
 9419SOL     OW39715   0.703   2.763   3.982 -0.5321  0.3802  0.2679
 9419SOL    HW139716   0.735   2.818   3.910 -0.2126  0.3889  0.4167
 9419SOL    HW239717   0.739   2.678   3.956 -0.6482  0.8647 -1.4864
 9420SOL     OW39718   1.505   3.311   2.552  0.2992  0.2408  0.1943
 9420SOL    HW139719   1.591   3.303   2.511 -0.8929 -0.3306 -2.2413
 9420SOL    HW239720   1.462   3.364   2.485 -1.3629  2.8915  3.3471
 9421SOL     OW39721   3.050   0.029   7.088  0.1632  0.6236  0.6418
 9421SOL    HW139722   3.092   4.672   7.062 -1.9689 -0.5384  0.9021
 9421SOL    HW239723   3.119   0.095   7.084  0.9830 -0.2127  0.8253
 9422SOL     OW39724   0.170   3.958   9.283  0.1921  0.9553  0.1070
 9422SOL    HW139725   0.250   3.908   9.269 -0.1765  0.6913 -1.0913
 9422SOL    HW239726   0.150   3.977   9.191 -1.2236  0.0963  0.2413
 9423SOL     OW39727   3.045   1.809  10.404  0.3307 -0.3011  0.0785
 9423SOL    HW139728   3.132   1.847  10.392  0.4181  0.2426  2.6117
 9423SOL    HW239729   3.075   1.720  10.419 -3.1912 -1.6973 -1.0282
 9424SOL     OW39730   2.921   4.188  13.803 -0.4243 -0.6655 -0.2745
 9424SOL    HW139731   2.874   4.181  13.720 -0.4014  1.4122 -0.4762
 9424SOL    HW239732   2.874   4.261  13.843  0.1675 -0.8134  0.6918
 9425SOL     OW39733   2.131   2.470  15.910  0.4462  0.8333 -0.3314
 9425SOL    HW139734   2.179   2.543  15.870  1.0268  0.6763  0.0768
 9425SOL    HW239735   2.192   2.426  15.968  0.9837  2.0214  0.0110
 9426SOL     OW39736   0.014   3.092  16.794 -0.4853 -0.5473  0.4298
 9426SOL    HW139737   4.675   3.160  16.812  0.9307  0.7532  0.5290
 9426SOL    HW239738   4.691   3.010  16.810 -0.6268 -0.3222  1.1789
 9427SOL     OW39739   2.513   1.625   2.454 -0.0107  0.1707 -0.5308
 9427SOL    HW139740   2.533   1.536   2.424 -0.0828  0.3050 -0.9823
 9427SOL    HW239741   2.420   1.613   2.473 -0.3914  1.4160 -1.6009
 9428SOL     OW39742   1.916   0.665   1.409  0.1912 -0.0193 -0.4266
 9428SOL    HW139743   1.854   0.728   1.448  0.2804 -1.1462  1.5127
 9428SOL    HW239744   1.958   0.623   1.484 -1.6165 -3.0517 -1.1444
 9429SOL     OW39745   3.055   2.113  10.047 -0.0410 -0.1169  0.0044
 9429SOL    HW139746   3.068   2.033  10.097 -1.5095 -0.6605 -0.4923
 9429SOL    HW239747   3.135   2.161  10.069  0.4150 -1.6216  1.5896
 9430SOL     OW39748   3.623   3.285  14.338  0.1447 -0.2156  0.6862
 9430SOL    HW139749   3.689   3.248  14.397 -1.6874 -1.6419  1.8617
 9430SOL    HW239750   3.639   3.376  14.360  1.1399 -0.4269  0.8365
 9431SOL     OW39751   3.611   4.433   5.457  0.3762 -0.7953 -0.0604
 9431SOL    HW139752   3.518   4.456   5.452  0.7898  0.5418 -1.1959
 9431SOL    HW239753   3.655   4.514   5.482  1.2916 -0.8882 -1.3889
 9432SOL     OW39754   1.741   4.061   5.121 -0.2514  0.2360 -0.2537
 9432SOL    HW139755   1.812   4.001   5.100 -1.3802 -0.5657 -1.7409
 9432SOL    HW239756   1.754   4.135   5.062  0.0792  1.7502  1.7034
 9433SOL     OW39757   1.839   4.256   4.906  0.4768  0.7804  0.0012
 9433SOL    HW139758   1.823   4.345   4.938 -0.5218  0.6096 -0.0311
 9433SOL    HW239759   1.927   4.264   4.869 -0.3104 -0.9268 -2.2302
 9434SOL     OW39760   4.579   2.316   3.333 -0.2642 -0.0534 -0.1985
 9434SOL    HW139761   4.527   2.366   3.270 -0.0297  0.6836  0.1905
 9434SOL    HW239762   4.517   2.250   3.365  1.4061 -1.7448 -0.4053
 9435SOL     OW39763   4.198   0.966  11.119  0.3399  0.1966  0.2400
 9435SOL    HW139764   4.254   1.042  11.135 -0.2156  0.8104 -0.7865
 9435SOL    HW239765   4.170   0.954  11.210  0.5342 -1.6752  0.0456
 9436SOL     OW39766   4.679   4.375   4.360 -0.1294 -0.4344  0.3231
 9436SOL    HW139767   4.687   4.299   4.303 -1.9560  2.4192 -3.7549
 9436SOL    HW239768   4.601   4.421   4.328 -0.5937 -2.3718 -1.3139
 9437SOL     OW39769   1.477   0.535   4.198  0.0563 -0.1660 -0.7750
 9437SOL    HW139770   1.452   0.444   4.218 -0.6641  0.1238 -0.3766
 9437SOL    HW239771   1.545   0.519   4.132 -0.7589 -2.5369 -1.0603
 9438SOL     OW39772   3.689   1.712  14.608  0.1634 -0.2090  0.9453
 9438SOL    HW139773   3.619   1.711  14.675  1.7311 -0.1056  2.5853
 9438SOL    HW239774   3.754   1.660  14.655  1.3308  0.8675  0.4870
 9439SOL     OW39775   0.713   2.066   9.490 -0.3422  0.7702 -0.0648
 9439SOL    HW139776   0.683   2.123   9.560  1.3636 -1.6396  2.5974
 9439SOL    HW239777   0.637   2.033   9.441 -1.1017  1.8767  0.3748
 9440SOL     OW39778   4.584   1.639   7.778 -0.3116  0.0353 -0.4255
 9440SOL    HW139779   4.670   1.644   7.819  0.6617 -0.8583 -2.3821
 9440SOL    HW239780   4.597   1.688   7.697  1.6628  0.7932  0.3625
 9441SOL     OW39781   0.399   0.596  13.026  0.3747 -0.6315  0.3248
 9441SOL    HW139782   0.426   0.570  13.114  1.7457  1.1484  0.4313
 9441SOL    HW239783   0.305   0.601  13.041  0.3788  0.4779 -0.0157
 9442SOL     OW39784   2.831   2.103  13.341 -0.2291 -0.0730  0.4346
 9442SOL    HW139785   2.796   2.093  13.253 -1.4948  0.2780  0.9043
 9442SOL    HW239786   2.752   2.083  13.392 -0.8158  1.2735  0.0414
 9443SOL     OW39787   0.393   3.582   4.349 -0.2860  0.1084 -0.5466
 9443SOL    HW139788   0.298   3.574   4.340 -0.2092  1.6975 -2.5812
 9443SOL    HW239789   0.423   3.611   4.263  0.2406 -0.8648 -0.6958
 9444SOL     OW39790   2.942   3.727   9.617 -0.0628 -0.3929  0.0528
 9444SOL    HW139791   2.986   3.659   9.567 -1.1560 -1.3426  0.3614
 9444SOL    HW239792   2.870   3.679   9.659 -1.5916  0.1651 -1.9641
 9445SOL     OW39793   4.445   2.567   8.684 -0.2349 -0.5103 -0.0265
 9445SOL    HW139794   4.439   2.638   8.621 -2.6768  1.1155  2.0317
 9445SOL    HW239795   4.409   2.613   8.760  0.8313 -0.4743  0.4575
 9446SOL     OW39796   0.422   0.379   4.334  0.5280 -0.2295 -0.3254
 9446SOL    HW139797   0.413   0.475   4.333 -0.7248 -0.3305  2.2604
 9446SOL    HW239798   0.473   0.362   4.255  0.2181 -1.5787 -0.2286
 9447SOL     OW39799   0.796   2.760   9.111 -0.2142 -0.3260 -0.5493
 9447SOL    HW139800   0.812   2.808   9.029  0.5561  0.7406  0.2266
 9447SOL    HW239801   0.884   2.730   9.132 -0.1883  0.4248  0.3782
 9448SOL     OW39802   2.519   4.457  10.978 -0.0644  0.4123  0.4852
 9448SOL    HW139803   2.443   4.491  10.930 -0.2998 -2.0971 -0.8762
 9448SOL    HW239804   2.580   4.445  10.906 -1.9309 -0.4681 -0.9649
 9449SOL     OW39805   0.641   0.063   3.036  0.2754  0.4884  0.6697
 9449SOL    HW139806   0.684   4.708   3.066  0.3452 -0.2138 -1.3187
 9449SOL    HW239807   0.616   0.113   3.115  0.3581  0.1010  0.9417
 9450SOL     OW39808   1.432   2.947   0.572 -0.5731  0.0501  0.3886
 9450SOL    HW139809   1.447   3.040   0.559  2.4317 -0.1344  2.4503
 9450SOL    HW239810   1.378   2.929   0.496 -0.1915 -0.7684  0.3051
 9451SOL     OW39811   4.420   4.611   3.938  0.0809  0.0525 -0.3074
 9451SOL    HW139812   4.443   4.675   3.870 -1.2904 -0.4156 -1.2266
 9451SOL    HW239813   4.327   4.603   3.918 -0.1431 -2.0025  1.5809
 9452SOL     OW39814   3.361   4.683   6.261 -0.2056 -0.5347  0.1382
 9452SOL    HW139815   3.437   4.633   6.290  0.8223 -0.3096 -2.1967
 9452SOL    HW239816   3.392   4.711   6.175  1.7327 -1.9429  0.3849
 9453SOL     OW39817   4.067   1.518   8.998  0.0544 -0.6487 -0.0771
 9453SOL    HW139818   4.038   1.607   8.977  0.6251  0.0049  1.9290
 9453SOL    HW239819   3.988   1.498   9.047  0.6676 -0.2914  1.0493
 9454SOL     OW39820   2.774   2.425  14.081 -0.1190  0.0799  0.1804
 9454SOL    HW139821   2.810   2.349  14.035 -1.9142  0.4808 -1.8857
 9454SOL    HW239822   2.848   2.467  14.123  0.0023 -0.6838  0.7390
 9455SOL     OW39823   2.233   1.401   1.118  0.6698 -0.2076 -0.5860
 9455SOL    HW139824   2.272   1.320   1.086  1.2681 -0.4332  0.7056
 9455SOL    HW239825   2.142   1.372   1.119  0.0801  1.6428 -0.6534
 9456SOL     OW39826   0.687   2.549  12.823 -0.5138  0.0063  0.2830
 9456SOL    HW139827   0.671   2.499  12.743 -0.2177  0.0855  0.1716
 9456SOL    HW239828   0.764   2.591  12.784  0.4080  1.0815  3.3029
 9457SOL     OW39829   0.353   0.729   8.801 -0.0379 -0.0744  0.5291
 9457SOL    HW139830   0.377   0.640   8.778  0.6275  0.2396  0.0267
 9457SOL    HW239831   0.426   0.780   8.766 -0.4305  1.1620  1.5046
 9458SOL     OW39832   2.780   0.911   5.432  0.3853  0.1632 -0.2627
 9458SOL    HW139833   2.811   0.845   5.494 -0.1279  0.7701  0.6302
 9458SOL    HW239834   2.705   0.875   5.385  0.3437 -0.2164  0.0965
 9459SOL     OW39835   0.408   0.524  13.657  0.4499  0.0984  0.2762
 9459SOL    HW139836   0.372   0.577  13.585  0.8607  2.0126  1.4766
 9459SOL    HW239837   0.364   0.580  13.721  0.4200 -0.8841  1.1062
 9460SOL     OW39838   2.193   0.826  13.600  0.0195 -0.3904 -0.3539
 9460SOL    HW139839   2.145   0.895  13.555 -4.2150 -1.7726  2.0598
 9460SOL    HW239840   2.260   0.807  13.534  3.0174  2.3608  1.9180
 9461SOL     OW39841   0.192   0.653   5.797 -0.2640  0.9158 -0.4209
 9461SOL    HW139842   0.120   0.715   5.809 -1.2187 -0.0893 -0.8919
 9461SOL    HW239843   0.251   0.694   5.734  0.8481 -1.2948 -0.8255
 9462SOL     OW39844   0.444   0.544   2.892 -0.3952 -0.0638  0.0641
 9462SOL    HW139845   0.480   0.549   2.981  0.2720 -2.3656 -0.0625
 9462SOL    HW239846   0.493   0.617   2.855  0.6076 -0.1333  1.2156
 9463SOL     OW39847   1.035   1.304   5.622  0.2797  0.1492 -0.1350
 9463SOL    HW139848   1.007   1.359   5.549 -0.3971  2.4842  1.8765
 9463SOL    HW239849   1.119   1.282   5.581 -0.7936 -1.5556 -1.4094
 9464SOL     OW39850   2.633   2.258   3.582  0.3907 -0.4239 -0.1830
 9464SOL    HW139851   2.614   2.222   3.495 -2.5938 -1.2052  0.7782
 9464SOL    HW239852   2.680   2.182   3.616  0.1766 -1.1839 -1.5806
 9465SOL     OW39853   3.801   2.405   4.090  0.1510  0.1920  0.7459
 9465SOL    HW139854   3.808   2.312   4.111  0.8607  0.3417  1.1733
 9465SOL    HW239855   3.865   2.412   4.019 -0.9828  1.0798 -0.1764
 9466SOL     OW39856   2.309   2.549   6.327  0.5514 -0.1450 -0.0091
 9466SOL    HW139857   2.282   2.474   6.274 -0.0976  0.0247  0.0818
 9466SOL    HW239858   2.319   2.511   6.414 -0.6006 -1.4313 -0.4224
 9467SOL     OW39859   1.965   0.121   8.522 -0.3627 -0.7633  0.1614
 9467SOL    HW139860   1.964   0.186   8.592 -1.8909 -0.6957  0.0853
 9467SOL    HW239861   1.957   0.038   8.570 -0.7600 -1.1681 -0.6019
 9468SOL     OW39862   2.815   3.020   8.970 -0.3198 -0.5430 -0.1513
 9468SOL    HW139863   2.834   2.934   8.932 -0.5055 -0.4484 -0.4531
 9468SOL    HW239864   2.723   3.006   8.994 -0.1642 -2.3457 -0.5703
 9469SOL     OW39865   2.219   1.793  13.713 -0.4327 -0.0472 -0.0621
 9469SOL    HW139866   2.161   1.720  13.737  0.3293 -1.1271 -1.5591
 9469SOL    HW239867   2.159   1.865  13.734 -0.6056  0.0466 -0.8999
 9470SOL     OW39868   3.119   3.871   5.921 -0.0803 -0.0470 -0.4368
 9470SOL    HW139869   3.188   3.894   5.984  1.6256  2.3553 -3.1808
 9470SOL    HW239870   3.156   3.902   5.838 -0.0638  0.5028 -0.2247
 9471SOL     OW39871   2.649   0.079   0.655  0.1396 -0.7836 -0.1074
 9471SOL    HW139872   2.743   0.091   0.659  0.1331 -0.6591 -0.3356
 9471SOL    HW239873   2.630   0.093   0.748  1.1724 -1.6118  0.2209
 9472SOL     OW39874   2.978   0.680   7.609 -0.0620  0.5652 -0.3386
 9472SOL    HW139875   3.011   0.706   7.523 -1.3043  1.6501 -0.4865
 9472SOL    HW239876   3.056   0.695   7.663 -1.2394 -0.9163  1.7806
 9473SOL     OW39877   0.311   3.937   1.624  0.1152  0.0873  0.3779
 9473SOL    HW139878   0.359   3.959   1.544 -0.6361  1.1774  0.2322
 9473SOL    HW239879   0.229   3.984   1.610 -0.4771 -1.2674 -0.6731
 9474SOL     OW39880   3.421   1.337   3.971 -0.3506  0.4497 -0.0053
 9474SOL    HW139881   3.419   1.369   3.881 -0.4989 -1.5735 -0.7308
 9474SOL    HW239882   3.449   1.415   4.018  1.5688 -2.0667  3.0598
 9475SOL     OW39883   0.493   2.479   4.319  0.2619 -0.0497  0.5299
 9475SOL    HW139884   0.421   2.428   4.358 -0.9705  0.9792 -0.4101
 9475SOL    HW239885   0.506   2.551   4.381 -1.0597  0.4990  0.1615
 9476SOL     OW39886   2.151   2.496   4.426  0.3992  0.1304 -0.7471
 9476SOL    HW139887   2.159   2.558   4.499  0.9620 -2.5059  1.4319
 9476SOL    HW239888   2.095   2.551   4.370 -0.5427  0.5023  0.5606
 9477SOL     OW39889   0.154   1.340  12.138 -0.0193  0.0040  0.5947
 9477SOL    HW139890   0.160   1.337  12.234  0.9682 -1.8972  0.4855
 9477SOL    HW239891   0.080   1.399  12.127  0.0146  0.6925  3.9662
 9478SOL     OW39892   3.418   1.212   2.050  0.1487  0.2053 -0.3339
 9478SOL    HW139893   3.428   1.239   1.959 -0.2745  1.0277 -0.1455
 9478SOL    HW239894   3.323   1.221   2.057  0.3187  1.8035 -0.0380
 9479SOL     OW39895   1.177   3.901   2.274 -0.4741  0.3060  0.3534
 9479SOL    HW139896   1.240   3.829   2.266 -0.8110  0.1322 -0.6638
 9479SOL    HW239897   1.194   3.917   2.367 -2.3195  1.1435  0.5456
 9480SOL     OW39898   2.675   3.958  15.869 -0.2939  0.0663 -0.2279
 9480SOL    HW139899   2.595   3.906  15.860  0.1154 -0.2116 -2.2251
 9480SOL    HW239900   2.717   3.928  15.950 -2.1091  3.1198  1.8192
 9481SOL     OW39901   1.292   4.466   8.120  0.3471 -0.2524 -0.0587
 9481SOL    HW139902   1.378   4.424   8.127  0.5568 -0.0576 -1.4463
 9481SOL    HW239903   1.299   4.504   8.033  1.2110 -0.7499 -0.2097
 9482SOL     OW39904   0.818   4.124   1.771  0.2298  0.3670 -0.5471
 9482SOL    HW139905   0.841   4.032   1.757  1.7016  0.9810 -2.1506
 9482SOL    HW239906   0.723   4.111   1.780  0.2515  0.2805 -0.4446
 9483SOL     OW39907   2.734   2.747  10.733  0.0082 -0.1999 -0.2677
 9483SOL    HW139908   2.652   2.784  10.701  0.1685  0.6376  0.3054
 9483SOL    HW239909   2.800   2.814  10.715 -0.5974  0.0272 -1.6750
 9484SOL     OW39910   0.818   4.073   4.674  0.8559 -0.0692  0.0099
 9484SOL    HW139911   0.833   4.166   4.688 -0.1172 -0.1501  1.5839
 9484SOL    HW239912   0.739   4.058   4.725  0.2077  0.7353 -0.7444
 9485SOL     OW39913   2.683   1.627   2.197 -0.6461  0.0806  0.0786
 9485SOL    HW139914   2.666   1.552   2.139 -2.6037 -0.3527  1.1722
 9485SOL    HW239915   2.593   1.651   2.222 -1.0813 -2.2896  0.8413
 9486SOL     OW39916   3.474   3.046   5.354 -0.0368  0.2531  0.2793
 9486SOL    HW139917   3.520   3.013   5.277 -0.2150  1.9746 -0.5801
 9486SOL    HW239918   3.540   3.102   5.395 -1.0550  3.3766 -2.3724
 9487SOL     OW39919   3.673   3.646   4.586 -0.4722  0.2072  0.5442
 9487SOL    HW139920   3.657   3.557   4.553  1.0471  0.0869  0.1128
 9487SOL    HW239921   3.709   3.632   4.673 -0.0138 -2.0124  0.0065
 9488SOL     OW39922   0.349   4.713   7.672  0.5252 -0.0312 -0.1366
 9488SOL    HW139923   0.259   4.682   7.676  0.5098  0.0395  0.0667
 9488SOL    HW239924   0.365   0.021   7.583  1.0526 -1.4655 -0.5682
 9489SOL     OW39925   1.035   2.720   7.320 -0.0789  0.1699  0.0163
 9489SOL    HW139926   0.988   2.763   7.248 -0.8605 -0.6303  0.0548
 9489SOL    HW239927   1.112   2.777   7.325  1.3300 -1.6931 -0.1649
 9490SOL     OW39928   3.437   0.153   2.890 -0.3836  0.2632 -0.1622
 9490SOL    HW139929   3.377   0.228   2.879 -1.6260 -0.5859  0.8409
 9490SOL    HW239930   3.415   0.099   2.814  1.5529  1.3887 -1.5442
 9491SOL     OW39931   4.578   2.216  12.578 -0.2734  0.2939 -0.2665
 9491SOL    HW139932   4.611   2.303  12.555 -0.2846  0.4427  0.2945
 9491SOL    HW239933   4.523   2.230  12.655  0.1210  0.5613 -0.0329
 9492SOL     OW39934   1.921   0.454   5.308  0.0511  0.2604  0.2893
 9492SOL    HW139935   1.936   0.360   5.295  0.5229  0.5206 -0.9831
 9492SOL    HW239936   1.861   0.461   5.382 -1.3222  0.6580 -0.8749
 9493SOL     OW39937   2.593   2.111   9.643  0.2733 -0.2288  0.0849
 9493SOL    HW139938   2.624   2.057   9.716  0.7357  1.2516  0.9888
 9493SOL    HW239939   2.654   2.085   9.574 -1.1389  1.3848 -1.7783
 9494SOL     OW39940   3.631   2.666   4.501  0.1302  0.6426  0.0924
 9494SOL    HW139941   3.641   2.716   4.420  2.5410 -2.2968 -1.4267
 9494SOL    HW239942   3.683   2.589   4.480 -0.3166  0.5088 -0.5441
 9495SOL     OW39943   1.754   2.385   5.167 -0.4539 -0.1086  0.2613
 9495SOL    HW139944   1.694   2.358   5.097 -1.7039  1.2765  0.7849
 9495SOL    HW239945   1.825   2.415   5.111 -1.4354  0.4080 -0.7116
 9496SOL     OW39946   3.094   3.407   0.479  0.0460  0.0102 -0.0110
 9496SOL    HW139947   3.015   3.400   0.424  1.0602  0.7271 -1.5496
 9496SOL    HW239948   3.152   3.337   0.450  1.9114  1.5282  0.0492
 9497SOL     OW39949   0.396   4.108  11.326 -0.0164  0.2366 -0.1124
 9497SOL    HW139950   0.352   4.189  11.352  0.8944  0.5017  0.6056
 9497SOL    HW239951   0.382   4.051  11.401 -1.3965 -1.3046 -1.5394
 9498SOL     OW39952   1.509   2.165   3.337 -0.5201 -0.7326 -0.5154
 9498SOL    HW139953   1.417   2.190   3.340  0.1550  1.5878  0.8937
 9498SOL    HW239954   1.520   2.134   3.427  1.1997 -1.6006 -1.0121
 9499SOL     OW39955   0.663   2.214   7.602  0.1850 -0.0574 -0.1531
 9499SOL    HW139956   0.748   2.215   7.646  0.3370 -0.0479 -0.4450
 9499SOL    HW239957   0.699   2.216   7.513  0.0174 -1.0676 -0.2487
 9500SOL     OW39958   4.042   4.543   3.983  0.5221 -0.3489  0.0808
 9500SOL    HW139959   4.059   4.449   3.977 -0.6354 -0.5713  0.3417
 9500SOL    HW239960   4.063   4.570   3.894  0.6934  0.5716  0.4016
 9501SOL     OW39961   0.156   4.362  15.516  0.1659 -0.2423  0.1360
 9501SOL    HW139962   0.169   4.300  15.443  2.2740  1.4084 -0.8741
 9501SOL    HW239963   0.190   4.311  15.590 -1.6385 -1.0136  0.4529
 9502SOL     OW39964   3.336   4.235   3.382 -0.0393 -0.2167  0.0744
 9502SOL    HW139965   3.307   4.145   3.372  1.7785 -0.9843  1.6464
 9502SOL    HW239966   3.362   4.252   3.292 -0.1465  1.5848  0.3712
 9503SOL     OW39967   2.576   0.938  16.525 -0.4396  0.1335  0.0249
 9503SOL    HW139968   2.516   1.008  16.550 -0.4058 -0.0320  0.5720
 9503SOL    HW239969   2.578   0.875  16.597 -2.6162 -0.9091 -0.8410
 9504SOL     OW39970   2.875   0.203   5.480  1.0211 -0.4983  0.1082
 9504SOL    HW139971   2.959   0.204   5.525  1.3436  0.4606 -0.5139
 9504SOL    HW239972   2.817   0.183   5.553 -0.9713 -4.1216 -2.5000
 9505SOL     OW39973   3.394   0.436   5.403  0.0990 -0.4527  0.4537
 9505SOL    HW139974   3.483   0.454   5.434 -0.2981  2.7394 -0.2810
 9505SOL    HW239975   3.400   0.479   5.318  1.3498  0.0410  0.7839
 9506SOL     OW39976   1.549   1.251   8.711  0.5218  0.4343  0.3499
 9506SOL    HW139977   1.493   1.224   8.784 -2.0709  1.0892 -1.3761
 9506SOL    HW239978   1.562   1.343   8.736 -0.0536  1.4073 -2.9029
 9507SOL     OW39979   2.005   1.401   7.076 -0.0306  0.1775  0.5027
 9507SOL    HW139980   2.052   1.484   7.070  0.3285 -0.0115  0.6948
 9507SOL    HW239981   1.996   1.403   7.171  0.1440  1.7190  0.4803
 9508SOL     OW39982   4.702   0.286  16.104 -0.2425  0.0589 -0.0628
 9508SOL    HW139983   4.631   0.332  16.149 -1.0489 -0.0193 -1.2524
 9508SOL    HW239984   4.705   0.213  16.166 -0.7042  1.4004  1.5503
 9509SOL     OW39985   2.051   2.133   2.068 -0.0456  0.5865 -0.2041
 9509SOL    HW139986   2.041   2.059   2.129  1.7368  1.6026  1.3197
 9509SOL    HW239987   2.146   2.143   2.060 -0.2521  1.2185 -1.7398
 9510SOL     OW39988   3.571   1.054   3.855 -0.3653  0.3336  0.1495
 9510SOL    HW139989   3.478   1.030   3.848 -0.2410 -0.1051  0.0002
 9510SOL    HW239990   3.586   1.042   3.949  0.1334 -0.5866 -0.0437
 9511SOL     OW39991   0.441   1.878  17.258 -0.3159 -0.1600  0.2070
 9511SOL    HW139992   0.453   1.799  17.205 -0.8840 -0.1062  0.0022
 9511SOL    HW239993   0.446   1.942  17.187  0.9984 -0.5119 -0.0263
 9512SOL     OW39994   4.711   1.440   5.008  0.3216 -0.3418 -0.5266
 9512SOL    HW139995   4.690   1.466   4.918 -1.3734 -1.3623 -0.4241
 9512SOL    HW239996   0.034   1.360   4.986 -1.6099 -1.6633  0.0676
 9513SOL     OW39997   1.072   1.655  13.786 -0.3003  0.5623  0.1036
 9513SOL    HW139998   0.982   1.673  13.758 -0.5579  0.0251  0.5779
 9513SOL    HW239999   1.075   1.559  13.783 -0.7288  0.5953 -1.8182
 9514SOL     OW40000   2.062   3.904   5.331  0.1400 -0.4533  0.1452
 9514SOL    HW140001   2.147   3.870   5.303  0.0788 -0.2362 -0.2985
 9514SOL    HW240002   2.012   3.872   5.256  0.2184 -0.1055 -0.0508
 9515SOL     OW40003   3.366   2.883  15.797  0.2446  0.6256 -0.5461
 9515SOL    HW140004   3.352   2.933  15.878 -2.3647 -0.5432 -0.3063
 9515SOL    HW240005   3.383   2.947  15.728 -0.7650  1.0542 -0.3948
 9516SOL     OW40006   3.606   1.357   3.509 -0.2986 -0.5832 -0.0190
 9516SOL    HW140007   3.654   1.275   3.521  2.6482  1.0610 -0.4618
 9516SOL    HW240008   3.674   1.416   3.475 -3.5522  1.9003 -2.1555
 9517SOL     OW40009   2.535   3.187  15.739  0.5266  0.2147 -0.5794
 9517SOL    HW140010   2.571   3.122  15.801  0.4438  2.2792  1.6430
 9517SOL    HW240011   2.591   3.168  15.664 -3.2117 -0.3709 -3.1693
 9518SOL     OW40012   0.635   3.149  11.532 -0.3642 -0.4389  0.4191
 9518SOL    HW140013   0.674   3.081  11.588 -1.6870 -0.7055  1.0301
 9518SOL    HW240014   0.540   3.137  11.533 -0.5621  1.2130  1.0628
 9519SOL     OW40015   3.960   4.143   8.884 -0.5149  0.4897 -0.0132
 9519SOL    HW140016   3.989   4.107   8.800 -0.6852  1.1357 -0.3493
 9519SOL    HW240017   3.870   4.165   8.861  0.0477  2.7250 -0.0476
 9520SOL     OW40018   3.542   0.068   1.294 -0.2424  0.4988 -0.1465
 9520SOL    HW140019   3.464   0.123   1.284 -0.2551  0.9155  2.0932
 9520SOL    HW240020   3.539   0.010   1.219 -1.3920 -1.1298  1.1564
 9521SOL     OW40021   1.827   1.877   2.408  0.3368 -0.7344 -0.3974
 9521SOL    HW140022   1.877   1.920   2.477  0.7040 -0.1483 -1.0288
 9521SOL    HW240023   1.767   1.944   2.375 -0.8486 -0.4282  2.4418
 9522SOL     OW40024   3.665   1.027   4.974 -0.0637 -0.7388  0.0798
 9522SOL    HW140025   3.695   0.943   4.940  1.2153  0.0810 -0.7922
 9522SOL    HW240026   3.723   1.036   5.049  1.1983  0.5579 -1.0578
 9523SOL     OW40027   0.658   1.400   2.541 -0.5741  0.3602  0.1451
 9523SOL    HW140028   0.675   1.442   2.457 -1.4642 -2.7338 -1.5488
 9523SOL    HW240029   0.565   1.377   2.550 -1.2542  2.4671 -1.5526
 9524SOL     OW40030   1.083   0.398   7.731  0.2048 -0.0940 -0.0928
 9524SOL    HW140031   1.017   0.372   7.795 -0.5963  0.3730 -0.7358
 9524SOL    HW240032   1.065   0.327   7.669 -2.5647  0.7159 -0.2028
 9525SOL     OW40033   3.706   2.857   3.342 -0.0194 -0.0037  0.1889
 9525SOL    HW140034   3.748   2.799   3.279 -2.6546 -0.6722 -0.9680
 9525SOL    HW240035   3.631   2.803   3.369 -1.4503  1.4294 -0.9616
 9526SOL     OW40036   0.558   3.821   0.961 -0.6061  0.3243  0.6685
 9526SOL    HW140037   0.547   3.735   0.920  1.0335  0.3941  0.0733
 9526SOL    HW240038   0.647   3.847   0.939 -0.0427 -1.9250  0.2175
 9527SOL     OW40039   2.656   2.617   1.503 -0.0105  0.1543 -0.6796
 9527SOL    HW140040   2.747   2.590   1.495 -0.3254 -1.7166  2.1145
 9527SOL    HW240041   2.655   2.685   1.571 -0.5821 -0.4648 -0.0748
 9528SOL     OW40042   3.909   1.931  11.666 -0.3529  0.6785  0.0419
 9528SOL    HW140043   3.967   1.958  11.594 -0.6580  0.7974 -0.1580
 9528SOL    HW240044   3.838   1.990  11.643 -1.4638 -0.8994 -0.5624
 9529SOL     OW40045   4.052   3.071   7.637 -0.1105  0.3031  0.8661
 9529SOL    HW140046   4.089   2.988   7.666  0.7022 -0.1296 -1.3751
 9529SOL    HW240047   4.128   3.125   7.660  1.4131 -1.6038  0.3206
 9530SOL     OW40048   0.212   0.278   4.207  0.0412 -0.0747  0.4114
 9530SOL    HW140049   0.164   0.361   4.213 -0.8770 -0.5220 -0.9391
 9530SOL    HW240050   0.288   0.301   4.260  0.1987 -1.4867  0.7945
 9531SOL     OW40051   4.164   2.212  13.403  0.6863 -0.3678  0.2141
 9531SOL    HW140052   4.144   2.247  13.316  1.8164 -1.3141 -0.4420
 9531SOL    HW240053   4.178   2.120  13.379  2.0657 -0.0014 -0.4288
 9532SOL     OW40054   0.962   1.982  10.132  0.1429  0.4349  0.3317
 9532SOL    HW140055   0.961   2.029  10.049  2.2818  1.7104  1.0235
 9532SOL    HW240056   0.892   1.916  10.129  0.7334 -0.1729 -0.1076
 9533SOL     OW40057   1.901   4.466   3.707  0.0463  0.2352 -0.2342
 9533SOL    HW140058   1.940   4.418   3.780  0.6655 -1.5136 -1.7148
 9533SOL    HW240059   1.887   4.556   3.737  0.5928 -0.9488  3.5170
 9534SOL     OW40060   2.200   0.834   4.649  0.4742 -0.0255  0.6548
 9534SOL    HW140061   2.167   0.884   4.574  1.9320 -0.4519 -0.2767
 9534SOL    HW240062   2.144   0.757   4.649 -1.4145  1.3458 -1.3622
 9535SOL     OW40063   1.254   3.968   1.489  0.3209 -0.1769 -0.1915
 9535SOL    HW140064   1.330   3.920   1.521  1.3319  2.7482  1.7754
 9535SOL    HW240065   1.288   4.047   1.446 -2.4264  0.5171 -1.0477
 9536SOL     OW40066   0.211   4.266   3.631  0.3666  0.1092 -0.1056
 9536SOL    HW140067   0.235   4.182   3.670  1.0767  1.4590  2.3531
 9536SOL    HW240068   0.278   4.322   3.671 -1.0081  2.4745 -1.0783
 9537SOL     OW40069   2.338   0.846  15.475 -0.6941  0.3813 -0.4088
 9537SOL    HW140070   2.312   0.786  15.405  1.8829 -0.8409 -0.3169
 9537SOL    HW240071   2.272   0.809  15.534 -1.5284  1.4661 -0.6656
 9538SOL     OW40072   4.520   3.029   6.598 -0.1855  0.4340  0.1240
 9538SOL    HW140073   4.546   3.121   6.589  0.6951  0.1745  0.0742
 9538SOL    HW240074   4.588   2.988   6.544 -0.9519  0.2475 -0.7099
 9539SOL     OW40075   0.496   0.795   5.689  0.4041  0.2371  0.6315
 9539SOL    HW140076   0.539   0.752   5.763  0.3500  0.7267  0.9512
 9539SOL    HW240077   0.534   0.880   5.668 -0.3359  0.0089 -1.6294
 9540SOL     OW40078   4.561   0.452   0.122 -0.3676  0.0162 -0.0737
 9540SOL    HW140079   4.622   0.423   0.055  0.3921 -4.0141  2.3656
 9540SOL    HW240080   4.597   0.408   0.199 -0.2817 -0.0993 -0.1807
 9541SOL     OW40081   0.626   2.296   9.677  0.0390  0.2768 -0.3015
 9541SOL    HW140082   0.613   2.361   9.608 -0.7353  1.3581  0.8716
 9541SOL    HW240083   0.537   2.259   9.672  1.4505 -3.2635  0.8150
 9542SOL     OW40084   2.035   3.274   4.633 -0.0072  0.3474 -0.0328
 9542SOL    HW140085   1.983   3.326   4.695 -0.0478  0.3566 -0.0748
 9542SOL    HW240086   2.096   3.222   4.686 -0.3690  1.5250  1.5594
 9543SOL     OW40087   3.035   2.342   5.160  0.1995  0.0651  0.1163
 9543SOL    HW140088   3.074   2.389   5.086 -0.1526  1.7473  0.9955
 9543SOL    HW240089   3.094   2.356   5.235 -0.0644 -3.8207  1.0529
 9544SOL     OW40090   2.669   0.664   2.767 -0.2249  0.1185  0.3987
 9544SOL    HW140091   2.604   0.672   2.698 -0.1200 -1.5525  0.1058
 9544SOL    HW240092   2.710   0.751   2.761 -1.4044  0.5360 -1.6492
 9545SOL     OW40093   4.492   3.905   5.511  0.2483  0.1648  0.0613
 9545SOL    HW140094   4.433   3.857   5.454  3.2151 -0.4434 -2.4915
 9545SOL    HW240095   4.491   3.996   5.481  0.1585 -0.6004 -2.2761
 9546SOL     OW40096   3.319   2.946   5.837  0.3053 -1.0453 -0.0658
 9546SOL    HW140097   3.384   2.876   5.830  3.1869  1.7527 -1.0504
 9546SOL    HW240098   3.302   2.967   5.929 -0.8728  0.3239 -0.5943
 9547SOL     OW40099   4.186   1.288   4.020 -0.1902  0.4029  0.0394
 9547SOL    HW140100   4.112   1.307   3.963 -0.5348 -3.3250 -0.7632
 9547SOL    HW240101   4.164   1.202   4.057  1.1496 -0.1065 -0.3278
 9548SOL     OW40102   3.162   3.335   6.319  0.2411 -0.8076 -0.0914
 9548SOL    HW140103   3.072   3.355   6.293  0.7090  3.4462  1.5001
 9548SOL    HW240104   3.195   3.420   6.349 -1.0105 -0.8563  1.3973
 9549SOL     OW40105   0.039   0.652   8.625 -0.3158 -0.1383  0.7325
 9549SOL    HW140106   0.033   0.711   8.700  0.3036 -1.0009  1.4615
 9549SOL    HW240107   0.036   0.720   8.558  1.6620  0.6867  1.5044
 9550SOL     OW40108   2.522   2.092  12.759  0.4032  0.0578 -0.3732
 9550SOL    HW140109   2.442   2.124  12.718 -0.7490 -1.9449  0.3298
 9550SOL    HW240110   2.507   2.128  12.846  2.2601 -0.5746  0.2228
 9551SOL     OW40111   3.332   0.783   2.652  0.3105  0.3062 -0.3389
 9551SOL    HW140112   3.395   0.814   2.718  1.3264 -0.5853 -0.8872
 9551SOL    HW240113   3.252   0.789   2.704  1.2350 -0.7481  1.2099
 9552SOL     OW40114   0.206   3.087  16.422 -0.1686 -0.5686  0.4485
 9552SOL    HW140115   0.152   3.009  16.432 -0.0873 -0.6336  0.3738
 9552SOL    HW240116   0.143   3.140  16.373 -0.5983 -0.0591  1.5540
 9553SOL     OW40117   2.415   2.753   8.663  0.1633 -0.4964  0.6876
 9553SOL    HW140118   2.331   2.738   8.620  0.6294  0.3633 -0.5447
 9553SOL    HW240119   2.461   2.804   8.596 -1.1811 -0.5121 -0.2494
 9554SOL     OW40120   3.708   2.199  14.776 -0.0935 -0.2697 -0.2186
 9554SOL    HW140121   3.725   2.150  14.695 -1.6302 -0.6842 -0.2832
 9554SOL    HW240122   3.668   2.278  14.738 -0.9142 -0.5111  0.1584
 9555SOL     OW40123   4.127   0.747   8.721  0.3327 -0.4518  0.4774
 9555SOL    HW140124   4.151   0.663   8.762 -2.6267 -2.1337 -1.2058
 9555SOL    HW240125   4.033   0.745   8.738  0.1752 -1.5211 -0.4603
 9556SOL     OW40126   2.330   2.967   1.925 -0.4434 -0.8805  0.3921
 9556SOL    HW140127   2.356   2.907   1.855  0.6837  0.2422 -0.1603
 9556SOL    HW240128   2.264   2.922   1.977 -0.4005 -0.4616  0.8130
 9557SOL     OW40129   3.562   1.781   6.461  0.3500 -0.1565  0.2298
 9557SOL    HW140130   3.634   1.719   6.469 -0.1451 -0.7404  0.1950
 9557SOL    HW240131   3.591   1.858   6.510 -3.6505  2.0366 -0.8580
 9558SOL     OW40132   3.973   4.550   6.267  0.1381 -0.7250  0.6054
 9558SOL    HW140133   4.005   4.625   6.316  0.9420 -1.9340  1.9469
 9558SOL    HW240134   3.984   4.476   6.328  2.7313 -0.6327  0.2130
 9559SOL     OW40135   2.478   4.678   6.351  0.3517  0.1724 -0.2082
 9559SOL    HW140136   2.558   4.725   6.330  0.2992 -0.0733 -0.9520
 9559SOL    HW240137   2.472   4.687   6.446 -1.4866 -0.3821 -0.2610
 9560SOL     OW40138   4.569   2.565   9.399  0.0731  0.2454 -0.5330
 9560SOL    HW140139   4.499   2.505   9.425  0.6226 -0.1774 -0.0146
 9560SOL    HW240140   4.627   2.548   9.474  0.9649 -0.2100 -1.3245
 9561SOL     OW40141   3.956   4.247   5.742 -0.1397  0.4214 -0.2343
 9561SOL    HW140142   3.924   4.338   5.743 -2.4509 -0.3907 -1.5952
 9561SOL    HW240143   4.035   4.263   5.691  0.4490 -0.0714  0.5320
 9562SOL     OW40144   1.293   1.403   7.650 -0.1282 -0.1702  0.8144
 9562SOL    HW140145   1.241   1.360   7.583  0.8035 -1.4497  0.9025
 9562SOL    HW240146   1.332   1.326   7.692 -2.0260 -0.7540  1.5167
 9563SOL     OW40147   3.516   3.367   9.403  0.1874 -0.1680 -0.4971
 9563SOL    HW140148   3.480   3.279   9.398 -0.7444  0.1934 -0.1320
 9563SOL    HW240149   3.489   3.397   9.490  0.2213 -1.1632 -0.1501
 9564SOL     OW40150   1.112   2.734  14.093 -0.4861  0.2791  1.0316
 9564SOL    HW140151   1.155   2.652  14.069 -0.7264  0.4005  0.1833
 9564SOL    HW240152   1.159   2.796  14.037 -0.2059  0.0566  1.0252
 9565SOL     OW40153   1.229   3.540   3.746 -0.1858 -0.6921 -0.0346
 9565SOL    HW140154   1.215   3.626   3.785  1.8851 -1.0021  1.4016
 9565SOL    HW240155   1.169   3.534   3.672 -0.3207 -0.0719  0.0232
   4.72538   4.72538  17.70284
